                         Program Version 4.2.0 -  RELEASE  -
|  1> # ORCA input file
|  2> # SCF done       -198.329911011222          0.000451062343
|  3> ! CAM-B3LYP def2-SVP def2/J RIJCOSX Grid4 TightSCF
|  4> %maxcore 5000
|  5> %tddft
|  6>     Mode sTDDFT
|  7>     Ethresh 5.0
|  8>     maxcore 5000
|  9> end
| 10>
| 11> %pal
| 12>   nprocs 6
| 13>   end
| 14> * xyz 0 1
| 15>    C        3.24183        -4.03800        -7.63497
| 16>    C        2.65301        -3.37865        -8.71514
| 17>    C        2.88361        -4.01094       -10.06201
| 18>    O        3.16450        -5.17419       -10.14782
| 19>    O        2.78455        -3.24894       -11.15241
| 20>    C        1.86057        -2.23871        -8.49278
| 21>    C        1.24039        -1.51987        -9.54119
| 22>    N        0.73239        -0.89470       -10.35893
| 23>    C        1.63062        -1.77100        -7.19114
| 24>    C        2.20940        -2.44346        -6.14015
| 25>    C        3.03094        -3.56722        -6.35281
| 26>    C        3.53117        -4.02390        -5.05725
| 27>    C        4.68573        -4.73643        -4.86235
| 28>    C        5.41200        -5.36969        -5.88919
| 29>    N        6.02673        -5.93278        -6.67807
| 30>    C        5.31573        -4.82817        -3.60235
| 31>    N        5.88949        -4.85794        -2.60876
| 32>    C        2.77587        -3.32989        -4.04150
| 33>    C        2.07397        -2.19560        -4.67924
| 34>    O        1.46947        -1.29697        -4.14228
| 35>    C        2.52161        -3.65253        -2.73520
| 36>    C        2.67622        -4.89128        -2.09823
| 37>    C        2.49939        -5.12287        -0.73052
| 38>    O        2.25624        -4.15163         0.17090
| 39>    C        2.47041        -4.58562         1.50572
| 40>    C        1.87224        -5.97731         1.76170
| 41>    C        0.35676        -5.98421         1.58327
| 42>    O        2.49015        -6.93169         0.89833
| 43>    C        2.62504        -6.47215        -0.36840
| 44>    C        2.89025        -7.30267        -1.44675
| 45>    S        2.97898        -6.40784        -2.92523
| 46>    C        3.06761        -8.69757        -1.41685
| 47>    C        3.42424        -9.49620        -2.49185
| 48>    O        3.63639        -8.99548        -3.73198
| 49>    C        3.70342       -10.01432        -4.71557
| 50>    C        4.55417       -11.19691        -4.23229
| 51>    C        5.99682       -10.77210        -3.96932
| 52>    O        3.96950       -11.77741        -3.06616
| 53>    C        3.54710       -10.86089        -2.16961
| 54>    C        3.23618       -11.12334        -0.83966
| 55>    S        2.85324        -9.64716         0.01715
| 56>    C        3.15611       -12.35302        -0.14572
| 57>    C        3.09456       -13.65472        -0.62369
| 58>    O        3.09361       -13.99742        -1.93545
| 59>    C        2.59967       -15.30836        -2.14010
| 60>    C        3.24152       -16.30539        -1.16674
| 61>    C        4.75489       -16.37618        -1.35190
| 62>    O        2.91263       -15.93890         0.17310
| 63>    C        2.97164       -14.61497         0.39955
| 64>    C        2.85825       -14.06881         1.67863
| 65>    S        3.03542       -12.33114         1.58818
| 66>    C        2.70802       -14.79406         2.86852
| 67>    C        2.34778       -14.31797         4.10068
| 68>    C        2.69817       -15.06016         5.33303
| 69>    O        3.10714       -16.19393         5.42015
| 70>    C        2.49027       -14.08642         6.43831
| 71>    C        1.95795       -12.89481         5.91260
| 72>    C        1.72425       -11.81205         6.74253
| 73>    C        2.00172       -11.92988         8.10293
| 74>    C        2.51703       -13.12906         8.62185
| 75>    C        2.76549       -14.22003         7.78124
| 76>    C        2.77268       -13.28697        10.00780
| 77>    N        2.97517       -13.52360        11.10975
| 78>    C        1.81630       -10.76744         9.03437
| 79>    O        2.51532       -10.59565         9.99122
| 80>    O        0.82611        -9.91770         8.73139
| 81>    C        1.71083       -13.08312         4.48374
| 82>    C        0.78173       -12.38027         3.75583
| 83>    C        0.29997       -12.80462         2.50022
| 84>    N       -0.16462       -13.15645         1.51101
| 85>    C        0.13046       -11.23348         4.24417
| 86>    N       -0.40247       -10.28920         4.62395
| 87>    H        3.83330        -4.91778        -7.83668
| 88>    H        2.50219        -2.33502       -10.99842
| 89>    H        1.00720        -0.90629        -7.02039
| 90>    H        2.04791        -2.88105        -2.13667
| 91>    H        2.00033        -3.83751         2.14411
| 92>    H        3.54951        -4.61325         1.70429
| 93>    H        2.13642        -6.30589         2.77115
| 94>    H        0.08224        -5.60534         0.60074
| 95>    H       -0.10626        -5.36034         2.34201
| 96>    H       -0.01661        -7.00002         1.68455
| 97>    H        4.14169        -9.55210        -5.60014
| 98>    H        2.68888       -10.36507        -4.94597
| 99>    H        4.52355       -11.99649        -4.97862
|100>    H        6.03184        -9.93131        -3.27959
|101>    H        6.46818       -10.47631        -4.90191
|102>    H        6.55073       -11.60194        -3.53813
|103>    H        2.83940       -15.56184        -3.17272
|104>    H        1.51025       -15.31805        -2.00001
|105>    H        2.79357       -17.29482        -1.30022
|106>    H        5.19169       -15.38052        -1.30834
|107>    H        4.98685       -16.81916        -2.31596
|108>    H        5.19253       -16.98710        -0.56653
|109>    H        2.97744       -15.84381         2.81491
|110>    H        1.37766       -10.87495         6.33243
|111>    H        3.16380       -15.14210         8.17645
|112>    H        0.30963       -10.17102         7.95343
|113> *
|114>
|115>                          ****END OF INPUT****

CARTESIAN COORDINATES (ANGSTROEM)
---------------------------------
  C      3.241830   -4.038000   -7.634970
  C      2.653010   -3.378650   -8.715140
  C      2.883610   -4.010940  -10.062010
  O      3.164500   -5.174190  -10.147820
  O      2.784550   -3.248940  -11.152410
  C      1.860570   -2.238710   -8.492780
  C      1.240390   -1.519870   -9.541190
  N      0.732390   -0.894700  -10.358930
  C      1.630620   -1.771000   -7.191140
  C      2.209400   -2.443460   -6.140150
  C      3.030940   -3.567220   -6.352810
  C      3.531170   -4.023900   -5.057250
  C      4.685730   -4.736430   -4.862350
  C      5.412000   -5.369690   -5.889190
  N      6.026730   -5.932780   -6.678070
  C      5.315730   -4.828170   -3.602350
  N      5.889490   -4.857940   -2.608760
  C      2.775870   -3.329890   -4.041500
  C      2.073970   -2.195600   -4.679240
  O      1.469470   -1.296970   -4.142280
  C      2.521610   -3.652530   -2.735200
  C      2.676220   -4.891280   -2.098230
  C      2.499390   -5.122870   -0.730520
  O      2.256240   -4.151630    0.170900
  C      2.470410   -4.585620    1.505720
  C      1.872240   -5.977310    1.761700
  C      0.356760   -5.984210    1.583270
  O      2.490150   -6.931690    0.898330
  C      2.625040   -6.472150   -0.368400
  C      2.890250   -7.302670   -1.446750
  S      2.978980   -6.407840   -2.925230
  C      3.067610   -8.697570   -1.416850
  C      3.424240   -9.496200   -2.491850
  O      3.636390   -8.995480   -3.731980
  C      3.703420  -10.014320   -4.715570
  C      4.554170  -11.196910   -4.232290
  C      5.996820  -10.772100   -3.969320
  O      3.969500  -11.777410   -3.066160
  C      3.547100  -10.860890   -2.169610
  C      3.236180  -11.123340   -0.839660
  S      2.853240   -9.647160    0.017150
  C      3.156110  -12.353020   -0.145720
  C      3.094560  -13.654720   -0.623690
  O      3.093610  -13.997420   -1.935450
  C      2.599670  -15.308360   -2.140100
  C      3.241520  -16.305390   -1.166740
  C      4.754890  -16.376180   -1.351900
  O      2.912630  -15.938900    0.173100
  C      2.971640  -14.614970    0.399550
  C      2.858250  -14.068810    1.678630
  S      3.035420  -12.331140    1.588180
  C      2.708020  -14.794060    2.868520
  C      2.347780  -14.317970    4.100680
  C      2.698170  -15.060160    5.333030
  O      3.107140  -16.193930    5.420150
  C      2.490270  -14.086420    6.438310
  C      1.957950  -12.894810    5.912600
  C      1.724250  -11.812050    6.742530
  C      2.001720  -11.929880    8.102930
  C      2.517030  -13.129060    8.621850
  C      2.765490  -14.220030    7.781240
  C      2.772680  -13.286970   10.007800
  N      2.975170  -13.523600   11.109750
  C      1.816300  -10.767440    9.034370
  O      2.515320  -10.595650    9.991220
  O      0.826110   -9.917700    8.731390
  C      1.710830  -13.083120    4.483740
  C      0.781730  -12.380270    3.755830
  C      0.299970  -12.804620    2.500220
  N     -0.164620  -13.156450    1.511010
  C      0.130460  -11.233480    4.244170
  N     -0.402470  -10.289200    4.623950
  H      3.833300   -4.917780   -7.836680
  H      2.502190   -2.335020  -10.998420
  H      1.007200   -0.906290   -7.020390
  H      2.047910   -2.881050   -2.136670
  H      2.000330   -3.837510    2.144110
  H      3.549510   -4.613250    1.704290
  H      2.136420   -6.305890    2.771150
  H      0.082240   -5.605340    0.600740
  H     -0.106260   -5.360340    2.342010
  H     -0.016610   -7.000020    1.684550
  H      4.141690   -9.552100   -5.600140
  H      2.688880  -10.365070   -4.945970
  H      4.523550  -11.996490   -4.978620
  H      6.031840   -9.931310   -3.279590
  H      6.468180  -10.476310   -4.901910
  H      6.550730  -11.601940   -3.538130
  H      2.839400  -15.561840   -3.172720
  H      1.510250  -15.318050   -2.000010
  H      2.793570  -17.294820   -1.300220
  H      5.191690  -15.380520   -1.308340
  H      4.986850  -16.819160   -2.315960
  H      5.192530  -16.987100   -0.566530
  H      2.977440  -15.843810    2.814910
  H      1.377660  -10.874950    6.332430
  H      3.163800  -15.142100    8.176450
  H      0.309630  -10.171020    7.953430

 Total Charge           Charge          ....    0
 Multiplicity           Mult            ....    1
 Number of Electrons    NEL             ....  518
 Basis Dimension        Dim             .... 1150

ORBITAL ENERGIES
----------------

  NO   OCC          E(Eh)            E(eV)
   0   2.0000     -88.981782     -2421.3174
   1   2.0000     -88.980710     -2421.2882
   2   2.0000     -88.978828     -2421.2370
   3   2.0000     -19.288916      -524.8781
   4   2.0000     -19.288356      -524.8629
   5   2.0000     -19.285997      -524.7987
   6   2.0000     -19.279146      -524.6122
   7   2.0000     -19.273972      -524.4714
   8   2.0000     -19.273797      -524.4667
   9   2.0000     -19.273701      -524.4641
  10   2.0000     -19.270357      -524.3731
  11   2.0000     -19.224965      -523.1379
  12   2.0000     -19.223343      -523.0937
  13   2.0000     -19.212838      -522.8079
  14   2.0000     -19.211411      -522.7691
  15   2.0000     -14.442561      -393.0021
  16   2.0000     -14.431536      -392.7021
  17   2.0000     -14.423028      -392.4705
  18   2.0000     -14.422035      -392.4435
  19   2.0000     -14.418503      -392.3474
  20   2.0000     -14.408425      -392.0732
  21   2.0000     -10.419716      -283.5349
  22   2.0000     -10.418274      -283.4956
  23   2.0000     -10.377543      -282.3873
  24   2.0000     -10.376247      -282.3520
  25   2.0000     -10.376153      -282.3495
  26   2.0000     -10.372611      -282.2531
  27   2.0000     -10.365958      -282.0721
  28   2.0000     -10.363022      -281.9922
  29   2.0000     -10.362406      -281.9754
  30   2.0000     -10.361045      -281.9384
  31   2.0000     -10.360242      -281.9165
  32   2.0000     -10.358794      -281.8771
  33   2.0000     -10.357964      -281.8545
  34   2.0000     -10.355849      -281.7970
  35   2.0000     -10.354188      -281.7518
  36   2.0000     -10.354146      -281.7506
  37   2.0000     -10.353426      -281.7310
  38   2.0000     -10.353360      -281.7292
  39   2.0000     -10.353291      -281.7274
  40   2.0000     -10.351878      -281.6889
  41   2.0000     -10.348892      -281.6077
  42   2.0000     -10.345157      -281.5060
  43   2.0000     -10.344955      -281.5005
  44   2.0000     -10.341401      -281.4038
  45   2.0000     -10.339764      -281.3593
  46   2.0000     -10.335520      -281.2438
  47   2.0000     -10.335304      -281.2379
  48   2.0000     -10.333849      -281.1983
  49   2.0000     -10.332677      -281.1664
  50   2.0000     -10.331671      -281.1391
  51   2.0000     -10.331043      -281.1220
  52   2.0000     -10.330982      -281.1203
  53   2.0000     -10.329528      -281.0808
  54   2.0000     -10.328583      -281.0550
  55   2.0000     -10.327333      -281.0210
  56   2.0000     -10.326026      -280.9855
  57   2.0000     -10.325163      -280.9620
  58   2.0000     -10.325120      -280.9608
  59   2.0000     -10.324769      -280.9513
  60   2.0000     -10.323149      -280.9072
  61   2.0000     -10.321702      -280.8678
  62   2.0000     -10.320928      -280.8467
  63   2.0000     -10.317759      -280.7605
  64   2.0000     -10.315076      -280.6875
  65   2.0000     -10.315074      -280.6874
  66   2.0000     -10.308097      -280.4976
  67   2.0000     -10.300998      -280.3044
  68   2.0000     -10.298629      -280.2399
  69   2.0000     -10.287461      -279.9360
  70   2.0000     -10.282775      -279.8085
  71   2.0000     -10.281560      -279.7755
  72   2.0000      -8.076383      -219.7695
  73   2.0000      -8.075578      -219.7477
  74   2.0000      -8.072916      -219.6752
  75   2.0000      -6.046046      -164.5213
  76   2.0000      -6.045242      -164.4994
  77   2.0000      -6.042594      -164.4273
  78   2.0000      -6.041976      -164.4105
  79   2.0000      -6.041324      -164.3928
  80   2.0000      -6.038494      -164.3158
  81   2.0000      -6.037620      -164.2920
  82   2.0000      -6.036681      -164.2664
  83   2.0000      -6.034144      -164.1974
  84   2.0000      -1.212255       -32.9871
  85   2.0000      -1.211719       -32.9725
  86   2.0000      -1.208706       -32.8906
  87   2.0000      -1.197245       -32.5787
  88   2.0000      -1.196472       -32.5577
  89   2.0000      -1.172554       -31.9068
  90   2.0000      -1.171847       -31.8876
  91   2.0000      -1.167759       -31.7763
  92   2.0000      -1.140536       -31.0356
  93   2.0000      -1.138926       -30.9918
  94   2.0000      -1.112558       -30.2743
  95   2.0000      -1.110328       -30.2136
  96   2.0000      -1.035004       -28.1639
  97   2.0000      -1.034742       -28.1567
  98   2.0000      -1.027342       -27.9554
  99   2.0000      -1.024393       -27.8752
 100   2.0000      -1.016809       -27.6688
 101   2.0000      -1.013867       -27.5887
 102   2.0000      -1.009380       -27.4666
 103   2.0000      -1.004588       -27.3362
 104   2.0000      -0.999341       -27.1935
 105   2.0000      -0.995465       -27.0880
 106   2.0000      -0.993827       -27.0434
 107   2.0000      -0.972929       -26.4747
 108   2.0000      -0.968893       -26.3649
 109   2.0000      -0.924474       -25.1562
 110   2.0000      -0.917747       -24.9732
 111   2.0000      -0.915176       -24.9032
 112   2.0000      -0.914133       -24.8748
 113   2.0000      -0.910859       -24.7857
 114   2.0000      -0.905330       -24.6353
 115   2.0000      -0.903355       -24.5815
 116   2.0000      -0.893936       -24.3252
 117   2.0000      -0.893176       -24.3045
 118   2.0000      -0.883813       -24.0498
 119   2.0000      -0.863857       -23.5067
 120   2.0000      -0.850408       -23.1408
 121   2.0000      -0.841375       -22.8950
 122   2.0000      -0.836825       -22.7712
 123   2.0000      -0.834369       -22.7043
 124   2.0000      -0.819690       -22.3049
 125   2.0000      -0.813442       -22.1349
 126   2.0000      -0.802499       -21.8371
 127   2.0000      -0.800448       -21.7813
 128   2.0000      -0.797738       -21.7076
 129   2.0000      -0.795459       -21.6455
 130   2.0000      -0.785204       -21.3665
 131   2.0000      -0.761150       -20.7119
 132   2.0000      -0.756764       -20.5926
 133   2.0000      -0.748250       -20.3609
 134   2.0000      -0.746429       -20.3114
 135   2.0000      -0.744641       -20.2627
 136   2.0000      -0.743323       -20.2268
 137   2.0000      -0.719312       -19.5735
 138   2.0000      -0.717381       -19.5209
 139   2.0000      -0.705086       -19.1864
 140   2.0000      -0.703348       -19.1391
 141   2.0000      -0.702296       -19.1105
 142   2.0000      -0.697303       -18.9746
 143   2.0000      -0.689126       -18.7521
 144   2.0000      -0.684320       -18.6213
 145   2.0000      -0.676200       -18.4003
 146   2.0000      -0.675306       -18.3760
 147   2.0000      -0.663203       -18.0467
 148   2.0000      -0.655966       -17.8497
 149   2.0000      -0.651218       -17.7206
 150   2.0000      -0.646450       -17.5908
 151   2.0000      -0.645227       -17.5575
 152   2.0000      -0.641015       -17.4429
 153   2.0000      -0.632617       -17.2144
 154   2.0000      -0.627935       -17.0870
 155   2.0000      -0.623418       -16.9641
 156   2.0000      -0.619029       -16.8446
 157   2.0000      -0.614166       -16.7123
 158   2.0000      -0.611060       -16.6278
 159   2.0000      -0.608467       -16.5572
 160   2.0000      -0.604235       -16.4421
 161   2.0000      -0.595648       -16.2084
 162   2.0000      -0.594818       -16.1858
 163   2.0000      -0.589067       -16.0293
 164   2.0000      -0.584263       -15.8986
 165   2.0000      -0.573207       -15.5978
 166   2.0000      -0.565456       -15.3868
 167   2.0000      -0.563664       -15.3381
 168   2.0000      -0.563522       -15.3342
 169   2.0000      -0.560817       -15.2606
 170   2.0000      -0.559179       -15.2160
 171   2.0000      -0.557035       -15.1577
 172   2.0000      -0.555488       -15.1156
 173   2.0000      -0.555041       -15.1034
 174   2.0000      -0.552601       -15.0370
 175   2.0000      -0.549250       -14.9459
 176   2.0000      -0.548097       -14.9145
 177   2.0000      -0.543102       -14.7786
 178   2.0000      -0.541450       -14.7336
 179   2.0000      -0.540159       -14.6985
 180   2.0000      -0.535372       -14.5682
 181   2.0000      -0.534404       -14.5419
 182   2.0000      -0.532438       -14.4884
 183   2.0000      -0.531225       -14.4554
 184   2.0000      -0.530045       -14.4232
 185   2.0000      -0.528014       -14.3680
 186   2.0000      -0.525926       -14.3112
 187   2.0000      -0.522068       -14.2062
 188   2.0000      -0.520901       -14.1744
 189   2.0000      -0.520432       -14.1617
 190   2.0000      -0.518177       -14.1003
 191   2.0000      -0.516061       -14.0427
 192   2.0000      -0.511713       -13.9244
 193   2.0000      -0.511417       -13.9164
 194   2.0000      -0.505325       -13.7506
 195   2.0000      -0.503819       -13.7096
 196   2.0000      -0.503044       -13.6885
 197   2.0000      -0.497322       -13.5328
 198   2.0000      -0.495281       -13.4773
 199   2.0000      -0.491891       -13.3850
 200   2.0000      -0.488600       -13.2955
 201   2.0000      -0.487526       -13.2663
 202   2.0000      -0.485252       -13.2044
 203   2.0000      -0.481690       -13.1074
 204   2.0000      -0.479139       -13.0380
 205   2.0000      -0.476807       -12.9746
 206   2.0000      -0.476069       -12.9545
 207   2.0000      -0.475725       -12.9451
 208   2.0000      -0.473256       -12.8779
 209   2.0000      -0.468619       -12.7518
 210   2.0000      -0.467285       -12.7155
 211   2.0000      -0.465278       -12.6609
 212   2.0000      -0.464824       -12.6485
 213   2.0000      -0.461345       -12.5538
 214   2.0000      -0.457354       -12.4452
 215   2.0000      -0.455156       -12.3854
 216   2.0000      -0.454272       -12.3614
 217   2.0000      -0.452338       -12.3088
 218   2.0000      -0.449392       -12.2286
 219   2.0000      -0.448174       -12.1954
 220   2.0000      -0.446115       -12.1394
 221   2.0000      -0.445040       -12.1101
 222   2.0000      -0.444093       -12.0844
 223   2.0000      -0.443243       -12.0613
 224   2.0000      -0.439144       -11.9497
 225   2.0000      -0.438198       -11.9240
 226   2.0000      -0.437671       -11.9096
 227   2.0000      -0.435371       -11.8470
 228   2.0000      -0.433457       -11.7950
 229   2.0000      -0.432490       -11.7686
 230   2.0000      -0.429586       -11.6896
 231   2.0000      -0.427112       -11.6223
 232   2.0000      -0.423571       -11.5260
 233   2.0000      -0.420994       -11.4558
 234   2.0000      -0.416964       -11.3462
 235   2.0000      -0.415126       -11.2962
 236   2.0000      -0.410658       -11.1746
 237   2.0000      -0.407698       -11.0940
 238   2.0000      -0.406344       -11.0572
 239   2.0000      -0.404060       -10.9950
 240   2.0000      -0.402658       -10.9569
 241   2.0000      -0.399663       -10.8754
 242   2.0000      -0.397232       -10.8092
 243   2.0000      -0.383024       -10.4226
 244   2.0000      -0.374110       -10.1800
 245   2.0000      -0.372435       -10.1345
 246   2.0000      -0.370116       -10.0714
 247   2.0000      -0.359309        -9.7773
 248   2.0000      -0.358137        -9.7454
 249   2.0000      -0.349270        -9.5041
 250   2.0000      -0.348663        -9.4876
 251   2.0000      -0.342263        -9.3134
 252   2.0000      -0.330459        -8.9922
 253   2.0000      -0.321890        -8.7591
 254   2.0000      -0.315519        -8.5857
 255   2.0000      -0.308071        -8.3830
 256   2.0000      -0.306040        -8.3278
 257   2.0000      -0.289218        -7.8700
 258   2.0000      -0.252646        -6.8748
 259   0.0000      -0.115295        -3.1373
 260   0.0000      -0.098634        -2.6840
 261   0.0000      -0.085903        -2.3375
 262   0.0000      -0.078772        -2.1435
 263   0.0000      -0.044078        -1.1994

MULLIKEN ATOMIC CHARGES
-----------------------
   0 C :   -0.075310
   1 C :    0.002957
   2 C :    0.166802
   3 O :   -0.162394
   4 O :   -0.132766
   5 C :   -0.046518
   6 C :   -0.225047
   7 N :    0.124785
   8 C :   -0.036652
   9 C :    0.009984
  10 C :    0.056911
  11 C :    0.243421
  12 C :   -0.315222
  13 C :   -0.178486
  14 N :    0.163536
  15 C :   -0.208538
  16 N :    0.170894
  17 C :   -0.145803
  18 C :    0.150797
  19 O :   -0.135315
  20 C :    0.054264
  21 C :   -0.180301
  22 C :    0.211860
  23 O :   -0.281790
  24 C :    0.229650
  25 C :    0.018623
  26 C :    0.061979
  27 O :   -0.299062
  28 C :    0.139970
  29 C :   -0.105838
  30 S :    0.175966
  31 C :   -0.118650
  32 C :    0.121831
  33 O :   -0.307839
  34 C :    0.236336
  35 C :    0.010472
  36 C :    0.058469
  37 O :   -0.268833
  38 C :    0.180445
  39 C :   -0.149260
  40 S :    0.186605
  41 C :   -0.091497
  42 C :    0.146750
  43 O :   -0.286780
  44 C :    0.227975
  45 C :    0.022539
  46 C :    0.057016
  47 O :   -0.265897
  48 C :    0.212756
  49 C :   -0.192176
  50 S :    0.138256
  51 C :    0.059928
  52 C :   -0.151963
  53 C :    0.151243
  54 O :   -0.131044
  55 C :    0.007219
  56 C :    0.030141
  57 C :   -0.089471
  58 C :    0.008275
  59 C :   -0.075776
  60 C :   -0.036922
  61 C :   -0.159558
  62 N :    0.141424
  63 C :    0.177674
  64 O :   -0.147712
  65 O :   -0.146693
  66 C :    0.246306
  67 C :   -0.324458
  68 C :   -0.195075
  69 N :    0.169714
  70 C :   -0.171834
  71 N :    0.131879
  72 H :    0.027775
  73 H :    0.181190
  74 H :    0.016027
  75 H :    0.030676
  76 H :    0.039608
  77 H :    0.047189
  78 H :    0.034171
  79 H :    0.028253
  80 H :    0.028036
  81 H :    0.043263
  82 H :    0.045278
  83 H :    0.036945
  84 H :    0.028940
  85 H :    0.036860
  86 H :    0.032658
  87 H :    0.033120
  88 H :    0.030395
  89 H :    0.045251
  90 H :    0.031408
  91 H :    0.033205
  92 H :    0.024715
  93 H :    0.038274
  94 H :    0.031860
  95 H :    0.001995
  96 H :    0.016757
  97 H :    0.190981
Sum of atomic charges:    0.0000000

LOEWDIN ATOMIC CHARGES
----------------------
   0 C :    0.030833
   1 C :   -0.035279
   2 C :    0.081876
   3 O :   -0.142430
   4 O :   -0.010155
   5 C :   -0.059144
   6 C :   -0.041715
   7 N :   -0.032975
   8 C :    0.044814
   9 C :   -0.030946
  10 C :    0.008240
  11 C :    0.052578
  12 C :   -0.140790
  13 C :   -0.024223
  14 N :   -0.046979
  15 C :   -0.038524
  16 N :   -0.047051
  17 C :   -0.121130
  18 C :    0.080073
  19 O :   -0.139528
  20 C :    0.067458
  21 C :   -0.217678
  22 C :    0.032583
  23 O :   -0.076519
  24 C :    0.085486
  25 C :    0.057725
  26 C :   -0.056752
  27 O :   -0.099175
  28 C :   -0.028050
  29 C :   -0.167947
  30 S :    0.495479
  31 C :   -0.206192
  32 C :   -0.009514
  33 O :   -0.093361
  34 C :    0.084357
  35 C :    0.055077
  36 C :   -0.057390
  37 O :   -0.077487
  38 C :    0.004947
  39 C :   -0.216235
  40 S :    0.463277
  41 C :   -0.162529
  42 C :   -0.022552
  43 O :   -0.085571
  44 C :    0.080971
  45 C :    0.056655
  46 C :   -0.057483
  47 O :   -0.069269
  48 C :    0.039566
  49 C :   -0.218006
  50 S :    0.456373
  51 C :    0.068317
  52 C :   -0.122893
  53 C :    0.081036
  54 O :   -0.136041
  55 C :   -0.031079
  56 C :    0.004231
  57 C :   -0.008147
  58 C :   -0.038839
  59 C :   -0.027722
  60 C :    0.047910
  61 C :   -0.034182
  62 N :   -0.027209
  63 C :    0.079752
  64 O :   -0.121094
  65 O :   -0.018109
  66 C :    0.057519
  67 C :   -0.150015
  68 C :   -0.036690
  69 N :   -0.050791
  70 C :   -0.015056
  71 N :   -0.069923
  72 H :    0.049390
  73 H :    0.086898
  74 H :    0.051707
  75 H :    0.054841
  76 H :    0.037554
  77 H :    0.029931
  78 H :    0.037148
  79 H :    0.031419
  80 H :    0.036342
  81 H :    0.038973
  82 H :    0.039639
  83 H :    0.025314
  84 H :    0.034577
  85 H :    0.034301
  86 H :    0.038070
  87 H :    0.034512
  88 H :    0.034177
  89 H :    0.027656
  90 H :    0.035704
  91 H :    0.032914
  92 H :    0.035232
  93 H :    0.036329
  94 H :    0.054324
  95 H :    0.034680
  96 H :    0.052947
  97 H :    0.098655

  Mayer bond orders larger than 0.100000
B(  0-C ,  1-C ) :   1.3673 B(  0-C , 10-C ) :   1.3359 B(  0-C , 72-H ) :   0.9930
B(  1-C ,  2-C ) :   0.8618 B(  1-C ,  5-C ) :   1.3528 B(  2-C ,  3-O ) :   2.1747
B(  2-C ,  4-O ) :   1.2771 B(  4-O , 73-H ) :   0.9384 B(  5-C ,  6-C ) :   1.0593
B(  5-C ,  8-C ) :   1.3509 B(  6-C ,  7-N ) :   2.9879 B(  8-C ,  9-C ) :   1.3849
B(  8-C , 74-H ) :   1.0115 B(  9-C , 10-C ) :   1.3323 B(  9-C , 18-C ) :   0.8936
B( 10-C , 11-C ) :   0.9957 B( 11-C , 12-C ) :   1.6429 B( 11-C , 17-C ) :   1.0682
B( 12-C , 13-C ) :   1.1388 B( 12-C , 15-C ) :   1.1480 B( 13-C , 14-N ) :   2.9931
B( 15-C , 16-N ) :   3.0318 B( 17-C , 18-C ) :   0.9687 B( 17-C , 20-C ) :   1.5168
B( 18-C , 19-O ) :   2.2760 B( 20-C , 21-C ) :   1.2415 B( 20-C , 75-H ) :   0.9558
B( 21-C , 22-C ) :   1.3832 B( 21-C , 29-C ) :   0.1020 B( 21-C , 30-S ) :   1.0402
B( 22-C , 23-O ) :   1.1988 B( 22-C , 28-C ) :   1.2295 B( 23-O , 24-C ) :   0.9355
B( 24-C , 25-C ) :   1.0374 B( 24-C , 76-H ) :   0.9529 B( 24-C , 77-H ) :   0.9472
B( 25-C , 26-C ) :   1.0645 B( 25-C , 27-O ) :   0.9204 B( 25-C , 78-H ) :   0.9346
B( 26-C , 79-H ) :   0.9588 B( 26-C , 80-H ) :   0.9616 B( 26-C , 81-H ) :   0.9589
B( 27-O , 28-C ) :   1.1523 B( 28-C , 29-C ) :   1.4197 B( 29-C , 30-S ) :   1.1420
B( 29-C , 31-C ) :   1.2278 B( 31-C , 32-C ) :   1.4567 B( 31-C , 39-C ) :   0.1261
B( 31-C , 40-S ) :   1.1032 B( 32-C , 33-O ) :   1.1425 B( 32-C , 38-C ) :   1.2022
B( 33-O , 34-C ) :   0.9354 B( 34-C , 35-C ) :   1.0382 B( 34-C , 82-H ) :   0.9518
B( 34-C , 83-H ) :   0.9476 B( 35-C , 36-C ) :   1.0629 B( 35-C , 37-O ) :   0.9293
B( 35-C , 84-H ) :   0.9339 B( 36-C , 85-H ) :   0.9590 B( 36-C , 86-H ) :   0.9614
B( 36-C , 87-H ) :   0.9588 B( 37-O , 38-C ) :   1.1961 B( 38-C , 39-C ) :   1.4780
B( 39-C , 40-S ) :   1.0806 B( 39-C , 41-C ) :   1.1474 B( 41-C , 42-C ) :   1.4781
B( 41-C , 49-C ) :   0.1123 B( 41-C , 50-S ) :   1.1261 B( 42-C , 43-O ) :   1.1648
B( 42-C , 48-C ) :   1.2037 B( 43-O , 44-C ) :   0.9558 B( 44-C , 45-C ) :   1.0373
B( 44-C , 88-H ) :   0.9519 B( 44-C , 89-H ) :   0.9448 B( 45-C , 46-C ) :   1.0642
B( 45-C , 47-O ) :   0.9141 B( 45-C , 90-H ) :   0.9346 B( 46-C , 91-H ) :   0.9586
B( 46-C , 92-H ) :   0.9628 B( 46-C , 93-H ) :   0.9596 B( 47-O , 48-C ) :   1.2148
B( 48-C , 49-C ) :   1.3904 B( 49-C , 50-S ) :   1.0481 B( 49-C , 51-C ) :   1.2312
B( 51-C , 52-C ) :   1.5092 B( 51-C , 94-H ) :   0.9552 B( 52-C , 53-C ) :   0.9633
B( 52-C , 66-C ) :   1.0864 B( 53-C , 54-O ) :   2.2833 B( 53-C , 55-C ) :   0.8942
B( 55-C , 56-C ) :   1.3503 B( 55-C , 60-C ) :   1.3630 B( 56-C , 57-C ) :   1.3922
B( 56-C , 66-C ) :   0.9944 B( 57-C , 58-C ) :   1.3179 B( 57-C , 95-H ) :   0.9685
B( 58-C , 59-C ) :   1.4010 B( 58-C , 63-C ) :   0.8700 B( 59-C , 60-C ) :   1.3617
B( 59-C , 61-C ) :   1.0698 B( 60-C , 96-H ) :   1.0147 B( 61-C , 62-N ) :   3.0396
B( 63-C , 64-O ) :   2.1720 B( 63-C , 65-O ) :   1.2534 B( 65-O , 97-H ) :   0.9454
B( 66-C , 67-C ) :   1.6249 B( 67-C , 68-C ) :   1.1492 B( 67-C , 70-C ) :   1.1461
B( 68-C , 69-N ) :   3.0239 B( 70-C , 71-N ) :   2.9821

-----------------------------------------------------------------------------
         ABSORPTION SPECTRUM VIA TRANSITION ELECTRIC DIPOLE MOMENTS
-----------------------------------------------------------------------------
State   Energy  Wavelength   fosc         T2         TX        TY        TZ
        (cm-1)    (nm)                  (au**2)     (au)      (au)      (au)
-----------------------------------------------------------------------------
   0   13947.0    717.0   1.047341644  24.72201   0.87816   3.39727  -3.52270
   1   18073.1    553.3   0.057429140   1.04610   0.18087  -0.98953  -0.18500
   2   21790.2    458.9   0.368957401   5.57431  -0.59012   2.07708  -0.95488
   3   22866.6    437.3   0.048194187   0.69386   0.32074  -0.46828  -0.60967
   4   23533.0    424.9   0.003580868   0.05009  -0.06821   0.05223   0.20667
   5   24620.4    406.2   0.073311609   0.98029  -0.16616   0.72107   0.65783
   6   24946.3    400.9   0.153124858   2.02076  -0.33279  -0.18013   1.37024
   7   26713.1    374.3   0.046046050   0.56747   0.04576  -0.17865   0.73038
   8   27309.8    366.2   0.366110433   4.41336  -1.14846   1.57977   0.77379
   9   28906.0    345.9   0.088685675   1.01004   0.37857  -0.47119   0.80294
  10   29356.2    340.6   0.004194070   0.04703   0.21064  -0.02188   0.04674
  11   30049.7    332.8   0.047731622   0.52293  -0.41493   0.00646  -0.59222
  12   30485.8    328.0   0.019099775   0.20626   0.25484  -0.37588   0.00551
  13   30668.4    326.1   0.023699597   0.25440   0.01640   0.17808   0.47162
  14   30749.3    325.2   0.107090662   1.14655   0.47713  -0.95802  -0.03296
  15   30993.2    322.7   0.158276616   1.68122  -0.20905   0.98196   0.82053
  16   31218.2    320.3   0.090013544   0.94924  -0.04710   0.44403   0.86594
  17   31759.2    314.9   0.016545508   0.17151  -0.02721   0.40817   0.06455
  18   32022.6    312.3   0.101434969   1.04281  -0.41009   0.00193  -0.93522
  19   32742.2    305.4   0.026888985   0.27036  -0.28700   0.33831   0.27118
  20   33023.3    302.8   0.159991275   1.59496   0.39197  -0.74883   0.93839
  21   33289.8    300.4   0.034428392   0.34047   0.22401  -0.53194  -0.08564
  22   34015.0    294.0   0.279271989   2.70291  -0.39852   0.01412  -1.59496
  23   34179.5    292.6   0.058234225   0.56090   0.07924  -0.30999   0.67715
  24   34613.5    288.9   0.085572376   0.81389   0.52960  -0.37741   0.62528
  25   35250.3    283.7   0.449749335   4.20032  -0.74220   0.11055  -1.90715
  26   35416.4    282.4   0.123714953   1.14999   0.54646  -0.23463   0.89237
  27   35764.7    279.6   0.001608318   0.01480   0.07955  -0.03942  -0.08320
  28   36563.8    273.5   0.048803254   0.43941  -0.16482   0.47111  -0.43624
  29   36821.5    271.6   0.015322132   0.13699   0.18129  -0.10853   0.30388
  30   37232.3    268.6   0.049203951   0.43507   0.38430  -0.53110  -0.07291
  31   37251.3    268.4   0.034068589   0.30108   0.18182  -0.47892  -0.19661
  32   37874.0    264.0   0.248871388   2.16327   0.88993  -1.07411   0.46644
  33   38197.2    261.8   0.043994991   0.37918  -0.38880   0.47119  -0.07743
  34   38559.7    259.3   0.061572900   0.52569   0.46819  -0.33033   0.44427
  35   38744.2    258.1   0.151232146   1.28503   0.81990  -0.78255  -0.02015
  36   38791.3    257.8   0.027908409   0.23685   0.36453  -0.23553   0.22021
  37   39180.9    255.2   0.030026897   0.25230  -0.34559   0.34474  -0.11839
  38   39406.0    253.8   0.009919954   0.08287   0.07342   0.10380  -0.25828
  39   39658.0    252.2   0.085209350   0.70735  -0.51602   0.47260  -0.46660
  40   40140.4    249.1   0.056196079   0.46089   0.32196  -0.37965  -0.46163
  41   40240.7    248.5   0.004288958   0.03509  -0.11108   0.00091   0.15083

FINAL SINGLE POINT ENERGY     -4380.452908566545

DIPOLE MOMENT
-------------
                                X             Y             Z
Electronic contribution:     -6.42657      18.94683      11.35799
Nuclear contribution   :      6.26682     -20.77640     -13.52522
                        -----------------------------------------
Total Dipole Moment    :     -0.15975      -1.82957      -2.16723
                        -----------------------------------------
Magnitude (a.u.)       :      2.84072
Magnitude (Debye)      :      7.22055

Rotational constants in cm-1:     0.001701     0.000393     0.000337
Rotational constants in MHz :    51.000097    11.793347    10.094949

                             ****ORCA TERMINATED NORMALLY****
TOTAL RUN TIME: 0 days 0 hours 10 minutes 9 seconds 607 msec
