                         Program Version 4.2.0 -  RELEASE  -
|  1> # ORCA input file
|  2> # SCF done       -213.493588301131          0.000836300261
|  3> ! CAM-B3LYP def2-SVP def2/J RIJCOSX Grid4 TightSCF
|  4> %maxcore 5000
|  5> %tddft
|  6>     Mode sTDDFT
|  7>     Ethresh 5.0
|  8>     maxcore 5000
|  9> end
| 10>
| 11> %pal
| 12>   nprocs 6
| 13>   end
| 14> * xyz 0 1
| 15>    C        1.49815         0.38891         0.21854
| 16>    C        1.89680         1.70941         0.42538
| 17>    C        1.01122         2.75842        -0.19770
| 18>    O       -0.13414         2.51362        -0.45259
| 19>    O        1.53575         3.95310        -0.47493
| 20>    C        3.02786         1.98705         1.21426
| 21>    C        3.48773         3.30223         1.45997
| 22>    N        3.90981         4.34882         1.66930
| 23>    C        3.74875         0.94808         1.81694
| 24>    C        3.33860        -0.34800         1.60057
| 25>    C        2.22504        -0.64149         0.78843
| 26>    C        2.07110        -2.09261         0.70753
| 27>    C        1.41841        -2.76647        -0.28363
| 28>    C        0.64733        -2.13987        -1.28677
| 29>    N        0.00998        -1.68742        -2.12608
| 30>    C        1.55035        -4.15487        -0.51842
| 31>    N        1.70542        -5.24185        -0.85358
| 32>    C        2.96213        -2.66622         1.69834
| 33>    C        3.90463        -1.60676         2.14464
| 34>    O        4.88470        -1.73764         2.83735
| 35>    C        2.94976        -3.88746         2.29584
| 36>    C        1.90101        -4.83701         2.23151
| 37>    C        1.96046        -6.20439         2.55596
| 38>    C        0.66666        -6.74917         2.33232
| 39>    C       -0.09238        -5.63603         1.82808
| 40>    N        0.64356        -4.52321         1.81755
| 41>    O       -1.30804        -5.54320         1.33077
| 42>    C       -1.96133        -6.68604         0.82285
| 43>    C        0.78243        -8.12309         2.66954
| 44>    N        2.08466        -8.42776         2.96893
| 45>    C        2.79139        -7.30264         2.92120
| 46>    O        4.07369        -7.22561         3.18812
| 47>    C        4.72655        -8.44731         3.49531
| 48>    C       -0.15654        -9.17944         2.84103
| 49>    C        0.29300       -10.48724         2.78385
| 50>    C       -0.50031       -11.60727         2.95996
| 51>    C       -1.89319       -11.47743         3.40260
| 52>    C       -2.53188       -10.29262         3.54776
| 53>    S       -1.80852        -8.77065         3.23917
| 54>    C       -2.34882       -12.80449         3.63200
| 55>    C       -1.32367       -13.70905         3.34217
| 56>    C       -1.72241       -15.04876         3.53950
| 57>    C       -3.00916       -15.12463         3.96911
| 58>    S       -3.78733       -13.58696         4.14598
| 59>    C       -0.16774       -12.98808         2.88176
| 60>    C        0.99334       -13.62049         2.40900
| 61>    C        1.98033       -13.05661         1.64327
| 62>    C        3.08387       -13.77585         1.16836
| 63>    C        3.47435       -15.12663         1.38032
| 64>    C        4.63204       -15.33884         0.60333
| 65>    C        4.89375       -14.06777        -0.01149
| 66>    N        3.98251       -13.16964         0.32745
| 67>    O        5.91367       -13.81581        -0.80886
| 68>    C        5.99247       -12.50385        -1.35155
| 69>    C        5.02806       -16.68466         0.82772
| 70>    N        4.17168       -17.26121         1.72678
| 71>    C        3.23899       -16.37127         2.03837
| 72>    O        2.23568       -16.62524         2.86177
| 73>    C        2.21030       -17.93555         3.40763
| 74>    C        6.13956       -17.41963         0.37834
| 75>    C        6.96524       -17.19902        -0.69146
| 76>    C        8.32819       -17.79090        -0.69458
| 77>    O        8.76834       -18.62534         0.05904
| 78>    C        9.04687       -17.09629        -1.79293
| 79>    C        8.15085       -16.24970        -2.47051
| 80>    C        8.59305       -15.49633        -3.54560
| 81>    C        9.92860       -15.58335        -3.93556
| 82>    C       10.81264       -16.43542        -3.25193
| 83>    C       10.36797       -17.19977        -2.16773
| 84>    C       12.18353       -16.53616        -3.60327
| 85>    N       13.30923       -16.67830        -3.76013
| 86>    C       10.46594       -14.82860        -5.11683
| 87>    O       11.44158       -15.19109        -5.70991
| 88>    O        9.80549       -13.72296        -5.48180
| 89>    C        6.82395       -16.38232        -1.86637
| 90>    C        5.65052       -15.95885        -2.43912
| 91>    C        4.36553       -16.34765        -2.00812
| 92>    N        3.28820       -16.66006        -1.76562
| 93>    C        5.59123       -15.10489        -3.55533
| 94>    N        5.50630       -14.34906        -4.41668
| 95>    H        0.61342         0.21260        -0.37358
| 96>    H        2.45233         4.08445        -0.19051
| 97>    H        4.60505         1.16176         2.43886
| 98>    H        3.79448        -4.13821         2.92744
| 99>    H       -1.27119        -7.52039         0.68819
|100>    H       -2.37735        -6.40061        -0.14502
|101>    H       -2.77761        -6.97283         1.48994
|102>    H        4.24834        -8.92813         4.35088
|103>    H        5.75785        -8.18980         3.72560
|104>    H        4.68243        -9.12639         2.64156
|105>    H        1.34972       -10.59061         2.59130
|106>    H       -3.55998       -10.22437         3.86636
|107>    H       -1.09661       -15.90618         3.37350
|108>    H       -3.57355       -16.00696         4.19975
|109>    H        1.07434       -14.67834         2.62365
|110>    H        1.91981       -12.03412         1.30470
|111>    H        7.04661       -12.30925        -1.54204
|112>    H        5.57992       -11.78092        -0.64870
|113>    H        5.42918       -12.45939        -2.28677
|114>    H        1.34357       -17.97636         4.06408
|115>    H        3.12581       -18.13017         3.96850
|116>    H        2.12682       -18.67505         2.60955
|117>    H        6.42351       -18.24593         1.02300
|118>    H        7.89946       -14.87137        -4.08830
|119>    H       11.04313       -17.85740        -1.64162
|120>    H        9.02966       -13.52573        -4.93993
|121> *
|122>
|123>                          ****END OF INPUT****

CARTESIAN COORDINATES (ANGSTROEM)
---------------------------------
  C      1.498150    0.388910    0.218540
  C      1.896800    1.709410    0.425380
  C      1.011220    2.758420   -0.197700
  O     -0.134140    2.513620   -0.452590
  O      1.535750    3.953100   -0.474930
  C      3.027860    1.987050    1.214260
  C      3.487730    3.302230    1.459970
  N      3.909810    4.348820    1.669300
  C      3.748750    0.948080    1.816940
  C      3.338600   -0.348000    1.600570
  C      2.225040   -0.641490    0.788430
  C      2.071100   -2.092610    0.707530
  C      1.418410   -2.766470   -0.283630
  C      0.647330   -2.139870   -1.286770
  N      0.009980   -1.687420   -2.126080
  C      1.550350   -4.154870   -0.518420
  N      1.705420   -5.241850   -0.853580
  C      2.962130   -2.666220    1.698340
  C      3.904630   -1.606760    2.144640
  O      4.884700   -1.737640    2.837350
  C      2.949760   -3.887460    2.295840
  C      1.901010   -4.837010    2.231510
  C      1.960460   -6.204390    2.555960
  C      0.666660   -6.749170    2.332320
  C     -0.092380   -5.636030    1.828080
  N      0.643560   -4.523210    1.817550
  O     -1.308040   -5.543200    1.330770
  C     -1.961330   -6.686040    0.822850
  C      0.782430   -8.123090    2.669540
  N      2.084660   -8.427760    2.968930
  C      2.791390   -7.302640    2.921200
  O      4.073690   -7.225610    3.188120
  C      4.726550   -8.447310    3.495310
  C     -0.156540   -9.179440    2.841030
  C      0.293000  -10.487240    2.783850
  C     -0.500310  -11.607270    2.959960
  C     -1.893190  -11.477430    3.402600
  C     -2.531880  -10.292620    3.547760
  S     -1.808520   -8.770650    3.239170
  C     -2.348820  -12.804490    3.632000
  C     -1.323670  -13.709050    3.342170
  C     -1.722410  -15.048760    3.539500
  C     -3.009160  -15.124630    3.969110
  S     -3.787330  -13.586960    4.145980
  C     -0.167740  -12.988080    2.881760
  C      0.993340  -13.620490    2.409000
  C      1.980330  -13.056610    1.643270
  C      3.083870  -13.775850    1.168360
  C      3.474350  -15.126630    1.380320
  C      4.632040  -15.338840    0.603330
  C      4.893750  -14.067770   -0.011490
  N      3.982510  -13.169640    0.327450
  O      5.913670  -13.815810   -0.808860
  C      5.992470  -12.503850   -1.351550
  C      5.028060  -16.684660    0.827720
  N      4.171680  -17.261210    1.726780
  C      3.238990  -16.371270    2.038370
  O      2.235680  -16.625240    2.861770
  C      2.210300  -17.935550    3.407630
  C      6.139560  -17.419630    0.378340
  C      6.965240  -17.199020   -0.691460
  C      8.328190  -17.790900   -0.694580
  O      8.768340  -18.625340    0.059040
  C      9.046870  -17.096290   -1.792930
  C      8.150850  -16.249700   -2.470510
  C      8.593050  -15.496330   -3.545600
  C      9.928600  -15.583350   -3.935560
  C     10.812640  -16.435420   -3.251930
  C     10.367970  -17.199770   -2.167730
  C     12.183530  -16.536160   -3.603270
  N     13.309230  -16.678300   -3.760130
  C     10.465940  -14.828600   -5.116830
  O     11.441580  -15.191090   -5.709910
  O      9.805490  -13.722960   -5.481800
  C      6.823950  -16.382320   -1.866370
  C      5.650520  -15.958850   -2.439120
  C      4.365530  -16.347650   -2.008120
  N      3.288200  -16.660060   -1.765620
  C      5.591230  -15.104890   -3.555330
  N      5.506300  -14.349060   -4.416680
  H      0.613420    0.212600   -0.373580
  H      2.452330    4.084450   -0.190510
  H      4.605050    1.161760    2.438860
  H      3.794480   -4.138210    2.927440
  H     -1.271190   -7.520390    0.688190
  H     -2.377350   -6.400610   -0.145020
  H     -2.777610   -6.972830    1.489940
  H      4.248340   -8.928130    4.350880
  H      5.757850   -8.189800    3.725600
  H      4.682430   -9.126390    2.641560
  H      1.349720  -10.590610    2.591300
  H     -3.559980  -10.224370    3.866360
  H     -1.096610  -15.906180    3.373500
  H     -3.573550  -16.006960    4.199750
  H      1.074340  -14.678340    2.623650
  H      1.919810  -12.034120    1.304700
  H      7.046610  -12.309250   -1.542040
  H      5.579920  -11.780920   -0.648700
  H      5.429180  -12.459390   -2.286770
  H      1.343570  -17.976360    4.064080
  H      3.125810  -18.130170    3.968500
  H      2.126820  -18.675050    2.609550
  H      6.423510  -18.245930    1.023000
  H      7.899460  -14.871370   -4.088300
  H     11.043130  -17.857400   -1.641620
  H      9.029660  -13.525730   -4.939930

 Total Charge           Charge          ....    0
 Multiplicity           Mult            ....    1
 Number of Electrons    NEL             ....  556
 Basis Dimension        Dim             .... 1258

ORBITAL ENERGIES
----------------

  NO   OCC          E(Eh)            E(eV)
   0   2.0000     -89.013424     -2422.1784
   1   2.0000     -88.981178     -2421.3009
   2   2.0000     -19.297775      -525.1192
   3   2.0000     -19.297716      -525.1176
   4   2.0000     -19.286075      -524.8008
   5   2.0000     -19.277247      -524.5606
   6   2.0000     -19.274157      -524.4765
   7   2.0000     -19.272417      -524.4291
   8   2.0000     -19.239207      -523.5255
   9   2.0000     -19.228166      -523.2250
  10   2.0000     -19.213597      -522.8286
  11   2.0000     -19.212340      -522.7943
  12   2.0000     -14.445905      -393.0931
  13   2.0000     -14.432428      -392.7263
  14   2.0000     -14.427881      -392.6026
  15   2.0000     -14.422816      -392.4648
  16   2.0000     -14.422258      -392.4496
  17   2.0000     -14.413443      -392.2097
  18   2.0000     -14.405348      -391.9894
  19   2.0000     -14.398787      -391.8109
  20   2.0000     -14.398704      -391.8086
  21   2.0000     -14.390836      -391.5946
  22   2.0000     -10.421871      -283.5935
  23   2.0000     -10.418466      -283.5009
  24   2.0000     -10.402924      -283.0779
  25   2.0000     -10.400338      -283.0076
  26   2.0000     -10.396301      -282.8977
  27   2.0000     -10.389487      -282.7123
  28   2.0000     -10.378426      -282.4113
  29   2.0000     -10.374347      -282.3003
  30   2.0000     -10.368563      -282.1429
  31   2.0000     -10.362381      -281.9747
  32   2.0000     -10.360725      -281.9297
  33   2.0000     -10.358280      -281.8631
  34   2.0000     -10.353918      -281.7444
  35   2.0000     -10.353423      -281.7309
  36   2.0000     -10.352198      -281.6976
  37   2.0000     -10.349048      -281.6119
  38   2.0000     -10.348346      -281.5928
  39   2.0000     -10.344513      -281.4885
  40   2.0000     -10.343839      -281.4702
  41   2.0000     -10.343544      -281.4622
  42   2.0000     -10.342969      -281.4465
  43   2.0000     -10.342695      -281.4390
  44   2.0000     -10.340608      -281.3822
  45   2.0000     -10.337747      -281.3044
  46   2.0000     -10.336306      -281.2652
  47   2.0000     -10.335244      -281.2363
  48   2.0000     -10.333959      -281.2013
  49   2.0000     -10.333005      -281.1754
  50   2.0000     -10.330971      -281.1200
  51   2.0000     -10.330966      -281.1199
  52   2.0000     -10.329810      -281.0884
  53   2.0000     -10.328066      -281.0410
  54   2.0000     -10.327840      -281.0348
  55   2.0000     -10.327008      -281.0122
  56   2.0000     -10.326833      -281.0074
  57   2.0000     -10.326695      -281.0036
  58   2.0000     -10.326673      -281.0031
  59   2.0000     -10.323468      -280.9159
  60   2.0000     -10.322771      -280.8969
  61   2.0000     -10.322128      -280.8794
  62   2.0000     -10.322054      -280.8774
  63   2.0000     -10.322012      -280.8762
  64   2.0000     -10.321263      -280.8558
  65   2.0000     -10.321086      -280.8510
  66   2.0000     -10.317493      -280.7532
  67   2.0000     -10.315901      -280.7099
  68   2.0000     -10.314828      -280.6807
  69   2.0000     -10.314763      -280.6790
  70   2.0000     -10.308367      -280.5049
  71   2.0000     -10.306197      -280.4459
  72   2.0000     -10.306064      -280.4423
  73   2.0000     -10.301592      -280.3206
  74   2.0000     -10.298012      -280.2231
  75   2.0000     -10.294516      -280.1280
  76   2.0000     -10.288865      -279.9742
  77   2.0000     -10.281459      -279.7727
  78   2.0000     -10.275036      -279.5979
  79   2.0000     -10.266189      -279.3572
  80   2.0000      -8.108189      -220.6350
  81   2.0000      -8.076694      -219.7780
  82   2.0000      -6.077538      -165.3782
  83   2.0000      -6.072973      -165.2540
  84   2.0000      -6.070576      -165.1888
  85   2.0000      -6.046150      -164.5241
  86   2.0000      -6.041871      -164.4077
  87   2.0000      -6.038659      -164.3203
  88   2.0000      -1.210632       -32.9430
  89   2.0000      -1.206253       -32.8238
  90   2.0000      -1.200523       -32.6679
  91   2.0000      -1.198694       -32.6181
  92   2.0000      -1.198041       -32.6004
  93   2.0000      -1.187768       -32.3208
  94   2.0000      -1.153880       -31.3987
  95   2.0000      -1.143280       -31.1102
  96   2.0000      -1.112933       -30.2845
  97   2.0000      -1.112772       -30.2801
  98   2.0000      -1.082188       -29.4478
  99   2.0000      -1.066374       -29.0175
 100   2.0000      -1.054814       -28.7029
 101   2.0000      -1.038781       -28.2667
 102   2.0000      -1.037367       -28.2282
 103   2.0000      -1.034792       -28.1581
 104   2.0000      -1.031760       -28.0756
 105   2.0000      -1.029059       -28.0021
 106   2.0000      -1.017225       -27.6801
 107   2.0000      -1.014500       -27.6059
 108   2.0000      -1.004752       -27.3407
 109   2.0000      -1.002466       -27.2785
 110   2.0000      -1.000212       -27.2172
 111   2.0000      -0.992419       -27.0051
 112   2.0000      -0.979413       -26.6512
 113   2.0000      -0.967431       -26.3251
 114   2.0000      -0.957418       -26.0527
 115   2.0000      -0.928147       -25.2562
 116   2.0000      -0.921147       -25.0657
 117   2.0000      -0.917292       -24.9608
 118   2.0000      -0.916359       -24.9354
 119   2.0000      -0.911051       -24.7910
 120   2.0000      -0.902366       -24.5546
 121   2.0000      -0.898039       -24.4369
 122   2.0000      -0.892245       -24.2792
 123   2.0000      -0.880923       -23.9711
 124   2.0000      -0.874151       -23.7868
 125   2.0000      -0.866957       -23.5911
 126   2.0000      -0.864861       -23.5341
 127   2.0000      -0.856063       -23.2947
 128   2.0000      -0.852555       -23.1992
 129   2.0000      -0.838959       -22.8292
 130   2.0000      -0.837971       -22.8024
 131   2.0000      -0.831167       -22.6172
 132   2.0000      -0.821533       -22.3551
 133   2.0000      -0.820803       -22.3352
 134   2.0000      -0.805266       -21.9124
 135   2.0000      -0.798988       -21.7416
 136   2.0000      -0.797228       -21.6937
 137   2.0000      -0.782041       -21.2804
 138   2.0000      -0.767134       -20.8748
 139   2.0000      -0.762425       -20.7466
 140   2.0000      -0.752372       -20.4731
 141   2.0000      -0.744980       -20.2719
 142   2.0000      -0.741297       -20.1717
 143   2.0000      -0.731015       -19.8919
 144   2.0000      -0.723807       -19.6958
 145   2.0000      -0.718662       -19.5558
 146   2.0000      -0.714923       -19.4540
 147   2.0000      -0.709426       -19.3045
 148   2.0000      -0.706782       -19.2325
 149   2.0000      -0.702874       -19.1262
 150   2.0000      -0.696046       -18.9404
 151   2.0000      -0.692732       -18.8502
 152   2.0000      -0.689774       -18.7697
 153   2.0000      -0.685385       -18.6503
 154   2.0000      -0.678108       -18.4523
 155   2.0000      -0.675425       -18.3792
 156   2.0000      -0.669751       -18.2248
 157   2.0000      -0.668104       -18.1800
 158   2.0000      -0.666360       -18.1326
 159   2.0000      -0.654432       -17.8080
 160   2.0000      -0.648877       -17.6568
 161   2.0000      -0.648410       -17.6441
 162   2.0000      -0.645054       -17.5528
 163   2.0000      -0.640445       -17.4274
 164   2.0000      -0.627718       -17.0811
 165   2.0000      -0.622743       -16.9457
 166   2.0000      -0.615818       -16.7572
 167   2.0000      -0.612005       -16.6535
 168   2.0000      -0.608226       -16.5507
 169   2.0000      -0.605426       -16.4745
 170   2.0000      -0.598626       -16.2894
 171   2.0000      -0.597443       -16.2573
 172   2.0000      -0.597283       -16.2529
 173   2.0000      -0.595638       -16.2081
 174   2.0000      -0.592976       -16.1357
 175   2.0000      -0.588889       -16.0245
 176   2.0000      -0.588628       -16.0174
 177   2.0000      -0.585524       -15.9329
 178   2.0000      -0.582943       -15.8627
 179   2.0000      -0.574464       -15.6320
 180   2.0000      -0.570582       -15.5263
 181   2.0000      -0.564096       -15.3498
 182   2.0000      -0.563519       -15.3341
 183   2.0000      -0.561255       -15.2725
 184   2.0000      -0.561091       -15.2680
 185   2.0000      -0.559579       -15.2269
 186   2.0000      -0.557975       -15.1833
 187   2.0000      -0.555927       -15.1276
 188   2.0000      -0.553598       -15.0642
 189   2.0000      -0.545961       -14.8564
 190   2.0000      -0.544017       -14.8035
 191   2.0000      -0.543193       -14.7810
 192   2.0000      -0.541384       -14.7318
 193   2.0000      -0.539572       -14.6825
 194   2.0000      -0.537501       -14.6261
 195   2.0000      -0.535602       -14.5745
 196   2.0000      -0.534581       -14.5467
 197   2.0000      -0.531817       -14.4715
 198   2.0000      -0.531138       -14.4530
 199   2.0000      -0.529144       -14.3987
 200   2.0000      -0.524265       -14.2660
 201   2.0000      -0.522691       -14.2231
 202   2.0000      -0.520926       -14.1751
 203   2.0000      -0.517831       -14.0909
 204   2.0000      -0.515920       -14.0389
 205   2.0000      -0.512378       -13.9425
 206   2.0000      -0.507836       -13.8189
 207   2.0000      -0.504912       -13.7394
 208   2.0000      -0.502016       -13.6605
 209   2.0000      -0.498667       -13.5694
 210   2.0000      -0.494101       -13.4452
 211   2.0000      -0.491739       -13.3809
 212   2.0000      -0.490856       -13.3569
 213   2.0000      -0.484222       -13.1764
 214   2.0000      -0.483185       -13.1481
 215   2.0000      -0.481937       -13.1142
 216   2.0000      -0.479377       -13.0445
 217   2.0000      -0.478776       -13.0282
 218   2.0000      -0.476174       -12.9574
 219   2.0000      -0.474044       -12.8994
 220   2.0000      -0.470224       -12.7954
 221   2.0000      -0.468774       -12.7560
 222   2.0000      -0.467480       -12.7208
 223   2.0000      -0.465515       -12.6673
 224   2.0000      -0.464363       -12.6360
 225   2.0000      -0.462438       -12.5836
 226   2.0000      -0.461754       -12.5650
 227   2.0000      -0.458496       -12.4763
 228   2.0000      -0.457548       -12.4505
 229   2.0000      -0.454572       -12.3695
 230   2.0000      -0.453056       -12.3283
 231   2.0000      -0.452803       -12.3214
 232   2.0000      -0.452579       -12.3153
 233   2.0000      -0.450121       -12.2484
 234   2.0000      -0.447641       -12.1809
 235   2.0000      -0.445142       -12.1129
 236   2.0000      -0.443528       -12.0690
 237   2.0000      -0.441757       -12.0208
 238   2.0000      -0.440857       -11.9963
 239   2.0000      -0.439253       -11.9527
 240   2.0000      -0.437367       -11.9013
 241   2.0000      -0.436075       -11.8662
 242   2.0000      -0.434864       -11.8333
 243   2.0000      -0.434029       -11.8105
 244   2.0000      -0.431790       -11.7496
 245   2.0000      -0.430478       -11.7139
 246   2.0000      -0.428886       -11.6706
 247   2.0000      -0.424777       -11.5588
 248   2.0000      -0.419452       -11.4139
 249   2.0000      -0.419237       -11.4080
 250   2.0000      -0.415386       -11.3032
 251   2.0000      -0.410161       -11.1610
 252   2.0000      -0.404629       -11.0105
 253   2.0000      -0.403035       -10.9671
 254   2.0000      -0.397260       -10.8100
 255   2.0000      -0.397052       -10.8043
 256   2.0000      -0.392711       -10.6862
 257   2.0000      -0.383165       -10.4264
 258   2.0000      -0.380561       -10.3556
 259   2.0000      -0.377705       -10.2779
 260   2.0000      -0.368747       -10.0341
 261   2.0000      -0.366448        -9.9716
 262   2.0000      -0.361761        -9.8440
 263   2.0000      -0.359689        -9.7876
 264   2.0000      -0.358735        -9.7617
 265   2.0000      -0.355974        -9.6865
 266   2.0000      -0.353662        -9.6236
 267   2.0000      -0.351601        -9.5675
 268   2.0000      -0.347892        -9.4666
 269   2.0000      -0.339316        -9.2333
 270   2.0000      -0.329063        -8.9543
 271   2.0000      -0.320452        -8.7199
 272   2.0000      -0.314877        -8.5683
 273   2.0000      -0.310987        -8.4624
 274   2.0000      -0.301526        -8.2049
 275   2.0000      -0.300741        -8.1836
 276   2.0000      -0.282316        -7.6822
 277   2.0000      -0.249836        -6.7984
 278   0.0000      -0.142093        -3.8665
 279   0.0000      -0.116797        -3.1782
 280   0.0000      -0.097166        -2.6440
 281   0.0000      -0.091043        -2.4774
 282   0.0000      -0.078968        -2.1488

MULLIKEN ATOMIC CHARGES
-----------------------
   0 C :   -0.070783
   1 C :    0.006278
   2 C :    0.167654
   3 O :   -0.155069
   4 O :   -0.131917
   5 C :   -0.049836
   6 C :   -0.223809
   7 N :    0.131419
   8 C :   -0.032043
   9 C :    0.002539
  10 C :    0.056723
  11 C :    0.283107
  12 C :   -0.253550
  13 C :   -0.203814
  14 N :    0.180563
  15 C :   -0.174915
  16 N :    0.152516
  17 C :   -0.099826
  18 C :    0.150062
  19 O :   -0.120676
  20 C :    0.024166
  21 C :   -0.018670
  22 C :    0.052987
  23 C :   -0.055332
  24 C :    0.132347
  25 N :   -0.166183
  26 O :   -0.223988
  27 C :    0.165098
  28 C :    0.054651
  29 N :   -0.207345
  30 C :    0.117422
  31 O :   -0.241772
  32 C :    0.191744
  33 C :   -0.131894
  34 C :   -0.032432
  35 C :    0.082262
  36 C :    0.059419
  37 C :   -0.123024
  38 S :    0.172805
  39 C :   -0.100805
  40 C :    0.053381
  41 C :    0.018325
  42 C :   -0.061250
  43 S :    0.144294
  44 C :    0.092721
  45 C :    0.001946
  46 C :   -0.013736
  47 C :    0.058334
  48 C :    0.010073
  49 C :    0.032385
  50 C :    0.093424
  51 N :   -0.174386
  52 O :   -0.265229
  53 C :    0.180021
  54 C :    0.016494
  55 N :   -0.177986
  56 C :    0.088580
  57 O :   -0.285929
  58 C :    0.204399
  59 C :    0.031715
  60 C :   -0.137701
  61 C :    0.144973
  62 O :   -0.122890
  63 C :    0.000306
  64 C :    0.037931
  65 C :   -0.097464
  66 C :    0.026903
  67 C :   -0.082062
  68 C :   -0.036355
  69 C :   -0.155980
  70 N :    0.136261
  71 C :    0.180225
  72 O :   -0.144727
  73 O :   -0.139333
  74 C :    0.318392
  75 C :   -0.312472
  76 C :   -0.225871
  77 N :    0.188994
  78 C :   -0.165425
  79 N :    0.125299
  80 H :    0.035267
  81 H :    0.181803
  82 H :    0.018523
  83 H :    0.022037
  84 H :    0.038714
  85 H :    0.057308
  86 H :    0.043598
  87 H :    0.039556
  88 H :    0.045444
  89 H :    0.041368
  90 H :    0.017816
  91 H :    0.046973
  92 H :   -0.006912
  93 H :    0.036555
  94 H :    0.002032
  95 H :   -0.020634
  96 H :    0.032569
  97 H :    0.051157
  98 H :    0.052026
  99 H :    0.028575
 100 H :    0.033457
 101 H :    0.039179
 102 H :    0.029072
 103 H :   -0.022212
 104 H :    0.018140
 105 H :    0.185933
Sum of atomic charges:   -0.0000000

LOEWDIN ATOMIC CHARGES
----------------------
   0 C :    0.035246
   1 C :   -0.029899
   2 C :    0.081397
   3 O :   -0.135482
   4 O :   -0.008993
   5 C :   -0.058411
   6 C :   -0.042466
   7 N :   -0.029497
   8 C :    0.049147
   9 C :   -0.038093
  10 C :    0.011720
  11 C :    0.058959
  12 C :   -0.083723
  13 C :   -0.021507
  14 N :   -0.026675
  15 C :   -0.011453
  16 N :   -0.051602
  17 C :   -0.052125
  18 C :    0.084113
  19 O :   -0.122160
  20 C :    0.059105
  21 C :    0.042916
  22 C :   -0.108527
  23 C :   -0.154574
  24 C :    0.109433
  25 N :   -0.155241
  26 O :   -0.038262
  27 C :    0.078336
  28 C :    0.063879
  29 N :   -0.182315
  30 C :    0.109841
  31 O :   -0.040420
  32 C :    0.089064
  33 C :   -0.185473
  34 C :    0.025016
  35 C :   -0.003208
  36 C :   -0.043928
  37 C :   -0.135145
  38 S :    0.513769
  39 C :   -0.199129
  40 C :   -0.031960
  41 C :   -0.057880
  42 C :   -0.152036
  43 S :    0.433571
  44 C :   -0.042676
  45 C :    0.049372
  46 C :   -0.040851
  47 C :    0.089933
  48 C :   -0.125541
  49 C :   -0.100878
  50 C :    0.108811
  51 N :   -0.183560
  52 O :   -0.035843
  53 C :    0.085895
  54 C :    0.019289
  55 N :   -0.164276
  56 C :    0.082309
  57 O :   -0.067164
  58 C :    0.086411
  59 C :    0.073431
  60 C :   -0.088769
  61 C :    0.083195
  62 O :   -0.125024
  63 C :   -0.032544
  64 C :    0.006279
  65 C :   -0.009477
  66 C :   -0.039659
  67 C :   -0.025295
  68 C :    0.049224
  69 C :   -0.034701
  70 N :   -0.029292
  71 C :    0.081787
  72 O :   -0.117380
  73 O :   -0.016140
  74 C :    0.061381
  75 C :   -0.129888
  76 C :   -0.021831
  77 N :   -0.029217
  78 C :   -0.012664
  79 N :   -0.063894
  80 H :    0.052092
  81 H :    0.087214
  82 H :    0.052661
  83 H :    0.053013
  84 H :    0.018775
  85 H :    0.037015
  86 H :    0.012401
  87 H :    0.027259
  88 H :    0.030421
  89 H :    0.028038
  90 H :    0.046452
  91 H :    0.041524
  92 H :    0.035735
  93 H :    0.028044
  94 H :    0.038021
  95 H :    0.034349
  96 H :    0.024395
  97 H :    0.027690
  98 H :    0.030173
  99 H :    0.021461
 100 H :    0.025346
 101 H :    0.027406
 102 H :    0.055261
 103 H :    0.030858
 104 H :    0.053432
 105 H :    0.094878

  Mayer bond orders larger than 0.100000
B(  0-C ,  1-C ) :   1.3802 B(  0-C , 10-C ) :   1.3267 B(  0-C , 80-H ) :   0.9906
B(  1-C ,  2-C ) :   0.8585 B(  1-C ,  5-C ) :   1.3439 B(  2-C ,  3-O ) :   2.1791
B(  2-C ,  4-O ) :   1.2759 B(  4-O , 81-H ) :   0.9383 B(  5-C ,  6-C ) :   1.0616
B(  5-C ,  8-C ) :   1.3613 B(  6-C ,  7-N ) :   2.9904 B(  8-C ,  9-C ) :   1.3767
B(  8-C , 82-H ) :   1.0112 B(  9-C , 10-C ) :   1.3282 B(  9-C , 18-C ) :   0.8986
B( 10-C , 11-C ) :   0.9917 B( 11-C , 12-C ) :   1.7104 B( 11-C , 17-C ) :   1.0246
B( 12-C , 13-C ) :   1.1429 B( 12-C , 15-C ) :   1.1472 B( 13-C , 14-N ) :   2.9936
B( 15-C , 16-N ) :   2.9739 B( 17-C , 18-C ) :   0.9343 B( 17-C , 20-C ) :   1.6430
B( 18-C , 19-O ) :   2.2935 B( 20-C , 21-C ) :   1.1100 B( 20-C , 83-H ) :   0.9559
B( 21-C , 22-C ) :   1.2156 B( 21-C , 25-N ) :   1.3692 B( 22-C , 23-C ) :   1.2526
B( 22-C , 30-C ) :   1.0752 B( 23-C , 24-C ) :   1.0548 B( 23-C , 28-C ) :   1.1519
B( 24-C , 25-N ) :   1.4893 B( 24-C , 26-O ) :   1.3098 B( 26-O , 27-C ) :   0.9241
B( 27-C , 84-H ) :   0.9680 B( 27-C , 85-H ) :   0.9734 B( 27-C , 86-H ) :   0.9691
B( 28-C , 29-N ) :   1.4155 B( 28-C , 33-C ) :   1.1300 B( 29-N , 30-C ) :   1.4635
B( 30-C , 31-O ) :   1.3384 B( 31-O , 32-C ) :   0.9046 B( 32-C , 87-H ) :   0.9720
B( 32-C , 88-H ) :   0.9795 B( 32-C , 89-H ) :   0.9751 B( 33-C , 34-C ) :   1.4531
B( 33-C , 38-S ) :   1.0771 B( 34-C , 35-C ) :   1.2393 B( 34-C , 90-H ) :   0.9725
B( 35-C , 36-C ) :   1.0697 B( 35-C , 44-C ) :   1.2862 B( 36-C , 37-C ) :   1.5671
B( 36-C , 39-C ) :   1.1908 B( 37-C , 38-S ) :   1.1708 B( 37-C , 91-H ) :   0.9406
B( 39-C , 40-C ) :   1.4208 B( 39-C , 43-S ) :   1.0822 B( 40-C , 41-C ) :   1.2274
B( 40-C , 44-C ) :   1.1100 B( 41-C , 42-C ) :   1.5858 B( 41-C , 92-H ) :   0.9980
B( 42-C , 43-S ) :   1.1532 B( 42-C , 93-H ) :   0.9661 B( 44-C , 45-C ) :   1.2234
B( 45-C , 46-C ) :   1.4547 B( 45-C , 94-H ) :   0.9558 B( 46-C , 47-C ) :   1.2599
B( 46-C , 95-H ) :   0.9605 B( 47-C , 48-C ) :   1.0740 B( 47-C , 51-N ) :   1.3583
B( 48-C , 49-C ) :   1.3440 B( 48-C , 56-C ) :   1.1233 B( 49-C , 50-C ) :   1.0309
B( 49-C , 54-C ) :   1.1583 B( 50-C , 51-N ) :   1.5119 B( 50-C , 52-O ) :   1.2847
B( 52-O , 53-C ) :   0.8926 B( 53-C , 96-H ) :   0.9803 B( 53-C , 97-H ) :   0.9586
B( 53-C , 98-H ) :   0.9694 B( 54-C , 55-N ) :   1.3667 B( 54-C , 59-C ) :   1.1696
B( 55-N , 56-C ) :   1.5010 B( 56-C , 57-O ) :   1.2247 B( 57-O , 58-C ) :   0.9165
B( 58-C , 99-H ) :   0.9779 B( 58-C ,100-H ) :   0.9726 B( 58-C ,101-H ) :   0.9730
B( 59-C , 60-C ) :   1.5406 B( 59-C ,102-H ) :   0.9472 B( 60-C , 61-C ) :   0.9443
B( 60-C , 74-C ) :   1.0888 B( 61-C , 62-O ) :   2.2864 B( 61-C , 63-C ) :   0.8946
B( 63-C , 64-C ) :   1.3404 B( 63-C , 68-C ) :   1.3581 B( 64-C , 65-C ) :   1.4020
B( 64-C , 74-C ) :   0.9989 B( 65-C , 66-C ) :   1.2994 B( 65-C ,103-H ) :   0.9562
B( 66-C , 67-C ) :   1.3987 B( 66-C , 71-C ) :   0.8695 B( 67-C , 68-C ) :   1.3613
B( 67-C , 69-C ) :   1.0665 B( 68-C ,104-H ) :   1.0161 B( 69-C , 70-N ) :   3.0352
B( 71-C , 72-O ) :   2.1657 B( 71-C , 73-O ) :   1.2554 B( 73-O ,105-H ) :   0.9526
B( 74-C , 75-C ) :   1.6164 B( 75-C , 76-C ) :   1.1604 B( 75-C , 78-C ) :   1.1450
B( 76-C , 77-N ) :   3.0010 B( 78-C , 79-N ) :   2.9079

-----------------------------------------------------------------------------
         ABSORPTION SPECTRUM VIA TRANSITION ELECTRIC DIPOLE MOMENTS
-----------------------------------------------------------------------------
State   Energy  Wavelength   fosc         T2         TX        TY        TZ
        (cm-1)    (nm)                  (au**2)     (au)      (au)      (au)
-----------------------------------------------------------------------------
   0    9506.1   1052.0   0.945316472  32.73776  -2.14054   5.20172   1.04784
   1   14301.0    699.3   0.223834966   5.15272   1.73471   0.37247  -1.41590
   2   14858.4    673.0   0.004360049   0.09660   0.14118  -0.14273  -0.23728
   3   15184.7    658.6   0.165757981   3.59371   1.36597   0.82320  -1.02478
   4   16683.7    599.4   0.217795066   4.29765   0.56221   1.81200  -0.83560
   5   19323.9    517.5   0.057140430   0.97347  -0.88759  -0.04172   0.42885
   6   20183.2    495.5   0.091300921   1.48922  -0.19808   0.94311  -0.74869
   7   21254.6    470.5   0.035020739   0.54244   0.70099  -0.20919   0.08532
   8   21773.7    459.3   0.034254771   0.51792  -0.71343  -0.03559   0.08759
   9   22070.8    453.1   0.036071630   0.53805  -0.48218  -0.55250   0.01710
  10   22828.6    438.0   0.012767851   0.18413   0.34579  -0.20078  -0.15571
  11   22973.2    435.3   0.051699757   0.74087   0.52258  -0.68292   0.03745
  12   23404.0    427.3   0.130315824   1.83309   1.07455   0.70490  -0.42608
  13   24192.8    413.3   0.023513521   0.31997  -0.05102  -0.08369  -0.55710
  14   24963.2    400.6   0.012800585   0.16881   0.07317  -0.27970   0.29194
  15   25583.3    390.9   0.033780001   0.43469   0.49202  -0.22839   0.37476
  16   25852.5    386.8   0.020197683   0.25720   0.41353  -0.12379  -0.26622
  17   26069.9    383.6   0.080702934   1.01912  -0.98262   0.20756  -0.10246
  18   26530.9    376.9   0.006314625   0.07836  -0.26353   0.09050   0.02682
  19   27413.2    364.8   0.011980795   0.14388  -0.36488   0.03533  -0.09744
  20   27665.0    361.5   0.044444683   0.52889   0.07546  -0.72329  -0.00628
  21   27883.9    358.6   0.014776425   0.17446   0.04034  -0.34892  -0.22602
  22   28279.4    353.6   0.011651270   0.13564   0.35880  -0.08261  -0.00856
  23   28372.7    352.5   0.036470174   0.42317  -0.11754   0.30220   0.56394
  24   28688.9    348.6   0.016043560   0.18410  -0.10999  -0.10122   0.40219
  25   28891.9    346.1   0.077624392   0.88450   0.64055   0.68686  -0.04927
  26   29420.8    339.9   0.045984701   0.51456  -0.52270  -0.48617  -0.07057
  27   30371.7    329.3   0.040744900   0.44165   0.10548  -0.32670   0.56903
  28   30632.8    326.4   0.349132558   3.75214   1.75953  -0.55384  -0.59114
  29   31203.9    320.5   0.045332688   0.47828  -0.09019   0.08098   0.68087
  30   31269.8    319.8   0.045418121   0.47817  -0.50950  -0.04388   0.46546
  31   31680.6    315.7   0.060578753   0.62951   0.46136   0.59604  -0.24777
  32   31731.1    315.1   0.052402242   0.54368  -0.26810   0.53644  -0.42898
  33   32140.2    311.1   0.128281342   1.31399  -0.43983  -1.05559   0.07916
  34   32168.4    310.9   0.025313127   0.25906  -0.12111   0.49422   0.01170
  35   32504.1    307.7   0.089011143   0.90153   0.33884   0.47921  -0.74638
  36   32605.1    306.7   0.248873532   2.51286   0.76636   1.32134   0.42381
  37   33003.4    303.0   0.007686310   0.07667   0.13331  -0.22456  -0.09204
  38   33005.3    303.0   0.015367371   0.15328  -0.25841   0.12343   0.26697
  39   33221.9    301.0   0.228569605   2.26501   1.34030   0.34994  -0.58834
  40   33575.9    297.8   0.108074431   1.05967   0.23789   0.87225   0.49220
  41   33682.5    296.9   0.078489238   0.76715  -0.12071   0.85304  -0.15779
  42   33898.5    295.0   0.603522824   5.86124  -2.40136   0.13552   0.27626
  43   34122.5    293.1   0.087870768   0.84777  -0.25522  -0.85168   0.23933
  44   34148.3    292.8   0.015251670   0.14704  -0.06649   0.34043  -0.16348
  45   34754.1    287.7   0.046199513   0.43763  -0.41796   0.19006   0.47626
  46   34819.3    287.2   0.132207457   1.25000   0.38758   0.99195   0.34033
  47   35321.4    283.1   0.027763578   0.25877   0.50058  -0.09040  -0.00377
  48   35606.9    280.8   0.012420264   0.11483   0.00922  -0.30847  -0.13998
  49   35784.5    279.5   0.002628147   0.02418  -0.00937   0.10040   0.11837
  50   35937.1    278.3   0.008898076   0.08151  -0.23001   0.00395   0.16910
  51   35964.0    278.1   0.051091426   0.46769  -0.42740   0.48214   0.22925
  52   36104.1    277.0   0.092397837   0.84252  -0.25345  -0.87347  -0.12386
  53   36173.8    276.4   0.009298800   0.08463   0.12249  -0.25466  -0.06906
  54   36362.3    275.0   0.077920180   0.70546   0.34008   0.54344   0.54266
  55   36508.8    273.9   0.047822630   0.43123  -0.10854  -0.03559   0.64667
  56   36558.4    273.5   0.017640218   0.15885  -0.30043  -0.13174  -0.22635
  57   36682.7    272.6   0.035282296   0.31664   0.22399  -0.49793   0.13614
  58   36858.5    271.3   0.019157909   0.17111  -0.38650  -0.03560  -0.14305
  59   37136.2    269.3   0.108066963   0.95801   0.49315   0.80150   0.26909
  60   37219.6    268.7   0.034445549   0.30467  -0.44447  -0.31384   0.09289
  61   37314.9    268.0   0.055712911   0.49153  -0.66270  -0.11571   0.19742
  62   37644.9    265.6   0.012646669   0.11060   0.27868  -0.17233  -0.05687
  63   37731.2    265.0   0.025673063   0.22400  -0.16178   0.39732   0.19991
  64   37995.0    263.2   0.027323762   0.23675   0.15575   0.33316  -0.31859
  65   38104.2    262.4   0.103041955   0.89026  -0.83860  -0.43244  -0.00306
  66   38374.8    260.6   0.029207632   0.25057   0.19933   0.11916  -0.44344
  67   38641.0    258.8   0.030649184   0.26112  -0.08515  -0.40791  -0.29577
  68   38849.5    257.4   0.090818281   0.76960   0.77948   0.18840   0.35569
  69   39219.5    255.0   0.015161890   0.12727  -0.19140  -0.25405  -0.16154
  70   39467.0    253.4   0.102052197   0.85126  -0.78571  -0.48004   0.05907
  71   39581.3    252.6   0.053493557   0.44493   0.46781   0.47250  -0.05307
  72   39698.4    251.9   0.061216613   0.50766  -0.45175   0.55025   0.02850
  73   39874.9    250.8   0.169676667   1.40087  -0.50247  -1.07150   0.01704
  74   39975.6    250.2   0.005460527   0.04497  -0.19430  -0.05057   0.06825
  75   40070.4    249.6   0.119410898   0.98106   0.89187   0.25881  -0.34444
  76   40119.0    249.3   0.046071951   0.37806   0.39357  -0.45138  -0.13936
  77   40308.5    248.1   0.064552817   0.52722   0.34221   0.47654  -0.42781

FINAL SINGLE POINT ENERGY     -4317.118863939772

DIPOLE MOMENT
-------------
                                X             Y             Z
Electronic contribution:      3.71680      23.07045     -10.36816
Nuclear contribution   :     -7.66421     -24.33977      15.42524
                        -----------------------------------------
Total Dipole Moment    :     -3.94741      -1.26932       5.05708
                        -----------------------------------------
Magnitude (a.u.)       :      6.53967
Magnitude (Debye)      :     16.62251

Rotational constants in cm-1:     0.000862     0.000309     0.000242
Rotational constants in MHz :    25.850859     9.257359     7.254861

                             ****ORCA TERMINATED NORMALLY****
TOTAL RUN TIME: 0 days 0 hours 16 minutes 34 seconds 574 msec
