                         Program Version 4.2.0 -  RELEASE  -
|  1> # ORCA input file
|  2> # SCF done       -207.139377285301          0.000739540285
|  3> ! CAM-B3LYP def2-SVP def2/J RIJCOSX Grid4 TightSCF
|  4> %maxcore 5000
|  5> %tddft
|  6>     Mode sTDDFT
|  7>     Ethresh 5.0
|  8>     maxcore 5000
|  9> end
| 10>
| 11> %pal
| 12>   nprocs 6
| 13>   end
| 14> * xyz 0 1
| 15>    C        4.50836        -0.90100         2.12593
| 16>    C        4.71285         0.45161         1.86141
| 17>    C        5.25244         1.39080         2.90114
| 18>    O        4.99664         2.56083         2.89290
| 19>    O        6.03805         0.85821         3.84497
| 20>    C        4.36233         0.99330         0.61272
| 21>    C        4.57296         2.36169         0.30323
| 22>    N        4.73084         3.43119        -0.07489
| 23>    C        3.82017         0.17956        -0.38663
| 24>    C        3.63000        -1.15651        -0.11031
| 25>    C        3.96427        -1.70920         1.13953
| 26>    C        3.60906        -3.12968         1.14085
| 27>    C        3.44048        -3.89595         2.26454
| 28>    C        3.80204        -3.47127         3.55866
| 29>    N        4.12353        -3.17051         4.61925
| 30>    C        2.83199        -5.16930         2.28555
| 31>    N        2.28577        -6.17135         2.40548
| 32>    C        3.23699        -3.47846        -0.21470
| 33>    C        3.08345        -2.22026        -0.98928
| 34>    O        2.64930        -2.09536        -2.10884
| 35>    C        3.09644        -4.67456        -0.84560
| 36>    C        3.54257        -5.96803        -0.42822
| 37>    C        2.84388        -7.11716        -0.87397
| 38>    O        1.74702        -6.89625        -1.62202
| 39>    C        0.99018        -8.00243        -2.07035
| 40>    C        3.30752        -8.36818        -0.49586
| 41>    C        4.44334        -8.53012         0.29313
| 42>    C        5.11793        -7.39302         0.76942
| 43>    C        4.66336        -6.14222         0.38406
| 44>    O        6.19358        -7.38657         1.60820
| 45>    C        6.27945        -8.36503         2.62131
| 46>    C        4.89186        -9.91456         0.51916
| 47>    C        6.18032       -10.31930         0.12592
| 48>    O        6.97970        -9.35666        -0.40132
| 49>    C        8.27817        -9.70477        -0.81505
| 50>    C        6.53482       -11.65112         0.26989
| 51>    C        5.63900       -12.59586         0.76826
| 52>    C        4.35388       -12.18458         1.17158
| 53>    C        4.00643       -10.84886         1.03480
| 54>    O        3.52692       -13.12811         1.70835
| 55>    C        2.37733       -12.69738         2.40245
| 56>    C        6.02769       -13.99721         0.85953
| 57>    C        5.16346       -14.99845         0.51671
| 58>    C        5.43334       -16.36344         0.60534
| 59>    C        6.76550       -16.83363         0.98291
| 60>    C        7.78285       -16.01349         1.34134
| 61>    S        7.64671       -14.30812         1.42580
| 62>    C        6.72128       -18.25164         0.86080
| 63>    C        5.45341       -18.64552         0.44091
| 64>    C        5.34748       -20.04609         0.30956
| 65>    C        6.51632       -20.66587         0.62460
| 66>    S        7.78184       -19.58465         1.09375
| 67>    C        4.61537       -17.47537         0.29198
| 68>    C        3.26672       -17.54026        -0.08605
| 69>    C        2.32554       -16.53756        -0.05917
| 70>    C        1.01340       -16.74943        -0.48250
| 71>    C       -0.02044       -15.83546        -0.52617
| 72>    C       -1.41369       -16.33176        -0.54449
| 73>    O       -1.78277       -17.46995        -0.73854
| 74>    C       -2.25561       -15.15563        -0.22678
| 75>    C       -3.60051       -15.08971        -0.01511
| 76>    C       -4.18265       -13.84571         0.32318
| 77>    C       -3.35297       -12.69348         0.43426
| 78>    C       -3.93756       -11.45956         0.78053
| 79>    C       -5.28332       -11.37279         1.00432
| 80>    C       -6.10279       -12.51233         0.89329
| 81>    C       -5.56503       -13.72409         0.55907
| 82>    F       -7.41950       -12.39971         1.12027
| 83>    F       -5.83564       -10.19634         1.33351
| 84>    C       -1.96152       -12.79305         0.19694
| 85>    C       -1.42212       -14.00627        -0.13156
| 86>    C       -0.04843       -14.40549        -0.44359
| 87>    C        0.95059       -13.52109        -0.79347
| 88>    C        2.18306       -13.88013        -1.36517
| 89>    N        3.19940       -14.07790        -1.86500
| 90>    C        0.84569       -12.12313        -0.72412
| 91>    N        0.86797       -10.97325        -0.67063
| 92>    H        4.74399        -1.31256         3.09628
| 93>    H        6.17895        -0.09364         3.75220
| 94>    H        3.55238         0.58837        -1.34904
| 95>    H        2.62159        -4.63194        -1.82074
| 96>    H        0.14266        -7.57602        -2.60407
| 97>    H        0.63315        -8.60981        -1.23668
| 98>    H        1.57037        -8.63091        -2.75201
| 99>    H        2.80486        -9.25944        -0.83742
|100>    H        5.23354        -5.28471         0.70670
|101>    H        6.84171        -9.24426         2.29605
|102>    H        5.28916        -8.67712         2.96098
|103>    H        6.81095        -7.89191         3.44839
|104>    H        8.72213        -8.78177        -1.18347
|105>    H        8.25801       -10.44496        -1.62115
|106>    H        8.87850       -10.08647         0.01735
|107>    H        7.50896       -11.99597        -0.03943
|108>    H        3.02786       -10.50372         1.32684
|109>    H        1.94560       -13.59885         2.83653
|110>    H        1.64625       -12.23299         1.73410
|111>    H        2.63336       -11.99574         3.20046
|112>    H        4.23184       -14.68001         0.08514
|113>    H        8.75791       -16.38687         1.61214
|114>    H        4.46413       -20.57411        -0.00037
|115>    H        6.72509       -21.71775         0.61248
|116>    H        2.93308       -18.51215        -0.43288
|117>    H        2.57589       -15.57516         0.35436
|118>    H        0.72114       -17.76629        -0.72572
|119>    H       -4.21473       -15.97296        -0.10139
|120>    H       -3.32557       -10.57543         0.86841
|121>    H       -6.20609       -14.58791         0.47855
|122>    H       -1.35830       -11.90390         0.29199
|123> *
|124>
|125>                          ****END OF INPUT****

CARTESIAN COORDINATES (ANGSTROEM)
---------------------------------
  C      4.508360   -0.901000    2.125930
  C      4.712850    0.451610    1.861410
  C      5.252440    1.390800    2.901140
  O      4.996640    2.560830    2.892900
  O      6.038050    0.858210    3.844970
  C      4.362330    0.993300    0.612720
  C      4.572960    2.361690    0.303230
  N      4.730840    3.431190   -0.074890
  C      3.820170    0.179560   -0.386630
  C      3.630000   -1.156510   -0.110310
  C      3.964270   -1.709200    1.139530
  C      3.609060   -3.129680    1.140850
  C      3.440480   -3.895950    2.264540
  C      3.802040   -3.471270    3.558660
  N      4.123530   -3.170510    4.619250
  C      2.831990   -5.169300    2.285550
  N      2.285770   -6.171350    2.405480
  C      3.236990   -3.478460   -0.214700
  C      3.083450   -2.220260   -0.989280
  O      2.649300   -2.095360   -2.108840
  C      3.096440   -4.674560   -0.845600
  C      3.542570   -5.968030   -0.428220
  C      2.843880   -7.117160   -0.873970
  O      1.747020   -6.896250   -1.622020
  C      0.990180   -8.002430   -2.070350
  C      3.307520   -8.368180   -0.495860
  C      4.443340   -8.530120    0.293130
  C      5.117930   -7.393020    0.769420
  C      4.663360   -6.142220    0.384060
  O      6.193580   -7.386570    1.608200
  C      6.279450   -8.365030    2.621310
  C      4.891860   -9.914560    0.519160
  C      6.180320  -10.319300    0.125920
  O      6.979700   -9.356660   -0.401320
  C      8.278170   -9.704770   -0.815050
  C      6.534820  -11.651120    0.269890
  C      5.639000  -12.595860    0.768260
  C      4.353880  -12.184580    1.171580
  C      4.006430  -10.848860    1.034800
  O      3.526920  -13.128110    1.708350
  C      2.377330  -12.697380    2.402450
  C      6.027690  -13.997210    0.859530
  C      5.163460  -14.998450    0.516710
  C      5.433340  -16.363440    0.605340
  C      6.765500  -16.833630    0.982910
  C      7.782850  -16.013490    1.341340
  S      7.646710  -14.308120    1.425800
  C      6.721280  -18.251640    0.860800
  C      5.453410  -18.645520    0.440910
  C      5.347480  -20.046090    0.309560
  C      6.516320  -20.665870    0.624600
  S      7.781840  -19.584650    1.093750
  C      4.615370  -17.475370    0.291980
  C      3.266720  -17.540260   -0.086050
  C      2.325540  -16.537560   -0.059170
  C      1.013400  -16.749430   -0.482500
  C     -0.020440  -15.835460   -0.526170
  C     -1.413690  -16.331760   -0.544490
  O     -1.782770  -17.469950   -0.738540
  C     -2.255610  -15.155630   -0.226780
  C     -3.600510  -15.089710   -0.015110
  C     -4.182650  -13.845710    0.323180
  C     -3.352970  -12.693480    0.434260
  C     -3.937560  -11.459560    0.780530
  C     -5.283320  -11.372790    1.004320
  C     -6.102790  -12.512330    0.893290
  C     -5.565030  -13.724090    0.559070
  F     -7.419500  -12.399710    1.120270
  F     -5.835640  -10.196340    1.333510
  C     -1.961520  -12.793050    0.196940
  C     -1.422120  -14.006270   -0.131560
  C     -0.048430  -14.405490   -0.443590
  C      0.950590  -13.521090   -0.793470
  C      2.183060  -13.880130   -1.365170
  N      3.199400  -14.077900   -1.865000
  C      0.845690  -12.123130   -0.724120
  N      0.867970  -10.973250   -0.670630
  H      4.743990   -1.312560    3.096280
  H      6.178950   -0.093640    3.752200
  H      3.552380    0.588370   -1.349040
  H      2.621590   -4.631940   -1.820740
  H      0.142660   -7.576020   -2.604070
  H      0.633150   -8.609810   -1.236680
  H      1.570370   -8.630910   -2.752010
  H      2.804860   -9.259440   -0.837420
  H      5.233540   -5.284710    0.706700
  H      6.841710   -9.244260    2.296050
  H      5.289160   -8.677120    2.960980
  H      6.810950   -7.891910    3.448390
  H      8.722130   -8.781770   -1.183470
  H      8.258010  -10.444960   -1.621150
  H      8.878500  -10.086470    0.017350
  H      7.508960  -11.995970   -0.039430
  H      3.027860  -10.503720    1.326840
  H      1.945600  -13.598850    2.836530
  H      1.646250  -12.232990    1.734100
  H      2.633360  -11.995740    3.200460
  H      4.231840  -14.680010    0.085140
  H      8.757910  -16.386870    1.612140
  H      4.464130  -20.574110   -0.000370
  H      6.725090  -21.717750    0.612480
  H      2.933080  -18.512150   -0.432880
  H      2.575890  -15.575160    0.354360
  H      0.721140  -17.766290   -0.725720
  H     -4.214730  -15.972960   -0.101390
  H     -3.325570  -10.575430    0.868410
  H     -6.206090  -14.587910    0.478550
  H     -1.358300  -11.903900    0.291990

 Total Charge           Charge          ....    0
 Multiplicity           Mult            ....    1
 Number of Electrons    NEL             ....  540
 Basis Dimension        Dim             .... 1241

ORBITAL ENERGIES
----------------

  NO   OCC          E(Eh)            E(eV)
   0   2.0000     -88.998415     -2421.7700
   1   2.0000     -88.966563     -2420.9032
   2   2.0000     -24.795796      -674.7279
   3   2.0000     -24.795423      -674.7178
   4   2.0000     -19.272570      -524.4333
   5   2.0000     -19.261106      -524.1213
   6   2.0000     -19.255894      -523.9795
   7   2.0000     -19.251540      -523.8610
   8   2.0000     -19.237455      -523.4778
   9   2.0000     -19.224524      -523.1259
  10   2.0000     -19.210953      -522.7566
  11   2.0000     -19.205600      -522.6110
  12   2.0000     -14.428221      -392.6118
  13   2.0000     -14.424923      -392.5221
  14   2.0000     -14.420581      -392.4040
  15   2.0000     -14.412929      -392.1957
  16   2.0000     -14.405368      -391.9900
  17   2.0000     -10.416839      -283.4566
  18   2.0000     -10.378552      -282.4147
  19   2.0000     -10.378186      -282.4048
  20   2.0000     -10.375593      -282.3342
  21   2.0000     -10.357199      -281.8337
  22   2.0000     -10.354320      -281.7554
  23   2.0000     -10.352584      -281.7081
  24   2.0000     -10.347676      -281.5746
  25   2.0000     -10.344041      -281.4757
  26   2.0000     -10.343984      -281.4741
  27   2.0000     -10.343204      -281.4529
  28   2.0000     -10.340902      -281.3902
  29   2.0000     -10.339422      -281.3500
  30   2.0000     -10.339200      -281.3439
  31   2.0000     -10.335270      -281.2370
  32   2.0000     -10.332670      -281.1662
  33   2.0000     -10.332631      -281.1652
  34   2.0000     -10.331931      -281.1461
  35   2.0000     -10.331771      -281.1418
  36   2.0000     -10.331437      -281.1327
  37   2.0000     -10.330842      -281.1165
  38   2.0000     -10.330421      -281.1050
  39   2.0000     -10.325837      -280.9803
  40   2.0000     -10.322484      -280.8891
  41   2.0000     -10.321592      -280.8648
  42   2.0000     -10.319260      -280.8013
  43   2.0000     -10.318136      -280.7708
  44   2.0000     -10.317932      -280.7652
  45   2.0000     -10.316031      -280.7135
  46   2.0000     -10.314183      -280.6632
  47   2.0000     -10.313771      -280.6520
  48   2.0000     -10.309752      -280.5426
  49   2.0000     -10.308790      -280.5164
  50   2.0000     -10.308688      -280.5136
  51   2.0000     -10.307714      -280.4872
  52   2.0000     -10.306932      -280.4659
  53   2.0000     -10.306728      -280.4603
  54   2.0000     -10.305744      -280.4336
  55   2.0000     -10.304191      -280.3913
  56   2.0000     -10.304012      -280.3864
  57   2.0000     -10.300328      -280.2862
  58   2.0000     -10.299857      -280.2733
  59   2.0000     -10.298686      -280.2415
  60   2.0000     -10.298549      -280.2378
  61   2.0000     -10.298003      -280.2229
  62   2.0000     -10.297554      -280.2107
  63   2.0000     -10.296628      -280.1855
  64   2.0000     -10.295947      -280.1669
  65   2.0000     -10.294596      -280.1302
  66   2.0000     -10.291509      -280.0462
  67   2.0000     -10.288560      -279.9660
  68   2.0000     -10.288325      -279.9596
  69   2.0000     -10.286808      -279.9183
  70   2.0000     -10.285589      -279.8851
  71   2.0000     -10.285162      -279.8735
  72   2.0000     -10.284542      -279.8566
  73   2.0000     -10.282560      -279.8027
  74   2.0000     -10.280973      -279.7595
  75   2.0000     -10.280288      -279.7409
  76   2.0000     -10.273868      -279.5661
  77   2.0000      -8.093364      -220.2316
  78   2.0000      -8.062021      -219.3788
  79   2.0000      -6.062582      -164.9713
  80   2.0000      -6.058038      -164.8476
  81   2.0000      -6.056043      -164.7933
  82   2.0000      -6.031483      -164.1250
  83   2.0000      -6.027216      -164.0089
  84   2.0000      -6.024008      -163.9216
  85   2.0000      -1.318138       -35.8684
  86   2.0000      -1.303375       -35.4666
  87   2.0000      -1.196300       -32.5530
  88   2.0000      -1.163935       -31.6723
  89   2.0000      -1.162084       -31.6219
  90   2.0000      -1.157357       -31.4933
  91   2.0000      -1.141101       -31.0509
  92   2.0000      -1.140203       -31.0265
  93   2.0000      -1.120298       -30.4849
  94   2.0000      -1.111357       -30.2416
  95   2.0000      -1.031541       -28.0697
  96   2.0000      -1.021991       -27.8098
  97   2.0000      -1.020303       -27.7639
  98   2.0000      -1.014746       -27.6126
  99   2.0000      -1.003771       -27.3140
 100   2.0000      -1.002457       -27.2783
 101   2.0000      -0.997524       -27.1440
 102   2.0000      -0.991981       -26.9932
 103   2.0000      -0.991649       -26.9841
 104   2.0000      -0.977924       -26.6107
 105   2.0000      -0.972555       -26.4646
 106   2.0000      -0.967510       -26.3273
 107   2.0000      -0.955576       -26.0026
 108   2.0000      -0.942714       -25.6525
 109   2.0000      -0.929698       -25.2984
 110   2.0000      -0.920057       -25.0360
 111   2.0000      -0.915815       -24.9206
 112   2.0000      -0.910216       -24.7682
 113   2.0000      -0.899285       -24.4708
 114   2.0000      -0.892817       -24.2948
 115   2.0000      -0.891504       -24.2591
 116   2.0000      -0.887863       -24.1600
 117   2.0000      -0.873165       -23.7600
 118   2.0000      -0.865254       -23.5448
 119   2.0000      -0.858152       -23.3515
 120   2.0000      -0.853518       -23.2254
 121   2.0000      -0.845494       -23.0071
 122   2.0000      -0.840452       -22.8699
 123   2.0000      -0.837632       -22.7931
 124   2.0000      -0.819395       -22.2969
 125   2.0000      -0.816835       -22.2272
 126   2.0000      -0.809663       -22.0321
 127   2.0000      -0.804736       -21.8980
 128   2.0000      -0.797333       -21.6965
 129   2.0000      -0.791192       -21.5294
 130   2.0000      -0.780322       -21.2336
 131   2.0000      -0.773111       -21.0374
 132   2.0000      -0.764170       -20.7941
 133   2.0000      -0.758387       -20.6368
 134   2.0000      -0.746708       -20.3190
 135   2.0000      -0.744247       -20.2520
 136   2.0000      -0.741423       -20.1752
 137   2.0000      -0.728403       -19.8209
 138   2.0000      -0.722167       -19.6512
 139   2.0000      -0.714924       -19.4541
 140   2.0000      -0.713978       -19.4283
 141   2.0000      -0.706792       -19.2328
 142   2.0000      -0.703410       -19.1408
 143   2.0000      -0.693978       -18.8841
 144   2.0000      -0.687383       -18.7046
 145   2.0000      -0.685647       -18.6574
 146   2.0000      -0.681194       -18.5362
 147   2.0000      -0.673752       -18.3337
 148   2.0000      -0.671272       -18.2662
 149   2.0000      -0.660420       -17.9709
 150   2.0000      -0.654838       -17.8190
 151   2.0000      -0.649086       -17.6625
 152   2.0000      -0.647157       -17.6100
 153   2.0000      -0.644763       -17.5449
 154   2.0000      -0.639171       -17.3927
 155   2.0000      -0.634965       -17.2783
 156   2.0000      -0.627748       -17.0819
 157   2.0000      -0.623585       -16.9686
 158   2.0000      -0.618141       -16.8205
 159   2.0000      -0.614180       -16.7127
 160   2.0000      -0.610692       -16.6178
 161   2.0000      -0.606612       -16.5068
 162   2.0000      -0.602513       -16.3952
 163   2.0000      -0.601183       -16.3590
 164   2.0000      -0.594959       -16.1896
 165   2.0000      -0.590305       -16.0630
 166   2.0000      -0.587097       -15.9757
 167   2.0000      -0.583194       -15.8695
 168   2.0000      -0.582873       -15.8608
 169   2.0000      -0.577697       -15.7199
 170   2.0000      -0.575330       -15.6555
 171   2.0000      -0.573986       -15.6189
 172   2.0000      -0.569053       -15.4847
 173   2.0000      -0.567045       -15.4301
 174   2.0000      -0.562334       -15.3019
 175   2.0000      -0.557689       -15.1755
 176   2.0000      -0.556173       -15.1342
 177   2.0000      -0.554431       -15.0868
 178   2.0000      -0.552541       -15.0354
 179   2.0000      -0.551488       -15.0068
 180   2.0000      -0.546264       -14.8646
 181   2.0000      -0.545222       -14.8362
 182   2.0000      -0.544613       -14.8197
 183   2.0000      -0.544184       -14.8080
 184   2.0000      -0.540746       -14.7144
 185   2.0000      -0.538546       -14.6546
 186   2.0000      -0.534436       -14.5427
 187   2.0000      -0.532763       -14.4972
 188   2.0000      -0.531657       -14.4671
 189   2.0000      -0.529797       -14.4165
 190   2.0000      -0.528733       -14.3876
 191   2.0000      -0.527954       -14.3664
 192   2.0000      -0.523790       -14.2530
 193   2.0000      -0.523193       -14.2368
 194   2.0000      -0.519712       -14.1421
 195   2.0000      -0.516854       -14.0643
 196   2.0000      -0.514354       -13.9963
 197   2.0000      -0.512208       -13.9379
 198   2.0000      -0.511119       -13.9083
 199   2.0000      -0.506004       -13.7691
 200   2.0000      -0.504735       -13.7345
 201   2.0000      -0.501441       -13.6449
 202   2.0000      -0.500932       -13.6310
 203   2.0000      -0.498504       -13.5650
 204   2.0000      -0.496595       -13.5130
 205   2.0000      -0.491570       -13.3763
 206   2.0000      -0.491118       -13.3640
 207   2.0000      -0.488000       -13.2792
 208   2.0000      -0.483936       -13.1686
 209   2.0000      -0.480577       -13.0772
 210   2.0000      -0.479248       -13.0410
 211   2.0000      -0.476682       -12.9712
 212   2.0000      -0.471344       -12.8259
 213   2.0000      -0.470204       -12.7949
 214   2.0000      -0.468474       -12.7478
 215   2.0000      -0.465678       -12.6717
 216   2.0000      -0.465393       -12.6640
 217   2.0000      -0.463525       -12.6131
 218   2.0000      -0.461805       -12.5663
 219   2.0000      -0.460504       -12.5310
 220   2.0000      -0.458339       -12.4720
 221   2.0000      -0.456700       -12.4274
 222   2.0000      -0.451169       -12.2769
 223   2.0000      -0.450513       -12.2591
 224   2.0000      -0.448981       -12.2174
 225   2.0000      -0.448540       -12.2054
 226   2.0000      -0.446551       -12.1513
 227   2.0000      -0.444003       -12.0819
 228   2.0000      -0.441033       -12.0011
 229   2.0000      -0.439897       -11.9702
 230   2.0000      -0.438015       -11.9190
 231   2.0000      -0.435301       -11.8452
 232   2.0000      -0.434479       -11.8228
 233   2.0000      -0.432710       -11.7746
 234   2.0000      -0.432067       -11.7571
 235   2.0000      -0.428406       -11.6575
 236   2.0000      -0.425962       -11.5910
 237   2.0000      -0.424785       -11.5590
 238   2.0000      -0.423772       -11.5314
 239   2.0000      -0.421746       -11.4763
 240   2.0000      -0.420257       -11.4358
 241   2.0000      -0.418473       -11.3872
 242   2.0000      -0.415549       -11.3077
 243   2.0000      -0.411876       -11.2077
 244   2.0000      -0.408930       -11.1275
 245   2.0000      -0.405723       -11.0403
 246   2.0000      -0.402966       -10.9653
 247   2.0000      -0.400452       -10.8969
 248   2.0000      -0.400324       -10.8934
 249   2.0000      -0.395471       -10.7613
 250   2.0000      -0.385443       -10.4884
 251   2.0000      -0.377994       -10.2857
 252   2.0000      -0.372464       -10.1353
 253   2.0000      -0.369872       -10.0647
 254   2.0000      -0.367671       -10.0048
 255   2.0000      -0.362300        -9.8587
 256   2.0000      -0.356934        -9.7127
 257   2.0000      -0.348503        -9.4832
 258   2.0000      -0.346602        -9.4315
 259   2.0000      -0.336787        -9.1644
 260   2.0000      -0.330825        -9.0022
 261   2.0000      -0.326781        -8.8922
 262   2.0000      -0.317454        -8.6384
 263   2.0000      -0.311507        -8.4765
 264   2.0000      -0.306774        -8.3477
 265   2.0000      -0.299130        -8.1398
 266   2.0000      -0.294165        -8.0046
 267   2.0000      -0.280273        -7.6266
 268   2.0000      -0.269861        -7.3433
 269   2.0000      -0.244742        -6.6598
 270   0.0000      -0.101209        -2.7540
 271   0.0000      -0.097859        -2.6629
 272   0.0000      -0.077151        -2.0994
 273   0.0000      -0.063202        -1.7198
 274   0.0000      -0.047465        -1.2916

MULLIKEN ATOMIC CHARGES
-----------------------
   0 C :   -0.087558
   1 C :    0.019789
   2 C :    0.182990
   3 O :   -0.145991
   4 O :   -0.140681
   5 C :   -0.079597
   6 C :   -0.152921
   7 N :    0.138933
   8 C :   -0.039131
   9 C :    0.007369
  10 C :    0.030628
  11 C :    0.279398
  12 C :   -0.332524
  13 C :   -0.170893
  14 N :    0.141237
  15 C :   -0.185883
  16 N :    0.179060
  17 C :   -0.125944
  18 C :    0.141323
  19 O :   -0.125626
  20 C :    0.068229
  21 C :   -0.011710
  22 C :    0.258565
  23 O :   -0.301517
  24 C :    0.174750
  25 C :   -0.139990
  26 C :    0.029673
  27 C :    0.201782
  28 C :   -0.070778
  29 O :   -0.321511
  30 C :    0.208005
  31 C :   -0.033309
  32 C :    0.234618
  33 O :   -0.299634
  34 C :    0.177394
  35 C :   -0.157831
  36 C :    0.068963
  37 C :    0.220833
  38 C :   -0.120842
  39 O :   -0.330690
  40 C :    0.179095
  41 C :   -0.108817
  42 C :    0.046204
  43 C :    0.066982
  44 C :    0.063389
  45 C :   -0.137245
  46 S :    0.175819
  47 C :   -0.114607
  48 C :    0.061286
  49 C :    0.005835
  50 C :   -0.066842
  51 S :    0.133869
  52 C :    0.083985
  53 C :   -0.007020
  54 C :   -0.008885
  55 C :    0.022268
  56 C :   -0.138270
  57 C :    0.140748
  58 O :   -0.152355
  59 C :    0.011208
  60 C :   -0.088353
  61 C :    0.114056
  62 C :    0.117519
  63 C :   -0.113453
  64 C :    0.240111
  65 C :    0.239783
  66 C :   -0.107524
  67 F :   -0.174182
  68 F :   -0.173510
  69 C :   -0.097158
  70 C :    0.038509
  71 C :    0.317238
  72 C :   -0.395961
  73 C :   -0.172344
  74 N :    0.138925
  75 C :   -0.159689
  76 N :    0.122905
  77 H :   -0.014006
  78 H :    0.187515
  79 H :    0.017064
  80 H :    0.036533
  81 H :    0.033076
  82 H :    0.044121
  83 H :    0.024758
  84 H :   -0.020792
  85 H :   -0.019291
  86 H :    0.015979
  87 H :    0.021311
  88 H :    0.030533
  89 H :    0.045140
  90 H :    0.028340
  91 H :    0.019343
  92 H :   -0.032913
  93 H :   -0.016090
  94 H :    0.040248
  95 H :    0.029099
  96 H :    0.027335
  97 H :   -0.022391
  98 H :    0.040705
  99 H :   -0.013881
 100 H :    0.031614
 101 H :   -0.009652
 102 H :   -0.000974
 103 H :    0.012743
 104 H :   -0.011603
 105 H :    0.001853
 106 H :   -0.001482
 107 H :   -0.016735
Sum of atomic charges:   -0.0000000

LOEWDIN ATOMIC CHARGES
----------------------
   0 C :   -0.004883
   1 C :   -0.039052
   2 C :    0.081853
   3 O :   -0.118250
   4 O :   -0.015524
   5 C :   -0.024183
   6 C :   -0.034290
   7 N :   -0.027666
   8 C :    0.049457
   9 C :   -0.031352
  10 C :    0.002334
  11 C :    0.064860
  12 C :   -0.129489
  13 C :   -0.017078
  14 N :   -0.054446
  15 C :   -0.015552
  16 N :   -0.037545
  17 C :   -0.106996
  18 C :    0.083131
  19 O :   -0.127771
  20 C :    0.111085
  21 C :   -0.070553
  22 C :    0.071659
  23 O :   -0.089872
  24 C :    0.078029
  25 C :   -0.048609
  26 C :   -0.016637
  27 C :    0.044767
  28 C :   -0.007311
  29 O :   -0.114216
  30 C :    0.078441
  31 C :   -0.024491
  32 C :    0.045150
  33 O :   -0.092695
  34 C :    0.077818
  35 C :   -0.062381
  36 C :   -0.061391
  37 C :    0.053801
  38 C :   -0.041964
  39 O :   -0.103729
  40 C :    0.075820
  41 C :   -0.134157
  42 C :   -0.003238
  43 C :    0.024974
  44 C :   -0.040298
  45 C :   -0.145783
  46 S :    0.499907
  47 C :   -0.212221
  48 C :   -0.033227
  49 C :   -0.063647
  50 C :   -0.160528
  51 S :    0.425222
  52 C :   -0.073294
  53 C :    0.058216
  54 C :   -0.058309
  55 C :    0.073316
  56 C :   -0.125387
  57 C :    0.078548
  58 O :   -0.155921
  59 C :   -0.049591
  60 C :    0.025997
  61 C :   -0.010500
  62 C :   -0.008419
  63 C :   -0.033333
  64 C :    0.065061
  65 C :    0.065456
  66 C :   -0.033328
  67 F :   -0.051554
  68 F :   -0.051253
  69 C :    0.003126
  70 C :   -0.019684
  71 C :    0.076048
  72 C :   -0.175493
  73 C :   -0.014646
  74 N :   -0.068486
  75 C :    0.000834
  76 N :   -0.086980
  77 H :    0.033115
  78 H :    0.096181
  79 H :    0.053374
  80 H :    0.050222
  81 H :    0.027941
  82 H :    0.019030
  83 H :    0.018185
  84 H :    0.036050
  85 H :    0.032711
  86 H :    0.011429
  87 H :    0.018731
  88 H :    0.024070
  89 H :    0.033077
  90 H :    0.016934
  91 H :    0.013465
  92 H :    0.023071
  93 H :    0.038618
  94 H :    0.029849
  95 H :    0.014972
  96 H :    0.018523
  97 H :    0.037810
  98 H :    0.037961
  99 H :    0.031465
 100 H :    0.025431
 101 H :    0.036661
 102 H :    0.027642
 103 H :    0.042041
 104 H :    0.039649
 105 H :    0.045091
 106 H :    0.044336
 107 H :    0.034655

  Mayer bond orders larger than 0.100000
B(  0-C ,  1-C ) :   1.3133 B(  0-C , 10-C ) :   1.3963 B(  0-C , 77-H ) :   0.9580
B(  1-C ,  2-C ) :   0.8691 B(  1-C ,  5-C ) :   1.3931 B(  2-C ,  3-O ) :   2.1667
B(  2-C ,  4-O ) :   1.2543 B(  4-O , 78-H ) :   0.9508 B(  5-C ,  6-C ) :   1.0658
B(  5-C ,  8-C ) :   1.3683 B(  6-C ,  7-N ) :   3.0366 B(  8-C ,  9-C ) :   1.3548
B(  8-C , 79-H ) :   1.0160 B(  9-C , 10-C ) :   1.3443 B(  9-C , 18-C ) :   0.8942
B( 10-C , 11-C ) :   0.9947 B( 11-C , 12-C ) :   1.6600 B( 11-C , 17-C ) :   1.0408
B( 12-C , 13-C ) :   1.1315 B( 12-C , 15-C ) :   1.1603 B( 13-C , 14-N ) :   2.9640
B( 15-C , 16-N ) :   3.0024 B( 17-C , 18-C ) :   0.9485 B( 17-C , 20-C ) :   1.6402
B( 18-C , 19-O ) :   2.2846 B( 20-C , 21-C ) :   1.0851 B( 20-C , 80-H ) :   0.9380
B( 21-C , 22-C ) :   1.3064 B( 21-C , 28-C ) :   1.2970 B( 22-C , 23-O ) :   1.2276
B( 22-C , 25-C ) :   1.2883 B( 23-O , 24-C ) :   0.9336 B( 24-C , 81-H ) :   0.9757
B( 24-C , 82-H ) :   0.9637 B( 24-C , 83-H ) :   0.9714 B( 25-C , 26-C ) :   1.3490
B( 25-C , 84-H ) :   0.9937 B( 26-C , 27-C ) :   1.3238 B( 26-C , 31-C ) :   0.9329
B( 27-C , 28-C ) :   1.3804 B( 27-C , 29-O ) :   1.1576 B( 28-C , 85-H ) :   0.9945
B( 29-O , 30-C ) :   0.9561 B( 30-C , 86-H ) :   0.9654 B( 30-C , 87-H ) :   0.9621
B( 30-C , 88-H ) :   0.9777 B( 31-C , 32-C ) :   1.3747 B( 31-C , 38-C ) :   1.3797
B( 32-C , 33-O ) :   1.1815 B( 32-C , 35-C ) :   1.3028 B( 33-O , 34-C ) :   0.9628
B( 34-C , 89-H ) :   0.9779 B( 34-C , 90-H ) :   0.9690 B( 34-C , 91-H ) :   0.9671
B( 35-C , 36-C ) :   1.3093 B( 35-C , 92-H ) :   0.9900 B( 36-C , 37-C ) :   1.3933
B( 36-C , 41-C ) :   0.9979 B( 37-C , 38-C ) :   1.2765 B( 37-C , 39-O ) :   1.1402
B( 38-C , 93-H ) :   1.0045 B( 39-O , 40-C ) :   0.9511 B( 40-C , 94-H ) :   0.9756
B( 40-C , 95-H ) :   0.9625 B( 40-C , 96-H ) :   0.9689 B( 41-C , 42-C ) :   1.5480
B( 41-C , 46-S ) :   1.1146 B( 42-C , 43-C ) :   1.2697 B( 42-C , 97-H ) :   0.9529
B( 43-C , 44-C ) :   1.0949 B( 43-C , 52-C ) :   1.2910 B( 44-C , 45-C ) :   1.5658
B( 44-C , 47-C ) :   1.1668 B( 45-C , 46-S ) :   1.1628 B( 45-C , 98-H ) :   0.9417
B( 47-C , 48-C ) :   1.4586 B( 47-C , 51-S ) :   1.0733 B( 48-C , 49-C ) :   1.2317
B( 48-C , 52-C ) :   1.0756 B( 49-C , 50-C ) :   1.5797 B( 49-C , 99-H ) :   0.9975
B( 50-C , 51-S ) :   1.1624 B( 50-C ,100-H ) :   0.9664 B( 52-C , 53-C ) :   1.2402
B( 53-C , 54-C ) :   1.4645 B( 53-C ,101-H ) :   0.9727 B( 54-C , 55-C ) :   1.2754
B( 54-C ,102-H ) :   0.9653 B( 55-C , 56-C ) :   1.4240 B( 55-C ,103-H ) :   0.9574
B( 56-C , 57-C ) :   0.9670 B( 56-C , 71-C ) :   1.1295 B( 57-C , 58-O ) :   2.2561
B( 57-C , 59-C ) :   0.9125 B( 59-C , 60-C ) :   1.4869 B( 59-C , 70-C ) :   1.2207
B( 60-C , 61-C ) :   1.1808 B( 60-C ,104-H ) :   1.0171 B( 61-C , 62-C ) :   1.2651
B( 61-C , 66-C ) :   1.1966 B( 62-C , 63-C ) :   1.1918 B( 62-C , 69-C ) :   1.2053
B( 63-C , 64-C ) :   1.4372 B( 63-C , 66-C ) :   0.1089 B( 63-C ,105-H ) :   1.0073
B( 64-C , 65-C ) :   1.1970 B( 64-C , 68-F ) :   1.1323 B( 65-C , 66-C ) :   1.4372
B( 65-C , 67-F ) :   1.1311 B( 66-C ,106-H ) :   1.0080 B( 69-C , 70-C ) :   1.4620
B( 69-C ,107-H ) :   0.9933 B( 70-C , 71-C ) :   0.9864 B( 71-C , 72-C ) :   1.5389
B( 72-C , 73-C ) :   1.1895 B( 72-C , 75-C ) :   1.1634 B( 73-C , 74-N ) :   2.9155
B( 75-C , 76-N ) :   2.8580

-----------------------------------------------------------------------------
         ABSORPTION SPECTRUM VIA TRANSITION ELECTRIC DIPOLE MOMENTS
-----------------------------------------------------------------------------
State   Energy  Wavelength   fosc         T2         TX        TY        TZ
        (cm-1)    (nm)                  (au**2)     (au)      (au)      (au)
-----------------------------------------------------------------------------
   0   14485.5    690.3   0.464453306  10.55563   3.15852   0.07892   0.75708
   1   18374.7    544.2   0.252925722   4.53156  -0.20635   2.01055   0.66833
   2   22109.0    452.3   0.521905671   7.77138   1.65864  -2.22909   0.22686
   3   22345.7    447.5   0.028357439   0.41778  -0.62920  -0.05370  -0.13788
   4   22572.2    443.0   0.052858513   0.77093   0.32545   0.81387  -0.05133
   5   24277.3    411.9   0.098613678   1.33725   0.09609   1.13481  -0.20054
   6   24910.9    401.4   0.020374256   0.26926  -0.42509  -0.20139   0.21908
   7   25208.0    396.7   0.140362468   1.83311   0.44967   1.11195   0.62807
   8   25378.2    394.0   0.161923466   2.10051  -1.17692   0.83235  -0.15020
   9   25556.6    391.3   0.039808659   0.51280   0.47661   0.53407   0.02039
  10   27759.5    360.2   0.259638913   3.07917  -1.71388  -0.21982   0.30573
  11   27851.4    359.0   0.055148223   0.65187  -0.55143   0.33821  -0.48312
  12   28104.7    355.8   0.070650129   0.82758   0.39656  -0.76721  -0.28584
  13   28805.4    347.2   0.017456593   0.19951   0.00016   0.44080   0.07217
  14   29470.1    339.3   0.086230933   0.96329   0.43382  -0.87176  -0.12297
  15   29702.9    336.7   0.014458427   0.16025  -0.08206   0.34120  -0.19261
  16   30138.3    331.8   0.045184867   0.49357  -0.18516  -0.64681   0.20229
  17   30410.0    328.8   0.030117953   0.32605  -0.45476   0.07903   0.33616
  18   31203.1    320.5   0.111620721   1.17767   0.33442   1.03068   0.05939
  19   31321.0    319.3   0.238781900   2.50981  -0.52021   1.45049  -0.36778
  20   31559.3    316.9   0.059449167   0.62015  -0.39227  -0.62288   0.27981
  21   31952.0    313.0   0.124787736   1.28573  -1.09485   0.21210   0.20506
  22   32131.7    311.2   0.025840866   0.26476  -0.17538  -0.46086   0.14700
  23   32804.3    304.8   0.003129245   0.03140  -0.14899   0.09591   0.00267
  24   33105.5    302.1   0.232679766   2.31384   0.22117   1.48656  -0.23467
  25   33286.8    300.4   0.051231359   0.50669   0.36042  -0.53245   0.30542
  26   33922.6    294.8   0.801144936   7.77495  -2.69399   0.66812   0.26638
  27   34288.6    291.6   0.367201948   3.52558   0.22006   1.66047  -0.84853
  28   34553.9    289.4   0.267514309   2.54874  -1.05477  -1.15277   0.32761
  29   34786.9    287.5   0.001634178   0.01547  -0.10242   0.06880   0.01554
  30   35049.5    285.3   0.377616152   3.54686  -0.01735   1.74050  -0.71917
  31   35188.7    284.2   0.150376628   1.40687  -0.77066   0.88293   0.18274
  32   35264.4    283.6   0.068797657   0.64226   0.52965  -0.05236  -0.59916
  33   35800.4    279.3   0.268026872   2.46471  -0.75247   1.36478   0.18945
  34   36612.3    273.1   0.016986413   0.15274   0.15557   0.22570   0.27856
  35   36767.5    272.0   0.042266580   0.37845  -0.59359   0.12671   0.10025
  36   36904.3    271.0   0.030679267   0.27368   0.04042  -0.52144   0.01211
  37   36966.4    270.5   0.005128264   0.04567   0.17437  -0.05568   0.11030
  38   37359.1    267.7   0.065417292   0.57646  -0.15988  -0.68799  -0.27851
  39   37707.2    265.2   0.007168366   0.06259  -0.12720  -0.08589  -0.19755
  40   37771.3    264.8   0.034885990   0.30406  -0.42969   0.13371  -0.31868
  41   38482.7    259.9   0.010527505   0.09006  -0.18121   0.23157  -0.05996
  42   38787.8    257.8   0.006934257   0.05885   0.17863   0.10478   0.12636
  43   38954.1    256.7   0.071867965   0.60738  -0.05609  -0.76917  -0.11226
  44   39206.2    255.1   0.030460244   0.25577   0.32612   0.35294   0.15763
  45   39407.6    253.8   0.037497299   0.31325   0.03733  -0.03796   0.55715
  46   39510.4    253.1   0.031421109   0.26181   0.13374  -0.33174   0.36589
  47   39642.4    252.3   0.006614477   0.05493  -0.08248  -0.21167  -0.05765
  48   40103.6    249.4   0.062583040   0.51375  -0.09364   0.70948   0.04022
  49   40294.9    248.2   0.014118898   0.11535   0.09905   0.30274  -0.11787

FINAL SINGLE POINT ENERGY     -4172.099285891991

DIPOLE MOMENT
-------------
                                X             Y             Z
Electronic contribution:    -30.12988      16.71913       4.30683
Nuclear contribution   :     32.36382     -22.69238      -4.06123
                        -----------------------------------------
Total Dipole Moment    :      2.23394      -5.97325       0.24560
                        -----------------------------------------
Magnitude (a.u.)       :      6.38204
Magnitude (Debye)      :     16.22187

Rotational constants in cm-1:     0.001003     0.000389     0.000298
Rotational constants in MHz :    30.065126    11.670478     8.919295

                             ****ORCA TERMINATED NORMALLY****
TOTAL RUN TIME: 0 days 0 hours 19 minutes 28 seconds 104 msec
