                         Program Version 4.2.0 -  RELEASE  -
|  1> # ORCA input file
|  2> # SCF done       -198.013246903887          0.000505089030
|  3> ! CAM-B3LYP def2-SVP def2/J RIJCOSX Grid4 TightSCF
|  4> %maxcore 5000
|  5> %tddft
|  6>     Mode sTDDFT
|  7>     Ethresh 5.0
|  8>     maxcore 5000
|  9> end
| 10>
| 11> %pal
| 12>   nprocs 6
| 13>   end
| 14> * xyz 0 1
| 15>    C       -2.69958        -3.82264        -1.30613
| 16>    C       -3.60407        -2.76808        -1.40643
| 17>    C       -5.05030        -3.01579        -1.72626
| 18>    O       -5.92778        -2.33671        -1.27621
| 19>    O       -5.31112        -4.05003        -2.53503
| 20>    C       -3.19277        -1.45020        -1.14709
| 21>    C       -4.08689        -0.35659        -1.27376
| 22>    N       -4.71963         0.59143        -1.38326
| 23>    C       -1.87067        -1.17757        -0.78002
| 24>    C       -0.98907        -2.23153        -0.68159
| 25>    C       -1.38717        -3.55309        -0.95404
| 26>    C       -0.22639        -4.43250        -0.81657
| 27>    C       -0.10511        -5.66124        -1.41460
| 28>    C       -1.16998        -6.29418        -2.08362
| 29>    N       -2.03401        -6.83091        -2.61718
| 30>    C        1.10899        -6.37217        -1.52542
| 31>    N        2.06832        -6.97318        -1.71179
| 32>    C        0.83127        -3.65603        -0.20963
| 33>    C        0.43946        -2.22476        -0.27214
| 34>    O        1.12169        -1.26502        -0.00561
| 35>    C        1.99155        -4.02379         0.40084
| 36>    C        2.36649        -5.31100         0.89290
| 37>    C        3.73691        -5.63709         1.01261
| 38>    O        4.61435        -4.70052         0.59670
| 39>    C        5.99046        -5.00761         0.59286
| 40>    C        4.09044        -6.88940         1.49784
| 41>    C        3.14036        -7.81927         1.89040
| 42>    C        1.76935        -7.48256         1.81062
| 43>    C        1.41046        -6.24855         1.31073
| 44>    O        0.87764        -8.42587         2.21922
| 45>    C       -0.48804        -8.22304         1.95040
| 46>    C        3.56077        -9.14334         2.36561
| 47>    C        4.48910        -9.90082         1.62835
| 48>    O        4.97578        -9.34861         0.48302
| 49>    C        5.69216       -10.16760        -0.41128
| 50>    C        4.83463       -11.16448         2.08662
| 51>    C        4.28889       -11.69051         3.25032
| 52>    C        3.38777       -10.92366         4.00403
| 53>    C        3.03460        -9.66434         3.54218
| 54>    O        2.96079       -11.46332         5.17698
| 55>    C        1.96573       -10.78412         5.90272
| 56>    C        4.67146       -13.04455         3.67153
| 57>    C        3.68919       -14.03348         3.89777
| 58>    O        2.40513       -13.66629         3.68120
| 59>    C        1.38483       -14.60736         3.91197
| 60>    C        4.09612       -15.29520         4.27773
| 61>    C        5.45352       -15.64516         4.38807
| 62>    C        6.42683       -14.64054         4.17554
| 63>    C        6.00970       -13.36358         3.82285
| 64>    O        7.72294       -14.98140         4.37688
| 65>    C        8.71801       -13.98762         4.27436
| 66>    C        5.74930       -16.98724         4.77400
| 67>    C        6.85004       -17.77767         4.62875
| 68>    C        6.93752       -19.00672         5.46619
| 69>    O        6.05898       -19.49471         6.13612
| 70>    C        8.33770       -19.47662         5.33041
| 71>    C        9.00391       -18.66437         4.39556
| 72>    C       10.34954       -18.87030         4.13846
| 73>    C       11.01710       -19.89955         4.79878
| 74>    C       10.33690       -20.71525         5.71797
| 75>    C        8.98080       -20.50200         5.98789
| 76>    C       10.98515       -21.78946         6.37908
| 77>    N       11.40518       -22.69907         6.93365
| 78>    C       12.48867       -20.12284         4.60035
| 79>    O       13.19399       -20.53775         5.47454
| 80>    O       12.97854       -19.82231         3.39124
| 81>    C        8.05516       -17.69731         3.84269
| 82>    C        8.23585       -17.02179         2.66289
| 83>    C        7.23839       -16.26635         2.01809
| 84>    N        6.46113       -15.64048         1.45102
| 85>    C        9.43014       -17.07456         1.91820
| 86>    N       10.39408       -17.09349         1.29407
| 87>    H       -3.03034        -4.83994        -1.45506
| 88>    H       -4.52531        -4.51072        -2.86111
| 89>    H       -1.55021        -0.16709        -0.57694
| 90>    H        2.69779        -3.22123         0.58475
| 91>    H        6.48268        -4.13167         0.17363
| 92>    H        6.19911        -5.87919        -0.03324
| 93>    H        6.36481        -5.18373         1.60583
| 94>    H        5.12690        -7.16771         1.58236
| 95>    H        0.37245        -5.95865         1.27138
| 96>    H       -0.98636        -9.14133         2.25679
| 97>    H       -0.66732        -8.05660         0.88316
| 98>    H       -0.89615        -7.38475         2.52544
| 99>    H        5.84338        -9.56079        -1.30265
|100>    H        5.12668       -11.06494        -0.67678
|101>    H        6.66582       -10.45811        -0.00235
|102>    H        5.51620       -11.78584         1.52776
|103>    H        2.34275        -9.05259         4.09566
|104>    H        1.71897       -11.43326         6.74163
|105>    H        1.07084       -10.61767         5.29571
|106>    H        2.32947        -9.82492         6.28631
|107>    H        0.45342       -14.09030         3.68727
|108>    H        1.37189       -14.93858         4.95506
|109>    H        1.48217       -15.47609         3.25303
|110>    H        3.37191       -16.07486         4.45232
|111>    H        6.73257       -12.58114         3.65712
|112>    H        9.65574       -14.48524         4.51867
|113>    H        8.54535       -13.17367         4.98356
|114>    H        8.77693       -13.58542         3.25848
|115>    H        4.95648       -17.47386         5.33813
|116>    H       10.88764       -18.21250         3.47228
|117>    H        8.45409       -21.12245         6.69690
|118>    H       12.31500       -19.51977         2.75554
|119> *
|120>
|121>                          ****END OF INPUT****

CARTESIAN COORDINATES (ANGSTROEM)
---------------------------------
  C     -2.699580   -3.822640   -1.306130
  C     -3.604070   -2.768080   -1.406430
  C     -5.050300   -3.015790   -1.726260
  O     -5.927780   -2.336710   -1.276210
  O     -5.311120   -4.050030   -2.535030
  C     -3.192770   -1.450200   -1.147090
  C     -4.086890   -0.356590   -1.273760
  N     -4.719630    0.591430   -1.383260
  C     -1.870670   -1.177570   -0.780020
  C     -0.989070   -2.231530   -0.681590
  C     -1.387170   -3.553090   -0.954040
  C     -0.226390   -4.432500   -0.816570
  C     -0.105110   -5.661240   -1.414600
  C     -1.169980   -6.294180   -2.083620
  N     -2.034010   -6.830910   -2.617180
  C      1.108990   -6.372170   -1.525420
  N      2.068320   -6.973180   -1.711790
  C      0.831270   -3.656030   -0.209630
  C      0.439460   -2.224760   -0.272140
  O      1.121690   -1.265020   -0.005610
  C      1.991550   -4.023790    0.400840
  C      2.366490   -5.311000    0.892900
  C      3.736910   -5.637090    1.012610
  O      4.614350   -4.700520    0.596700
  C      5.990460   -5.007610    0.592860
  C      4.090440   -6.889400    1.497840
  C      3.140360   -7.819270    1.890400
  C      1.769350   -7.482560    1.810620
  C      1.410460   -6.248550    1.310730
  O      0.877640   -8.425870    2.219220
  C     -0.488040   -8.223040    1.950400
  C      3.560770   -9.143340    2.365610
  C      4.489100   -9.900820    1.628350
  O      4.975780   -9.348610    0.483020
  C      5.692160  -10.167600   -0.411280
  C      4.834630  -11.164480    2.086620
  C      4.288890  -11.690510    3.250320
  C      3.387770  -10.923660    4.004030
  C      3.034600   -9.664340    3.542180
  O      2.960790  -11.463320    5.176980
  C      1.965730  -10.784120    5.902720
  C      4.671460  -13.044550    3.671530
  C      3.689190  -14.033480    3.897770
  O      2.405130  -13.666290    3.681200
  C      1.384830  -14.607360    3.911970
  C      4.096120  -15.295200    4.277730
  C      5.453520  -15.645160    4.388070
  C      6.426830  -14.640540    4.175540
  C      6.009700  -13.363580    3.822850
  O      7.722940  -14.981400    4.376880
  C      8.718010  -13.987620    4.274360
  C      5.749300  -16.987240    4.774000
  C      6.850040  -17.777670    4.628750
  C      6.937520  -19.006720    5.466190
  O      6.058980  -19.494710    6.136120
  C      8.337700  -19.476620    5.330410
  C      9.003910  -18.664370    4.395560
  C     10.349540  -18.870300    4.138460
  C     11.017100  -19.899550    4.798780
  C     10.336900  -20.715250    5.717970
  C      8.980800  -20.502000    5.987890
  C     10.985150  -21.789460    6.379080
  N     11.405180  -22.699070    6.933650
  C     12.488670  -20.122840    4.600350
  O     13.193990  -20.537750    5.474540
  O     12.978540  -19.822310    3.391240
  C      8.055160  -17.697310    3.842690
  C      8.235850  -17.021790    2.662890
  C      7.238390  -16.266350    2.018090
  N      6.461130  -15.640480    1.451020
  C      9.430140  -17.074560    1.918200
  N     10.394080  -17.093490    1.294070
  H     -3.030340   -4.839940   -1.455060
  H     -4.525310   -4.510720   -2.861110
  H     -1.550210   -0.167090   -0.576940
  H      2.697790   -3.221230    0.584750
  H      6.482680   -4.131670    0.173630
  H      6.199110   -5.879190   -0.033240
  H      6.364810   -5.183730    1.605830
  H      5.126900   -7.167710    1.582360
  H      0.372450   -5.958650    1.271380
  H     -0.986360   -9.141330    2.256790
  H     -0.667320   -8.056600    0.883160
  H     -0.896150   -7.384750    2.525440
  H      5.843380   -9.560790   -1.302650
  H      5.126680  -11.064940   -0.676780
  H      6.665820  -10.458110   -0.002350
  H      5.516200  -11.785840    1.527760
  H      2.342750   -9.052590    4.095660
  H      1.718970  -11.433260    6.741630
  H      1.070840  -10.617670    5.295710
  H      2.329470   -9.824920    6.286310
  H      0.453420  -14.090300    3.687270
  H      1.371890  -14.938580    4.955060
  H      1.482170  -15.476090    3.253030
  H      3.371910  -16.074860    4.452320
  H      6.732570  -12.581140    3.657120
  H      9.655740  -14.485240    4.518670
  H      8.545350  -13.173670    4.983560
  H      8.776930  -13.585420    3.258480
  H      4.956480  -17.473860    5.338130
  H     10.887640  -18.212500    3.472280
  H      8.454090  -21.122450    6.696900
  H     12.315000  -19.519770    2.755540

 Total Charge           Charge          ....    0
 Multiplicity           Mult            ....    1
 Number of Electrons    NEL             ....  494
 Basis Dimension        Dim             .... 1168

ORBITAL ENERGIES
----------------

  NO   OCC          E(Eh)            E(eV)
   0   2.0000     -19.277244      -524.5605
   1   2.0000     -19.276894      -524.5510
   2   2.0000     -19.275392      -524.5101
   3   2.0000     -19.266529      -524.2689
   4   2.0000     -19.258780      -524.0580
   5   2.0000     -19.253778      -523.9219
   6   2.0000     -19.250488      -523.8324
   7   2.0000     -19.247594      -523.7537
   8   2.0000     -19.231968      -523.3285
   9   2.0000     -19.231330      -523.3111
  10   2.0000     -19.216200      -522.8994
  11   2.0000     -19.214471      -522.8523
  12   2.0000     -14.436945      -392.8492
  13   2.0000     -14.435026      -392.7970
  14   2.0000     -14.427880      -392.6026
  15   2.0000     -14.426704      -392.5706
  16   2.0000     -14.412703      -392.1896
  17   2.0000     -14.410285      -392.1238
  18   2.0000     -10.421834      -283.5925
  19   2.0000     -10.420051      -283.5440
  20   2.0000     -10.382869      -282.5322
  21   2.0000     -10.381853      -282.5046
  22   2.0000     -10.361487      -281.9504
  23   2.0000     -10.359676      -281.9011
  24   2.0000     -10.358507      -281.8693
  25   2.0000     -10.357523      -281.8425
  26   2.0000     -10.353425      -281.7310
  27   2.0000     -10.352787      -281.7136
  28   2.0000     -10.350304      -281.6461
  29   2.0000     -10.347354      -281.5658
  30   2.0000     -10.346256      -281.5359
  31   2.0000     -10.344893      -281.4989
  32   2.0000     -10.343818      -281.4696
  33   2.0000     -10.339901      -281.3630
  34   2.0000     -10.338106      -281.3142
  35   2.0000     -10.337520      -281.2982
  36   2.0000     -10.337440      -281.2961
  37   2.0000     -10.337368      -281.2941
  38   2.0000     -10.336617      -281.2736
  39   2.0000     -10.336586      -281.2728
  40   2.0000     -10.335360      -281.2394
  41   2.0000     -10.333883      -281.1993
  42   2.0000     -10.333612      -281.1919
  43   2.0000     -10.332885      -281.1721
  44   2.0000     -10.331192      -281.1260
  45   2.0000     -10.329170      -281.0710
  46   2.0000     -10.328809      -281.0612
  47   2.0000     -10.328235      -281.0456
  48   2.0000     -10.328221      -281.0452
  49   2.0000     -10.328090      -281.0416
  50   2.0000     -10.327930      -281.0373
  51   2.0000     -10.326636      -281.0021
  52   2.0000     -10.326268      -280.9920
  53   2.0000     -10.325592      -280.9736
  54   2.0000     -10.320280      -280.8291
  55   2.0000     -10.317498      -280.7534
  56   2.0000     -10.312112      -280.6068
  57   2.0000     -10.309999      -280.5493
  58   2.0000     -10.306841      -280.4634
  59   2.0000     -10.306173      -280.4452
  60   2.0000     -10.302991      -280.3586
  61   2.0000     -10.302605      -280.3481
  62   2.0000     -10.302568      -280.3471
  63   2.0000     -10.298659      -280.2407
  64   2.0000     -10.292373      -280.0697
  65   2.0000     -10.291305      -280.0406
  66   2.0000     -10.289547      -279.9928
  67   2.0000     -10.288200      -279.9562
  68   2.0000     -10.288146      -279.9547
  69   2.0000     -10.285084      -279.8714
  70   2.0000     -10.279686      -279.7245
  71   2.0000     -10.277378      -279.6617
  72   2.0000      -1.200653       -32.6714
  73   2.0000      -1.198986       -32.6261
  74   2.0000      -1.181201       -32.1421
  75   2.0000      -1.172517       -31.9058
  76   2.0000      -1.164228       -31.6802
  77   2.0000      -1.162779       -31.6408
  78   2.0000      -1.155149       -31.4332
  79   2.0000      -1.151440       -31.3323
  80   2.0000      -1.147317       -31.2201
  81   2.0000      -1.146852       -31.2074
  82   2.0000      -1.115959       -30.3668
  83   2.0000      -1.114243       -30.3201
  84   2.0000      -1.039208       -28.2783
  85   2.0000      -1.036274       -28.1985
  86   2.0000      -1.021902       -27.8074
  87   2.0000      -1.020154       -27.7598
  88   2.0000      -1.009914       -27.4812
  89   2.0000      -1.009634       -27.4735
  90   2.0000      -0.999002       -27.1842
  91   2.0000      -0.996655       -27.1204
  92   2.0000      -0.980077       -26.6692
  93   2.0000      -0.977455       -26.5979
  94   2.0000      -0.971561       -26.4375
  95   2.0000      -0.969075       -26.3699
  96   2.0000      -0.954920       -25.9847
  97   2.0000      -0.924731       -25.1632
  98   2.0000      -0.922338       -25.0981
  99   2.0000      -0.919653       -25.0250
 100   2.0000      -0.909218       -24.7411
 101   2.0000      -0.898330       -24.4448
 102   2.0000      -0.895930       -24.3795
 103   2.0000      -0.884404       -24.0659
 104   2.0000      -0.869596       -23.6629
 105   2.0000      -0.863522       -23.4976
 106   2.0000      -0.860362       -23.4116
 107   2.0000      -0.850293       -23.1376
 108   2.0000      -0.842762       -22.9327
 109   2.0000      -0.826007       -22.4768
 110   2.0000      -0.822634       -22.3850
 111   2.0000      -0.817860       -22.2551
 112   2.0000      -0.810185       -22.0462
 113   2.0000      -0.809905       -22.0386
 114   2.0000      -0.801100       -21.7990
 115   2.0000      -0.798767       -21.7356
 116   2.0000      -0.777550       -21.1582
 117   2.0000      -0.774944       -21.0873
 118   2.0000      -0.763463       -20.7749
 119   2.0000      -0.755873       -20.5684
 120   2.0000      -0.749771       -20.4023
 121   2.0000      -0.747562       -20.3422
 122   2.0000      -0.729425       -19.8487
 123   2.0000      -0.721879       -19.6433
 124   2.0000      -0.718943       -19.5634
 125   2.0000      -0.711047       -19.3486
 126   2.0000      -0.709766       -19.3137
 127   2.0000      -0.705979       -19.2107
 128   2.0000      -0.701063       -19.0769
 129   2.0000      -0.698795       -19.0152
 130   2.0000      -0.690623       -18.7928
 131   2.0000      -0.685074       -18.6418
 132   2.0000      -0.675146       -18.3716
 133   2.0000      -0.671678       -18.2773
 134   2.0000      -0.669195       -18.2097
 135   2.0000      -0.651563       -17.7299
 136   2.0000      -0.649670       -17.6784
 137   2.0000      -0.646513       -17.5925
 138   2.0000      -0.642763       -17.4905
 139   2.0000      -0.631771       -17.1914
 140   2.0000      -0.629911       -17.1408
 141   2.0000      -0.622530       -16.9399
 142   2.0000      -0.619171       -16.8485
 143   2.0000      -0.610647       -16.6165
 144   2.0000      -0.607402       -16.5283
 145   2.0000      -0.602246       -16.3879
 146   2.0000      -0.601538       -16.3687
 147   2.0000      -0.598367       -16.2824
 148   2.0000      -0.594020       -16.1641
 149   2.0000      -0.591886       -16.1060
 150   2.0000      -0.588017       -16.0007
 151   2.0000      -0.585431       -15.9304
 152   2.0000      -0.579467       -15.7681
 153   2.0000      -0.573046       -15.5934
 154   2.0000      -0.568842       -15.4790
 155   2.0000      -0.567873       -15.4526
 156   2.0000      -0.566303       -15.4099
 157   2.0000      -0.565548       -15.3893
 158   2.0000      -0.563864       -15.3435
 159   2.0000      -0.561178       -15.2704
 160   2.0000      -0.560371       -15.2485
 161   2.0000      -0.559395       -15.2219
 162   2.0000      -0.555866       -15.1259
 163   2.0000      -0.552817       -15.0429
 164   2.0000      -0.548273       -14.9193
 165   2.0000      -0.547824       -14.9070
 166   2.0000      -0.544406       -14.8140
 167   2.0000      -0.541983       -14.7481
 168   2.0000      -0.540206       -14.6998
 169   2.0000      -0.538464       -14.6524
 170   2.0000      -0.537853       -14.6357
 171   2.0000      -0.536073       -14.5873
 172   2.0000      -0.532111       -14.4795
 173   2.0000      -0.529794       -14.4164
 174   2.0000      -0.527237       -14.3468
 175   2.0000      -0.524502       -14.2724
 176   2.0000      -0.521984       -14.2039
 177   2.0000      -0.520223       -14.1560
 178   2.0000      -0.514234       -13.9930
 179   2.0000      -0.511016       -13.9054
 180   2.0000      -0.509417       -13.8619
 181   2.0000      -0.507589       -13.8122
 182   2.0000      -0.504082       -13.7168
 183   2.0000      -0.503849       -13.7104
 184   2.0000      -0.500692       -13.6245
 185   2.0000      -0.500393       -13.6164
 186   2.0000      -0.495764       -13.4904
 187   2.0000      -0.494746       -13.4627
 188   2.0000      -0.492748       -13.4083
 189   2.0000      -0.487831       -13.2746
 190   2.0000      -0.486725       -13.2445
 191   2.0000      -0.481103       -13.0915
 192   2.0000      -0.479516       -13.0483
 193   2.0000      -0.474185       -12.9032
 194   2.0000      -0.470655       -12.8072
 195   2.0000      -0.469014       -12.7625
 196   2.0000      -0.468533       -12.7494
 197   2.0000      -0.467359       -12.7175
 198   2.0000      -0.466172       -12.6852
 199   2.0000      -0.463688       -12.6176
 200   2.0000      -0.458659       -12.4808
 201   2.0000      -0.458004       -12.4629
 202   2.0000      -0.457163       -12.4400
 203   2.0000      -0.450488       -12.2584
 204   2.0000      -0.449573       -12.2335
 205   2.0000      -0.448261       -12.1978
 206   2.0000      -0.446780       -12.1575
 207   2.0000      -0.444226       -12.0880
 208   2.0000      -0.443616       -12.0714
 209   2.0000      -0.441495       -12.0137
 210   2.0000      -0.440736       -11.9930
 211   2.0000      -0.439455       -11.9582
 212   2.0000      -0.437252       -11.8982
 213   2.0000      -0.434960       -11.8359
 214   2.0000      -0.432066       -11.7571
 215   2.0000      -0.431833       -11.7508
 216   2.0000      -0.429960       -11.6998
 217   2.0000      -0.424754       -11.5582
 218   2.0000      -0.423961       -11.5366
 219   2.0000      -0.422638       -11.5006
 220   2.0000      -0.422107       -11.4861
 221   2.0000      -0.419363       -11.4114
 222   2.0000      -0.416014       -11.3203
 223   2.0000      -0.415375       -11.3029
 224   2.0000      -0.409988       -11.1564
 225   2.0000      -0.405315       -11.0292
 226   2.0000      -0.403913       -10.9910
 227   2.0000      -0.398994       -10.8572
 228   2.0000      -0.388260       -10.5651
 229   2.0000      -0.385801       -10.4982
 230   2.0000      -0.376971       -10.2579
 231   2.0000      -0.376457       -10.2439
 232   2.0000      -0.374883       -10.2011
 233   2.0000      -0.372727       -10.1424
 234   2.0000      -0.367541       -10.0013
 235   2.0000      -0.363101        -9.8805
 236   2.0000      -0.361325        -9.8321
 237   2.0000      -0.353489        -9.6189
 238   2.0000      -0.352736        -9.5984
 239   2.0000      -0.341876        -9.3029
 240   2.0000      -0.336039        -9.1441
 241   2.0000      -0.328329        -8.9343
 242   2.0000      -0.314838        -8.5672
 243   2.0000      -0.310410        -8.4467
 244   2.0000      -0.284501        -7.7417
 245   2.0000      -0.283276        -7.7083
 246   2.0000      -0.265652        -7.2287
 247   0.0000      -0.106409        -2.8955
 248   0.0000      -0.099881        -2.7179
 249   0.0000      -0.084317        -2.2944
 250   0.0000      -0.082255        -2.2383
 251   0.0000      -0.032060        -0.8724

MULLIKEN ATOMIC CHARGES
-----------------------
   0 C :   -0.091502
   1 C :    0.005401
   2 C :    0.180314
   3 O :   -0.147247
   4 O :   -0.143960
   5 C :   -0.072404
   6 C :   -0.156979
   7 N :    0.142414
   8 C :   -0.038144
   9 C :    0.013772
  10 C :    0.028374
  11 C :    0.258304
  12 C :   -0.342192
  13 C :   -0.183890
  14 N :    0.149261
  15 C :   -0.185063
  16 N :    0.188519
  17 C :   -0.126871
  18 C :    0.146593
  19 O :   -0.126099
  20 C :    0.058966
  21 C :   -0.012367
  22 C :    0.261884
  23 O :   -0.300795
  24 C :    0.174981
  25 C :   -0.117747
  26 C :    0.054715
  27 C :    0.230095
  28 C :   -0.148092
  29 O :   -0.309393
  30 C :    0.179149
  31 C :    0.019225
  32 C :    0.223447
  33 O :   -0.314398
  34 C :    0.179144
  35 C :   -0.154095
  36 C :    0.019376
  37 C :    0.241078
  38 C :   -0.117315
  39 O :   -0.307909
  40 C :    0.182919
  41 C :    0.051176
  42 C :    0.260830
  43 O :   -0.296173
  44 C :    0.179175
  45 C :   -0.162641
  46 C :    0.087961
  47 C :    0.206402
  48 C :   -0.124889
  49 O :   -0.312409
  50 C :    0.175113
  51 C :    0.002734
  52 C :   -0.110719
  53 C :    0.138201
  54 O :   -0.130573
  55 C :    0.013261
  56 C :    0.030833
  57 C :   -0.095895
  58 C :    0.010050
  59 C :   -0.075040
  60 C :   -0.035858
  61 C :   -0.159077
  62 N :    0.141921
  63 C :    0.178691
  64 O :   -0.147429
  65 O :   -0.143700
  66 C :    0.315792
  67 C :   -0.329670
  68 C :   -0.204507
  69 N :    0.179682
  70 C :   -0.194841
  71 N :    0.144025
  72 H :    0.003844
  73 H :    0.192077
  74 H :    0.018189
  75 H :    0.036192
  76 H :    0.044824
  77 H :    0.037447
  78 H :    0.027334
  79 H :   -0.030507
  80 H :   -0.025522
  81 H :    0.039952
  82 H :    0.024426
  83 H :    0.023169
  84 H :    0.041855
  85 H :    0.032144
  86 H :    0.016783
  87 H :   -0.025174
  88 H :   -0.037798
  89 H :    0.033736
  90 H :    0.021325
  91 H :    0.020737
  92 H :    0.036852
  93 H :    0.021773
  94 H :    0.027972
  95 H :   -0.031689
  96 H :   -0.034365
  97 H :    0.041649
  98 H :    0.039146
  99 H :    0.035448
 100 H :    0.024746
 101 H :    0.001178
 102 H :    0.016850
 103 H :    0.191510
Sum of atomic charges:   -0.0000000

LOEWDIN ATOMIC CHARGES
----------------------
   0 C :   -0.006643
   1 C :   -0.037329
   2 C :    0.079634
   3 O :   -0.119898
   4 O :   -0.015654
   5 C :   -0.025813
   6 C :   -0.034363
   7 N :   -0.024148
   8 C :    0.049713
   9 C :   -0.032257
  10 C :    0.001509
  11 C :    0.062760
  12 C :   -0.136387
  13 C :   -0.018493
  14 N :   -0.059313
  15 C :   -0.021527
  16 N :   -0.031791
  17 C :   -0.108705
  18 C :    0.083614
  19 O :   -0.127786
  20 C :    0.106200
  21 C :   -0.069306
  22 C :    0.074332
  23 O :   -0.089306
  24 C :    0.081362
  25 C :   -0.041235
  26 C :    0.009308
  27 C :    0.047502
  28 C :   -0.042771
  29 O :   -0.098103
  30 C :    0.076904
  31 C :   -0.035425
  32 C :    0.047492
  33 O :   -0.102503
  34 C :    0.077807
  35 C :   -0.054387
  36 C :   -0.030618
  37 C :    0.048545
  38 C :   -0.041445
  39 O :   -0.101059
  40 C :    0.075964
  41 C :    0.011156
  42 C :    0.052624
  43 O :   -0.089225
  44 C :    0.077485
  45 C :   -0.040367
  46 C :   -0.058768
  47 C :    0.066708
  48 C :   -0.050801
  49 O :   -0.076666
  50 C :    0.079377
  51 C :    0.085598
  52 C :   -0.099600
  53 C :    0.086259
  54 O :   -0.129700
  55 C :   -0.034819
  56 C :    0.005935
  57 C :   -0.009149
  58 C :   -0.036675
  59 C :   -0.028061
  60 C :    0.050085
  61 C :   -0.034634
  62 N :   -0.026299
  63 C :    0.079750
  64 O :   -0.120252
  65 O :   -0.015912
  66 C :    0.066791
  67 C :   -0.132240
  68 C :   -0.018328
  69 N :   -0.044126
  70 C :   -0.018081
  71 N :   -0.062085
  72 H :    0.035349
  73 H :    0.099642
  74 H :    0.053682
  75 H :    0.049809
  76 H :    0.032417
  77 H :    0.022621
  78 H :    0.017469
  79 H :    0.032257
  80 H :    0.028394
  81 H :    0.030848
  82 H :    0.016923
  83 H :    0.013809
  84 H :    0.030839
  85 H :    0.020194
  86 H :    0.011801
  87 H :    0.032997
  88 H :    0.028315
  89 H :    0.027531
  90 H :    0.015109
  91 H :    0.013962
  92 H :    0.029620
  93 H :    0.015008
  94 H :    0.016967
  95 H :    0.031697
  96 H :    0.032493
  97 H :    0.031147
  98 H :    0.022494
  99 H :    0.020082
 100 H :    0.047469
 101 H :    0.034348
 102 H :    0.053190
 103 H :    0.099156

  Mayer bond orders larger than 0.100000
B(  0-C ,  1-C ) :   1.3243 B(  0-C , 10-C ) :   1.3836 B(  0-C , 72-H ) :   0.9703
B(  1-C ,  2-C ) :   0.8693 B(  1-C ,  5-C ) :   1.3950 B(  2-C ,  3-O ) :   2.1709
B(  2-C ,  4-O ) :   1.2552 B(  4-O , 73-H ) :   0.9446 B(  5-C ,  6-C ) :   1.0704
B(  5-C ,  8-C ) :   1.3636 B(  6-C ,  7-N ) :   3.0389 B(  8-C ,  9-C ) :   1.3556
B(  8-C , 74-H ) :   1.0165 B(  9-C , 10-C ) :   1.3478 B(  9-C , 18-C ) :   0.8932
B( 10-C , 11-C ) :   0.9924 B( 11-C , 12-C ) :   1.6561 B( 11-C , 17-C ) :   1.0520
B( 12-C , 13-C ) :   1.1372 B( 12-C , 15-C ) :   1.1563 B( 13-C , 14-N ) :   2.9839
B( 15-C , 16-N ) :   3.0123 B( 17-C , 18-C ) :   0.9489 B( 17-C , 20-C ) :   1.6143
B( 18-C , 19-O ) :   2.2849 B( 20-C , 21-C ) :   1.1032 B( 20-C , 75-H ) :   0.9431
B( 21-C , 22-C ) :   1.3291 B( 21-C , 28-C ) :   1.2624 B( 22-C , 23-O ) :   1.2112
B( 22-C , 25-C ) :   1.2634 B( 23-O , 24-C ) :   0.9489 B( 24-C , 76-H ) :   0.9782
B( 24-C , 77-H ) :   0.9703 B( 24-C , 78-H ) :   0.9700 B( 25-C , 26-C ) :   1.3831
B( 25-C , 79-H ) :   0.9960 B( 26-C , 27-C ) :   1.3573 B( 26-C , 31-C ) :   0.9361
B( 27-C , 28-C ) :   1.3466 B( 27-C , 29-O ) :   1.1573 B( 28-C , 80-H ) :   0.9944
B( 29-O , 30-C ) :   0.9662 B( 30-C , 81-H ) :   0.9768 B( 30-C , 82-H ) :   0.9683
B( 30-C , 83-H ) :   0.9657 B( 31-C , 32-C ) :   1.4027 B( 31-C , 38-C ) :   1.3513
B( 32-C , 33-O ) :   1.1525 B( 32-C , 35-C ) :   1.2751 B( 33-O , 34-C ) :   0.9616
B( 34-C , 84-H ) :   0.9781 B( 34-C , 85-H ) :   0.9690 B( 34-C , 86-H ) :   0.9689
B( 35-C , 36-C ) :   1.3757 B( 35-C , 87-H ) :   1.0031 B( 36-C , 37-C ) :   1.3903
B( 36-C , 41-C ) :   0.9245 B( 37-C , 38-C ) :   1.2876 B( 37-C , 39-O ) :   1.1657
B( 38-C , 88-H ) :   0.9963 B( 39-O , 40-C ) :   0.9686 B( 40-C , 89-H ) :   0.9781
B( 40-C , 90-H ) :   0.9676 B( 40-C , 91-H ) :   0.9688 B( 41-C , 42-C ) :   1.3343
B( 41-C , 48-C ) :   1.4167 B( 42-C , 43-O ) :   1.1858 B( 42-C , 45-C ) :   1.3128
B( 43-O , 44-C ) :   0.9659 B( 44-C , 92-H ) :   0.9785 B( 44-C , 93-H ) :   0.9670
B( 44-C , 94-H ) :   0.9680 B( 45-C , 46-C ) :   1.2484 B( 45-C , 95-H ) :   1.0040
B( 46-C , 47-C ) :   1.3171 B( 46-C , 51-C ) :   1.1205 B( 47-C , 48-C ) :   1.2558
B( 47-C , 49-O ) :   1.1631 B( 48-C , 96-H ) :   0.9985 B( 49-O , 50-C ) :   0.9418
B( 50-C , 97-H ) :   0.9769 B( 50-C , 98-H ) :   0.9708 B( 50-C , 99-H ) :   0.9686
B( 51-C , 52-C ) :   1.6201 B( 51-C ,100-H ) :   0.9349 B( 52-C , 53-C ) :   0.9481
B( 52-C , 66-C ) :   1.0573 B( 53-C , 54-O ) :   2.2637 B( 53-C , 55-C ) :   0.9008
B( 55-C , 56-C ) :   1.3419 B( 55-C , 60-C ) :   1.3582 B( 56-C , 57-C ) :   1.3821
B( 56-C , 66-C ) :   0.9946 B( 57-C , 58-C ) :   1.3225 B( 57-C ,101-H ) :   0.9678
B( 58-C , 59-C ) :   1.3981 B( 58-C , 63-C ) :   0.8697 B( 59-C , 60-C ) :   1.3608
B( 59-C , 61-C ) :   1.0688 B( 60-C ,102-H ) :   1.0169 B( 61-C , 62-N ) :   3.0395
B( 63-C , 64-O ) :   2.1699 B( 63-C , 65-O ) :   1.2554 B( 65-O ,103-H ) :   0.9452
B( 66-C , 67-C ) :   1.6380 B( 67-C , 68-C ) :   1.1717 B( 67-C , 70-C ) :   1.1393
B( 68-C , 69-N ) :   2.9996 B( 70-C , 71-N ) :   2.9817

-----------------------------------------------------------------------------
         ABSORPTION SPECTRUM VIA TRANSITION ELECTRIC DIPOLE MOMENTS
-----------------------------------------------------------------------------
State   Energy  Wavelength   fosc         T2         TX        TY        TZ
        (cm-1)    (nm)                  (au**2)     (au)      (au)      (au)
-----------------------------------------------------------------------------
   0   18194.2    549.6   0.435921694   7.88770  -1.94314   1.60017  -1.24555
   1   20774.6    481.4   0.383512926   6.07748   1.14817  -2.17178  -0.20631
   2   22383.4    446.8   0.013854020   0.20376  -0.19802  -0.40274   0.04850
   3   23679.6    422.3   0.028120650   0.39095  -0.45347   0.43014  -0.01734
   4   24677.2    405.2   0.208818622   2.78579  -0.88741   1.33435  -0.46669
   5   25624.4    390.3   0.115792997   1.48766  -0.10391   1.17390  -0.31435
   6   26606.0    375.9   0.115124150   1.42450  -0.66837   0.14442  -0.97823
   7   28334.2    352.9   0.082155011   0.95455  -0.58487   0.17024   0.76387
   8   28754.1    347.8   0.035305326   0.40422  -0.60793  -0.05621   0.17742
   9   29153.9    343.0   0.122780374   1.38646  -0.67581   0.95232   0.15107
  10   29495.0    339.0   0.010912362   0.12180   0.33025  -0.10825   0.03192
  11   30095.9    332.3   0.026986608   0.29520   0.11860   0.40817  -0.33842
  12   30539.9    327.4   0.003878823   0.04181   0.00137   0.18874   0.07866
  13   30702.8    325.7   0.090571185   0.97115  -0.38854   0.89052   0.16483
  14   30858.0    324.1   0.019083104   0.20359   0.04023  -0.40963   0.18486
  15   32037.0    312.1   0.012756209   0.13108   0.04770   0.06763  -0.35247
  16   32578.1    307.0   0.029116462   0.29423  -0.26075  -0.34587   0.32652
  17   32941.3    303.6   0.346107560   3.45896  -0.67063   1.69543  -0.36706
  18   33178.5    301.4   0.100997383   1.00214  -0.36381   0.93176   0.04007
  19   34446.0    290.3   0.225125245   2.15160   0.54821  -0.88589   1.03260
  20   34534.9    289.6   0.366304012   3.49188  -0.87833   1.31106  -1.00077
  21   34754.1    287.7   0.067566733   0.64003  -0.52944   0.53998  -0.26106
  22   34896.2    286.6   0.069666311   0.65723  -0.52336   0.53756   0.30716
  23   35349.1    282.9   0.915354675   8.52485   1.41778  -2.53245   0.31851
  24   35698.7    280.1   0.090785584   0.83722  -0.40382   0.55627  -0.60391
  25   35861.0    278.9   0.153419134   1.40842  -0.34200  -0.59487   0.96829
  26   36336.1    275.2   0.061901219   0.56084  -0.22347   0.70962   0.08568
  27   36452.0    274.3   0.038874978   0.35110   0.55610  -0.18636   0.08438
  28   36611.6    273.1   0.054078375   0.48627   0.67277  -0.16322   0.08378
  29   36961.0    270.6   0.036618076   0.32616   0.50410  -0.17332   0.20493
  30   38378.4    260.6   0.036902841   0.31655   0.22911   0.40507   0.31619
  31   39280.2    254.6   0.016198501   0.13576  -0.08836  -0.11237  -0.33960
  32   39510.1    253.1   0.019763181   0.16467   0.25906   0.31201   0.01450
  33   39673.4    252.1   0.019390483   0.16090   0.16426  -0.35531  -0.08760
  34   39805.4    251.2   0.057438117   0.47504   0.45035   0.27025  -0.44631
  35   40310.3    248.1   0.013267868   0.10836  -0.01892  -0.32843  -0.01162

FINAL SINGLE POINT ENERGY     -3303.989570628482

DIPOLE MOMENT
-------------
                                X             Y             Z
Electronic contribution:      0.12624      -6.15081     -10.72541
Nuclear contribution   :      0.13077       6.98648      11.74137
                        -----------------------------------------
Total Dipole Moment    :      0.25701       0.83567       1.01596
                        -----------------------------------------
Magnitude (a.u.)       :      1.34036
Magnitude (Debye)      :      3.40692

Rotational constants in cm-1:     0.003202     0.000261     0.000253
Rotational constants in MHz :    96.004050     7.834156     7.581152

                             ****ORCA TERMINATED NORMALLY****
TOTAL RUN TIME: 0 days 0 hours 11 minutes 12 seconds 98 msec
