                         Program Version 4.2.0 -  RELEASE  -
|  1> # ORCA input file
|  2> # SCF done       -203.880692426049          0.000695418928
|  3> ! CAM-B3LYP def2-SVP def2/J RIJCOSX Grid4 TightSCF
|  4> %maxcore 5000
|  5> %tddft
|  6>     Mode sTDDFT
|  7>     Ethresh 5.0
|  8>     maxcore 5000
|  9> end
| 10>
| 11> %pal
| 12>   nprocs 6
| 13>   end
| 14> * xyz 0 1
| 15>    C       -0.58922        -0.49880        -0.95753
| 16>    C       -1.18112        -0.24716        -2.19340
| 17>    C       -2.13883         0.89332        -2.38588
| 18>    O       -3.02999         0.84453        -3.18483
| 19>    O       -1.95355         1.96928        -1.61291
| 20>    C       -0.94443        -1.10073        -3.28399
| 21>    C       -1.50884        -0.85501        -4.56168
| 22>    N       -1.87546        -0.73175        -5.63965
| 23>    C       -0.11669        -2.21876        -3.14216
| 24>    C        0.45532        -2.45455        -1.91139
| 25>    C        0.24212        -1.59925        -0.81864
| 26>    C        0.99232        -2.11379         0.32372
| 27>    C        1.21189        -1.42494         1.48870
| 28>    C        0.70378        -0.13009         1.71971
| 29>    N        0.31770         0.93201         1.92427
| 30>    C        2.01819        -1.85326         2.56587
| 31>    N        2.67076        -2.10064         3.47760
| 32>    C        1.54960        -3.40368        -0.04989
| 33>    C        1.32018        -3.58734        -1.49950
| 34>    O        1.71167        -4.46201        -2.24437
| 35>    C        2.02347        -4.28821         0.88462
| 36>    C        2.63102        -5.56786         0.77964
| 37>    C        2.70472        -6.36587         1.95676
| 38>    O        2.14719        -5.85207         3.07347
| 39>    C        2.26627        -6.54816         4.29371
| 40>    C        3.29684        -7.61124         1.88832
| 41>    C        3.84172        -8.14105         0.71054
| 42>    C        3.79765        -7.32493        -0.45449
| 43>    C        3.21105        -6.07877        -0.38801
| 44>    O        4.35965        -7.79772        -1.59813
| 45>    C        4.31297        -7.00390        -2.76598
| 46>    C        4.41363        -9.47019         0.73757
| 47>    C        4.65025       -10.24262        -0.37086
| 48>    C        5.16909       -11.53775        -0.36434
| 49>    C        5.48150       -12.24016         0.88112
| 50>    C        5.34435       -11.68205         2.10307
| 51>    S        4.78015       -10.08523         2.35615
| 52>    C        5.92213       -13.53118         0.48438
| 53>    C        5.89591       -13.63591        -0.91036
| 54>    C        6.37248       -14.89470        -1.34428
| 55>    C        6.72108       -15.68975        -0.29946
| 56>    S        6.49957       -14.95454         1.25127
| 57>    C        5.42488       -12.38926        -1.45742
| 58>    C        5.28341       -12.01618        -2.81837
| 59>    C        5.26178       -12.87243        -3.86821
| 60>    C        5.16755       -12.52934        -5.25768
| 61>    C        5.48539       -11.25095        -5.79409
| 62>    O        5.91320       -10.29156        -4.92989
| 63>    C        6.49090        -9.11728        -5.45313
| 64>    C        5.37369       -11.04705        -7.15013
| 65>    C        4.99732       -12.05942        -8.05158
| 66>    C        4.66308       -13.32893        -7.51440
| 67>    C        4.76231       -13.52733        -6.15023
| 68>    O        4.21310       -14.26364        -8.38529
| 69>    C        3.80898       -15.52248        -7.89559
| 70>    C        4.91272       -11.70151        -9.42559
| 71>    C        4.90658       -12.41716       -10.58905
| 72>    C        4.42833       -11.72873       -11.81859
| 73>    O        4.20454       -10.54853       -11.95219
| 74>    C        4.25387       -12.80103       -12.82827
| 75>    C        4.69868       -14.01855       -12.28282
| 76>    C        4.58528       -15.18608       -13.01914
| 77>    C        4.05027       -15.12832       -14.30482
| 78>    C        3.62731       -13.90338       -14.84614
| 79>    C        3.72925       -12.72460       -14.09923
| 80>    C        3.11447       -13.81133       -16.16501
| 81>    N        2.72532       -13.62579       -17.22597
| 82>    C        3.85090       -16.37316       -15.11958
| 83>    O        2.94939       -16.48786       -15.89955
| 84>    O        4.73265       -17.36142       -14.92203
| 85>    C        5.24263       -13.76932       -10.94697
| 86>    C        6.10930       -14.60832       -10.29124
| 87>    C        6.81731       -14.24535        -9.13049
| 88>    N        7.42104       -13.97890        -8.19124
| 89>    C        6.44534       -15.89123       -10.76146
| 90>    N        6.72746       -16.94495       -11.12192
| 91>    H       -0.81436         0.12830        -0.10825
| 92>    H       -1.19423         1.90868        -1.01658
| 93>    H        0.06261        -2.88414        -3.97299
| 94>    H        1.86935        -3.99333         1.91610
| 95>    H        1.81810        -5.89657         5.04168
| 96>    H        3.31373        -6.72842         4.55023
| 97>    H        1.72396        -7.49803         4.26701
| 98>    H        3.32109        -8.22501         2.77371
| 99>    H        3.18773        -5.45643        -1.26275
|100>    H        4.73924        -7.62801        -3.54948
|101>    H        4.91356        -6.09654        -2.65594
|102>    H        3.28790        -6.73298        -3.03063
|103>    H        4.39017        -9.81953        -1.32665
|104>    H        5.58236       -12.20333         3.01690
|105>    H        6.47551       -15.20514        -2.36750
|106>    H        7.10893       -16.68898        -0.33747
|107>    H        5.16427       -10.96057        -3.00487
|108>    H        5.26511       -13.93450        -3.66540
|109>    H        6.90483        -8.58876        -4.59509
|110>    H        5.74633        -8.48305        -5.94581
|111>    H        7.29632        -9.34770        -6.15598
|112>    H        5.61520       -10.08535        -7.57385
|113>    H        4.51950       -14.49144        -5.73233
|114>    H        3.47151       -16.08215        -8.76702
|115>    H        2.98302       -15.42906        -7.18502
|116>    H        4.64235       -16.05381        -7.42613
|117>    H        4.77202       -10.63617        -9.59708
|118>    H        4.86308       -16.13607       -12.58711
|119>    H        3.40178       -11.78080       -14.50800
|120>    H        5.43209       -17.15004       -14.28792
|121> *
|122>
|123>                          ****END OF INPUT****

CARTESIAN COORDINATES (ANGSTROEM)
---------------------------------
  C     -0.589220   -0.498800   -0.957530
  C     -1.181120   -0.247160   -2.193400
  C     -2.138830    0.893320   -2.385880
  O     -3.029990    0.844530   -3.184830
  O     -1.953550    1.969280   -1.612910
  C     -0.944430   -1.100730   -3.283990
  C     -1.508840   -0.855010   -4.561680
  N     -1.875460   -0.731750   -5.639650
  C     -0.116690   -2.218760   -3.142160
  C      0.455320   -2.454550   -1.911390
  C      0.242120   -1.599250   -0.818640
  C      0.992320   -2.113790    0.323720
  C      1.211890   -1.424940    1.488700
  C      0.703780   -0.130090    1.719710
  N      0.317700    0.932010    1.924270
  C      2.018190   -1.853260    2.565870
  N      2.670760   -2.100640    3.477600
  C      1.549600   -3.403680   -0.049890
  C      1.320180   -3.587340   -1.499500
  O      1.711670   -4.462010   -2.244370
  C      2.023470   -4.288210    0.884620
  C      2.631020   -5.567860    0.779640
  C      2.704720   -6.365870    1.956760
  O      2.147190   -5.852070    3.073470
  C      2.266270   -6.548160    4.293710
  C      3.296840   -7.611240    1.888320
  C      3.841720   -8.141050    0.710540
  C      3.797650   -7.324930   -0.454490
  C      3.211050   -6.078770   -0.388010
  O      4.359650   -7.797720   -1.598130
  C      4.312970   -7.003900   -2.765980
  C      4.413630   -9.470190    0.737570
  C      4.650250  -10.242620   -0.370860
  C      5.169090  -11.537750   -0.364340
  C      5.481500  -12.240160    0.881120
  C      5.344350  -11.682050    2.103070
  S      4.780150  -10.085230    2.356150
  C      5.922130  -13.531180    0.484380
  C      5.895910  -13.635910   -0.910360
  C      6.372480  -14.894700   -1.344280
  C      6.721080  -15.689750   -0.299460
  S      6.499570  -14.954540    1.251270
  C      5.424880  -12.389260   -1.457420
  C      5.283410  -12.016180   -2.818370
  C      5.261780  -12.872430   -3.868210
  C      5.167550  -12.529340   -5.257680
  C      5.485390  -11.250950   -5.794090
  O      5.913200  -10.291560   -4.929890
  C      6.490900   -9.117280   -5.453130
  C      5.373690  -11.047050   -7.150130
  C      4.997320  -12.059420   -8.051580
  C      4.663080  -13.328930   -7.514400
  C      4.762310  -13.527330   -6.150230
  O      4.213100  -14.263640   -8.385290
  C      3.808980  -15.522480   -7.895590
  C      4.912720  -11.701510   -9.425590
  C      4.906580  -12.417160  -10.589050
  C      4.428330  -11.728730  -11.818590
  O      4.204540  -10.548530  -11.952190
  C      4.253870  -12.801030  -12.828270
  C      4.698680  -14.018550  -12.282820
  C      4.585280  -15.186080  -13.019140
  C      4.050270  -15.128320  -14.304820
  C      3.627310  -13.903380  -14.846140
  C      3.729250  -12.724600  -14.099230
  C      3.114470  -13.811330  -16.165010
  N      2.725320  -13.625790  -17.225970
  C      3.850900  -16.373160  -15.119580
  O      2.949390  -16.487860  -15.899550
  O      4.732650  -17.361420  -14.922030
  C      5.242630  -13.769320  -10.946970
  C      6.109300  -14.608320  -10.291240
  C      6.817310  -14.245350   -9.130490
  N      7.421040  -13.978900   -8.191240
  C      6.445340  -15.891230  -10.761460
  N      6.727460  -16.944950  -11.121920
  H     -0.814360    0.128300   -0.108250
  H     -1.194230    1.908680   -1.016580
  H      0.062610   -2.884140   -3.972990
  H      1.869350   -3.993330    1.916100
  H      1.818100   -5.896570    5.041680
  H      3.313730   -6.728420    4.550230
  H      1.723960   -7.498030    4.267010
  H      3.321090   -8.225010    2.773710
  H      3.187730   -5.456430   -1.262750
  H      4.739240   -7.628010   -3.549480
  H      4.913560   -6.096540   -2.655940
  H      3.287900   -6.732980   -3.030630
  H      4.390170   -9.819530   -1.326650
  H      5.582360  -12.203330    3.016900
  H      6.475510  -15.205140   -2.367500
  H      7.108930  -16.688980   -0.337470
  H      5.164270  -10.960570   -3.004870
  H      5.265110  -13.934500   -3.665400
  H      6.904830   -8.588760   -4.595090
  H      5.746330   -8.483050   -5.945810
  H      7.296320   -9.347700   -6.155980
  H      5.615200  -10.085350   -7.573850
  H      4.519500  -14.491440   -5.732330
  H      3.471510  -16.082150   -8.767020
  H      2.983020  -15.429060   -7.185020
  H      4.642350  -16.053810   -7.426130
  H      4.772020  -10.636170   -9.597080
  H      4.863080  -16.136070  -12.587110
  H      3.401780  -11.780800  -14.508000
  H      5.432090  -17.150040  -14.287920

 Total Charge           Charge          ....    0
 Multiplicity           Mult            ....    1
 Number of Electrons    NEL             ....  532
 Basis Dimension        Dim             .... 1222

ORBITAL ENERGIES
----------------

  NO   OCC          E(Eh)            E(eV)
   0   2.0000     -88.983286     -2421.3583
   1   2.0000     -88.965218     -2420.8667
   2   2.0000     -19.277496      -524.5673
   3   2.0000     -19.276111      -524.5296
   4   2.0000     -19.275679      -524.5179
   5   2.0000     -19.272447      -524.4299
   6   2.0000     -19.267629      -524.2988
   7   2.0000     -19.264189      -524.2052
   8   2.0000     -19.242122      -523.6048
   9   2.0000     -19.228216      -523.2264
  10   2.0000     -19.216827      -522.9164
  11   2.0000     -19.211637      -522.7752
  12   2.0000     -14.435800      -392.8181
  13   2.0000     -14.431616      -392.7042
  14   2.0000     -14.431165      -392.6920
  15   2.0000     -14.423114      -392.4729
  16   2.0000     -14.413781      -392.2189
  17   2.0000     -14.407291      -392.0423
  18   2.0000     -10.422621      -283.6139
  19   2.0000     -10.417098      -283.4637
  20   2.0000     -10.394064      -282.8368
  21   2.0000     -10.378073      -282.4017
  22   2.0000     -10.365447      -282.0582
  23   2.0000     -10.363076      -281.9936
  24   2.0000     -10.360676      -281.9283
  25   2.0000     -10.358343      -281.8648
  26   2.0000     -10.356004      -281.8012
  27   2.0000     -10.352902      -281.7168
  28   2.0000     -10.352444      -281.7043
  29   2.0000     -10.348785      -281.6048
  30   2.0000     -10.347791      -281.5777
  31   2.0000     -10.344336      -281.4837
  32   2.0000     -10.344035      -281.4755
  33   2.0000     -10.344033      -281.4755
  34   2.0000     -10.341191      -281.3981
  35   2.0000     -10.339127      -281.3419
  36   2.0000     -10.339104      -281.3413
  37   2.0000     -10.338858      -281.3346
  38   2.0000     -10.337880      -281.3080
  39   2.0000     -10.337824      -281.3065
  40   2.0000     -10.334273      -281.2099
  41   2.0000     -10.333756      -281.1958
  42   2.0000     -10.332897      -281.1724
  43   2.0000     -10.332531      -281.1625
  44   2.0000     -10.332258      -281.1550
  45   2.0000     -10.332114      -281.1511
  46   2.0000     -10.330551      -281.1086
  47   2.0000     -10.330168      -281.0982
  48   2.0000     -10.325582      -280.9734
  49   2.0000     -10.324857      -280.9536
  50   2.0000     -10.324190      -280.9355
  51   2.0000     -10.322983      -280.9027
  52   2.0000     -10.322801      -280.8977
  53   2.0000     -10.322593      -280.8920
  54   2.0000     -10.315486      -280.6986
  55   2.0000     -10.313992      -280.6580
  56   2.0000     -10.313618      -280.6478
  57   2.0000     -10.307439      -280.4797
  58   2.0000     -10.307090      -280.4702
  59   2.0000     -10.305952      -280.4392
  60   2.0000     -10.305492      -280.4267
  61   2.0000     -10.304240      -280.3926
  62   2.0000     -10.302266      -280.3389
  63   2.0000     -10.302173      -280.3364
  64   2.0000     -10.300661      -280.2952
  65   2.0000     -10.297206      -280.2012
  66   2.0000     -10.296722      -280.1881
  67   2.0000     -10.293530      -280.1012
  68   2.0000     -10.293210      -280.0925
  69   2.0000     -10.292287      -280.0674
  70   2.0000     -10.287847      -279.9466
  71   2.0000     -10.285107      -279.8720
  72   2.0000     -10.284162      -279.8463
  73   2.0000     -10.283274      -279.8221
  74   2.0000     -10.282951      -279.8133
  75   2.0000     -10.280832      -279.7557
  76   2.0000      -8.078434      -219.8254
  77   2.0000      -8.060702      -219.3429
  78   2.0000      -6.047925      -164.5724
  79   2.0000      -6.043495      -164.4518
  80   2.0000      -6.040409      -164.3679
  81   2.0000      -6.030134      -164.0883
  82   2.0000      -6.025860      -163.9720
  83   2.0000      -6.022759      -163.8876
  84   2.0000      -1.201475       -32.6938
  85   2.0000      -1.196010       -32.5451
  86   2.0000      -1.181993       -32.1637
  87   2.0000      -1.179825       -32.1047
  88   2.0000      -1.171930       -31.8898
  89   2.0000      -1.168184       -31.7879
  90   2.0000      -1.156648       -31.4740
  91   2.0000      -1.143298       -31.1107
  92   2.0000      -1.116603       -30.3843
  93   2.0000      -1.111229       -30.2381
  94   2.0000      -1.041111       -28.3301
  95   2.0000      -1.032402       -28.0931
  96   2.0000      -1.023597       -27.8535
  97   2.0000      -1.016390       -27.6574
  98   2.0000      -1.014802       -27.6142
  99   2.0000      -1.011931       -27.5360
 100   2.0000      -1.005682       -27.3660
 101   2.0000      -1.000997       -27.2385
 102   2.0000      -0.993479       -27.0339
 103   2.0000      -0.991174       -26.9712
 104   2.0000      -0.977735       -26.6055
 105   2.0000      -0.975868       -26.5547
 106   2.0000      -0.969438       -26.3797
 107   2.0000      -0.966197       -26.2916
 108   2.0000      -0.939054       -25.5530
 109   2.0000      -0.926587       -25.2137
 110   2.0000      -0.924473       -25.1562
 111   2.0000      -0.918580       -24.9958
 112   2.0000      -0.915111       -24.9014
 113   2.0000      -0.901263       -24.5246
 114   2.0000      -0.895557       -24.3694
 115   2.0000      -0.892737       -24.2926
 116   2.0000      -0.884339       -24.0641
 117   2.0000      -0.872520       -23.7425
 118   2.0000      -0.865746       -23.5581
 119   2.0000      -0.865132       -23.5414
 120   2.0000      -0.860173       -23.4065
 121   2.0000      -0.840661       -22.8756
 122   2.0000      -0.830010       -22.5857
 123   2.0000      -0.827984       -22.5306
 124   2.0000      -0.826489       -22.4899
 125   2.0000      -0.814417       -22.1614
 126   2.0000      -0.808952       -22.0127
 127   2.0000      -0.804601       -21.8943
 128   2.0000      -0.796349       -21.6697
 129   2.0000      -0.793609       -21.5952
 130   2.0000      -0.780372       -21.2350
 131   2.0000      -0.772950       -21.0330
 132   2.0000      -0.758300       -20.6344
 133   2.0000      -0.750241       -20.4151
 134   2.0000      -0.744484       -20.2584
 135   2.0000      -0.743743       -20.2383
 136   2.0000      -0.724727       -19.7208
 137   2.0000      -0.720964       -19.6184
 138   2.0000      -0.718742       -19.5580
 139   2.0000      -0.717339       -19.5198
 140   2.0000      -0.707831       -19.2610
 141   2.0000      -0.704625       -19.1738
 142   2.0000      -0.700599       -19.0643
 143   2.0000      -0.698757       -19.0141
 144   2.0000      -0.689711       -18.7680
 145   2.0000      -0.684827       -18.6351
 146   2.0000      -0.680951       -18.5296
 147   2.0000      -0.671392       -18.2695
 148   2.0000      -0.668988       -18.2041
 149   2.0000      -0.660586       -17.9755
 150   2.0000      -0.654922       -17.8213
 151   2.0000      -0.652348       -17.7513
 152   2.0000      -0.645596       -17.5676
 153   2.0000      -0.639274       -17.3955
 154   2.0000      -0.635699       -17.2982
 155   2.0000      -0.632409       -17.2087
 156   2.0000      -0.626843       -17.0573
 157   2.0000      -0.620888       -16.8952
 158   2.0000      -0.616737       -16.7823
 159   2.0000      -0.611803       -16.6480
 160   2.0000      -0.606619       -16.5069
 161   2.0000      -0.600784       -16.3482
 162   2.0000      -0.594488       -16.1768
 163   2.0000      -0.592077       -16.1112
 164   2.0000      -0.587861       -15.9965
 165   2.0000      -0.584002       -15.8915
 166   2.0000      -0.583098       -15.8669
 167   2.0000      -0.581224       -15.8159
 168   2.0000      -0.576141       -15.6776
 169   2.0000      -0.573003       -15.5922
 170   2.0000      -0.572008       -15.5651
 171   2.0000      -0.570831       -15.5331
 172   2.0000      -0.566172       -15.4063
 173   2.0000      -0.563907       -15.3447
 174   2.0000      -0.562781       -15.3140
 175   2.0000      -0.559316       -15.2197
 176   2.0000      -0.558586       -15.1999
 177   2.0000      -0.555648       -15.1199
 178   2.0000      -0.551228       -14.9997
 179   2.0000      -0.549090       -14.9415
 180   2.0000      -0.548274       -14.9193
 181   2.0000      -0.546077       -14.8595
 182   2.0000      -0.543399       -14.7866
 183   2.0000      -0.541320       -14.7301
 184   2.0000      -0.539326       -14.6758
 185   2.0000      -0.537431       -14.6242
 186   2.0000      -0.535584       -14.5740
 187   2.0000      -0.532765       -14.4973
 188   2.0000      -0.531298       -14.4574
 189   2.0000      -0.526771       -14.3342
 190   2.0000      -0.522393       -14.2150
 191   2.0000      -0.519814       -14.1449
 192   2.0000      -0.518045       -14.0967
 193   2.0000      -0.516254       -14.0480
 194   2.0000      -0.513992       -13.9864
 195   2.0000      -0.512331       -13.9412
 196   2.0000      -0.508579       -13.8391
 197   2.0000      -0.506514       -13.7829
 198   2.0000      -0.504998       -13.7417
 199   2.0000      -0.503683       -13.7059
 200   2.0000      -0.502456       -13.6725
 201   2.0000      -0.500218       -13.6116
 202   2.0000      -0.498529       -13.5657
 203   2.0000      -0.493909       -13.4399
 204   2.0000      -0.489855       -13.3296
 205   2.0000      -0.486131       -13.2283
 206   2.0000      -0.485714       -13.2169
 207   2.0000      -0.476521       -12.9668
 208   2.0000      -0.474213       -12.9040
 209   2.0000      -0.471473       -12.8294
 210   2.0000      -0.468463       -12.7475
 211   2.0000      -0.466632       -12.6977
 212   2.0000      -0.466083       -12.6828
 213   2.0000      -0.465809       -12.6753
 214   2.0000      -0.464071       -12.6280
 215   2.0000      -0.461548       -12.5594
 216   2.0000      -0.460479       -12.5303
 217   2.0000      -0.455733       -12.4011
 218   2.0000      -0.454881       -12.3780
 219   2.0000      -0.454162       -12.3584
 220   2.0000      -0.453751       -12.3472
 221   2.0000      -0.451653       -12.2901
 222   2.0000      -0.448409       -12.2018
 223   2.0000      -0.445230       -12.1153
 224   2.0000      -0.445193       -12.1143
 225   2.0000      -0.444247       -12.0886
 226   2.0000      -0.441759       -12.0209
 227   2.0000      -0.440849       -11.9961
 228   2.0000      -0.437684       -11.9100
 229   2.0000      -0.436401       -11.8751
 230   2.0000      -0.435061       -11.8386
 231   2.0000      -0.434142       -11.8136
 232   2.0000      -0.431047       -11.7294
 233   2.0000      -0.429416       -11.6850
 234   2.0000      -0.429322       -11.6824
 235   2.0000      -0.426319       -11.6007
 236   2.0000      -0.422924       -11.5084
 237   2.0000      -0.421445       -11.4681
 238   2.0000      -0.420569       -11.4443
 239   2.0000      -0.419198       -11.4069
 240   2.0000      -0.412327       -11.2200
 241   2.0000      -0.409259       -11.1365
 242   2.0000      -0.408894       -11.1266
 243   2.0000      -0.407070       -11.0769
 244   2.0000      -0.404375       -11.0036
 245   2.0000      -0.401215       -10.9176
 246   2.0000      -0.397008       -10.8031
 247   2.0000      -0.394763       -10.7421
 248   2.0000      -0.386271       -10.5110
 249   2.0000      -0.376700       -10.2505
 250   2.0000      -0.369585       -10.0569
 251   2.0000      -0.369186       -10.0461
 252   2.0000      -0.364423        -9.9164
 253   2.0000      -0.360947        -9.8219
 254   2.0000      -0.358729        -9.7615
 255   2.0000      -0.357656        -9.7323
 256   2.0000      -0.349964        -9.5230
 257   2.0000      -0.340772        -9.2729
 258   2.0000      -0.338443        -9.2095
 259   2.0000      -0.329277        -8.9601
 260   2.0000      -0.322684        -8.7807
 261   2.0000      -0.308455        -8.3935
 262   2.0000      -0.297820        -8.1041
 263   2.0000      -0.292292        -7.9537
 264   2.0000      -0.279018        -7.5925
 265   2.0000      -0.237549        -6.4640
 266   0.0000      -0.113063        -3.0766
 267   0.0000      -0.099351        -2.7035
 268   0.0000      -0.093176        -2.5355
 269   0.0000      -0.082262        -2.2385
 270   0.0000      -0.059973        -1.6320

MULLIKEN ATOMIC CHARGES
-----------------------
   0 C :   -0.084625
   1 C :    0.010755
   2 C :    0.182621
   3 O :   -0.146615
   4 O :   -0.142155
   5 C :   -0.075692
   6 C :   -0.155407
   7 N :    0.143959
   8 C :   -0.037595
   9 C :    0.007900
  10 C :    0.041206
  11 C :    0.285556
  12 C :   -0.332979
  13 C :   -0.187468
  14 N :    0.146072
  15 C :   -0.198506
  16 N :    0.172389
  17 C :   -0.070234
  18 C :    0.167687
  19 O :   -0.154264
  20 C :   -0.017460
  21 C :    0.011449
  22 C :    0.257684
  23 O :   -0.302163
  24 C :    0.174797
  25 C :   -0.191677
  26 C :    0.126843
  27 C :    0.195250
  28 C :   -0.122200
  29 O :   -0.330315
  30 C :    0.182976
  31 C :   -0.077535
  32 C :   -0.036227
  33 C :    0.046292
  34 C :    0.067726
  35 C :   -0.118141
  36 S :    0.098260
  37 C :   -0.111678
  38 C :    0.055575
  39 C :   -0.007566
  40 C :   -0.062450
  41 S :    0.131211
  42 C :    0.081446
  43 C :    0.001768
  44 C :   -0.055320
  45 C :    0.128096
  46 C :    0.227559
  47 O :   -0.325191
  48 C :    0.170572
  49 C :   -0.142477
  50 C :    0.079194
  51 C :    0.235142
  52 C :   -0.157166
  53 O :   -0.312300
  54 C :    0.172097
  55 C :   -0.001039
  56 C :   -0.113581
  57 C :    0.136436
  58 O :   -0.134013
  59 C :    0.016562
  60 C :    0.035056
  61 C :   -0.098661
  62 C :    0.012260
  63 C :   -0.080497
  64 C :   -0.037316
  65 C :   -0.155407
  66 N :    0.142743
  67 C :    0.178151
  68 O :   -0.148421
  69 O :   -0.145310
  70 C :    0.306653
  71 C :   -0.331578
  72 C :   -0.205369
  73 N :    0.175951
  74 C :   -0.190486
  75 N :    0.145440
  76 H :    0.000639
  77 H :    0.191321
  78 H :    0.014412
  79 H :    0.038176
  80 H :    0.051998
  81 H :    0.034178
  82 H :    0.032019
  83 H :   -0.009864
  84 H :   -0.015090
  85 H :    0.020710
  86 H :    0.028721
  87 H :    0.046882
  88 H :    0.002138
  89 H :    0.036613
  90 H :   -0.011237
  91 H :    0.027151
  92 H :   -0.002390
  93 H :   -0.030851
  94 H :    0.045068
  95 H :    0.029633
  96 H :    0.038170
  97 H :   -0.032553
  98 H :   -0.039747
  99 H :    0.043403
 100 H :    0.038599
 101 H :    0.039409
 102 H :    0.022135
 103 H :   -0.000363
 104 H :    0.015320
 105 H :    0.191150
Sum of atomic charges:   -0.0000000

LOEWDIN ATOMIC CHARGES
----------------------
   0 C :   -0.001483
   1 C :   -0.037106
   2 C :    0.080567
   3 O :   -0.118797
   4 O :   -0.013988
   5 C :   -0.023471
   6 C :   -0.034688
   7 N :   -0.024275
   8 C :    0.047972
   9 C :   -0.030501
  10 C :    0.000378
  11 C :    0.073826
  12 C :   -0.133477
  13 C :   -0.015072
  14 N :   -0.055800
  15 C :   -0.027680
  16 N :   -0.037799
  17 C :   -0.107946
  18 C :    0.089620
  19 O :   -0.139348
  20 C :    0.094995
  21 C :   -0.066903
  22 C :    0.078141
  23 O :   -0.085029
  24 C :    0.082438
  25 C :   -0.085628
  26 C :   -0.014380
  27 C :    0.044995
  28 C :   -0.022158
  29 O :   -0.097310
  30 C :    0.079837
  31 C :   -0.165626
  32 C :   -0.000840
  33 C :   -0.022124
  34 C :   -0.052744
  35 C :   -0.137758
  36 S :    0.450897
  37 C :   -0.198481
  38 C :   -0.038678
  39 C :   -0.064830
  40 C :   -0.163738
  41 S :    0.425719
  42 C :   -0.040589
  43 C :    0.006490
  44 C :   -0.040616
  45 C :    0.003545
  46 C :    0.048005
  47 O :   -0.095998
  48 C :    0.075172
  49 C :   -0.036631
  50 C :   -0.059472
  51 C :    0.070136
  52 C :   -0.057714
  53 O :   -0.075228
  54 C :    0.079118
  55 C :    0.080853
  56 C :   -0.101970
  57 C :    0.085410
  58 O :   -0.132596
  59 C :   -0.034592
  60 C :    0.006380
  61 C :   -0.009575
  62 C :   -0.037048
  63 C :   -0.028827
  64 C :    0.049729
  65 C :   -0.034331
  66 N :   -0.027416
  67 C :    0.079978
  68 O :   -0.120796
  69 O :   -0.016611
  70 C :    0.065680
  71 C :   -0.134319
  72 C :   -0.019980
  73 N :   -0.045301
  74 C :   -0.018724
  75 N :   -0.063727
  76 H :    0.035411
  77 H :    0.099172
  78 H :    0.051900
  79 H :    0.047002
  80 H :    0.036451
  81 H :    0.021076
  82 H :    0.019294
  83 H :    0.017336
  84 H :    0.031356
  85 H :    0.026331
  86 H :    0.019648
  87 H :    0.025415
  88 H :    0.037810
  89 H :    0.037142
  90 H :    0.029956
  91 H :    0.024392
  92 H :    0.028486
  93 H :    0.026216
  94 H :    0.029380
  95 H :    0.013682
  96 H :    0.021976
  97 H :    0.032309
  98 H :    0.030587
  99 H :    0.031665
 100 H :    0.022005
 101 H :    0.021505
 102 H :    0.046595
 103 H :    0.034084
 104 H :    0.052773
 105 H :    0.098882

  Mayer bond orders larger than 0.100000
B(  0-C ,  1-C ) :   1.3224 B(  0-C , 10-C ) :   1.3884 B(  0-C , 76-H ) :   0.9625
B(  1-C ,  2-C ) :   0.8688 B(  1-C ,  5-C ) :   1.3944 B(  2-C ,  3-O ) :   2.1679
B(  2-C ,  4-O ) :   1.2563 B(  4-O , 77-H ) :   0.9464 B(  5-C ,  6-C ) :   1.0663
B(  5-C ,  8-C ) :   1.3627 B(  6-C ,  7-N ) :   3.0382 B(  8-C ,  9-C ) :   1.3515
B(  8-C , 78-H ) :   1.0160 B(  9-C , 10-C ) :   1.3447 B(  9-C , 18-C ) :   0.9361
B( 10-C , 11-C ) :   0.9748 B( 11-C , 12-C ) :   1.6408 B( 11-C , 17-C ) :   1.0834
B( 12-C , 13-C ) :   1.1490 B( 12-C , 15-C ) :   1.1331 B( 13-C , 14-N ) :   2.9757
B( 15-C , 16-N ) :   3.0011 B( 17-C , 18-C ) :   0.9497 B( 17-C , 20-C ) :   1.5047
B( 18-C , 19-O ) :   2.1665 B( 20-C , 21-C ) :   1.2195 B( 20-C , 79-H ) :   0.9328
B( 21-C , 22-C ) :   1.2678 B( 21-C , 28-C ) :   1.2642 B( 22-C , 23-O ) :   1.1818
B( 22-C , 25-C ) :   1.3316 B( 23-O , 24-C ) :   0.9439 B( 24-C , 80-H ) :   0.9767
B( 24-C , 81-H ) :   0.9691 B( 24-C , 82-H ) :   0.9693 B( 25-C , 26-C ) :   1.2896
B( 25-C , 83-H ) :   0.9718 B( 26-C , 27-C ) :   1.3089 B( 26-C , 31-C ) :   1.1061
B( 27-C , 28-C ) :   1.3543 B( 27-C , 29-O ) :   1.1280 B( 28-C , 84-H ) :   0.9703
B( 29-O , 30-C ) :   0.9437 B( 30-C , 85-H ) :   0.9734 B( 30-C , 86-H ) :   0.9678
B( 30-C , 87-H ) :   0.9656 B( 31-C , 32-C ) :   1.5402 B( 31-C , 36-S ) :   1.0317
B( 32-C , 33-C ) :   1.2291 B( 32-C , 88-H ) :   0.9574 B( 33-C , 34-C ) :   1.0492
B( 33-C , 42-C ) :   1.3768 B( 34-C , 35-C ) :   1.5977 B( 34-C , 37-C ) :   1.1784
B( 35-C , 36-S ) :   1.1473 B( 35-C , 89-H ) :   0.9417 B( 37-C , 38-C ) :   1.4421
B( 37-C , 41-S ) :   1.0818 B( 38-C , 39-C ) :   1.2116 B( 38-C , 42-C ) :   1.0920
B( 39-C , 40-C ) :   1.5880 B( 39-C , 90-H ) :   0.9997 B( 40-C , 41-S ) :   1.1526
B( 40-C , 91-H ) :   0.9650 B( 42-C , 43-C ) :   1.1592 B( 43-C , 44-C ) :   1.6177
B( 43-C , 92-H ) :   0.9547 B( 44-C , 45-C ) :   1.1144 B( 44-C , 93-H ) :   0.9774
B( 45-C , 46-C ) :   1.2699 B( 45-C , 52-C ) :   1.3120 B( 46-C , 47-O ) :   1.1292
B( 46-C , 49-C ) :   1.3484 B( 47-O , 48-C ) :   0.9564 B( 48-C , 94-H ) :   0.9737
B( 48-C , 95-H ) :   0.9649 B( 48-C , 96-H ) :   0.9673 B( 49-C , 50-C ) :   1.2424
B( 49-C , 97-H ) :   0.9988 B( 50-C , 51-C ) :   1.2898 B( 50-C , 55-C ) :   1.1435
B( 51-C , 52-C ) :   1.2849 B( 51-C , 53-O ) :   1.1667 B( 52-C , 98-H ) :   1.0012
B( 53-O , 54-C ) :   0.9395 B( 54-C , 99-H ) :   0.9760 B( 54-C ,100-H ) :   0.9709
B( 54-C ,101-H ) :   0.9687 B( 55-C , 56-C ) :   1.5903 B( 55-C ,102-H ) :   0.9345
B( 56-C , 57-C ) :   0.9532 B( 56-C , 70-C ) :   1.0670 B( 57-C , 58-O ) :   2.2579
B( 57-C , 59-C ) :   0.9018 B( 59-C , 60-C ) :   1.3411 B( 59-C , 64-C ) :   1.3597
B( 60-C , 61-C ) :   1.3862 B( 60-C , 70-C ) :   0.9902 B( 61-C , 62-C ) :   1.3184
B( 61-C ,103-H ) :   0.9683 B( 62-C , 63-C ) :   1.3995 B( 62-C , 67-C ) :   0.8698
B( 63-C , 64-C ) :   1.3610 B( 63-C , 65-C ) :   1.0681 B( 64-C ,104-H ) :   1.0164
B( 65-C , 66-N ) :   3.0393 B( 67-C , 68-O ) :   2.1710 B( 67-C , 69-O ) :   1.2535
B( 69-O ,105-H ) :   0.9456 B( 70-C , 71-C ) :   1.6340 B( 71-C , 72-C ) :   1.1719
B( 71-C , 74-C ) :   1.1418 B( 72-C , 73-N ) :   2.9973 B( 74-C , 75-N ) :   2.9806

-----------------------------------------------------------------------------
         ABSORPTION SPECTRUM VIA TRANSITION ELECTRIC DIPOLE MOMENTS
-----------------------------------------------------------------------------
State   Energy  Wavelength   fosc         T2         TX        TY        TZ
        (cm-1)    (nm)                  (au**2)     (au)      (au)      (au)
-----------------------------------------------------------------------------
   0   14058.6    711.3   1.144449691  26.79967  -1.48984   3.95424   2.99065
   1   17571.1    569.1   0.472093435   8.84512  -0.38580   0.63772  -2.87916
   2   19741.3    506.6   0.034328920   0.57248   0.31887  -0.50986   0.45918
   3   21169.2    472.4   0.100227931   1.55869   0.29670  -1.20887  -0.09641
   4   21713.7    460.5   0.483368628   7.32857   0.68664  -1.50733   2.14127
   5   22763.2    439.3   0.061269648   0.88611  -0.24788   0.46178  -0.78193
   6   23717.3    421.6   0.112147947   1.55669   0.03467   0.29388  -1.21207
   7   25063.4    399.0   0.111129445   1.45970  -0.63979   1.02165  -0.08125
   8   26207.6    381.6   0.087963922   1.10498  -0.06200  -0.26398  -1.01560
   9   27362.0    365.5   0.087343966   1.05090   0.46579  -0.90558   0.11775
  10   27814.4    359.5   0.021395454   0.25324   0.10918   0.32364   0.36956
  11   28204.7    354.6   0.308402783   3.59975  -0.41132   1.26739   1.35066
  12   28609.2    349.5   0.012272865   0.14123  -0.02901  -0.14762  -0.34437
  13   29116.0    343.5   0.006360619   0.07192   0.15426  -0.03327   0.21683
  14   29615.9    337.7   0.057431853   0.63842   0.19255   0.15532   0.75975
  15   29934.2    334.1   0.059394677   0.65321  -0.25271   0.72219  -0.26036
  16   30292.3    330.1   0.021164852   0.23002  -0.26691   0.37014  -0.14755
  17   31586.9    316.6   0.080807469   0.84221   0.15124  -0.00001   0.90517
  18   31643.0    316.0   0.002175344   0.02263   0.10938  -0.02982  -0.09889
  19   31919.8    313.3   0.020570615   0.21216  -0.17263  -0.13388  -0.40551
  20   32194.2    310.6   0.073221390   0.74875  -0.52257   0.46503  -0.50933
  21   32270.8    309.9   0.024967186   0.25470   0.25941   0.40794   0.14491
  22   32686.8    305.9   0.190174727   1.91538   0.34522  -0.59162  -1.20258
  23   32952.2    303.5   0.107725713   1.07624   0.27803  -0.99356   0.10854
  24   33098.8    302.1   0.012385884   0.12319  -0.02649   0.01492   0.34967
  25   33446.3    299.0   0.334227714   3.28980   0.86115  -0.80512   1.37840
  26   33676.6    296.9   0.006120586   0.05983   0.11159  -0.20546  -0.07190
  27   34462.9    290.2   0.441778126   4.22015  -0.93797   0.12644  -1.82329
  28   34531.6    289.6   0.420780526   4.01157  -0.86168   0.42737  -1.75682
  29   34994.6    285.8   0.263974756   2.48335   0.72679  -0.61948   1.25354
  30   35355.4    282.8   0.181590099   1.69088   0.52519  -0.16231   1.17843
  31   35553.5    281.3   0.072582485   0.67209  -0.50327   0.60270  -0.23571
  32   35880.1    278.7   0.101956815   0.93549   0.15504  -0.84240  -0.44924
  33   36006.4    277.7   0.179551762   1.64167  -0.60755  -0.03864  -1.12741
  34   36237.6    276.0   0.084853944   0.77088   0.25205  -0.68818  -0.48348
  35   36532.6    273.7   0.149340897   1.34578  -0.02108  -0.79899  -0.84081
  36   36681.4    272.6   0.017826640   0.15999   0.31502   0.09585   0.22709
  37   37236.6    268.6   0.031874280   0.28180   0.21869  -0.38976   0.28646
  38   37815.9    264.4   0.005167435   0.04499   0.01111   0.13504   0.16317
  39   38266.0    261.3   0.170801268   1.46944   0.37631  -1.09710  -0.35243
  40   38488.2    259.8   0.031176296   0.26667  -0.20391   0.00627  -0.47440
  41   38617.5    258.9   0.137963057   1.17613   0.41700  -0.30212   0.95444
  42   38799.9    257.7   0.121494327   1.03086  -0.30531  -0.03399  -0.96772
  43   39107.3    255.7   0.066540255   0.56015  -0.37557   0.14435  -0.63108
  44   39245.1    254.8   0.011102746   0.09314   0.09831   0.07728   0.27839
  45   39337.6    254.2   0.072926306   0.61031   0.06625  -0.62061  -0.46986
  46   39512.3    253.1   0.047175087   0.39306  -0.15905   0.53607   0.28352
  47   39735.6    251.7   0.055669879   0.46123   0.21577  -0.19902   0.61242
  48   40176.2    248.9   0.124784284   1.02251   0.38763  -0.81101  -0.46316

FINAL SINGLE POINT ENERGY     -4100.861924519425

DIPOLE MOMENT
-------------
                                X             Y             Z
Electronic contribution:    -11.12063      12.68267     -14.65898
Nuclear contribution   :     13.42040     -14.37365      20.58330
                        -----------------------------------------
Total Dipole Moment    :      2.29977      -1.69098       5.92432
                        -----------------------------------------
Magnitude (a.u.)       :      6.57616
Magnitude (Debye)      :     16.71528

Rotational constants in cm-1:     0.000901     0.000304     0.000232
Rotational constants in MHz :    27.025500     9.105869     6.963839

                             ****ORCA TERMINATED NORMALLY****
TOTAL RUN TIME: 0 days 0 hours 16 minutes 16 seconds 442 msec
