                         Program Version 4.2.0 -  RELEASE  -
|  1> # ORCA input file
|  2> # SCF done       -162.060529586925          0.000904198326
|  3> ! CAM-B3LYP def2-SVP def2/J RIJCOSX Grid4 TightSCF
|  4> %maxcore 5000
|  5> %tddft
|  6>     Mode sTDDFT
|  7>     Ethresh 5.0
|  8>     maxcore 5000
|  9> end
| 10>
| 11> %pal
| 12>   nprocs 6
| 13>   end
| 14> * xyz 0 1
| 15>    C        3.85126        -1.01436         2.52164
| 16>    C        3.74249         0.37210         2.42828
| 17>    C        4.70242         1.26911         3.15179
| 18>    O        5.06234         2.31965         2.70208
| 19>    O        5.15214         0.82562         4.33310
| 20>    C        2.76676         0.95524         1.60405
| 21>    C        2.61400         2.36211         1.51998
| 22>    N        2.39141         3.48085         1.41740
| 23>    C        1.89432         0.15372         0.85836
| 24>    C        2.01973        -1.21392         0.95613
| 25>    C        2.98166        -1.80706         1.79332
| 26>    C        2.82724        -3.26101         1.72780
| 27>    C        3.22188        -4.12433         2.72442
| 28>    C        3.99307        -3.71538         3.82636
| 29>    N        4.62463        -3.39454         4.73120
| 30>    C        2.78226        -5.45949         2.81686
| 31>    N        2.40352        -6.53455         2.95660
| 32>    C        1.92491        -3.54623         0.64594
| 33>    C        1.26676        -2.28308         0.24728
| 34>    O        0.34493        -2.14326        -0.52321
| 35>    C        1.65257        -4.70794        -0.03458
| 36>    C        2.42828        -5.86718        -0.14403
| 37>    C        1.99227        -7.09511        -0.63830
| 38>    C        2.98960        -8.05327        -0.64429
| 39>    C        4.24101        -7.55078        -0.19134
| 40>    S        4.15736        -5.90598         0.25092
| 41>    C        5.17915        -8.58757        -0.22285
| 42>    C        4.53904        -9.76479        -0.67519
| 43>    C        3.14669        -9.45533        -0.96517
| 44>    C        2.19640       -10.31458        -1.44298
| 45>    C        2.48269       -11.66688        -1.71618
| 46>    N        2.71514       -12.76732        -1.94230
| 47>    C        0.87508        -9.90096        -1.70660
| 48>    N       -0.20034        -9.57185        -1.93106
| 49>    C        5.37852       -10.86565        -0.70214
| 50>    C        6.67029       -10.55808        -0.28337
| 51>    S        6.83484        -8.85568         0.14610
| 52>    C        7.76539       -11.44559        -0.16823
| 53>    C        9.03040       -11.02632         0.20054
| 54>    C       10.12894       -11.85453         0.36321
| 55>    C        9.98361       -13.31442         0.27584
| 56>    C        8.85373       -13.94450        -0.10832
| 57>    S        7.39978       -13.13398        -0.52602
| 58>    C       11.24233       -13.84736         0.67029
| 59>    C       12.12248       -12.80568         0.96320
| 60>    C       13.39417       -13.27931         1.35657
| 61>    C       13.44225       -14.63660         1.35566
| 62>    S       11.95937       -15.39327         0.87431
| 63>    C       11.46416       -11.54552         0.73677
| 64>    C       12.13044       -10.31116         0.83840
| 65>    C       11.73665        -9.11162         0.30693
| 66>    C       12.44455        -7.89190         0.38581
| 67>    C       13.57780        -7.67598         1.15799
| 68>    C       14.15860        -6.39229         1.07394
| 69>    C       13.52733        -5.50027         0.23326
| 70>   Si       12.02995        -6.31273        -0.53859
| 71>    C       13.94943        -4.18200        -0.01040
| 72>    C       13.29520        -3.29845        -0.86595
| 73>    O       12.17954        -3.72964        -1.49662
| 74>    C       11.52919        -2.83360        -2.36930
| 75>    C       13.91976        -2.03872        -0.95042
| 76>    C       15.03470        -1.96517        -0.16875
| 77>    S       15.35399        -3.41377         0.68649
| 78>    H        4.63427        -1.46192         3.11572
| 79>    H        4.77601        -0.02277         4.60760
| 80>    H        1.14353         0.59761         0.22252
| 81>    H        0.74839        -4.68947        -0.63523
| 82>    H        0.97267        -7.25993        -0.93754
| 83>    H        5.08828       -11.85562        -1.00524
| 84>    H        9.13937        -9.96988         0.40403
| 85>    H        8.78542       -15.01775        -0.18860
| 86>    H       14.22800       -12.65819         1.62876
| 87>    H       14.27299       -15.26476         1.61136
| 88>    H       13.09439       -10.35787         1.32763
| 89>    H       10.83780        -9.08135        -0.29266
| 90>    H       14.01204        -8.42350         1.80450
| 91>    H       15.04498        -6.13483         1.63597
| 92>    H       12.12448        -6.48691        -1.98666
| 93>    H       10.75505        -5.73985        -0.11357
| 94>    H       10.67170        -3.37463        -2.76448
| 95>    H       12.18435        -2.53632        -3.19368
| 96>    H       11.18414        -1.94145        -1.83835
| 97>    H       13.57258        -1.22016        -1.55390
| 98>    H       15.69140        -1.12692        -0.04831
| 99> *
|100>
|101>                          ****END OF INPUT****

CARTESIAN COORDINATES (ANGSTROEM)
---------------------------------
  C      3.851260   -1.014360    2.521640
  C      3.742490    0.372100    2.428280
  C      4.702420    1.269110    3.151790
  O      5.062340    2.319650    2.702080
  O      5.152140    0.825620    4.333100
  C      2.766760    0.955240    1.604050
  C      2.614000    2.362110    1.519980
  N      2.391410    3.480850    1.417400
  C      1.894320    0.153720    0.858360
  C      2.019730   -1.213920    0.956130
  C      2.981660   -1.807060    1.793320
  C      2.827240   -3.261010    1.727800
  C      3.221880   -4.124330    2.724420
  C      3.993070   -3.715380    3.826360
  N      4.624630   -3.394540    4.731200
  C      2.782260   -5.459490    2.816860
  N      2.403520   -6.534550    2.956600
  C      1.924910   -3.546230    0.645940
  C      1.266760   -2.283080    0.247280
  O      0.344930   -2.143260   -0.523210
  C      1.652570   -4.707940   -0.034580
  C      2.428280   -5.867180   -0.144030
  C      1.992270   -7.095110   -0.638300
  C      2.989600   -8.053270   -0.644290
  C      4.241010   -7.550780   -0.191340
  S      4.157360   -5.905980    0.250920
  C      5.179150   -8.587570   -0.222850
  C      4.539040   -9.764790   -0.675190
  C      3.146690   -9.455330   -0.965170
  C      2.196400  -10.314580   -1.442980
  C      2.482690  -11.666880   -1.716180
  N      2.715140  -12.767320   -1.942300
  C      0.875080   -9.900960   -1.706600
  N     -0.200340   -9.571850   -1.931060
  C      5.378520  -10.865650   -0.702140
  C      6.670290  -10.558080   -0.283370
  S      6.834840   -8.855680    0.146100
  C      7.765390  -11.445590   -0.168230
  C      9.030400  -11.026320    0.200540
  C     10.128940  -11.854530    0.363210
  C      9.983610  -13.314420    0.275840
  C      8.853730  -13.944500   -0.108320
  S      7.399780  -13.133980   -0.526020
  C     11.242330  -13.847360    0.670290
  C     12.122480  -12.805680    0.963200
  C     13.394170  -13.279310    1.356570
  C     13.442250  -14.636600    1.355660
  S     11.959370  -15.393270    0.874310
  C     11.464160  -11.545520    0.736770
  C     12.130440  -10.311160    0.838400
  C     11.736650   -9.111620    0.306930
  C     12.444550   -7.891900    0.385810
  C     13.577800   -7.675980    1.157990
  C     14.158600   -6.392290    1.073940
  C     13.527330   -5.500270    0.233260
  Si    12.029950   -6.312730   -0.538590
  C     13.949430   -4.182000   -0.010400
  C     13.295200   -3.298450   -0.865950
  O     12.179540   -3.729640   -1.496620
  C     11.529190   -2.833600   -2.369300
  C     13.919760   -2.038720   -0.950420
  C     15.034700   -1.965170   -0.168750
  S     15.353990   -3.413770    0.686490
  H      4.634270   -1.461920    3.115720
  H      4.776010   -0.022770    4.607600
  H      1.143530    0.597610    0.222520
  H      0.748390   -4.689470   -0.635230
  H      0.972670   -7.259930   -0.937540
  H      5.088280  -11.855620   -1.005240
  H      9.139370   -9.969880    0.404030
  H      8.785420  -15.017750   -0.188600
  H     14.228000  -12.658190    1.628760
  H     14.272990  -15.264760    1.611360
  H     13.094390  -10.357870    1.327630
  H     10.837800   -9.081350   -0.292660
  H     14.012040   -8.423500    1.804500
  H     15.044980   -6.134830    1.635970
  H     12.124480   -6.486910   -1.986660
  H     10.755050   -5.739850   -0.113570
  H     10.671700   -3.374630   -2.764480
  H     12.184350   -2.536320   -3.193680
  H     11.184140   -1.941450   -1.838350
  H     13.572580   -1.220160   -1.553900
  H     15.691400   -1.126920   -0.048310

 Total Charge           Charge          ....    0
 Multiplicity           Mult            ....    1
 Number of Electrons    NEL             ....  470
 Basis Dimension        Dim             .... 1011

ORBITAL ENERGIES
----------------

  NO   OCC          E(Eh)            E(eV)
   0   2.0000     -88.999968     -2421.8123
   1   2.0000     -88.998083     -2421.7610
   2   2.0000     -88.978380     -2421.2248
   3   2.0000     -88.964419     -2420.8449
   4   2.0000     -88.959434     -2420.7093
   5   2.0000     -66.191566     -1801.1641
   6   2.0000     -19.272032      -524.4187
   7   2.0000     -19.270021      -524.3639
   8   2.0000     -19.225180      -523.1437
   9   2.0000     -19.211696      -522.7768
  10   2.0000     -14.437609      -392.8673
  11   2.0000     -14.437530      -392.8652
  12   2.0000     -14.429051      -392.6345
  13   2.0000     -14.423234      -392.4762
  14   2.0000     -14.408491      -392.0750
  15   2.0000     -10.417094      -283.4635
  16   2.0000     -10.377570      -282.3880
  17   2.0000     -10.373566      -282.2791
  18   2.0000     -10.360723      -281.9296
  19   2.0000     -10.355329      -281.7828
  20   2.0000     -10.354420      -281.7581
  21   2.0000     -10.353737      -281.7395
  22   2.0000     -10.345058      -281.5034
  23   2.0000     -10.344720      -281.4941
  24   2.0000     -10.341387      -281.4034
  25   2.0000     -10.340397      -281.3765
  26   2.0000     -10.337433      -281.2958
  27   2.0000     -10.337113      -281.2872
  28   2.0000     -10.335345      -281.2390
  29   2.0000     -10.333023      -281.1759
  30   2.0000     -10.332501      -281.1617
  31   2.0000     -10.332160      -281.1524
  32   2.0000     -10.331987      -281.1477
  33   2.0000     -10.331751      -281.1412
  34   2.0000     -10.331318      -281.1295
  35   2.0000     -10.330474      -281.1065
  36   2.0000     -10.325442      -280.9696
  37   2.0000     -10.325044      -280.9587
  38   2.0000     -10.323363      -280.9130
  39   2.0000     -10.322694      -280.8948
  40   2.0000     -10.321497      -280.8622
  41   2.0000     -10.314611      -280.6748
  42   2.0000     -10.312402      -280.6147
  43   2.0000     -10.310758      -280.5700
  44   2.0000     -10.309660      -280.5401
  45   2.0000     -10.307993      -280.4948
  46   2.0000     -10.305737      -280.4334
  47   2.0000     -10.303707      -280.3781
  48   2.0000     -10.303510      -280.3728
  49   2.0000     -10.302524      -280.3459
  50   2.0000     -10.297105      -280.1985
  51   2.0000     -10.295526      -280.1555
  52   2.0000     -10.290375      -280.0153
  53   2.0000     -10.289421      -279.9894
  54   2.0000     -10.284331      -279.8509
  55   2.0000     -10.282392      -279.7981
  56   2.0000     -10.281201      -279.7657
  57   2.0000     -10.280361      -279.7429
  58   2.0000     -10.280210      -279.7387
  59   2.0000     -10.275540      -279.6117
  60   2.0000     -10.275022      -279.5976
  61   2.0000     -10.269207      -279.4393
  62   2.0000     -10.254866      -279.0491
  63   2.0000      -8.094123      -220.2523
  64   2.0000      -8.092213      -220.2003
  65   2.0000      -8.073645      -219.6951
  66   2.0000      -8.059863      -219.3200
  67   2.0000      -8.055177      -219.1925
  68   2.0000      -6.063474      -164.9955
  69   2.0000      -6.061638      -164.9456
  70   2.0000      -6.059264      -164.8809
  71   2.0000      -6.057536      -164.8339
  72   2.0000      -6.056306      -164.8005
  73   2.0000      -6.054212      -164.7435
  74   2.0000      -6.043363      -164.4483
  75   2.0000      -6.038850      -164.3255
  76   2.0000      -6.035175      -164.2255
  77   2.0000      -6.029329      -164.0664
  78   2.0000      -6.025021      -163.9492
  79   2.0000      -6.024516      -163.9354
  80   2.0000      -6.021886      -163.8639
  81   2.0000      -6.020297      -163.8206
  82   2.0000      -6.017273      -163.7383
  83   2.0000      -5.360963      -145.8792
  84   2.0000      -3.723938      -101.3335
  85   2.0000      -3.722707      -101.3000
  86   2.0000      -3.722167      -101.2853
  87   2.0000      -1.195695       -32.5365
  88   2.0000      -1.172581       -31.9076
  89   2.0000      -1.140292       -31.0289
  90   2.0000      -1.110816       -30.2269
  91   2.0000      -1.055847       -28.7311
  92   2.0000      -1.034065       -28.1383
  93   2.0000      -1.029401       -28.0114
  94   2.0000      -1.016454       -27.6591
  95   2.0000      -1.015591       -27.6356
  96   2.0000      -1.014306       -27.6007
  97   2.0000      -1.008695       -27.4480
  98   2.0000      -1.003309       -27.3014
  99   2.0000      -0.994658       -27.0660
 100   2.0000      -0.984419       -26.7874
 101   2.0000      -0.980990       -26.6941
 102   2.0000      -0.969239       -26.3743
 103   2.0000      -0.963156       -26.2088
 104   2.0000      -0.937012       -25.4974
 105   2.0000      -0.928773       -25.2732
 106   2.0000      -0.922989       -25.1158
 107   2.0000      -0.917099       -24.9555
 108   2.0000      -0.904346       -24.6085
 109   2.0000      -0.893116       -24.3029
 110   2.0000      -0.890899       -24.2426
 111   2.0000      -0.881370       -23.9833
 112   2.0000      -0.878084       -23.8939
 113   2.0000      -0.867425       -23.6038
 114   2.0000      -0.857919       -23.3452
 115   2.0000      -0.849771       -23.1234
 116   2.0000      -0.842112       -22.9150
 117   2.0000      -0.837065       -22.7777
 118   2.0000      -0.820398       -22.3242
 119   2.0000      -0.805590       -21.9212
 120   2.0000      -0.797423       -21.6990
 121   2.0000      -0.792149       -21.5555
 122   2.0000      -0.786194       -21.3934
 123   2.0000      -0.780185       -21.2299
 124   2.0000      -0.761890       -20.7321
 125   2.0000      -0.746468       -20.3124
 126   2.0000      -0.744098       -20.2479
 127   2.0000      -0.740138       -20.1402
 128   2.0000      -0.721140       -19.6232
 129   2.0000      -0.715017       -19.4566
 130   2.0000      -0.711661       -19.3653
 131   2.0000      -0.704016       -19.1573
 132   2.0000      -0.701736       -19.0952
 133   2.0000      -0.693909       -18.8822
 134   2.0000      -0.686048       -18.6683
 135   2.0000      -0.678823       -18.4717
 136   2.0000      -0.666025       -18.1235
 137   2.0000      -0.664246       -18.0750
 138   2.0000      -0.652034       -17.7427
 139   2.0000      -0.650208       -17.6931
 140   2.0000      -0.644594       -17.5403
 141   2.0000      -0.643716       -17.5164
 142   2.0000      -0.637017       -17.3341
 143   2.0000      -0.634710       -17.2713
 144   2.0000      -0.629063       -17.1177
 145   2.0000      -0.625882       -17.0311
 146   2.0000      -0.613688       -16.6993
 147   2.0000      -0.606507       -16.5039
 148   2.0000      -0.599233       -16.3060
 149   2.0000      -0.592010       -16.1094
 150   2.0000      -0.589185       -16.0325
 151   2.0000      -0.582737       -15.8571
 152   2.0000      -0.575347       -15.6560
 153   2.0000      -0.572699       -15.5839
 154   2.0000      -0.568878       -15.4800
 155   2.0000      -0.566397       -15.4124
 156   2.0000      -0.562827       -15.3153
 157   2.0000      -0.558656       -15.2018
 158   2.0000      -0.558091       -15.1864
 159   2.0000      -0.556070       -15.1314
 160   2.0000      -0.551498       -15.0070
 161   2.0000      -0.543732       -14.7957
 162   2.0000      -0.540700       -14.7132
 163   2.0000      -0.536065       -14.5871
 164   2.0000      -0.532437       -14.4883
 165   2.0000      -0.531559       -14.4645
 166   2.0000      -0.530577       -14.4377
 167   2.0000      -0.523051       -14.2329
 168   2.0000      -0.520405       -14.1609
 169   2.0000      -0.520101       -14.1527
 170   2.0000      -0.518618       -14.1123
 171   2.0000      -0.517372       -14.0784
 172   2.0000      -0.512518       -13.9463
 173   2.0000      -0.508643       -13.8409
 174   2.0000      -0.505809       -13.7638
 175   2.0000      -0.503107       -13.6902
 176   2.0000      -0.501017       -13.6334
 177   2.0000      -0.497785       -13.5454
 178   2.0000      -0.491661       -13.3788
 179   2.0000      -0.490864       -13.3571
 180   2.0000      -0.489109       -13.3093
 181   2.0000      -0.484901       -13.1948
 182   2.0000      -0.478301       -13.0152
 183   2.0000      -0.473643       -12.8885
 184   2.0000      -0.469825       -12.7846
 185   2.0000      -0.467912       -12.7325
 186   2.0000      -0.465818       -12.6756
 187   2.0000      -0.465452       -12.6656
 188   2.0000      -0.465205       -12.6589
 189   2.0000      -0.462951       -12.5976
 190   2.0000      -0.460926       -12.5424
 191   2.0000      -0.458589       -12.4788
 192   2.0000      -0.455045       -12.3824
 193   2.0000      -0.454486       -12.3672
 194   2.0000      -0.450495       -12.2586
 195   2.0000      -0.447352       -12.1731
 196   2.0000      -0.447158       -12.1678
 197   2.0000      -0.445531       -12.1235
 198   2.0000      -0.444280       -12.0895
 199   2.0000      -0.441246       -12.0069
 200   2.0000      -0.439094       -11.9483
 201   2.0000      -0.436477       -11.8771
 202   2.0000      -0.436205       -11.8697
 203   2.0000      -0.434966       -11.8360
 204   2.0000      -0.433523       -11.7968
 205   2.0000      -0.432686       -11.7740
 206   2.0000      -0.432204       -11.7609
 207   2.0000      -0.427234       -11.6256
 208   2.0000      -0.422781       -11.5045
 209   2.0000      -0.420702       -11.4479
 210   2.0000      -0.419491       -11.4149
 211   2.0000      -0.417640       -11.3645
 212   2.0000      -0.414366       -11.2755
 213   2.0000      -0.407705       -11.0942
 214   2.0000      -0.405401       -11.0315
 215   2.0000      -0.400324       -10.8934
 216   2.0000      -0.397334       -10.8120
 217   2.0000      -0.394970       -10.7477
 218   2.0000      -0.383344       -10.4313
 219   2.0000      -0.379764       -10.3339
 220   2.0000      -0.369754       -10.0615
 221   2.0000      -0.366477        -9.9723
 222   2.0000      -0.359070        -9.7708
 223   2.0000      -0.358461        -9.7542
 224   2.0000      -0.350579        -9.5398
 225   2.0000      -0.347717        -9.4619
 226   2.0000      -0.342896        -9.3307
 227   2.0000      -0.330609        -8.9963
 228   2.0000      -0.325634        -8.8609
 229   2.0000      -0.324551        -8.8315
 230   2.0000      -0.309437        -8.4202
 231   2.0000      -0.293588        -7.9889
 232   2.0000      -0.278195        -7.5701
 233   2.0000      -0.255802        -6.9607
 234   2.0000      -0.214537        -5.8379
 235   0.0000      -0.125977        -3.4280
 236   0.0000      -0.100231        -2.7274
 237   0.0000      -0.084291        -2.2937
 238   0.0000      -0.075753        -2.0614
 239   0.0000      -0.039451        -1.0735

MULLIKEN ATOMIC CHARGES
-----------------------
   0 C :   -0.087197
   1 C :    0.003105
   2 C :    0.177875
   3 O :   -0.150387
   4 O :   -0.145529
   5 C :   -0.076195
   6 C :   -0.157857
   7 N :    0.141686
   8 C :   -0.036076
   9 C :    0.010567
  10 C :    0.028611
  11 C :    0.247678
  12 C :   -0.323114
  13 C :   -0.171589
  14 N :    0.136197
  15 C :   -0.206799
  16 N :    0.176484
  17 C :   -0.154626
  18 C :    0.148174
  19 O :   -0.133269
  20 C :    0.043274
  21 C :   -0.089639
  22 C :    0.010121
  23 C :    0.015116
  24 C :   -0.059567
  25 S :    0.191085
  26 C :   -0.109689
  27 C :    0.039100
  28 C :    0.298893
  29 C :   -0.293023
  30 C :   -0.184458
  31 N :    0.176405
  32 C :   -0.187801
  33 N :    0.182307
  34 C :   -0.071477
  35 C :   -0.038343
  36 S :    0.172965
  37 C :   -0.046194
  38 C :   -0.081867
  39 C :    0.036872
  40 C :    0.061130
  41 C :   -0.122649
  42 S :    0.120324
  43 C :   -0.098678
  44 C :    0.041828
  45 C :    0.015917
  46 C :   -0.068857
  47 S :    0.135780
  48 C :    0.108974
  49 C :   -0.020447
  50 C :    0.007985
  51 C :   -0.159098
  52 C :    0.009251
  53 C :   -0.031919
  54 C :   -0.146645
  55 Si:    0.541407
  56 C :   -0.138154
  57 C :    0.231033
  58 O :   -0.334448
  59 C :    0.180098
  60 C :   -0.040425
  61 C :   -0.054439
  62 S :    0.131466
  63 H :    0.006188
  64 H :    0.192220
  65 H :    0.017027
  66 H :    0.034911
  67 H :    0.021332
  68 H :    0.025818
  69 H :   -0.002672
  70 H :    0.039434
  71 H :   -0.014584
  72 H :    0.029062
  73 H :   -0.034614
  74 H :   -0.031836
  75 H :   -0.017541
  76 H :   -0.020323
  77 H :   -0.082613
  78 H :   -0.087761
  79 H :    0.040949
  80 H :    0.030764
  81 H :    0.031933
  82 H :   -0.013972
  83 H :    0.035025
Sum of atomic charges:    0.0000000

LOEWDIN ATOMIC CHARGES
----------------------
   0 C :   -0.007115
   1 C :   -0.038327
   2 C :    0.079716
   3 O :   -0.123171
   4 O :   -0.016899
   5 C :   -0.028141
   6 C :   -0.033862
   7 N :   -0.027078
   8 C :    0.047761
   9 C :   -0.031404
  10 C :    0.003773
  11 C :    0.055950
  12 C :   -0.150995
  13 C :   -0.017169
  14 N :   -0.063215
  15 C :   -0.039499
  16 N :   -0.045058
  17 C :   -0.125819
  18 C :    0.081227
  19 O :   -0.136336
  20 C :    0.059459
  21 C :   -0.186925
  22 C :    0.029358
  23 C :   -0.083048
  24 C :   -0.130626
  25 S :    0.495799
  26 C :   -0.207799
  27 C :   -0.033618
  28 C :    0.078022
  29 C :   -0.095000
  30 C :   -0.016247
  31 N :   -0.027943
  32 C :   -0.017264
  33 N :   -0.025347
  34 C :   -0.049920
  35 C :   -0.147540
  36 S :    0.468970
  37 C :   -0.203566
  38 C :   -0.007362
  39 C :   -0.038109
  40 C :   -0.050242
  41 C :   -0.138779
  42 S :    0.446418
  43 C :   -0.191436
  44 C :   -0.043095
  45 C :   -0.060101
  46 C :   -0.162576
  47 S :    0.428430
  48 C :   -0.018825
  49 C :   -0.032780
  50 C :   -0.023320
  51 C :   -0.197944
  52 C :    0.001130
  53 C :   -0.044940
  54 C :   -0.164769
  55 Si:    0.554304
  56 C :   -0.217614
  57 C :    0.019837
  58 O :   -0.088035
  59 C :    0.083829
  60 C :   -0.101767
  61 C :   -0.166198
  62 S :    0.438235
  63 H :    0.035911
  64 H :    0.099678
  65 H :    0.053100
  66 H :    0.055920
  67 H :    0.048756
  68 H :    0.036028
  69 H :    0.027687
  70 H :    0.037923
  71 H :    0.031323
  72 H :    0.024640
  73 H :    0.025760
  74 H :    0.018928
  75 H :    0.021784
  76 H :    0.019027
  77 H :   -0.088886
  78 H :   -0.090648
  79 H :    0.030668
  80 H :    0.019450
  81 H :    0.019641
  82 H :    0.030985
  83 H :    0.026928

  Mayer bond orders larger than 0.100000
B(  0-C ,  1-C ) :   1.3219 B(  0-C , 10-C ) :   1.3898 B(  0-C , 63-H ) :   0.9694
B(  1-C ,  2-C ) :   0.8705 B(  1-C ,  5-C ) :   1.4020 B(  2-C ,  3-O ) :   2.1711
B(  2-C ,  4-O ) :   1.2550 B(  4-O , 64-H ) :   0.9442 B(  5-C ,  6-C ) :   1.0708
B(  5-C ,  8-C ) :   1.3582 B(  6-C ,  7-N ) :   3.0393 B(  8-C ,  9-C ) :   1.3668
B(  8-C , 65-H ) :   1.0148 B(  9-C , 10-C ) :   1.3495 B(  9-C , 18-C ) :   0.8957
B( 10-C , 11-C ) :   0.9910 B( 11-C , 12-C ) :   1.6178 B( 11-C , 17-C ) :   1.0898
B( 12-C , 13-C ) :   1.1441 B( 12-C , 15-C ) :   1.1543 B( 13-C , 14-N ) :   2.9814
B( 15-C , 16-N ) :   3.0210 B( 17-C , 18-C ) :   0.9655 B( 17-C , 20-C ) :   1.5118
B( 18-C , 19-O ) :   2.2764 B( 20-C , 21-C ) :   1.2397 B( 20-C , 66-H ) :   0.9512
B( 21-C , 22-C ) :   1.3344 B( 21-C , 25-S ) :   1.0467 B( 22-C , 23-C ) :   1.3505
B( 22-C , 67-H ) :   0.9997 B( 23-C , 24-C ) :   1.3244 B( 23-C , 28-C ) :   1.0045
B( 24-C , 25-S ) :   1.1572 B( 24-C , 26-C ) :   1.2871 B( 26-C , 27-C ) :   1.3887
B( 26-C , 36-S ) :   1.0730 B( 27-C , 28-C ) :   0.9937 B( 27-C , 34-C ) :   1.3569
B( 28-C , 29-C ) :   1.7119 B( 29-C , 30-C ) :   1.1387 B( 29-C , 32-C ) :   1.1364
B( 30-C , 31-N ) :   2.9839 B( 32-C , 33-N ) :   2.9922 B( 34-C , 35-C ) :   1.3816
B( 34-C , 68-H ) :   0.9787 B( 35-C , 36-S ) :   1.1214 B( 35-C , 37-C ) :   1.2279
B( 37-C , 38-C ) :   1.4592 B( 37-C , 42-S ) :   1.0359 B( 38-C , 39-C ) :   1.3042
B( 38-C , 69-H ) :   0.9584 B( 39-C , 40-C ) :   1.0438 B( 39-C , 48-C ) :   1.3188
B( 40-C , 41-C ) :   1.6236 B( 40-C , 43-C ) :   1.1749 B( 41-C , 42-S ) :   1.1256
B( 41-C , 70-H ) :   0.9419 B( 43-C , 44-C ) :   1.4332 B( 43-C , 47-S ) :   1.0858
B( 44-C , 45-C ) :   1.2159 B( 44-C , 48-C ) :   1.1063 B( 45-C , 46-C ) :   1.5934
B( 45-C , 71-H ) :   0.9971 B( 46-C , 47-S ) :   1.1488 B( 46-C , 72-H ) :   0.9661
B( 48-C , 49-C ) :   1.2084 B( 49-C , 50-C ) :   1.5695 B( 49-C , 73-H ) :   0.9529
B( 50-C , 51-C ) :   1.1692 B( 50-C , 74-H ) :   0.9733 B( 51-C , 52-C ) :   1.5912
B( 51-C , 55-Si) :   0.9038 B( 52-C , 53-C ) :   1.1594 B( 52-C , 75-H ) :   0.9881
B( 53-C , 54-C ) :   1.5901 B( 53-C , 76-H ) :   0.9979 B( 54-C , 55-Si) :   0.9021
B( 54-C , 56-C ) :   1.2230 B( 55-Si, 77-H ) :   0.9569 B( 55-Si, 78-H ) :   0.9547
B( 56-C , 57-C ) :   1.4354 B( 56-C , 62-S ) :   1.0945 B( 57-C , 58-O ) :   1.0977
B( 57-C , 60-C ) :   1.2279 B( 58-O , 59-C ) :   0.9465 B( 59-C , 79-H ) :   0.9805
B( 59-C , 80-H ) :   0.9720 B( 59-C , 81-H ) :   0.9722 B( 60-C , 61-C ) :   1.5261
B( 60-C , 82-H ) :   1.0025 B( 61-C , 62-S ) :   1.1883 B( 61-C , 83-H ) :   0.9695

-----------------------------------------------------------------------------
         ABSORPTION SPECTRUM VIA TRANSITION ELECTRIC DIPOLE MOMENTS
-----------------------------------------------------------------------------
State   Energy  Wavelength   fosc         T2         TX        TY        TZ
        (cm-1)    (nm)                  (au**2)     (au)      (au)      (au)
-----------------------------------------------------------------------------
   0    5853.0   1708.5   0.246100946  13.84226  -3.60426   0.91822   0.09192
   1   12629.5    791.8   0.093473453   2.43657   1.46383   0.37995  -0.38655
   2   13780.5    725.7   0.283616171   6.77550  -1.50245   2.03792   0.60417
   3   15839.8    631.3   0.606576254  12.60698  -2.09232  -2.84178  -0.39170
   4   18596.9    537.7   0.321723172   5.69531   0.27707  -2.37002  -0.03933
   5   18869.1    530.0   0.158508715   2.76552   0.36369  -1.61742  -0.13110
   6   20038.2    499.0   0.265272534   4.35821   0.02567  -1.76033  -1.12195
   7   21137.5    473.1   0.226863725   3.53335  -0.11384  -1.86483   0.20692
   8   22496.2    444.5   0.127618565   1.86758   0.92227  -0.92934   0.39157
   9   22910.5    436.5   0.003632249   0.05219  -0.05745  -0.17914  -0.12963
  10   24168.7    413.8   0.506689259   6.90183  -1.08565   2.27027  -0.75437
  11   25276.3    395.6   0.045778039   0.59624  -0.14028   0.50837   0.56402
  12   26162.6    382.2   0.008721943   0.10975   0.15057  -0.03710   0.29275
  13   27485.1    363.8   0.059091147   0.70778  -0.23543   0.75227  -0.29401
  14   28460.9    351.4   0.223758848   2.58826   0.84470   1.28770   0.46537
  15   28756.7    347.7   0.173787191   1.98955   0.91520   0.93210   0.53213
  16   29149.2    343.1   0.015500948   0.17507  -0.12175  -0.38389  -0.11347
  17   29788.8    335.7   0.004901239   0.05417   0.05574   0.13743  -0.17937
  18   30384.7    329.1   0.047709077   0.51692   0.51700  -0.11203   0.48690
  19   30606.1    326.7   0.033361164   0.35885   0.15789  -0.57504  -0.05699
  20   30794.0    324.7   0.003723891   0.03981   0.03049   0.14130   0.13753
  21   31006.0    322.5   0.094564893   1.00406  -0.21049  -0.93510  -0.29213
  22   31663.4    315.8   0.404907756   4.20993   1.46708  -1.28130   0.64488
  23   32028.0    312.2   0.261718279   2.69017   0.44997   1.51158   0.45035
  24   32315.4    309.5   0.066627886   0.67877  -0.58619  -0.54954  -0.18209
  25   32561.3    307.1   0.086258809   0.87212   0.82620   0.29247   0.32245
  26   32638.2    306.4   0.204097714   2.05867  -1.41714   0.13690  -0.17789
  27   33664.9    297.0   0.063777832   0.62369   0.76357   0.17557   0.09916
  28   33881.2    295.1   0.134138999   1.30338  -0.29201  -1.03888  -0.37262
  29   34158.1    292.8   0.262209788   2.52715  -0.61174   1.42415  -0.35317
  30   34465.1    290.1   0.038403379   0.36683   0.19725   0.48850   0.29881
  31   34607.7    289.0   0.043247880   0.41140   0.38728   0.47372  -0.19237
  32   35336.8    283.0   0.101164176   0.94249   0.27793   0.92927   0.04130
  33   35398.2    282.5   0.208088616   1.93527  -0.36798   1.21868  -0.56096
  34   35830.9    279.1   0.001576557   0.01449  -0.11793   0.02255   0.00837
  35   35903.9    278.5   0.014897073   0.13659   0.03672   0.31283   0.19335
  36   36101.4    277.0   0.077891674   0.71030   0.51159  -0.59823   0.30117
  37   36365.8    275.0   0.051850007   0.46939   0.38262  -0.36444   0.43609
  38   36703.0    272.5   0.001769147   0.01587  -0.12539   0.01064  -0.00566
  39   37339.8    267.8   0.245978684   2.16871   1.20220  -0.81518   0.24270
  40   37647.6    265.6   0.093746906   0.81978  -0.83033  -0.34150  -0.11710
  41   37780.5    264.7   0.147512894   1.28540   0.83580  -0.53916   0.54418
  42   37917.5    263.7   0.029104210   0.25269   0.18386   0.36334   0.29474
  43   38030.6    262.9   0.004666353   0.04039   0.03036   0.07187  -0.18522
  44   38143.0    262.2   0.032907422   0.28402  -0.20906   0.39724  -0.28726
  45   38233.3    261.6   0.032315728   0.27826  -0.27280   0.42551  -0.15093
  46   38866.1    257.3   0.005347678   0.04530  -0.11605  -0.17761  -0.01689
  47   39217.9    255.0   0.047675316   0.40021  -0.39577  -0.47670  -0.12777
  48   39370.4    254.0   0.023153364   0.19361  -0.29051  -0.33005   0.01666
  49   39532.4    253.0   0.035546601   0.29602  -0.41824  -0.17692  -0.29966
  50   39596.0    252.6   0.006524661   0.05425   0.20630  -0.09483   0.05193
  51   39653.3    252.2   0.036073951   0.29949   0.40842   0.34638   0.11272

FINAL SINGLE POINT ENERGY     -4692.912575589951

DIPOLE MOMENT
-------------
                                X             Y             Z
Electronic contribution:    -44.50623      -9.22359       6.63060
Nuclear contribution   :     48.57693       6.80263      -7.99326
                        -----------------------------------------
Total Dipole Moment    :      4.07069      -2.42096      -1.36266
                        -----------------------------------------
Magnitude (a.u.)       :      4.92833
Magnitude (Debye)      :     12.52682

Rotational constants in cm-1:     0.000983     0.000581     0.000394
Rotational constants in MHz :    29.459943    17.429519    11.825947

                             ****ORCA TERMINATED NORMALLY****
TOTAL RUN TIME: 0 days 0 hours 7 minutes 58 seconds 453 msec
