                         Program Version 4.2.0 -  RELEASE  -
|  1> # ORCA input file
|  2> # SCF done       -202.534560967439          0.000369696013
|  3> ! CAM-B3LYP def2-SVP def2/J RIJCOSX Grid4 TightSCF
|  4> %maxcore 5000
|  5> %tddft
|  6>     Mode sTDDFT
|  7>     Ethresh 5.0
|  8>     maxcore 5000
|  9> end
| 10>
| 11> %pal
| 12>   nprocs 6
| 13>   end
| 14> * xyz 0 1
| 15>    C        4.36618         2.31607         1.11231
| 16>    C        4.01421         2.98832        -0.05653
| 17>    C        3.52104         4.40570        -0.03128
| 18>    O        2.77542         4.83205        -0.86690
| 19>    O        3.95035         5.17619         0.97465
| 20>    C        4.05303         2.32987        -1.29711
| 21>    C        3.73317         2.99322        -2.50900
| 22>    N        3.54219         3.43159        -3.54986
| 23>    C        4.44004         0.98859        -1.37289
| 24>    C        4.78426         0.34283        -0.20629
| 25>    C        4.76766         0.99113         1.03826
| 26>    C        5.18418         0.03739         2.06815
| 27>    C        5.34639         0.35925         3.39372
| 28>    C        5.20045         1.66898         3.89459
| 29>    N        5.11823         2.72577         4.33722
| 30>    C        5.69370        -0.51788         4.44290
| 31>    N        5.94808        -1.14893         5.36857
| 32>    C        5.40280        -1.24220         1.42330
| 33>    C        5.18178        -1.07249        -0.02276
| 34>    O        5.30395        -1.87661        -0.92474
| 35>    C        5.79700        -2.37400         2.10217
| 36>    C        6.03082        -3.68419         1.67414
| 37>    C        5.91974        -4.31676         0.43625
| 38>    C        6.28572        -5.64822         0.49229
| 39>    C        6.68299        -6.06801         1.79339
| 40>    S        6.60345        -4.80821         2.92344
| 41>    C        7.05949        -7.42506         1.73021
| 42>    C        6.90839        -7.86822         0.40127
| 43>    C        6.43175        -6.76700        -0.41901
| 44>    C        6.24481        -6.78782        -1.77199
| 45>    C        6.49322        -7.94939        -2.53168
| 46>    N        6.70482        -8.89985        -3.13882
| 47>    C        5.83787        -5.65673        -2.51001
| 48>    N        5.52259        -4.74726        -3.13280
| 49>    C        7.29850        -9.18499         0.21656
| 50>    C        7.75632        -9.76770         1.39178
| 51>    S        7.67643        -8.65767         2.74719
| 52>    C        8.27112       -11.08962         1.51480
| 53>    C        8.64116       -11.80442         0.39717
| 54>    C        9.13942       -13.09856         0.40081
| 55>    C        9.30533       -13.85331         1.64241
| 56>    C        9.03085       -13.34225         2.86448
| 57>    S        8.42904       -11.75463         3.13176
| 58>    C        9.81047       -15.12044         1.23634
| 59>    C        9.96580       -15.15620        -0.15503
| 60>    C       10.47190       -16.39940        -0.59439
| 61>    C       10.68016       -17.25157         0.44326
| 62>    S       10.27825       -16.58979         1.99072
| 63>    C        9.55806       -13.88880        -0.69725
| 64>    C        9.56147       -13.39314        -2.01372
| 65>    C        9.92119       -13.99043        -3.18401
| 66>    C        9.90393       -13.29004        -4.42424
| 67>    C        9.80276       -11.91591        -4.52809
| 68>    C        9.71266       -11.20053        -5.70983
| 69>    C        9.72703       -11.85966        -7.01420
| 70>    C        9.87790       -13.19591        -7.16859
| 71>    S       10.02483       -14.29556        -5.85878
| 72>    C        9.56791       -10.81052        -7.96184
| 73>    C        9.45292        -9.57949        -7.30605
| 74>    C        9.29105        -8.51219        -8.21704
| 75>    C        9.28566        -8.94910        -9.50361
| 76>    S        9.47736       -10.66117        -9.67012
| 77>    C        9.55624        -9.80074        -5.88620
| 78>    C        9.52336        -8.88139        -4.82881
| 79>    C        9.25614        -7.53878        -4.87977
| 80>    C        9.25778        -6.78405        -3.69864
| 81>    C        8.91290        -5.46110        -3.57785
| 82>    C        8.88414        -4.70658        -2.34575
| 83>    C        9.19569        -5.11859        -1.06606
| 84>    C        9.09790        -4.23763         0.02560
| 85>    N        9.00871        -3.55019         0.94225
| 86>    C        9.56858        -6.41444        -0.68174
| 87>    N        9.83076        -7.46017        -0.27736
| 88>    C        8.41628        -3.39346        -2.68984
| 89>    C        8.14952        -3.29100        -4.04805
| 90>    C        7.64521        -2.03357        -4.40969
| 91>    C        7.54200        -1.21634        -3.32104
| 92>    S        8.05019        -1.94997        -1.84741
| 93>    C        8.46942        -4.57726        -4.69161
| 94>    O        8.39891        -4.85638        -5.86925
| 95>    H        4.28584         2.81174         2.06741
| 96>    H        4.55808         4.73606         1.58513
| 97>    H        4.45708         0.46720        -2.31822
| 98>    H        5.96307        -2.24440         3.16476
| 99>    H        5.59411        -3.79608        -0.44648
|100>    H        7.23486        -9.70073        -0.72230
|101>    H        8.54684       -11.29467        -0.54864
|102>    H        9.17511       -13.90096         3.77570
|103>    H       10.67434       -16.66119        -1.61637
|104>    H       11.05527       -18.25544         0.40152
|105>    H        9.21593       -12.37222        -2.08227
|106>    H       10.19816       -15.03329        -3.21191
|107>    H        9.79758       -11.35098        -3.60900
|108>    H        9.90975       -13.67200        -8.13570
|109>    H        9.18190        -7.47698        -7.95225
|110>    H        9.17847        -8.36176       -10.39452
|111>    H        9.72040        -9.29103        -3.84469
|112>    H        9.00673        -7.04803        -5.80503
|113>    H        9.54673        -7.31001        -2.79521
|114>    H        7.36826        -1.74953        -5.40780
|115>    H        7.19072        -0.20314        -3.29486
|116> *
|117>
|118>                          ****END OF INPUT****

CARTESIAN COORDINATES (ANGSTROEM)
---------------------------------
  C      4.366180    2.316070    1.112310
  C      4.014210    2.988320   -0.056530
  C      3.521040    4.405700   -0.031280
  O      2.775420    4.832050   -0.866900
  O      3.950350    5.176190    0.974650
  C      4.053030    2.329870   -1.297110
  C      3.733170    2.993220   -2.509000
  N      3.542190    3.431590   -3.549860
  C      4.440040    0.988590   -1.372890
  C      4.784260    0.342830   -0.206290
  C      4.767660    0.991130    1.038260
  C      5.184180    0.037390    2.068150
  C      5.346390    0.359250    3.393720
  C      5.200450    1.668980    3.894590
  N      5.118230    2.725770    4.337220
  C      5.693700   -0.517880    4.442900
  N      5.948080   -1.148930    5.368570
  C      5.402800   -1.242200    1.423300
  C      5.181780   -1.072490   -0.022760
  O      5.303950   -1.876610   -0.924740
  C      5.797000   -2.374000    2.102170
  C      6.030820   -3.684190    1.674140
  C      5.919740   -4.316760    0.436250
  C      6.285720   -5.648220    0.492290
  C      6.682990   -6.068010    1.793390
  S      6.603450   -4.808210    2.923440
  C      7.059490   -7.425060    1.730210
  C      6.908390   -7.868220    0.401270
  C      6.431750   -6.767000   -0.419010
  C      6.244810   -6.787820   -1.771990
  C      6.493220   -7.949390   -2.531680
  N      6.704820   -8.899850   -3.138820
  C      5.837870   -5.656730   -2.510010
  N      5.522590   -4.747260   -3.132800
  C      7.298500   -9.184990    0.216560
  C      7.756320   -9.767700    1.391780
  S      7.676430   -8.657670    2.747190
  C      8.271120  -11.089620    1.514800
  C      8.641160  -11.804420    0.397170
  C      9.139420  -13.098560    0.400810
  C      9.305330  -13.853310    1.642410
  C      9.030850  -13.342250    2.864480
  S      8.429040  -11.754630    3.131760
  C      9.810470  -15.120440    1.236340
  C      9.965800  -15.156200   -0.155030
  C     10.471900  -16.399400   -0.594390
  C     10.680160  -17.251570    0.443260
  S     10.278250  -16.589790    1.990720
  C      9.558060  -13.888800   -0.697250
  C      9.561470  -13.393140   -2.013720
  C      9.921190  -13.990430   -3.184010
  C      9.903930  -13.290040   -4.424240
  C      9.802760  -11.915910   -4.528090
  C      9.712660  -11.200530   -5.709830
  C      9.727030  -11.859660   -7.014200
  C      9.877900  -13.195910   -7.168590
  S     10.024830  -14.295560   -5.858780
  C      9.567910  -10.810520   -7.961840
  C      9.452920   -9.579490   -7.306050
  C      9.291050   -8.512190   -8.217040
  C      9.285660   -8.949100   -9.503610
  S      9.477360  -10.661170   -9.670120
  C      9.556240   -9.800740   -5.886200
  C      9.523360   -8.881390   -4.828810
  C      9.256140   -7.538780   -4.879770
  C      9.257780   -6.784050   -3.698640
  C      8.912900   -5.461100   -3.577850
  C      8.884140   -4.706580   -2.345750
  C      9.195690   -5.118590   -1.066060
  C      9.097900   -4.237630    0.025600
  N      9.008710   -3.550190    0.942250
  C      9.568580   -6.414440   -0.681740
  N      9.830760   -7.460170   -0.277360
  C      8.416280   -3.393460   -2.689840
  C      8.149520   -3.291000   -4.048050
  C      7.645210   -2.033570   -4.409690
  C      7.542000   -1.216340   -3.321040
  S      8.050190   -1.949970   -1.847410
  C      8.469420   -4.577260   -4.691610
  O      8.398910   -4.856380   -5.869250
  H      4.285840    2.811740    2.067410
  H      4.558080    4.736060    1.585130
  H      4.457080    0.467200   -2.318220
  H      5.963070   -2.244400    3.164760
  H      5.594110   -3.796080   -0.446480
  H      7.234860   -9.700730   -0.722300
  H      8.546840  -11.294670   -0.548640
  H      9.175110  -13.900960    3.775700
  H     10.674340  -16.661190   -1.616370
  H     11.055270  -18.255440    0.401520
  H      9.215930  -12.372220   -2.082270
  H     10.198160  -15.033290   -3.211910
  H      9.797580  -11.350980   -3.609000
  H      9.909750  -13.672000   -8.135700
  H      9.181900   -7.476980   -7.952250
  H      9.178470   -8.361760  -10.394520
  H      9.720400   -9.291030   -3.844690
  H      9.006730   -7.048030   -5.805030
  H      9.546730   -7.310010   -2.795210
  H      7.368260   -1.749530   -5.407800
  H      7.190720   -0.203140   -3.294860

 Total Charge           Charge          ....    0
 Multiplicity           Mult            ....    1
 Number of Electrons    NEL             ....  586
 Basis Dimension        Dim             .... 1253

ORBITAL ENERGIES
----------------

  NO   OCC          E(Eh)            E(eV)
   0   2.0000     -89.001862     -2421.8638
   1   2.0000     -88.998721     -2421.7783
   2   2.0000     -88.995665     -2421.6952
   3   2.0000     -88.987204     -2421.4649
   4   2.0000     -88.975209     -2421.1385
   5   2.0000     -88.971006     -2421.0241
   6   2.0000     -88.957907     -2420.6677
   7   2.0000     -19.271782      -524.4118
   8   2.0000     -19.233225      -523.3626
   9   2.0000     -19.210868      -522.7543
  10   2.0000     -19.205278      -522.6022
  11   2.0000     -14.438406      -392.8890
  12   2.0000     -14.434098      -392.7718
  13   2.0000     -14.427799      -392.6004
  14   2.0000     -14.427528      -392.5930
  15   2.0000     -14.416954      -392.3053
  16   2.0000     -14.411790      -392.1647
  17   2.0000     -14.408049      -392.0629
  18   2.0000     -10.416897      -283.4582
  19   2.0000     -10.382465      -282.5212
  20   2.0000     -10.371816      -282.2315
  21   2.0000     -10.358502      -281.8692
  22   2.0000     -10.358113      -281.8586
  23   2.0000     -10.355043      -281.7750
  24   2.0000     -10.354365      -281.7566
  25   2.0000     -10.354048      -281.7480
  26   2.0000     -10.346298      -281.5371
  27   2.0000     -10.346180      -281.5339
  28   2.0000     -10.346162      -281.5334
  29   2.0000     -10.344254      -281.4815
  30   2.0000     -10.339339      -281.3477
  31   2.0000     -10.339031      -281.3393
  32   2.0000     -10.338117      -281.3145
  33   2.0000     -10.336199      -281.2623
  34   2.0000     -10.335475      -281.2426
  35   2.0000     -10.335053      -281.2311
  36   2.0000     -10.333367      -281.1852
  37   2.0000     -10.332416      -281.1593
  38   2.0000     -10.331444      -281.1329
  39   2.0000     -10.331000      -281.1208
  40   2.0000     -10.330629      -281.1107
  41   2.0000     -10.330193      -281.0988
  42   2.0000     -10.329889      -281.0906
  43   2.0000     -10.326233      -280.9911
  44   2.0000     -10.323758      -280.9237
  45   2.0000     -10.322205      -280.8815
  46   2.0000     -10.317186      -280.7449
  47   2.0000     -10.316075      -280.7147
  48   2.0000     -10.315806      -280.7074
  49   2.0000     -10.315356      -280.6951
  50   2.0000     -10.314109      -280.6612
  51   2.0000     -10.312632      -280.6210
  52   2.0000     -10.311304      -280.5848
  53   2.0000     -10.310335      -280.5585
  54   2.0000     -10.310316      -280.5580
  55   2.0000     -10.310026      -280.5501
  56   2.0000     -10.308252      -280.5018
  57   2.0000     -10.307769      -280.4886
  58   2.0000     -10.307122      -280.4710
  59   2.0000     -10.307003      -280.4678
  60   2.0000     -10.304488      -280.3994
  61   2.0000     -10.303576      -280.3746
  62   2.0000     -10.301285      -280.3122
  63   2.0000     -10.299138      -280.2538
  64   2.0000     -10.298905      -280.2475
  65   2.0000     -10.298757      -280.2434
  66   2.0000     -10.296717      -280.1879
  67   2.0000     -10.295299      -280.1493
  68   2.0000     -10.293417      -280.0981
  69   2.0000     -10.292783      -280.0809
  70   2.0000     -10.290925      -280.0303
  71   2.0000     -10.289915      -280.0028
  72   2.0000     -10.289034      -279.9789
  73   2.0000     -10.284723      -279.8615
  74   2.0000     -10.281931      -279.7856
  75   2.0000     -10.278733      -279.6985
  76   2.0000     -10.278345      -279.6880
  77   2.0000     -10.276609      -279.6408
  78   2.0000     -10.273075      -279.5446
  79   2.0000     -10.262950      -279.2691
  80   2.0000      -8.096287      -220.3112
  81   2.0000      -8.093218      -220.2277
  82   2.0000      -8.091037      -220.1683
  83   2.0000      -8.082468      -219.9351
  84   2.0000      -8.069128      -219.5721
  85   2.0000      -8.066376      -219.4972
  86   2.0000      -8.053347      -219.1427
  87   2.0000      -6.065635      -165.0543
  88   2.0000      -6.062266      -164.9626
  89   2.0000      -6.061355      -164.9379
  90   2.0000      -6.060603      -164.9174
  91   2.0000      -6.058560      -164.8618
  92   2.0000      -6.058184      -164.8516
  93   2.0000      -6.056053      -164.7936
  94   2.0000      -6.055835      -164.7877
  95   2.0000      -6.052919      -164.7083
  96   2.0000      -6.051801      -164.6779
  97   2.0000      -6.047396      -164.5580
  98   2.0000      -6.044735      -164.4856
  99   2.0000      -6.038438      -164.3142
 100   2.0000      -6.035819      -164.2430
 101   2.0000      -6.033878      -164.1902
 102   2.0000      -6.031826      -164.1343
 103   2.0000      -6.031512      -164.1258
 104   2.0000      -6.028472      -164.0431
 105   2.0000      -6.022774      -163.8880
 106   2.0000      -6.018530      -163.7725
 107   2.0000      -6.015406      -163.6875
 108   2.0000      -1.195738       -32.5377
 109   2.0000      -1.148141       -31.2425
 110   2.0000      -1.118794       -30.4439
 111   2.0000      -1.110767       -30.2255
 112   2.0000      -1.055531       -28.7224
 113   2.0000      -1.034336       -28.1457
 114   2.0000      -1.029478       -28.0135
 115   2.0000      -1.023999       -27.8644
 116   2.0000      -1.019208       -27.7341
 117   2.0000      -1.017537       -27.6886
 118   2.0000      -1.013544       -27.5799
 119   2.0000      -1.011811       -27.5328
 120   2.0000      -1.010665       -27.5016
 121   2.0000      -1.006373       -27.3848
 122   2.0000      -1.003007       -27.2932
 123   2.0000      -0.994939       -27.0737
 124   2.0000      -0.993495       -27.0344
 125   2.0000      -0.987014       -26.8580
 126   2.0000      -0.979536       -26.6545
 127   2.0000      -0.970739       -26.4151
 128   2.0000      -0.965020       -26.2595
 129   2.0000      -0.951301       -25.8862
 130   2.0000      -0.945194       -25.7200
 131   2.0000      -0.935265       -25.4498
 132   2.0000      -0.929349       -25.2889
 133   2.0000      -0.918602       -24.9964
 134   2.0000      -0.916925       -24.9508
 135   2.0000      -0.908831       -24.7306
 136   2.0000      -0.902430       -24.5564
 137   2.0000      -0.895600       -24.3705
 138   2.0000      -0.891834       -24.2680
 139   2.0000      -0.889534       -24.2055
 140   2.0000      -0.877359       -23.8742
 141   2.0000      -0.871683       -23.7197
 142   2.0000      -0.865560       -23.5531
 143   2.0000      -0.854127       -23.2420
 144   2.0000      -0.850035       -23.1306
 145   2.0000      -0.842973       -22.9384
 146   2.0000      -0.841234       -22.8912
 147   2.0000      -0.828688       -22.5497
 148   2.0000      -0.827394       -22.5145
 149   2.0000      -0.818272       -22.2663
 150   2.0000      -0.801940       -21.8219
 151   2.0000      -0.798879       -21.7386
 152   2.0000      -0.788325       -21.4514
 153   2.0000      -0.787520       -21.4295
 154   2.0000      -0.776006       -21.1162
 155   2.0000      -0.759165       -20.6579
 156   2.0000      -0.752990       -20.4899
 157   2.0000      -0.746143       -20.3036
 158   2.0000      -0.743346       -20.2275
 159   2.0000      -0.741177       -20.1685
 160   2.0000      -0.729757       -19.8577
 161   2.0000      -0.718825       -19.5602
 162   2.0000      -0.714484       -19.4421
 163   2.0000      -0.708797       -19.2873
 164   2.0000      -0.704680       -19.1753
 165   2.0000      -0.698188       -18.9987
 166   2.0000      -0.691402       -18.8140
 167   2.0000      -0.682917       -18.5831
 168   2.0000      -0.680025       -18.5044
 169   2.0000      -0.675999       -18.3949
 170   2.0000      -0.669676       -18.2228
 171   2.0000      -0.667372       -18.1601
 172   2.0000      -0.662915       -18.0388
 173   2.0000      -0.657769       -17.8988
 174   2.0000      -0.655353       -17.8331
 175   2.0000      -0.653825       -17.7915
 176   2.0000      -0.645671       -17.5696
 177   2.0000      -0.641144       -17.4464
 178   2.0000      -0.639381       -17.3984
 179   2.0000      -0.634197       -17.2574
 180   2.0000      -0.624674       -16.9982
 181   2.0000      -0.621686       -16.9169
 182   2.0000      -0.616190       -16.7674
 183   2.0000      -0.609320       -16.5805
 184   2.0000      -0.603991       -16.4354
 185   2.0000      -0.600974       -16.3533
 186   2.0000      -0.595400       -16.2017
 187   2.0000      -0.588826       -16.0228
 188   2.0000      -0.586866       -15.9694
 189   2.0000      -0.582427       -15.8487
 190   2.0000      -0.580072       -15.7846
 191   2.0000      -0.575516       -15.6606
 192   2.0000      -0.570635       -15.5278
 193   2.0000      -0.569626       -15.5003
 194   2.0000      -0.566650       -15.4193
 195   2.0000      -0.565226       -15.3806
 196   2.0000      -0.559397       -15.2220
 197   2.0000      -0.555680       -15.1208
 198   2.0000      -0.552760       -15.0414
 199   2.0000      -0.547666       -14.9028
 200   2.0000      -0.544648       -14.8206
 201   2.0000      -0.543042       -14.7769
 202   2.0000      -0.538359       -14.6495
 203   2.0000      -0.534433       -14.5427
 204   2.0000      -0.533241       -14.5102
 205   2.0000      -0.530302       -14.4303
 206   2.0000      -0.528121       -14.3709
 207   2.0000      -0.527372       -14.3505
 208   2.0000      -0.525510       -14.2999
 209   2.0000      -0.520745       -14.1702
 210   2.0000      -0.517371       -14.0784
 211   2.0000      -0.516178       -14.0459
 212   2.0000      -0.514780       -14.0079
 213   2.0000      -0.513022       -13.9600
 214   2.0000      -0.511032       -13.9059
 215   2.0000      -0.509046       -13.8518
 216   2.0000      -0.506492       -13.7824
 217   2.0000      -0.505375       -13.7519
 218   2.0000      -0.504360       -13.7243
 219   2.0000      -0.502414       -13.6714
 220   2.0000      -0.499494       -13.5919
 221   2.0000      -0.495311       -13.4781
 222   2.0000      -0.493151       -13.4193
 223   2.0000      -0.488242       -13.2857
 224   2.0000      -0.482841       -13.1388
 225   2.0000      -0.480193       -13.0667
 226   2.0000      -0.479731       -13.0541
 227   2.0000      -0.476521       -12.9668
 228   2.0000      -0.473792       -12.8925
 229   2.0000      -0.472740       -12.8639
 230   2.0000      -0.470110       -12.7923
 231   2.0000      -0.468249       -12.7417
 232   2.0000      -0.466154       -12.6847
 233   2.0000      -0.465605       -12.6698
 234   2.0000      -0.463989       -12.6258
 235   2.0000      -0.461951       -12.5703
 236   2.0000      -0.460654       -12.5350
 237   2.0000      -0.459115       -12.4931
 238   2.0000      -0.457980       -12.4623
 239   2.0000      -0.455980       -12.4079
 240   2.0000      -0.454021       -12.3545
 241   2.0000      -0.452004       -12.2997
 242   2.0000      -0.450970       -12.2715
 243   2.0000      -0.450163       -12.2496
 244   2.0000      -0.447460       -12.1760
 245   2.0000      -0.446787       -12.1577
 246   2.0000      -0.445720       -12.1287
 247   2.0000      -0.444726       -12.1016
 248   2.0000      -0.443001       -12.0547
 249   2.0000      -0.441194       -12.0055
 250   2.0000      -0.440377       -11.9833
 251   2.0000      -0.438457       -11.9310
 252   2.0000      -0.437983       -11.9181
 253   2.0000      -0.436264       -11.8713
 254   2.0000      -0.435452       -11.8492
 255   2.0000      -0.434960       -11.8359
 256   2.0000      -0.434743       -11.8300
 257   2.0000      -0.432421       -11.7668
 258   2.0000      -0.429489       -11.6870
 259   2.0000      -0.428353       -11.6561
 260   2.0000      -0.425357       -11.5746
 261   2.0000      -0.424614       -11.5543
 262   2.0000      -0.421492       -11.4694
 263   2.0000      -0.420345       -11.4382
 264   2.0000      -0.417957       -11.3732
 265   2.0000      -0.416766       -11.3408
 266   2.0000      -0.412503       -11.2248
 267   2.0000      -0.411016       -11.1843
 268   2.0000      -0.407197       -11.0804
 269   2.0000      -0.406991       -11.0748
 270   2.0000      -0.403998       -10.9933
 271   2.0000      -0.400693       -10.9034
 272   2.0000      -0.384793       -10.4708
 273   2.0000      -0.379407       -10.3242
 274   2.0000      -0.370408       -10.0793
 275   2.0000      -0.366500        -9.9730
 276   2.0000      -0.358994        -9.7687
 277   2.0000      -0.355470        -9.6728
 278   2.0000      -0.354029        -9.6336
 279   2.0000      -0.345991        -9.4149
 280   2.0000      -0.343210        -9.3392
 281   2.0000      -0.335504        -9.1295
 282   2.0000      -0.331540        -9.0217
 283   2.0000      -0.330542        -8.9945
 284   2.0000      -0.324883        -8.8405
 285   2.0000      -0.324227        -8.8227
 286   2.0000      -0.308032        -8.3820
 287   2.0000      -0.299883        -8.1602
 288   2.0000      -0.295009        -8.0276
 289   2.0000      -0.289755        -7.8846
 290   2.0000      -0.274347        -7.4654
 291   2.0000      -0.253229        -6.8907
 292   2.0000      -0.224528        -6.1097
 293   0.0000      -0.122722        -3.3394
 294   0.0000      -0.101525        -2.7626
 295   0.0000      -0.090167        -2.4536
 296   0.0000      -0.087288        -2.3752
 297   0.0000      -0.070410        -1.9159

MULLIKEN ATOMIC CHARGES
-----------------------
   0 C :   -0.090738
   1 C :    0.017873
   2 C :    0.181136
   3 O :   -0.149426
   4 O :   -0.140960
   5 C :   -0.076788
   6 C :   -0.152435
   7 N :    0.141046
   8 C :   -0.054462
   9 C :    0.004347
  10 C :    0.044218
  11 C :    0.319828
  12 C :   -0.356835
  13 C :   -0.181452
  14 N :    0.136636
  15 C :   -0.169779
  16 N :    0.152223
  17 C :   -0.094926
  18 C :    0.155166
  19 O :   -0.145131
  20 C :    0.070976
  21 C :   -0.096813
  22 C :   -0.021782
  23 C :   -0.015715
  24 C :   -0.068865
  25 S :    0.227562
  26 C :   -0.092669
  27 C :    0.017118
  28 C :    0.328452
  29 C :   -0.328614
  30 C :   -0.184063
  31 N :    0.171779
  32 C :   -0.177098
  33 N :    0.203986
  34 C :   -0.035501
  35 C :   -0.039685
  36 S :    0.211966
  37 C :   -0.049535
  38 C :   -0.060267
  39 C :    0.061083
  40 C :    0.069717
  41 C :   -0.127754
  42 S :    0.151549
  43 C :   -0.112347
  44 C :    0.051716
  45 C :   -0.005342
  46 C :   -0.061541
  47 S :    0.137733
  48 C :    0.107674
  49 C :    0.004067
  50 C :    0.018905
  51 C :   -0.073505
  52 C :   -0.039571
  53 C :    0.078909
  54 C :    0.064679
  55 C :   -0.133589
  56 S :    0.154880
  57 C :   -0.120693
  58 C :    0.063331
  59 C :   -0.007254
  60 C :   -0.065422
  61 S :    0.127626
  62 C :    0.096734
  63 C :    0.023631
  64 C :   -0.025132
  65 C :   -0.055616
  66 C :   -0.113552
  67 C :    0.291841
  68 C :   -0.400526
  69 C :   -0.206034
  70 N :    0.149895
  71 C :   -0.180937
  72 N :    0.124232
  73 C :   -0.177533
  74 C :    0.048234
  75 C :    0.010732
  76 C :   -0.034988
  77 S :    0.202940
  78 C :    0.165264
  79 O :   -0.146322
  80 H :   -0.006130
  81 H :    0.191078
  82 H :    0.015988
  83 H :   -0.003512
  84 H :    0.037450
  85 H :    0.007169
  86 H :   -0.011202
  87 H :    0.042710
  88 H :   -0.014871
  89 H :    0.029763
  90 H :   -0.035543
  91 H :   -0.031651
  92 H :   -0.021723
  93 H :    0.039388
  94 H :    0.008819
  95 H :    0.029219
  96 H :   -0.026737
  97 H :    0.004439
  98 H :   -0.003104
  99 H :    0.000705
 100 H :    0.029261
Sum of atomic charges:   -0.0000000

LOEWDIN ATOMIC CHARGES
----------------------
   0 C :   -0.001334
   1 C :   -0.039477
   2 C :    0.081211
   3 O :   -0.120587
   4 O :   -0.014474
   5 C :   -0.023846
   6 C :   -0.034281
   7 N :   -0.027373
   8 C :    0.041926
   9 C :   -0.029993
  10 C :    0.000846
  11 C :    0.075261
  12 C :   -0.140389
  13 C :   -0.014756
  14 N :   -0.060054
  15 C :   -0.024161
  16 N :   -0.043464
  17 C :   -0.113574
  18 C :    0.081700
  19 O :   -0.134890
  20 C :    0.060180
  21 C :   -0.169966
  22 C :    0.025070
  23 C :   -0.077725
  24 C :   -0.143386
  25 S :    0.519931
  26 C :   -0.192413
  27 C :   -0.039263
  28 C :    0.074498
  29 C :   -0.096781
  30 C :   -0.008110
  31 N :   -0.036941
  32 C :   -0.019773
  33 N :   -0.015331
  34 C :   -0.021198
  35 C :   -0.161919
  36 S :    0.484033
  37 C :   -0.182901
  38 C :   -0.008353
  39 C :   -0.008108
  40 C :   -0.047717
  41 C :   -0.134659
  42 S :    0.454625
  43 C :   -0.200085
  44 C :   -0.035585
  45 C :   -0.063880
  46 C :   -0.160030
  47 S :    0.431719
  48 C :   -0.050463
  49 C :    0.007139
  50 C :   -0.069312
  51 C :   -0.145412
  52 C :   -0.029511
  53 C :    0.020345
  54 C :   -0.046414
  55 C :   -0.144606
  56 S :    0.470875
  57 C :   -0.207919
  58 C :   -0.028044
  59 C :   -0.058783
  60 C :   -0.159573
  61 S :    0.422555
  62 C :   -0.069934
  63 C :    0.049978
  64 C :   -0.060128
  65 C :    0.056711
  66 C :   -0.125267
  67 C :    0.065934
  68 C :   -0.183931
  69 C :   -0.031211
  70 N :   -0.080020
  71 C :   -0.018762
  72 N :   -0.082738
  73 C :   -0.185125
  74 C :   -0.059983
  75 C :   -0.029868
  76 C :   -0.153957
  77 S :    0.514569
  78 C :    0.087227
  79 O :   -0.143489
  80 H :    0.034259
  81 H :    0.098676
  82 H :    0.051114
  83 H :    0.043809
  84 H :    0.039869
  85 H :    0.037260
  86 H :    0.039244
  87 H :    0.039418
  88 H :    0.029955
  89 H :    0.025655
  90 H :    0.028430
  91 H :    0.023527
  92 H :    0.034676
  93 H :    0.037654
  94 H :    0.038400
  95 H :    0.025273
  96 H :    0.027938
  97 H :    0.029252
  98 H :    0.034946
  99 H :    0.041329
 100 H :    0.024206

  Mayer bond orders larger than 0.100000
B(  0-C ,  1-C ) :   1.3146 B(  0-C , 10-C ) :   1.3880 B(  0-C , 80-H ) :   0.9592
B(  1-C ,  2-C ) :   0.8690 B(  1-C ,  5-C ) :   1.3982 B(  2-C ,  3-O ) :   2.1638
B(  2-C ,  4-O ) :   1.2583 B(  4-O , 81-H ) :   0.9471 B(  5-C ,  6-C ) :   1.0652
B(  5-C ,  8-C ) :   1.3534 B(  6-C ,  7-N ) :   3.0366 B(  8-C ,  9-C ) :   1.3512
B(  8-C , 82-H ) :   1.0174 B(  9-C , 10-C ) :   1.3494 B(  9-C , 18-C ) :   0.9324
B( 10-C , 11-C ) :   0.9656 B( 11-C , 12-C ) :   1.6049 B( 11-C , 17-C ) :   1.1188
B( 12-C , 13-C ) :   1.1532 B( 12-C , 15-C ) :   1.1375 B( 13-C , 14-N ) :   2.9593
B( 15-C , 16-N ) :   2.9525 B( 17-C , 18-C ) :   0.9586 B( 17-C , 20-C ) :   1.5161
B( 18-C , 19-O ) :   2.1355 B( 20-C , 21-C ) :   1.2928 B( 20-C , 83-H ) :   0.9004
B( 21-C , 22-C ) :   1.3439 B( 21-C , 25-S ) :   1.0644 B( 22-C , 23-C ) :   1.3390
B( 22-C , 84-H ) :   0.9795 B( 23-C , 24-C ) :   1.3387 B( 23-C , 28-C ) :   0.9947
B( 24-C , 25-S ) :   1.1964 B( 24-C , 26-C ) :   1.2278 B( 26-C , 27-C ) :   1.4147
B( 26-C , 36-S ) :   1.1011 B( 27-C , 28-C ) :   1.0042 B( 27-C , 34-C ) :   1.3254
B( 28-C , 29-C ) :   1.7118 B( 29-C , 30-C ) :   1.1518 B( 29-C , 32-C ) :   1.1466
B( 30-C , 31-N ) :   2.9409 B( 32-C , 33-N ) :   2.9546 B( 34-C , 35-C ) :   1.4499
B( 34-C , 85-H ) :   0.9797 B( 35-C , 36-S ) :   1.1233 B( 35-C , 37-C ) :   1.1141
B( 37-C , 38-C ) :   1.5413 B( 37-C , 42-S ) :   1.0522 B( 38-C , 39-C ) :   1.2474
B( 38-C , 86-H ) :   0.9648 B( 39-C , 40-C ) :   1.0576 B( 39-C , 48-C ) :   1.3457
B( 40-C , 41-C ) :   1.6012 B( 40-C , 43-C ) :   1.1763 B( 41-C , 42-S ) :   1.1449
B( 41-C , 87-H ) :   0.9396 B( 43-C , 44-C ) :   1.4417 B( 43-C , 47-S ) :   1.0820
B( 44-C , 45-C ) :   1.2230 B( 44-C , 48-C ) :   1.0697 B( 45-C , 46-C ) :   1.5817
B( 45-C , 88-H ) :   1.0032 B( 46-C , 47-S ) :   1.1595 B( 46-C , 89-H ) :   0.9648
B( 48-C , 49-C ) :   1.2159 B( 49-C , 50-C ) :   1.6139 B( 49-C , 90-H ) :   0.9394
B( 50-C , 51-C ) :   1.1110 B( 50-C , 91-H ) :   0.9733 B( 51-C , 52-C ) :   1.4801
B( 51-C , 56-S ) :   1.0832 B( 52-C , 53-C ) :   1.3028 B( 52-C , 92-H ) :   0.9588
B( 53-C , 54-C ) :   1.0694 B( 53-C , 62-C ) :   1.2952 B( 54-C , 55-C ) :   1.5850
B( 54-C , 57-C ) :   1.1770 B( 55-C , 56-S ) :   1.1492 B( 55-C , 93-H ) :   0.9402
B( 57-C , 58-C ) :   1.4467 B( 57-C , 61-S ) :   1.0760 B( 58-C , 59-C ) :   1.2248
B( 58-C , 62-C ) :   1.0754 B( 59-C , 60-C ) :   1.5812 B( 59-C , 94-H ) :   1.0026
B( 60-C , 61-S ) :   1.1564 B( 60-C , 95-H ) :   0.9639 B( 62-C , 63-C ) :   1.2135
B( 63-C , 64-C ) :   1.4339 B( 63-C , 96-H ) :   0.9652 B( 64-C , 65-C ) :   1.2496
B( 64-C , 97-H ) :   0.9949 B( 65-C , 66-C ) :   1.4530 B( 65-C , 98-H ) :   0.9617
B( 66-C , 67-C ) :   1.1222 B( 66-C , 78-C ) :   0.9385 B( 67-C , 68-C ) :   1.5537
B( 67-C , 73-C ) :   1.0841 B( 68-C , 69-C ) :   1.1680 B( 68-C , 71-C ) :   1.1706
B( 69-C , 70-N ) :   2.9609 B( 71-C , 72-N ) :   2.9079 B( 73-C , 74-C ) :   1.4369
B( 73-C , 77-S ) :   1.1581 B( 74-C , 75-C ) :   1.2823 B( 74-C , 78-C ) :   0.9538
B( 75-C , 76-C ) :   1.5383 B( 75-C , 99-H ) :   1.0065 B( 76-C , 77-S ) :   1.1745
B( 76-C ,100-H ) :   0.9646 B( 78-C , 79-O ) :   2.2077

-----------------------------------------------------------------------------
         ABSORPTION SPECTRUM VIA TRANSITION ELECTRIC DIPOLE MOMENTS
-----------------------------------------------------------------------------
State   Energy  Wavelength   fosc         T2         TX        TY        TZ
        (cm-1)    (nm)                  (au**2)     (au)      (au)      (au)
-----------------------------------------------------------------------------
   0    7206.0   1387.7   0.030179965   1.37879  -0.51120   0.81170   0.67721
   1   13092.5    763.8   0.134022847   3.37000  -1.04988   0.58503   1.38762
   2   13855.0    721.8   0.325848413   7.74254  -0.25681   2.72791  -0.48485
   3   14781.4    676.5   0.798752938  17.78984   1.02124  -3.91778  -1.18235
   4   17259.1    579.4   0.012577008   0.23990  -0.15335   0.20208   0.41899
   5   18370.0    544.4   0.066548842   1.19263  -0.19848  -0.06411   1.07197
   6   19525.2    512.2   0.962061519  16.22123   0.77338  -3.74742  -1.25695
   7   20075.4    498.1   0.034115611   0.55946  -0.06164   0.12081   0.73557
   8   20436.8    489.3   0.245778091   3.95919   0.43893  -1.68991   0.95433
   9   20786.5    481.1   0.106686999   1.68968  -0.02567   1.14414  -0.61642
  10   21126.4    473.3   0.113259033   1.76491   0.25530  -1.24134  -0.39851
  11   22235.5    449.7   0.059754562   0.88471   0.01373   0.37834  -0.86103
  12   23077.8    433.3   0.042464824   0.60577  -0.04621  -0.28797  -0.72160
  13   23673.3    422.4   0.082664313   1.14957  -0.23944   0.34533  -0.98640
  14   23938.6    417.7   0.051400029   0.70687  -0.29657   0.64289   0.45345
  15   24317.1    411.2   0.511676114   6.92722  -0.55044   2.25275   1.24473
  16   25156.8    397.5   0.097137053   1.27118  -0.02671  -0.13672   1.11882
  17   25373.8    394.1   0.069795027   0.90555   0.10571  -0.03835  -0.94494
  18   25718.7    388.8   0.201809737   2.58326  -0.03394   0.98382   1.27051
  19   25927.2    385.7   0.038468982   0.48846  -0.22907   0.65904  -0.04063
  20   26737.7    374.0   0.067513161   0.83127   0.23006   0.01774  -0.88206
  21   27657.9    361.6   0.000617924   0.00736  -0.01885   0.02215   0.08068
  22   27822.5    359.4   0.031817300   0.37648   0.13060  -0.51244   0.31117
  23   28184.5    354.8   0.096134225   1.12291  -0.05281   0.27521  -1.02195
  24   28476.6    351.2   0.083847272   0.96934  -0.14471  -0.59204  -0.77323
  25   28631.7    349.3   0.068065072   0.78262   0.20484  -0.86023  -0.02601
  26   28966.1    345.2   0.001354843   0.01540  -0.03218  -0.06439  -0.10108
  27   29239.3    342.0   0.036325988   0.40900  -0.13189  -0.12369  -0.61344
  28   29541.6    338.5   0.348626788   3.88510   0.26015  -0.22427   1.94091
  29   29677.4    337.0   0.164955578   1.82986   0.16764  -0.04578  -1.34151
  30   29738.0    336.3   0.017293185   0.19144   0.14105  -0.31915   0.26398
  31   29790.5    335.7   0.050354942   0.55647  -0.27746   0.49737  -0.48178
  32   30035.2    332.9   0.007283886   0.07984  -0.15088  -0.11867  -0.20734
  33   30280.4    330.2   0.024667692   0.26819  -0.20227   0.07127   0.47138
  34   30702.8    325.7   0.071824483   0.77014  -0.26996   0.52151   0.65214
  35   30836.3    324.3   0.053859155   0.57501   0.08829   0.09084   0.74764
  36   31342.4    319.1   0.010378751   0.10902  -0.08927  -0.03157  -0.31631
  37   31557.0    316.9   0.016628010   0.17347  -0.17972   0.28816   0.24111
  38   31730.3    315.2   0.022695253   0.23547   0.14194  -0.25481   0.38781
  39   31771.3    314.7   0.114451240   1.18593  -0.26956   0.55298  -0.89860
  40   31888.7    313.6   0.599850104   6.19273  -0.65345   2.11453  -1.13775
  41   32084.6    311.7   0.156032162   1.60101   0.18584  -1.24942  -0.07365
  42   32499.5    307.7   0.045204848   0.45791   0.03948  -0.07048  -0.67185
  43   32736.1    305.5   0.015196960   0.15283   0.08895   0.34263   0.16590
  44   32764.2    305.2   0.209354421   2.10358  -0.56606   1.08595  -0.77709
  45   32833.4    304.6   0.058238760   0.58394   0.11720   0.00425  -0.75511
  46   33194.2    301.3   0.120805950   1.19812   0.13871  -0.93946   0.54433
  47   33257.3    300.7   0.014204808   0.14061  -0.10842   0.35737  -0.03381
  48   33653.8    297.1   0.004481016   0.04383  -0.15656  -0.10789  -0.08766
  49   33929.6    294.7   0.143002012   1.38752  -0.23592   0.88516  -0.74051
  50   34153.4    292.8   0.408242166   3.93514   0.18102  -0.31615   1.94998
  51   34369.9    291.0   0.084776596   0.81203   0.31189  -0.84060   0.09025
  52   34680.4    288.3   0.349968224   3.32215  -0.14030   0.05915  -1.81631
  53   34773.7    287.6   0.334087460   3.16290  -0.72129   1.12862  -1.16999
  54   35121.6    284.7   0.103102422   0.96643  -0.20761   0.80601  -0.52314
  55   35167.9    284.4   0.013501247   0.12639  -0.02761  -0.16128   0.31562
  56   35238.4    283.8   0.061107044   0.57089   0.35212  -0.66671  -0.04892
  57   35251.0    283.7   0.012949242   0.12093  -0.17774   0.29072   0.06947
  58   35415.4    282.4   0.090038726   0.83698  -0.14313   0.43986  -0.78931
  59   35518.2    281.5   0.017393604   0.16122  -0.03796   0.35432   0.18502
  60   35585.6    281.0   0.073121035   0.67646   0.16950  -0.73110  -0.33649
  61   35827.5    279.1   0.015012123   0.13794   0.06209   0.09690   0.35313
  62   35880.4    278.7   0.066191709   0.60733   0.13568  -0.76623  -0.04259
  63   36119.3    276.9   0.165868317   1.51182  -0.28222   0.95399   0.72255
  64   36381.1    274.9   0.116048518   1.05012  -0.16044   0.78378   0.64037
  65   36467.6    274.2   0.028394225   0.25633   0.10117  -0.45264   0.20300
  66   36676.3    272.7   0.005768889   0.05178  -0.01587   0.21250   0.07983
  67   36989.6    270.3   0.103158347   0.91812  -0.14406   0.74448   0.58577
  68   37277.6    268.3   0.078756060   0.69552  -0.13698   0.37217   0.73366
  69   37395.2    267.4   0.062976546   0.55442   0.19114  -0.68047   0.23420
  70   37732.5    265.0   0.066034948   0.57615  -0.12559   0.07291  -0.74502
  71   37857.9    264.1   0.061563747   0.53536   0.09724  -0.38674   0.61346
  72   37941.1    263.6   0.001727703   0.01499   0.05072  -0.04334  -0.10266
  73   38135.8    262.2   0.045879771   0.39606  -0.20838   0.18150  -0.56542
  74   38345.7    260.8   0.136429818   1.17130  -0.02989  -0.24183  -1.05448
  75   38445.9    260.1   0.068887892   0.58989  -0.34596   0.48037  -0.48933
  76   38562.9    259.3   0.002801742   0.02392  -0.05721  -0.14247   0.01865
  77   38714.8    258.3   0.045820750   0.38964   0.16662  -0.46488   0.38178
  78   38877.2    257.2   0.001480406   0.01254  -0.01077  -0.09360  -0.06049
  79   38909.8    257.0   0.026249511   0.22209  -0.04937   0.33445   0.32833
  80   39111.4    255.7   0.086617365   0.72908  -0.20416   0.82855  -0.03015
  81   39232.1    254.9   0.037016618   0.31062  -0.08911   0.12355   0.53611
  82   39501.9    253.2   0.026471297   0.22061  -0.07657   0.13877  -0.44214
  83   39642.1    252.3   0.030577210   0.25393   0.01536   0.27665  -0.42090
  84   39773.0    251.4   0.021122862   0.17484   0.00523   0.38486  -0.16338
  85   39957.9    250.3   0.040986453   0.33769   0.16698  -0.38943  -0.39768

FINAL SINGLE POINT ENERGY     -5841.795057047007

DIPOLE MOMENT
-------------
                                X             Y             Z
Electronic contribution:     -8.81956      15.43986      23.65447
Nuclear contribution   :     10.63996     -22.39953     -23.14800
                        -----------------------------------------
Total Dipole Moment    :      1.82040      -6.95967       0.50647
                        -----------------------------------------
Magnitude (a.u.)       :      7.21161
Magnitude (Debye)      :     18.33047

Rotational constants in cm-1:     0.001157     0.000369     0.000289
Rotational constants in MHz :    34.697633    11.068643     8.665952

                             ****ORCA TERMINATED NORMALLY****
TOTAL RUN TIME: 0 days 0 hours 20 minutes 17 seconds 843 msec
