                         Program Version 4.2.0 -  RELEASE  -
|  1> # ORCA input file
|  2> # SCF done       -207.043953279541          0.000654487739
|  3> ! CAM-B3LYP def2-SVP def2/J RIJCOSX Grid4 TightSCF
|  4> %maxcore 5000
|  5> %tddft
|  6>     Mode sTDDFT
|  7>     Ethresh 5.0
|  8>     maxcore 5000
|  9> end
| 10>
| 11> %pal
| 12>   nprocs 6
| 13>   end
| 14> * xyz 0 1
| 15>    C       -1.79607        -3.81926         3.33490
| 16>    C       -3.11656        -3.49209         3.63419
| 17>    C       -3.68587        -3.74813         5.00101
| 18>    O       -4.82955        -4.06100         5.16564
| 19>    O       -2.83981        -3.61808         6.02939
| 20>    C       -3.96425        -2.97325         2.64141
| 21>    C       -5.30204        -2.60144         2.93191
| 22>    N       -6.37796        -2.23889         3.07927
| 23>    C       -3.49870        -2.78316         1.33591
| 24>    C       -2.19122        -3.11443         1.05471
| 25>    C       -1.33004        -3.61781         2.04681
| 26>    C       -0.00334        -3.81415         1.46289
| 27>    C        1.16693        -3.79402         2.17878
| 28>    C        1.19785        -3.75429         3.58630
| 29>    N        1.23388        -3.71988         4.73325
| 30>    C        2.44135        -3.68425         1.58585
| 31>    N        3.48997        -3.55671         1.13723
| 32>    C       -0.14349        -3.67986         0.03244
| 33>    C       -1.46512        -3.05443        -0.23907
| 34>    O       -1.86939        -2.63447        -1.29556
| 35>    C        0.65032        -4.06220        -1.01026
| 36>    C        1.69575        -5.00469        -1.03833
| 37>    C        2.63504        -5.14269        -2.05428
| 38>    C        3.51781        -6.18663        -1.82044
| 39>    C        3.22728        -6.89223        -0.63077
| 40>    S        1.88851        -6.25125         0.19827
| 41>    C        4.16656        -7.93516        -0.48233
| 42>    C        5.06531        -7.88851        -1.56568
| 43>    C        4.68185        -6.79448        -2.44520
| 44>    C        5.28299        -6.42446        -3.61114
| 45>    C        6.41207        -7.09871        -4.12583
| 46>    N        7.32482        -7.64262        -4.55515
| 47>    C        4.80552        -5.34784        -4.38973
| 48>    N        4.41136        -4.47717        -5.02236
| 49>    C        6.04819        -8.87076        -1.49824
| 50>    C        5.90880        -9.67566        -0.37971
| 51>    S        4.53127        -9.19856         0.60583
| 52>    C        6.72220       -10.78271         0.01624
| 53>    C        6.38868       -11.58309         1.10172
| 54>    C        7.15177       -12.67261         1.48997
| 55>    C        8.31997       -13.06072         0.84016
| 56>    C        8.72632       -12.24754        -0.26789
| 57>    C        7.92177       -11.11785        -0.67676
| 58>    N        8.42012       -10.44702        -1.70143
| 59>   Se        9.91074       -11.16409        -2.24092
| 60>    N        9.82291       -12.40374        -1.00323
| 61>    C        9.05901       -14.21974         1.27240
| 62>    C       10.18751       -14.65787         0.62094
| 63>    C       10.94363       -15.76990         0.96186
| 64>    C       10.50276       -16.72202         1.97444
| 65>    C        9.43924       -16.48424         2.77920
| 66>    S        8.46330       -15.07768         2.68700
| 67>    C       11.38424       -17.83559         1.85399
| 68>    C       12.30358       -17.60485         0.82561
| 69>    C       13.20806       -18.67522         0.66582
| 70>    C       12.95450       -19.67447         1.55218
| 71>    S       11.62439       -19.35693         2.61228
| 72>    C       12.07848       -16.29132         0.28449
| 73>    C       12.76807       -15.63269        -0.74232
| 74>    C       12.78240       -14.25116        -0.81069
| 75>    C       12.91515       -13.42439        -1.91955
| 76>    C       13.16519       -13.66747        -3.26199
| 77>    C       12.46635       -12.82881        -4.23769
| 78>    O       11.72327       -11.88676        -4.00108
| 79>    C       12.76369       -13.41669        -5.56276
| 80>    C       13.62998       -14.51300        -5.39036
| 81>    C       14.07265       -15.22133        -6.49300
| 82>    C       13.63953       -14.84266        -7.76478
| 83>    C       12.77469       -13.74790        -7.92250
| 84>    C       12.32942       -13.02574        -6.80897
| 85>    C       12.29508       -13.34567        -9.19578
| 86>    N       11.80884       -12.94896       -10.15393
| 87>    C       14.11594       -15.53709        -9.00703
| 88>    O       14.12853       -14.99004       -10.07275
| 89>    O       14.52651       -16.80400        -8.87395
| 90>    C       13.93729       -14.64791        -3.96167
| 91>    C       14.92951       -15.44343        -3.43341
| 92>    C       15.39204       -15.31857        -2.10911
| 93>    N       15.81562       -15.22779        -1.04584
| 94>    C       15.61767       -16.42543        -4.16811
| 95>    N       16.15806       -17.26954        -4.73001
| 96>    H       -1.16125        -4.26836         4.08439
| 97>    H       -1.94903        -3.33210         5.78251
| 98>    H       -4.14778        -2.38849         0.56914
| 99>    H        0.38327        -3.63520        -1.97260
|100>    H        2.66980        -4.47761        -2.89835
|101>    H        6.84100        -9.01756        -2.20808
|102>    H        5.49232       -11.35609         1.66046
|103>    H        6.81228       -13.25010         2.33701
|104>    H       10.47259       -14.09134        -0.25256
|105>    H        9.12628       -17.16854         3.55197
|106>    H       14.00259       -18.70568        -0.05695
|107>    H       13.47765       -20.60448         1.65892
|108>    H       13.23831       -16.24463        -1.49919
|109>    H       12.51745       -13.73575         0.10248
|110>    H       12.56199       -12.40782        -1.75101
|111>    H       14.77002       -16.03688        -6.37054
|112>    H       11.67006       -12.17939        -6.92699
|113>    H       14.47062       -17.14890        -7.97250
|114> *
|115>
|116>                          ****END OF INPUT****

CARTESIAN COORDINATES (ANGSTROEM)
---------------------------------
  C     -1.796070   -3.819260    3.334900
  C     -3.116560   -3.492090    3.634190
  C     -3.685870   -3.748130    5.001010
  O     -4.829550   -4.061000    5.165640
  O     -2.839810   -3.618080    6.029390
  C     -3.964250   -2.973250    2.641410
  C     -5.302040   -2.601440    2.931910
  N     -6.377960   -2.238890    3.079270
  C     -3.498700   -2.783160    1.335910
  C     -2.191220   -3.114430    1.054710
  C     -1.330040   -3.617810    2.046810
  C     -0.003340   -3.814150    1.462890
  C      1.166930   -3.794020    2.178780
  C      1.197850   -3.754290    3.586300
  N      1.233880   -3.719880    4.733250
  C      2.441350   -3.684250    1.585850
  N      3.489970   -3.556710    1.137230
  C     -0.143490   -3.679860    0.032440
  C     -1.465120   -3.054430   -0.239070
  O     -1.869390   -2.634470   -1.295560
  C      0.650320   -4.062200   -1.010260
  C      1.695750   -5.004690   -1.038330
  C      2.635040   -5.142690   -2.054280
  C      3.517810   -6.186630   -1.820440
  C      3.227280   -6.892230   -0.630770
  S      1.888510   -6.251250    0.198270
  C      4.166560   -7.935160   -0.482330
  C      5.065310   -7.888510   -1.565680
  C      4.681850   -6.794480   -2.445200
  C      5.282990   -6.424460   -3.611140
  C      6.412070   -7.098710   -4.125830
  N      7.324820   -7.642620   -4.555150
  C      4.805520   -5.347840   -4.389730
  N      4.411360   -4.477170   -5.022360
  C      6.048190   -8.870760   -1.498240
  C      5.908800   -9.675660   -0.379710
  S      4.531270   -9.198560    0.605830
  C      6.722200  -10.782710    0.016240
  C      6.388680  -11.583090    1.101720
  C      7.151770  -12.672610    1.489970
  C      8.319970  -13.060720    0.840160
  C      8.726320  -12.247540   -0.267890
  C      7.921770  -11.117850   -0.676760
  N      8.420120  -10.447020   -1.701430
  Se     9.910740  -11.164090   -2.240920
  N      9.822910  -12.403740   -1.003230
  C      9.059010  -14.219740    1.272400
  C     10.187510  -14.657870    0.620940
  C     10.943630  -15.769900    0.961860
  C     10.502760  -16.722020    1.974440
  C      9.439240  -16.484240    2.779200
  S      8.463300  -15.077680    2.687000
  C     11.384240  -17.835590    1.853990
  C     12.303580  -17.604850    0.825610
  C     13.208060  -18.675220    0.665820
  C     12.954500  -19.674470    1.552180
  S     11.624390  -19.356930    2.612280
  C     12.078480  -16.291320    0.284490
  C     12.768070  -15.632690   -0.742320
  C     12.782400  -14.251160   -0.810690
  C     12.915150  -13.424390   -1.919550
  C     13.165190  -13.667470   -3.261990
  C     12.466350  -12.828810   -4.237690
  O     11.723270  -11.886760   -4.001080
  C     12.763690  -13.416690   -5.562760
  C     13.629980  -14.513000   -5.390360
  C     14.072650  -15.221330   -6.493000
  C     13.639530  -14.842660   -7.764780
  C     12.774690  -13.747900   -7.922500
  C     12.329420  -13.025740   -6.808970
  C     12.295080  -13.345670   -9.195780
  N     11.808840  -12.948960  -10.153930
  C     14.115940  -15.537090   -9.007030
  O     14.128530  -14.990040  -10.072750
  O     14.526510  -16.804000   -8.873950
  C     13.937290  -14.647910   -3.961670
  C     14.929510  -15.443430   -3.433410
  C     15.392040  -15.318570   -2.109110
  N     15.815620  -15.227790   -1.045840
  C     15.617670  -16.425430   -4.168110
  N     16.158060  -17.269540   -4.730010
  H     -1.161250   -4.268360    4.084390
  H     -1.949030   -3.332100    5.782510
  H     -4.147780   -2.388490    0.569140
  H      0.383270   -3.635200   -1.972600
  H      2.669800   -4.477610   -2.898350
  H      6.841000   -9.017560   -2.208080
  H      5.492320  -11.356090    1.660460
  H      6.812280  -13.250100    2.337010
  H     10.472590  -14.091340   -0.252560
  H      9.126280  -17.168540    3.551970
  H     14.002590  -18.705680   -0.056950
  H     13.477650  -20.604480    1.658920
  H     13.238310  -16.244630   -1.499190
  H     12.517450  -13.735750    0.102480
  H     12.561990  -12.407820   -1.751010
  H     14.770020  -16.036880   -6.370540
  H     11.670060  -12.179390   -6.926990
  H     14.470620  -17.148900   -7.972500

 Total Charge           Charge          ....    0
 Multiplicity           Mult            ....    1
 Number of Electrons    NEL             ....  594
 Basis Dimension        Dim             .... 1258

ORBITAL ENERGIES
----------------

  NO   OCC          E(Eh)            E(eV)
   0   2.0000    -453.994276    -12353.8123
   1   2.0000     -89.012963     -2422.1659
   2   2.0000     -89.007556     -2422.0187
   3   2.0000     -89.007508     -2422.0174
   4   2.0000     -88.977339     -2421.1965
   5   2.0000     -58.206872     -1583.8895
   6   2.0000     -52.277595     -1422.5457
   7   2.0000     -52.275194     -1422.4804
   8   2.0000     -52.274714     -1422.4673
   9   2.0000     -19.280258      -524.6425
  10   2.0000     -19.273236      -524.4514
  11   2.0000     -19.239368      -523.5298
  12   2.0000     -19.235322      -523.4197
  13   2.0000     -19.219718      -522.9951
  14   2.0000     -19.211564      -522.7732
  15   2.0000     -14.452811      -393.2810
  16   2.0000     -14.448222      -393.1561
  17   2.0000     -14.444144      -393.0452
  18   2.0000     -14.442668      -393.0050
  19   2.0000     -14.442367      -392.9968
  20   2.0000     -14.437710      -392.8701
  21   2.0000     -14.428073      -392.6078
  22   2.0000     -14.423719      -392.4893
  23   2.0000     -14.416444      -392.2914
  24   2.0000     -14.405942      -392.0056
  25   2.0000     -10.425340      -283.6879
  26   2.0000     -10.417729      -283.4808
  27   2.0000     -10.391410      -282.7647
  28   2.0000     -10.383865      -282.5593
  29   2.0000     -10.381545      -282.4962
  30   2.0000     -10.370292      -282.1900
  31   2.0000     -10.368746      -282.1479
  32   2.0000     -10.367525      -282.1147
  33   2.0000     -10.363055      -281.9931
  34   2.0000     -10.357565      -281.8437
  35   2.0000     -10.355151      -281.7780
  36   2.0000     -10.355085      -281.7762
  37   2.0000     -10.352183      -281.6972
  38   2.0000     -10.351003      -281.6651
  39   2.0000     -10.350039      -281.6389
  40   2.0000     -10.349763      -281.6314
  41   2.0000     -10.346381      -281.5394
  42   2.0000     -10.345555      -281.5169
  43   2.0000     -10.345388      -281.5123
  44   2.0000     -10.345156      -281.5060
  45   2.0000     -10.344745      -281.4948
  46   2.0000     -10.344583      -281.4904
  47   2.0000     -10.343569      -281.4628
  48   2.0000     -10.342425      -281.4317
  49   2.0000     -10.342193      -281.4254
  50   2.0000     -10.341774      -281.4140
  51   2.0000     -10.338992      -281.3383
  52   2.0000     -10.336182      -281.2618
  53   2.0000     -10.333286      -281.1830
  54   2.0000     -10.332498      -281.1616
  55   2.0000     -10.332149      -281.1521
  56   2.0000     -10.331799      -281.1425
  57   2.0000     -10.331174      -281.1255
  58   2.0000     -10.331037      -281.1218
  59   2.0000     -10.330311      -281.1020
  60   2.0000     -10.327485      -281.0252
  61   2.0000     -10.326461      -280.9973
  62   2.0000     -10.326083      -280.9870
  63   2.0000     -10.325708      -280.9768
  64   2.0000     -10.325371      -280.9676
  65   2.0000     -10.324978      -280.9569
  66   2.0000     -10.324684      -280.9489
  67   2.0000     -10.323897      -280.9275
  68   2.0000     -10.323762      -280.9238
  69   2.0000     -10.322480      -280.8889
  70   2.0000     -10.319286      -280.8021
  71   2.0000     -10.318369      -280.7771
  72   2.0000     -10.316304      -280.7209
  73   2.0000     -10.316229      -280.7189
  74   2.0000     -10.315601      -280.7018
  75   2.0000     -10.315600      -280.7017
  76   2.0000     -10.311398      -280.5874
  77   2.0000     -10.310785      -280.5707
  78   2.0000     -10.308313      -280.5035
  79   2.0000     -10.306679      -280.4590
  80   2.0000     -10.303321      -280.3676
  81   2.0000     -10.298740      -280.2430
  82   2.0000     -10.297950      -280.2215
  83   2.0000     -10.297211      -280.2014
  84   2.0000     -10.293208      -280.0924
  85   2.0000      -8.107213      -220.6085
  86   2.0000      -8.102426      -220.4782
  87   2.0000      -8.102002      -220.4667
  88   2.0000      -8.072722      -219.6699
  89   2.0000      -7.982457      -217.2137
  90   2.0000      -6.076456      -165.3488
  91   2.0000      -6.072265      -165.2347
  92   2.0000      -6.071731      -165.2202
  93   2.0000      -6.071237      -165.2068
  94   2.0000      -6.069591      -165.1620
  95   2.0000      -6.067239      -165.0980
  96   2.0000      -6.067074      -165.0935
  97   2.0000      -6.064844      -165.0328
  98   2.0000      -6.064404      -165.0208
  99   2.0000      -6.042157      -164.4155
 100   2.0000      -6.037860      -164.2985
 101   2.0000      -6.034797      -164.2152
 102   2.0000      -5.932369      -161.4280
 103   2.0000      -5.925719      -161.2470
 104   2.0000      -5.922455      -161.1582
 105   2.0000      -2.286429       -62.2169
 106   2.0000      -2.285732       -62.1979
 107   2.0000      -2.281629       -62.0863
 108   2.0000      -2.276641       -61.9505
 109   2.0000      -2.276296       -61.9412
 110   2.0000      -1.204174       -32.7672
 111   2.0000      -1.197067       -32.5738
 112   2.0000      -1.155425       -31.4407
 113   2.0000      -1.147245       -31.2181
 114   2.0000      -1.119480       -30.4626
 115   2.0000      -1.112070       -30.2610
 116   2.0000      -1.108748       -30.1706
 117   2.0000      -1.065039       -28.9812
 118   2.0000      -1.047031       -28.4912
 119   2.0000      -1.035857       -28.1871
 120   2.0000      -1.033827       -28.1319
 121   2.0000      -1.032387       -28.0927
 122   2.0000      -1.028024       -27.9740
 123   2.0000      -1.022733       -27.8300
 124   2.0000      -1.019982       -27.7551
 125   2.0000      -1.016574       -27.6624
 126   2.0000      -1.016034       -27.6477
 127   2.0000      -1.005378       -27.3577
 128   2.0000      -1.004819       -27.3425
 129   2.0000      -1.004102       -27.3230
 130   2.0000      -0.993093       -27.0234
 131   2.0000      -0.990499       -26.9529
 132   2.0000      -0.981435       -26.7062
 133   2.0000      -0.978900       -26.6372
 134   2.0000      -0.970714       -26.4145
 135   2.0000      -0.968710       -26.3599
 136   2.0000      -0.956129       -26.0176
 137   2.0000      -0.938403       -25.5352
 138   2.0000      -0.930535       -25.3212
 139   2.0000      -0.928202       -25.2577
 140   2.0000      -0.917983       -24.9796
 141   2.0000      -0.914863       -24.8947
 142   2.0000      -0.906964       -24.6798
 143   2.0000      -0.903155       -24.5761
 144   2.0000      -0.893278       -24.3073
 145   2.0000      -0.891320       -24.2540
 146   2.0000      -0.882852       -24.0236
 147   2.0000      -0.878692       -23.9104
 148   2.0000      -0.875433       -23.8217
 149   2.0000      -0.867085       -23.5946
 150   2.0000      -0.860430       -23.4135
 151   2.0000      -0.847762       -23.0688
 152   2.0000      -0.829491       -22.5716
 153   2.0000      -0.828762       -22.5518
 154   2.0000      -0.810063       -22.0429
 155   2.0000      -0.804127       -21.8814
 156   2.0000      -0.798054       -21.7162
 157   2.0000      -0.794935       -21.6313
 158   2.0000      -0.786130       -21.3917
 159   2.0000      -0.770008       -20.9530
 160   2.0000      -0.757855       -20.6223
 161   2.0000      -0.756437       -20.5837
 162   2.0000      -0.750410       -20.4197
 163   2.0000      -0.745474       -20.2854
 164   2.0000      -0.738377       -20.0923
 165   2.0000      -0.727108       -19.7856
 166   2.0000      -0.725476       -19.7412
 167   2.0000      -0.718472       -19.5506
 168   2.0000      -0.717908       -19.5353
 169   2.0000      -0.713813       -19.4238
 170   2.0000      -0.711568       -19.3628
 171   2.0000      -0.707171       -19.2431
 172   2.0000      -0.704695       -19.1757
 173   2.0000      -0.697515       -18.9803
 174   2.0000      -0.690955       -18.8019
 175   2.0000      -0.683280       -18.5930
 176   2.0000      -0.676380       -18.4052
 177   2.0000      -0.669858       -18.2278
 178   2.0000      -0.659213       -17.9381
 179   2.0000      -0.657233       -17.8842
 180   2.0000      -0.656072       -17.8526
 181   2.0000      -0.652827       -17.7643
 182   2.0000      -0.647033       -17.6067
 183   2.0000      -0.645198       -17.5567
 184   2.0000      -0.635060       -17.2809
 185   2.0000      -0.629571       -17.1315
 186   2.0000      -0.622703       -16.9446
 187   2.0000      -0.618834       -16.8393
 188   2.0000      -0.616415       -16.7735
 189   2.0000      -0.608744       -16.5648
 190   2.0000      -0.605751       -16.4833
 191   2.0000      -0.604559       -16.4509
 192   2.0000      -0.600781       -16.3481
 193   2.0000      -0.594917       -16.1885
 194   2.0000      -0.588521       -16.0145
 195   2.0000      -0.587025       -15.9738
 196   2.0000      -0.580294       -15.7906
 197   2.0000      -0.573641       -15.6096
 198   2.0000      -0.572177       -15.5697
 199   2.0000      -0.567961       -15.4550
 200   2.0000      -0.567292       -15.4368
 201   2.0000      -0.565871       -15.3981
 202   2.0000      -0.563033       -15.3209
 203   2.0000      -0.561611       -15.2822
 204   2.0000      -0.558752       -15.2044
 205   2.0000      -0.556779       -15.1507
 206   2.0000      -0.552530       -15.0351
 207   2.0000      -0.549895       -14.9634
 208   2.0000      -0.548022       -14.9124
 209   2.0000      -0.544460       -14.8155
 210   2.0000      -0.543356       -14.7855
 211   2.0000      -0.542806       -14.7705
 212   2.0000      -0.541133       -14.7250
 213   2.0000      -0.537666       -14.6306
 214   2.0000      -0.537359       -14.6223
 215   2.0000      -0.532396       -14.4872
 216   2.0000      -0.529814       -14.4170
 217   2.0000      -0.528429       -14.3793
 218   2.0000      -0.524596       -14.2750
 219   2.0000      -0.522513       -14.2183
 220   2.0000      -0.520772       -14.1709
 221   2.0000      -0.517014       -14.0687
 222   2.0000      -0.513834       -13.9821
 223   2.0000      -0.513081       -13.9617
 224   2.0000      -0.508029       -13.8242
 225   2.0000      -0.506223       -13.7750
 226   2.0000      -0.501261       -13.6400
 227   2.0000      -0.499547       -13.5934
 228   2.0000      -0.497440       -13.5360
 229   2.0000      -0.495491       -13.4830
 230   2.0000      -0.494203       -13.4480
 231   2.0000      -0.492254       -13.3949
 232   2.0000      -0.491469       -13.3735
 233   2.0000      -0.487308       -13.2603
 234   2.0000      -0.485130       -13.2011
 235   2.0000      -0.475144       -12.9293
 236   2.0000      -0.473756       -12.8916
 237   2.0000      -0.473277       -12.8785
 238   2.0000      -0.471612       -12.8332
 239   2.0000      -0.470940       -12.8149
 240   2.0000      -0.468926       -12.7601
 241   2.0000      -0.468029       -12.7357
 242   2.0000      -0.467337       -12.7169
 243   2.0000      -0.466794       -12.7021
 244   2.0000      -0.464712       -12.6455
 245   2.0000      -0.463902       -12.6234
 246   2.0000      -0.460466       -12.5299
 247   2.0000      -0.460275       -12.5247
 248   2.0000      -0.459184       -12.4950
 249   2.0000      -0.456309       -12.4168
 250   2.0000      -0.454133       -12.3576
 251   2.0000      -0.453793       -12.3483
 252   2.0000      -0.452535       -12.3141
 253   2.0000      -0.452230       -12.3058
 254   2.0000      -0.451932       -12.2977
 255   2.0000      -0.450189       -12.2503
 256   2.0000      -0.448979       -12.2173
 257   2.0000      -0.446560       -12.1515
 258   2.0000      -0.443211       -12.0604
 259   2.0000      -0.443120       -12.0579
 260   2.0000      -0.439193       -11.9510
 261   2.0000      -0.437860       -11.9148
 262   2.0000      -0.437177       -11.8962
 263   2.0000      -0.436730       -11.8840
 264   2.0000      -0.434521       -11.8239
 265   2.0000      -0.430838       -11.7237
 266   2.0000      -0.428894       -11.6708
 267   2.0000      -0.426847       -11.6151
 268   2.0000      -0.424723       -11.5573
 269   2.0000      -0.419427       -11.4132
 270   2.0000      -0.417061       -11.3488
 271   2.0000      -0.414218       -11.2715
 272   2.0000      -0.409425       -11.1410
 273   2.0000      -0.402033       -10.9399
 274   2.0000      -0.400815       -10.9067
 275   2.0000      -0.400126       -10.8880
 276   2.0000      -0.396871       -10.7994
 277   2.0000      -0.387371       -10.5409
 278   2.0000      -0.379711       -10.3325
 279   2.0000      -0.370744       -10.0885
 280   2.0000      -0.370355       -10.0779
 281   2.0000      -0.368902       -10.0383
 282   2.0000      -0.367355        -9.9962
 283   2.0000      -0.366570        -9.9749
 284   2.0000      -0.362918        -9.8755
 285   2.0000      -0.359537        -9.7835
 286   2.0000      -0.357711        -9.7338
 287   2.0000      -0.357225        -9.7206
 288   2.0000      -0.345111        -9.3910
 289   2.0000      -0.341918        -9.3041
 290   2.0000      -0.338838        -9.2202
 291   2.0000      -0.333727        -9.0812
 292   2.0000      -0.325491        -8.8571
 293   2.0000      -0.319221        -8.6865
 294   2.0000      -0.301631        -8.2078
 295   2.0000      -0.280413        -7.6304
 296   2.0000      -0.255458        -6.9514
 297   0.0000      -0.135942        -3.6992
 298   0.0000      -0.118199        -3.2164
 299   0.0000      -0.109060        -2.9677
 300   0.0000      -0.094290        -2.5658
 301   0.0000      -0.093466        -2.5433

MULLIKEN ATOMIC CHARGES
-----------------------
   0 C :   -0.083848
   1 C :    0.003976
   2 C :    0.181941
   3 O :   -0.146389
   4 O :   -0.143685
   5 C :   -0.077660
   6 C :   -0.155818
   7 N :    0.147997
   8 C :   -0.031131
   9 C :    0.012184
  10 C :    0.028300
  11 C :    0.239438
  12 C :   -0.307900
  13 C :   -0.175986
  14 N :    0.147107
  15 C :   -0.202227
  16 N :    0.182829
  17 C :   -0.148002
  18 C :    0.148115
  19 O :   -0.121673
  20 C :    0.054036
  21 C :   -0.093663
  22 C :    0.007921
  23 C :    0.024379
  24 C :   -0.073177
  25 S :    0.203170
  26 C :   -0.089983
  27 C :    0.038690
  28 C :    0.302032
  29 C :   -0.289728
  30 C :   -0.183769
  31 N :    0.186373
  32 C :   -0.190714
  33 N :    0.181510
  34 C :   -0.047047
  35 C :   -0.108722
  36 S :    0.172548
  37 C :    0.154131
  38 C :   -0.069315
  39 C :   -0.063325
  40 C :    0.118651
  41 C :    0.041776
  42 C :   -0.004643
  43 N :   -0.279061
  44 Se:    0.625563
  45 N :   -0.327925
  46 C :   -0.072576
  47 C :   -0.082982
  48 C :    0.078032
  49 C :    0.064334
  50 C :   -0.115627
  51 S :    0.138485
  52 C :   -0.110798
  53 C :    0.075889
  54 C :    0.014210
  55 C :   -0.064819
  56 S :    0.143070
  57 C :    0.019104
  58 C :    0.050700
  59 C :    0.005739
  60 C :    0.001787
  61 C :   -0.137904
  62 C :    0.175123
  63 O :   -0.207386
  64 C :    0.004499
  65 C :    0.038129
  66 C :   -0.094591
  67 C :    0.021885
  68 C :   -0.082110
  69 C :   -0.038916
  70 C :   -0.157306
  71 N :    0.138492
  72 C :    0.180108
  73 O :   -0.146281
  74 O :   -0.140154
  75 C :    0.305635
  76 C :   -0.359572
  77 C :   -0.223113
  78 N :    0.177717
  79 C :   -0.169401
  80 N :    0.133101
  81 H :    0.007822
  82 H :    0.192633
  83 H :    0.020180
  84 H :    0.039737
  85 H :    0.024580
  86 H :    0.026626
  87 H :   -0.006483
  88 H :    0.004134
  89 H :    0.022435
  90 H :    0.047758
  91 H :   -0.002450
  92 H :    0.036593
  93 H :    0.016654
  94 H :    0.014580
  95 H :    0.018234
  96 H :   -0.016239
  97 H :    0.015092
  98 H :    0.188336
Sum of atomic charges:   -0.0000000

LOEWDIN ATOMIC CHARGES
----------------------
   0 C :   -0.004710
   1 C :   -0.035454
   2 C :    0.079468
   3 O :   -0.118672
   4 O :   -0.014758
   5 C :   -0.024501
   6 C :   -0.034773
   7 N :   -0.021083
   8 C :    0.051075
   9 C :   -0.032459
  10 C :    0.002188
  11 C :    0.057654
  12 C :   -0.139736
  13 C :   -0.017197
  14 N :   -0.053604
  15 C :   -0.038569
  16 N :   -0.036438
  17 C :   -0.112205
  18 C :    0.083626
  19 O :   -0.125180
  20 C :    0.061321
  21 C :   -0.182247
  22 C :    0.022846
  23 C :   -0.070284
  24 C :   -0.143850
  25 S :    0.507535
  26 C :   -0.187888
  27 C :   -0.050913
  28 C :    0.075958
  29 C :   -0.088703
  30 C :   -0.017757
  31 N :   -0.019640
  32 C :   -0.017105
  33 N :   -0.022500
  34 C :   -0.014562
  35 C :   -0.143431
  36 S :    0.480904
  37 C :   -0.033491
  38 C :   -0.024618
  39 C :   -0.017216
  40 C :   -0.047490
  41 C :   -0.025758
  42 C :   -0.035709
  43 N :   -0.241979
  44 Se:    0.652048
  45 N :   -0.258518
  46 C :   -0.142918
  47 C :   -0.017274
  48 C :    0.022169
  49 C :   -0.047753
  50 C :   -0.132762
  51 S :    0.486308
  52 C :   -0.204988
  53 C :   -0.035537
  54 C :   -0.056188
  55 C :   -0.155875
  56 S :    0.434913
  57 C :   -0.056020
  58 C :    0.078219
  59 C :   -0.051604
  60 C :    0.066707
  61 C :   -0.128582
  62 C :    0.094453
  63 O :   -0.184812
  64 C :   -0.032234
  65 C :    0.006329
  66 C :   -0.008103
  67 C :   -0.039600
  68 C :   -0.026023
  69 C :    0.045873
  70 C :   -0.034839
  71 N :   -0.029516
  72 C :    0.081438
  73 O :   -0.118704
  74 O :   -0.015589
  75 C :    0.059674
  76 C :   -0.154140
  77 C :   -0.025930
  78 N :   -0.045126
  79 C :   -0.020541
  80 N :   -0.063335
  81 H :    0.036623
  82 H :    0.100118
  83 H :    0.054689
  84 H :    0.058135
  85 H :    0.049539
  86 H :    0.040700
  87 H :    0.025499
  88 H :    0.024774
  89 H :    0.038636
  90 H :    0.041439
  91 H :    0.037140
  92 H :    0.027895
  93 H :    0.036473
  94 H :    0.039465
  95 H :    0.037642
  96 H :    0.032776
  97 H :    0.052177
  98 H :    0.096565

  Mayer bond orders larger than 0.100000
B(  0-C ,  1-C ) :   1.3294 B(  0-C , 10-C ) :   1.3871 B(  0-C , 81-H ) :   0.9693
B(  1-C ,  2-C ) :   0.8678 B(  1-C ,  5-C ) :   1.3976 B(  2-C ,  3-O ) :   2.1714
B(  2-C ,  4-O ) :   1.2562 B(  4-O , 82-H ) :   0.9439 B(  5-C ,  6-C ) :   1.0703
B(  5-C ,  8-C ) :   1.3651 B(  6-C ,  7-N ) :   3.0393 B(  8-C ,  9-C ) :   1.3614
B(  8-C , 83-H ) :   1.0141 B(  9-C , 10-C ) :   1.3486 B(  9-C , 18-C ) :   0.8977
B( 10-C , 11-C ) :   0.9932 B( 11-C , 12-C ) :   1.6497 B( 11-C , 17-C ) :   1.0579
B( 12-C , 13-C ) :   1.1382 B( 12-C , 15-C ) :   1.1500 B( 13-C , 14-N ) :   2.9906
B( 15-C , 16-N ) :   3.0222 B( 17-C , 18-C ) :   0.9498 B( 17-C , 20-C ) :   1.5895
B( 18-C , 19-O ) :   2.2862 B( 20-C , 21-C ) :   1.1805 B( 20-C , 84-H ) :   0.9481
B( 21-C , 22-C ) :   1.3703 B( 21-C , 25-S ) :   1.0730 B( 22-C , 23-C ) :   1.3236
B( 22-C , 85-H ) :   1.0005 B( 23-C , 24-C ) :   1.3797 B( 23-C , 28-C ) :   0.9891
B( 24-C , 25-S ) :   1.1615 B( 24-C , 26-C ) :   1.2220 B( 26-C , 27-C ) :   1.4157
B( 26-C , 36-S ) :   1.1146 B( 27-C , 28-C ) :   0.9995 B( 27-C , 34-C ) :   1.2554
B( 28-C , 29-C ) :   1.7219 B( 29-C , 30-C ) :   1.1380 B( 29-C , 32-C ) :   1.1327
B( 30-C , 31-N ) :   2.9866 B( 32-C , 33-N ) :   2.9919 B( 34-C , 35-C ) :   1.4608
B( 34-C , 86-H ) :   0.9797 B( 35-C , 36-S ) :   1.1028 B( 35-C , 37-C ) :   1.1325
B( 37-C , 38-C ) :   1.4212 B( 37-C , 40-C ) :   0.1113 B( 37-C , 42-C ) :   1.1711
B( 38-C , 39-C ) :   1.2848 B( 38-C , 87-H ) :   0.9843 B( 39-C , 40-C ) :   1.4187
B( 39-C , 88-H ) :   0.9774 B( 40-C , 41-C ) :   1.1546 B( 40-C , 46-C ) :   1.1451
B( 41-C , 42-C ) :   1.1377 B( 41-C , 45-N ) :   1.5437 B( 42-C , 43-N ) :   1.5876
B( 43-N , 44-Se) :   1.2380 B( 43-N , 45-N ) :   0.1129 B( 44-Se, 45-N ) :   1.2130
B( 45-N , 89-H ) :   0.1126 B( 46-C , 47-C ) :   1.5098 B( 46-C , 51-S ) :   1.0673
B( 47-C , 48-C ) :   1.2607 B( 47-C , 89-H ) :   0.9294 B( 48-C , 49-C ) :   1.0947
B( 48-C , 57-C ) :   1.2873 B( 49-C , 50-C ) :   1.5638 B( 49-C , 52-C ) :   1.1644
B( 50-C , 51-S ) :   1.1721 B( 50-C , 90-H ) :   0.9415 B( 52-C , 53-C ) :   1.4418
B( 52-C , 56-S ) :   1.0844 B( 53-C , 54-C ) :   1.2373 B( 53-C , 57-C ) :   1.0779
B( 54-C , 55-C ) :   1.5778 B( 54-C , 91-H ) :   1.0008 B( 55-C , 56-S ) :   1.1602
B( 55-C , 92-H ) :   0.9660 B( 57-C , 58-C ) :   1.3114 B( 58-C , 59-C ) :   1.4088
B( 58-C , 93-H ) :   0.9410 B( 59-C , 60-C ) :   1.4018 B( 59-C , 94-H ) :   0.9500
B( 60-C , 61-C ) :   1.3827 B( 60-C , 95-H ) :   0.9313 B( 61-C , 62-C ) :   1.0338
B( 61-C , 75-C ) :   1.1427 B( 62-C , 63-O ) :   2.0936 B( 62-C , 64-C ) :   0.9182
B( 64-C , 65-C ) :   1.3388 B( 64-C , 69-C ) :   1.3643 B( 65-C , 66-C ) :   1.4195
B( 65-C , 75-C ) :   0.9806 B( 66-C , 67-C ) :   1.2891 B( 66-C , 96-H ) :   0.9574
B( 67-C , 68-C ) :   1.4122 B( 67-C , 72-C ) :   0.8696 B( 68-C , 69-C ) :   1.3503
B( 68-C , 70-C ) :   1.0642 B( 69-C , 97-H ) :   1.0166 B( 70-C , 71-N ) :   3.0367
B( 72-C , 73-O ) :   2.1641 B( 72-C , 74-O ) :   1.2569 B( 74-O , 98-H ) :   0.9507
B( 75-C , 76-C ) :   1.5773 B( 76-C , 77-C ) :   1.1725 B( 76-C , 79-C ) :   1.1364
B( 77-C , 78-N ) :   2.9899 B( 79-C , 80-N ) :   2.9561

-----------------------------------------------------------------------------
         ABSORPTION SPECTRUM VIA TRANSITION ELECTRIC DIPOLE MOMENTS
-----------------------------------------------------------------------------
State   Energy  Wavelength   fosc         T2         TX        TY        TZ
        (cm-1)    (nm)                  (au**2)     (au)      (au)      (au)
-----------------------------------------------------------------------------
   0   11726.7    852.8   0.961133169  26.98248  -3.98892   2.92592   1.58428
   1   14105.3    709.0   0.157541139   3.67694  -0.87492  -0.77061   1.52237
   2   17653.6    566.5   0.028800462   0.53708   0.16805   0.26675  -0.66158
   3   18642.9    536.4   0.536158033   9.46794   1.61512  -2.61897  -0.01768
   4   19443.6    514.3   0.019592175   0.33173   0.36945  -0.43834   0.05558
   5   20320.5    492.1   0.347173337   5.62455   0.07889   1.20226  -2.04277
   6   21101.7    473.9   0.230399913   3.59452  -0.17733  -0.93719   1.63852
   7   23379.6    427.7   0.129134876   1.81837  -1.00711   0.89147  -0.09685
   8   23730.9    421.4   0.155533617   2.15767   0.66318   0.46453  -1.22559
   9   24422.0    409.5   0.192498314   2.59490   1.28547  -0.96941   0.05224
  10   24940.8    400.9   0.020997484   0.27716   0.41536  -0.22034  -0.23682
  11   25286.2    395.5   0.060176324   0.78346  -0.08775   0.08231   0.87692
  12   26142.6    382.5   0.017618859   0.22187   0.43350  -0.18426   0.00113
  13   26852.1    372.4   0.023574347   0.28903  -0.46436   0.18433   0.19855
  14   28087.0    356.0   0.023374318   0.27397  -0.04870   0.51431  -0.08419
  15   28275.5    353.7   0.102245381   1.19045   0.14349   0.41938  -0.99699
  16   28349.5    352.7   0.137714305   1.59922   1.07367   0.10107  -0.66048
  17   29283.0    341.5   0.047735170   0.53666   0.23153  -0.41608   0.55672
  18   29600.4    337.8   0.016371833   0.18209   0.17147  -0.08748   0.38083
  19   29914.3    334.3   0.133243329   1.46636  -0.72072  -0.37994   0.89586
  20   30157.3    331.6   0.028729791   0.31363  -0.13061  -0.30277   0.45266
  21   30434.9    328.6   0.003168953   0.03428  -0.16554  -0.00197   0.08290
  22   30668.0    326.1   0.040792787   0.43790   0.04141   0.42531  -0.50527
  23   30859.6    324.0   0.055507312   0.59215  -0.51754   0.26886  -0.50201
  24   30913.5    323.5   0.071700010   0.76357  -0.02378  -0.16827   0.85714
  25   31015.6    322.4   0.037675457   0.39990   0.61085  -0.04022   0.15859
  26   31230.1    320.2   0.008042432   0.08478   0.03042   0.28945   0.00852
  27   31613.9    316.3   0.127258503   1.32521  -0.61291  -0.03367   0.97386
  28   31662.2    315.8   0.132340521   1.37603   0.34183   0.26801  -1.08966
  29   31871.9    313.8   0.124608781   1.28711   0.48839  -0.71403   0.73400
  30   32053.2    312.0   0.384531965   3.94945  -1.68909   1.03007   0.18810
  31   32470.1    308.0   0.022110517   0.22418  -0.46625   0.06627   0.04898
  32   32741.8    305.4   0.060547380   0.60879   0.36896  -0.29608   0.62048
  33   33120.5    301.9   0.163192245   1.62210   0.80719  -0.75594   0.63175
  34   33403.6    299.4   0.151419599   1.49233  -0.26741   0.41765  -1.11642
  35   33623.9    297.4   0.184052753   1.80206  -0.55705   1.03098  -0.65486
  36   33864.4    295.3   0.150575442   1.46382   1.12420  -0.38491  -0.22767
  37   34169.0    292.7   0.255337912   2.46014   0.88198   0.67879  -1.10521
  38   34311.4    291.4   0.089793839   0.86156   0.76636  -0.30999  -0.42209
  39   34661.1    288.5   0.018471295   0.17544  -0.19137  -0.29733   0.22453
  40   34689.4    288.3   0.018793798   0.17836  -0.25458   0.33333  -0.04940
  41   34904.7    286.5   0.138315321   1.30455  -1.00478   0.41646   0.34862
  42   34986.4    285.8   0.178041877   1.67532   1.10189  -0.67901   0.01024
  43   35356.5    282.8   0.170789379   1.59026  -1.16894  -0.34868  -0.31979
  44   35472.1    281.9   0.149461912   1.38714   0.26123  -0.40623   1.07419
  45   35569.6    281.1   0.006912923   0.06398  -0.08490   0.22439   0.08013
  46   35863.5    278.8   0.172742352   1.58570  -1.04339   0.44380  -0.54779
  47   36029.1    277.6   0.036011359   0.32905  -0.22475   0.19096  -0.49201
  48   36113.8    276.9   0.013635746   0.12430  -0.27219   0.10181   0.19963
  49   36223.5    276.1   0.089789853   0.81604  -0.75888   0.48071  -0.09519
  50   36517.6    273.8   0.159888119   1.44142   0.89187  -0.79973  -0.08010
  51   36907.0    271.0   0.099433358   0.88695  -0.80184   0.41997   0.26005
  52   36962.1    270.5   0.010338120   0.09208   0.15601  -0.08060   0.24748
  53   37095.1    269.6   0.002966057   0.02632   0.05219  -0.15317   0.01171
  54   37505.9    266.6   0.002624218   0.02303  -0.13395  -0.03755   0.06067
  55   37541.3    266.4   0.009773855   0.08571  -0.04748   0.27573   0.08619
  56   37762.7    264.8   0.007391320   0.06444  -0.22164  -0.09752   0.07616
  57   37983.6    263.3   0.063334380   0.54893  -0.53355   0.22114   0.46406
  58   38073.3    262.7   0.266571410   2.30499  -0.39069   1.07978  -0.99319
  59   38168.3    262.0   0.063918178   0.55131   0.46630   0.41373  -0.40337
  60   38348.6    260.8   0.085141798   0.73092  -0.54046   0.65992  -0.05771
  61   38452.7    260.1   0.090615020   0.77580  -0.66432   0.51230  -0.26838
  62   38728.2    258.2   0.047737520   0.40580   0.28647  -0.50076   0.27013
  63   38828.7    257.5   0.007564523   0.06414  -0.20461   0.02723   0.14673
  64   38873.4    257.2   0.014843569   0.12571  -0.22969  -0.23051   0.14077
  65   39116.2    255.6   0.001123422   0.00946  -0.09468  -0.00514  -0.02156
  66   39302.3    254.4   0.014102375   0.11813  -0.11056  -0.08689   0.31361
  67   39439.7    253.6   0.058472902   0.48809   0.37073  -0.57991   0.11977
  68   39547.8    252.9   0.086635989   0.72119   0.61036  -0.48655   0.33454
  69   39637.4    252.3   0.014074894   0.11690  -0.14040   0.21675  -0.22407
  70   39669.0    252.1   0.157183761   1.30446   0.36308  -0.13351   1.07462
  71   39837.2    251.0   0.007856681   0.06493  -0.21006   0.14032  -0.03334
  72   39977.8    250.1   0.077043642   0.63445   0.23828   0.05160  -0.75829
  73   40148.7    249.1   0.016203679   0.13287   0.26320  -0.25070   0.02720
  74   40237.3    248.5   0.008647384   0.07075   0.23746   0.07930  -0.08987

FINAL SINGLE POINT ENERGY     -7285.384112994001

DIPOLE MOMENT
-------------
                                X             Y             Z
Electronic contribution:     16.05826       9.92410     -13.97495
Nuclear contribution   :    -15.97195     -13.30961      17.98711
                        -----------------------------------------
Total Dipole Moment    :      0.08631      -3.38551       4.01216
                        -----------------------------------------
Magnitude (a.u.)       :      5.25039
Magnitude (Debye)      :     13.34542

Rotational constants in cm-1:     0.001193     0.000220     0.000192
Rotational constants in MHz :    35.768151     6.603564     5.744556

                             ****ORCA TERMINATED NORMALLY****
TOTAL RUN TIME: 0 days 0 hours 15 minutes 59 seconds 478 msec
