                         Program Version 4.2.0 -  RELEASE  -
|  1> # ORCA input file
|  2> # SCF done       -205.613758277035          0.000708597359
|  3> ! CAM-B3LYP def2-SVP def2/J RIJCOSX Grid4 TightSCF
|  4> %maxcore 5000
|  5> %tddft
|  6>     Mode sTDDFT
|  7>     Ethresh 5.0
|  8>     maxcore 5000
|  9> end
| 10>
| 11> %pal
| 12>   nprocs 6
| 13>   end
| 14> * xyz 0 1
| 15>    C       11.13440       -11.54424        -5.27813
| 16>    C       11.49949       -12.59380        -6.11878
| 17>    C       12.73330       -13.40698        -5.85038
| 18>    O       12.79634       -14.57451        -6.10840
| 19>    O       13.76153       -12.75738        -5.29169
| 20>    C       10.68310       -12.95344        -7.20366
| 21>    C       11.04890       -13.99738        -8.09141
| 22>    N       11.27495       -14.79635        -8.87982
| 23>    C        9.48907       -12.26821        -7.45438
| 24>    C        9.13952       -11.23625        -6.61146
| 25>    C        9.95927       -10.85853        -5.53235
| 26>    C        9.35101        -9.71032        -4.86011
| 27>    C       10.05048        -8.77695        -4.13697
| 28>    C       11.41431        -8.92601        -3.82202
| 29>    N       12.52733        -9.03808        -3.56293
| 30>    C        9.51500        -7.52869        -3.75891
| 31>    N        9.12539        -6.48586        -3.48039
| 32>    C        8.01204        -9.57585        -5.37797
| 33>    C        7.91760       -10.39158        -6.61537
| 34>    O        7.01674       -10.39945        -7.41967
| 35>    C        6.89392        -8.95271        -4.89624
| 36>    C        6.59519        -8.53541        -3.58810
| 37>    C        5.47490        -7.80334        -3.20888
| 38>    C        5.36932        -7.63017        -1.83379
| 39>    C        6.41265        -8.24697        -1.13150
| 40>    S        7.51101        -9.04297        -2.18458
| 41>    C        6.45583        -8.12512         0.27078
| 42>    C        5.38849        -7.52625         0.92799
| 43>    C        4.17282        -7.11110         0.15455
| 44>    O        4.39987        -6.90744        -1.23778
| 45>    C        5.58235        -7.44701         2.30278
| 46>    C        6.79503        -7.97706         2.71150
| 47>    S        7.71736        -8.58055         1.36069
| 48>    C        7.29278        -8.08307         4.03196
| 49>    C        8.52387        -8.56099         4.43745
| 50>    C        8.68264        -8.54090         5.82564
| 51>    C        7.55513        -8.06122         6.49255
| 52>    S        6.30981        -7.59846         5.38952
| 53>    C        7.52558        -8.11591         7.90255
| 54>    C        8.68195        -8.47422         8.58383
| 55>    C        9.96295        -8.63494         7.81944
| 56>    O        9.77798        -9.00970         6.45665
| 57>    C        8.48368        -8.59542         9.95517
| 58>    C        7.17911        -8.33079        10.34049
| 59>    S        6.18297        -7.92153         8.96595
| 60>    C        6.62542        -8.38949        11.64272
| 61>    C        7.26852        -8.72072        12.82284
| 62>    C        6.41590        -8.70143        13.92869
| 63>    C        5.10096        -8.36260        13.59478
| 64>    S        4.93726        -8.04751        11.90241
| 65>    C        4.11001        -8.42522        14.58718
| 66>    C        4.48856        -8.67300        15.90823
| 67>    C        5.94585        -8.72925        16.25998
| 68>    O        6.80766        -9.04404        15.16753
| 69>    C        3.40524        -8.77054        16.76145
| 70>    C        2.17455        -8.63020        16.12171
| 71>    S        2.40389        -8.32419        14.40919
| 72>    C        0.92057        -8.62062        16.74882
| 73>    C       -0.32938        -8.65136        16.18907
| 74>    C       -1.48760        -8.12097        16.94684
| 75>    O       -1.53160        -7.84813        18.12347
| 76>    C       -2.56090        -7.94396        15.93417
| 77>    C       -2.11561        -8.44452        14.69721
| 78>    C       -2.91735        -8.33779        13.57424
| 79>    C       -4.17574        -7.75148        13.69557
| 80>    C       -4.61965        -7.27125        14.93846
| 81>    C       -3.80398        -7.36705        16.07162
| 82>    C       -5.90856        -6.70079        15.09513
| 83>    N       -6.94046        -6.26337        15.32989
| 84>    C       -5.05934        -7.55996        12.49702
| 85>    O       -5.80363        -6.62740        12.39469
| 86>    O       -4.96280        -8.48577        11.53479
| 87>    C       -0.79334        -9.04291        14.88293
| 88>    C       -0.27803       -10.04085        14.09207
| 89>    C        0.83124       -10.82644        14.46469
| 90>    N        1.69852       -11.51743        14.76116
| 91>    C       -0.89591       -10.46255        12.90039
| 92>    N       -1.39502       -10.81470        11.92771
| 93>    H       11.73304       -11.30275        -4.41224
| 94>    H       13.60924       -11.81193        -5.15290
| 95>    H        8.85728       -12.54441        -8.28477
| 96>    H        6.07838        -8.86370        -5.60757
| 97>    H        4.77639        -7.39381        -3.91448
| 98>    H        3.77744        -6.16252         0.52914
| 99>    H        3.38909        -7.87958         0.27079
|100>    H        4.87450        -7.02583         2.99384
|101>    H        9.27576        -8.91442         3.75650
|102>    H       10.58695        -9.41901         8.25615
|103>    H       10.52767        -7.68684         7.84673
|104>    H        9.25636        -8.86633        10.65017
|105>    H        8.30844        -8.97594        12.88947
|106>    H        6.13627        -9.49717        17.01518
|107>    H        6.25944        -7.75475        16.67205
|108>    H        3.48105        -8.95910        17.81717
|109>    H        0.93755        -8.47362        17.82446
|110>    H       -2.55322        -8.65828        12.60927
|111>    H       -4.14046        -6.99550        17.02751
|112>    H       -4.35049        -9.20765        11.73565
|113> *
|114>
|115>                          ****END OF INPUT****

CARTESIAN COORDINATES (ANGSTROEM)
---------------------------------
  C     11.134400  -11.544240   -5.278130
  C     11.499490  -12.593800   -6.118780
  C     12.733300  -13.406980   -5.850380
  O     12.796340  -14.574510   -6.108400
  O     13.761530  -12.757380   -5.291690
  C     10.683100  -12.953440   -7.203660
  C     11.048900  -13.997380   -8.091410
  N     11.274950  -14.796350   -8.879820
  C      9.489070  -12.268210   -7.454380
  C      9.139520  -11.236250   -6.611460
  C      9.959270  -10.858530   -5.532350
  C      9.351010   -9.710320   -4.860110
  C     10.050480   -8.776950   -4.136970
  C     11.414310   -8.926010   -3.822020
  N     12.527330   -9.038080   -3.562930
  C      9.515000   -7.528690   -3.758910
  N      9.125390   -6.485860   -3.480390
  C      8.012040   -9.575850   -5.377970
  C      7.917600  -10.391580   -6.615370
  O      7.016740  -10.399450   -7.419670
  C      6.893920   -8.952710   -4.896240
  C      6.595190   -8.535410   -3.588100
  C      5.474900   -7.803340   -3.208880
  C      5.369320   -7.630170   -1.833790
  C      6.412650   -8.246970   -1.131500
  S      7.511010   -9.042970   -2.184580
  C      6.455830   -8.125120    0.270780
  C      5.388490   -7.526250    0.927990
  C      4.172820   -7.111100    0.154550
  O      4.399870   -6.907440   -1.237780
  C      5.582350   -7.447010    2.302780
  C      6.795030   -7.977060    2.711500
  S      7.717360   -8.580550    1.360690
  C      7.292780   -8.083070    4.031960
  C      8.523870   -8.560990    4.437450
  C      8.682640   -8.540900    5.825640
  C      7.555130   -8.061220    6.492550
  S      6.309810   -7.598460    5.389520
  C      7.525580   -8.115910    7.902550
  C      8.681950   -8.474220    8.583830
  C      9.962950   -8.634940    7.819440
  O      9.777980   -9.009700    6.456650
  C      8.483680   -8.595420    9.955170
  C      7.179110   -8.330790   10.340490
  S      6.182970   -7.921530    8.965950
  C      6.625420   -8.389490   11.642720
  C      7.268520   -8.720720   12.822840
  C      6.415900   -8.701430   13.928690
  C      5.100960   -8.362600   13.594780
  S      4.937260   -8.047510   11.902410
  C      4.110010   -8.425220   14.587180
  C      4.488560   -8.673000   15.908230
  C      5.945850   -8.729250   16.259980
  O      6.807660   -9.044040   15.167530
  C      3.405240   -8.770540   16.761450
  C      2.174550   -8.630200   16.121710
  S      2.403890   -8.324190   14.409190
  C      0.920570   -8.620620   16.748820
  C     -0.329380   -8.651360   16.189070
  C     -1.487600   -8.120970   16.946840
  O     -1.531600   -7.848130   18.123470
  C     -2.560900   -7.943960   15.934170
  C     -2.115610   -8.444520   14.697210
  C     -2.917350   -8.337790   13.574240
  C     -4.175740   -7.751480   13.695570
  C     -4.619650   -7.271250   14.938460
  C     -3.803980   -7.367050   16.071620
  C     -5.908560   -6.700790   15.095130
  N     -6.940460   -6.263370   15.329890
  C     -5.059340   -7.559960   12.497020
  O     -5.803630   -6.627400   12.394690
  O     -4.962800   -8.485770   11.534790
  C     -0.793340   -9.042910   14.882930
  C     -0.278030  -10.040850   14.092070
  C      0.831240  -10.826440   14.464690
  N      1.698520  -11.517430   14.761160
  C     -0.895910  -10.462550   12.900390
  N     -1.395020  -10.814700   11.927710
  H     11.733040  -11.302750   -4.412240
  H     13.609240  -11.811930   -5.152900
  H      8.857280  -12.544410   -8.284770
  H      6.078380   -8.863700   -5.607570
  H      4.776390   -7.393810   -3.914480
  H      3.777440   -6.162520    0.529140
  H      3.389090   -7.879580    0.270790
  H      4.874500   -7.025830    2.993840
  H      9.275760   -8.914420    3.756500
  H     10.586950   -9.419010    8.256150
  H     10.527670   -7.686840    7.846730
  H      9.256360   -8.866330   10.650170
  H      8.308440   -8.975940   12.889470
  H      6.136270   -9.497170   17.015180
  H      6.259440   -7.754750   16.672050
  H      3.481050   -8.959100   17.817170
  H      0.937550   -8.473620   17.824460
  H     -2.553220   -8.658280   12.609270
  H     -4.140460   -6.995500   17.027510
  H     -4.350490   -9.207650   11.735650

 Total Charge           Charge          ....    0
 Multiplicity           Mult            ....    1
 Number of Electrons    NEL             ....  572
 Basis Dimension        Dim             .... 1216

ORBITAL ENERGIES
----------------

  NO   OCC          E(Eh)            E(eV)
   0   2.0000     -88.990089     -2421.5434
   1   2.0000     -88.989826     -2421.5363
   2   2.0000     -88.988425     -2421.4982
   3   2.0000     -88.987118     -2421.4626
   4   2.0000     -88.986438     -2421.4441
   5   2.0000     -88.984787     -2421.3991
   6   2.0000     -19.281312      -524.6712
   7   2.0000     -19.274671      -524.4905
   8   2.0000     -19.274482      -524.4853
   9   2.0000     -19.273447      -524.4571
  10   2.0000     -19.273174      -524.4497
  11   2.0000     -19.230894      -523.2992
  12   2.0000     -19.226762      -523.1868
  13   2.0000     -19.214054      -522.8410
  14   2.0000     -19.212433      -522.7969
  15   2.0000     -14.434391      -392.7798
  16   2.0000     -14.430620      -392.6771
  17   2.0000     -14.427240      -392.5852
  18   2.0000     -14.423693      -392.4886
  19   2.0000     -14.410560      -392.1313
  20   2.0000     -14.408715      -392.0811
  21   2.0000     -10.419602      -283.5318
  22   2.0000     -10.417924      -283.4861
  23   2.0000     -10.383127      -282.5392
  24   2.0000     -10.379240      -282.4335
  25   2.0000     -10.370402      -282.1930
  26   2.0000     -10.362965      -281.9906
  27   2.0000     -10.362733      -281.9843
  28   2.0000     -10.361639      -281.9545
  29   2.0000     -10.360923      -281.9350
  30   2.0000     -10.360569      -281.9254
  31   2.0000     -10.359063      -281.8844
  32   2.0000     -10.358051      -281.8569
  33   2.0000     -10.355631      -281.7911
  34   2.0000     -10.354950      -281.7725
  35   2.0000     -10.348099      -281.5861
  36   2.0000     -10.347967      -281.5825
  37   2.0000     -10.345522      -281.5160
  38   2.0000     -10.345084      -281.5040
  39   2.0000     -10.340250      -281.3725
  40   2.0000     -10.339806      -281.3604
  41   2.0000     -10.337482      -281.2972
  42   2.0000     -10.337322      -281.2928
  43   2.0000     -10.336425      -281.2684
  44   2.0000     -10.335420      -281.2411
  45   2.0000     -10.335059      -281.2313
  46   2.0000     -10.334948      -281.2282
  47   2.0000     -10.334792      -281.2240
  48   2.0000     -10.333985      -281.2020
  49   2.0000     -10.333977      -281.2018
  50   2.0000     -10.333008      -281.1754
  51   2.0000     -10.332940      -281.1736
  52   2.0000     -10.332707      -281.1673
  53   2.0000     -10.331614      -281.1375
  54   2.0000     -10.329020      -281.0669
  55   2.0000     -10.328648      -281.0568
  56   2.0000     -10.328646      -281.0568
  57   2.0000     -10.326410      -280.9959
  58   2.0000     -10.326353      -280.9943
  59   2.0000     -10.325667      -280.9757
  60   2.0000     -10.324298      -280.9384
  61   2.0000     -10.323846      -280.9261
  62   2.0000     -10.323690      -280.9219
  63   2.0000     -10.319032      -280.7951
  64   2.0000     -10.316824      -280.7350
  65   2.0000     -10.315939      -280.7110
  66   2.0000     -10.314189      -280.6633
  67   2.0000     -10.311500      -280.5902
  68   2.0000     -10.310079      -280.5515
  69   2.0000     -10.309143      -280.5260
  70   2.0000     -10.308653      -280.5127
  71   2.0000     -10.308376      -280.5052
  72   2.0000     -10.306883      -280.4645
  73   2.0000     -10.306629      -280.4576
  74   2.0000     -10.304848      -280.4092
  75   2.0000     -10.303398      -280.3697
  76   2.0000     -10.300797      -280.2989
  77   2.0000     -10.300328      -280.2862
  78   2.0000      -8.085166      -220.0086
  79   2.0000      -8.084946      -220.0026
  80   2.0000      -8.083456      -219.9620
  81   2.0000      -8.082679      -219.9409
  82   2.0000      -8.081905      -219.9198
  83   2.0000      -8.080059      -219.8696
  84   2.0000      -6.054539      -164.7524
  85   2.0000      -6.054329      -164.7467
  86   2.0000      -6.052821      -164.7056
  87   2.0000      -6.052051      -164.6847
  88   2.0000      -6.051437      -164.6680
  89   2.0000      -6.050437      -164.6408
  90   2.0000      -6.050296      -164.6369
  91   2.0000      -6.049553      -164.6167
  92   2.0000      -6.048710      -164.5938
  93   2.0000      -6.047915      -164.5721
  94   2.0000      -6.047356      -164.5569
  95   2.0000      -6.047042      -164.5484
  96   2.0000      -6.046801      -164.5418
  97   2.0000      -6.045532      -164.5073
  98   2.0000      -6.045378      -164.5031
  99   2.0000      -6.044608      -164.4821
 100   2.0000      -6.043448      -164.4506
 101   2.0000      -6.041657      -164.4018
 102   2.0000      -1.198426       -32.6108
 103   2.0000      -1.196786       -32.5662
 104   2.0000      -1.188853       -32.3503
 105   2.0000      -1.183021       -32.1916
 106   2.0000      -1.181179       -32.1415
 107   2.0000      -1.146650       -31.2019
 108   2.0000      -1.142386       -31.0859
 109   2.0000      -1.113713       -30.3057
 110   2.0000      -1.111983       -30.2586
 111   2.0000      -1.038819       -28.2677
 112   2.0000      -1.035663       -28.1818
 113   2.0000      -1.029464       -28.0131
 114   2.0000      -1.027023       -27.9467
 115   2.0000      -1.020385       -27.7661
 116   2.0000      -1.019902       -27.7529
 117   2.0000      -1.016759       -27.6674
 118   2.0000      -1.014715       -27.6118
 119   2.0000      -1.007957       -27.4279
 120   2.0000      -1.005448       -27.3596
 121   2.0000      -1.002666       -27.2839
 122   2.0000      -0.997269       -27.1371
 123   2.0000      -0.995228       -27.0815
 124   2.0000      -0.994094       -27.0507
 125   2.0000      -0.972319       -26.4581
 126   2.0000      -0.969909       -26.3926
 127   2.0000      -0.927039       -25.2260
 128   2.0000      -0.924903       -25.1679
 129   2.0000      -0.920457       -25.0469
 130   2.0000      -0.917717       -24.9723
 131   2.0000      -0.913136       -24.8477
 132   2.0000      -0.906041       -24.6546
 133   2.0000      -0.896405       -24.3924
 134   2.0000      -0.893992       -24.3268
 135   2.0000      -0.886878       -24.1332
 136   2.0000      -0.885864       -24.1056
 137   2.0000      -0.881033       -23.9741
 138   2.0000      -0.876734       -23.8572
 139   2.0000      -0.865841       -23.5607
 140   2.0000      -0.863566       -23.4988
 141   2.0000      -0.858661       -23.3654
 142   2.0000      -0.849318       -23.1111
 143   2.0000      -0.839071       -22.8323
 144   2.0000      -0.826442       -22.4886
 145   2.0000      -0.815550       -22.1923
 146   2.0000      -0.814505       -22.1638
 147   2.0000      -0.800193       -21.7744
 148   2.0000      -0.797681       -21.7060
 149   2.0000      -0.791770       -21.5452
 150   2.0000      -0.781196       -21.2574
 151   2.0000      -0.760432       -20.6924
 152   2.0000      -0.755507       -20.5584
 153   2.0000      -0.748335       -20.3632
 154   2.0000      -0.745347       -20.2819
 155   2.0000      -0.729812       -19.8592
 156   2.0000      -0.721379       -19.6297
 157   2.0000      -0.718239       -19.5443
 158   2.0000      -0.714147       -19.4329
 159   2.0000      -0.710256       -19.3270
 160   2.0000      -0.708832       -19.2883
 161   2.0000      -0.704537       -19.1714
 162   2.0000      -0.700959       -19.0741
 163   2.0000      -0.698054       -18.9950
 164   2.0000      -0.691370       -18.8131
 165   2.0000      -0.686092       -18.6695
 166   2.0000      -0.680943       -18.5294
 167   2.0000      -0.674845       -18.3635
 168   2.0000      -0.669987       -18.2313
 169   2.0000      -0.662865       -18.0375
 170   2.0000      -0.654953       -17.8222
 171   2.0000      -0.652857       -17.7651
 172   2.0000      -0.648126       -17.6364
 173   2.0000      -0.644671       -17.5424
 174   2.0000      -0.629703       -17.1351
 175   2.0000      -0.627663       -17.0796
 176   2.0000      -0.625250       -17.0139
 177   2.0000      -0.622811       -16.9475
 178   2.0000      -0.611042       -16.6273
 179   2.0000      -0.608130       -16.5481
 180   2.0000      -0.605248       -16.4696
 181   2.0000      -0.602399       -16.3921
 182   2.0000      -0.599010       -16.2999
 183   2.0000      -0.593770       -16.1573
 184   2.0000      -0.591127       -16.0854
 185   2.0000      -0.589934       -16.0529
 186   2.0000      -0.584590       -15.9075
 187   2.0000      -0.584258       -15.8985
 188   2.0000      -0.575702       -15.6656
 189   2.0000      -0.573247       -15.5989
 190   2.0000      -0.568970       -15.4825
 191   2.0000      -0.566698       -15.4206
 192   2.0000      -0.565052       -15.3759
 193   2.0000      -0.564148       -15.3513
 194   2.0000      -0.562903       -15.3174
 195   2.0000      -0.559161       -15.2155
 196   2.0000      -0.557187       -15.1618
 197   2.0000      -0.555954       -15.1283
 198   2.0000      -0.548070       -14.9138
 199   2.0000      -0.542995       -14.7757
 200   2.0000      -0.542118       -14.7518
 201   2.0000      -0.538018       -14.6402
 202   2.0000      -0.536198       -14.5907
 203   2.0000      -0.535606       -14.5746
 204   2.0000      -0.533753       -14.5242
 205   2.0000      -0.533406       -14.5147
 206   2.0000      -0.529759       -14.4155
 207   2.0000      -0.524329       -14.2677
 208   2.0000      -0.522411       -14.2155
 209   2.0000      -0.521691       -14.1959
 210   2.0000      -0.520872       -14.1736
 211   2.0000      -0.518818       -14.1178
 212   2.0000      -0.518566       -14.1109
 213   2.0000      -0.517075       -14.0703
 214   2.0000      -0.513976       -13.9860
 215   2.0000      -0.509370       -13.8607
 216   2.0000      -0.506293       -13.7769
 217   2.0000      -0.506216       -13.7748
 218   2.0000      -0.504325       -13.7234
 219   2.0000      -0.502684       -13.6787
 220   2.0000      -0.497185       -13.5291
 221   2.0000      -0.496180       -13.5017
 222   2.0000      -0.495291       -13.4776
 223   2.0000      -0.494184       -13.4474
 224   2.0000      -0.492809       -13.4100
 225   2.0000      -0.488512       -13.2931
 226   2.0000      -0.487174       -13.2567
 227   2.0000      -0.483772       -13.1641
 228   2.0000      -0.480437       -13.0733
 229   2.0000      -0.478913       -13.0319
 230   2.0000      -0.473695       -12.8899
 231   2.0000      -0.471867       -12.8401
 232   2.0000      -0.468529       -12.7493
 233   2.0000      -0.466688       -12.6992
 234   2.0000      -0.466037       -12.6815
 235   2.0000      -0.462842       -12.5946
 236   2.0000      -0.460879       -12.5411
 237   2.0000      -0.456854       -12.4316
 238   2.0000      -0.456559       -12.4236
 239   2.0000      -0.452964       -12.3258
 240   2.0000      -0.452630       -12.3167
 241   2.0000      -0.448361       -12.2005
 242   2.0000      -0.447941       -12.1891
 243   2.0000      -0.446311       -12.1447
 244   2.0000      -0.445680       -12.1276
 245   2.0000      -0.444135       -12.0855
 246   2.0000      -0.443104       -12.0575
 247   2.0000      -0.441494       -12.0136
 248   2.0000      -0.440387       -11.9836
 249   2.0000      -0.439636       -11.9631
 250   2.0000      -0.438046       -11.9198
 251   2.0000      -0.437287       -11.8992
 252   2.0000      -0.435820       -11.8593
 253   2.0000      -0.431654       -11.7459
 254   2.0000      -0.425400       -11.5757
 255   2.0000      -0.423400       -11.5213
 256   2.0000      -0.422767       -11.5041
 257   2.0000      -0.421039       -11.4570
 258   2.0000      -0.420049       -11.4301
 259   2.0000      -0.417167       -11.3517
 260   2.0000      -0.415107       -11.2956
 261   2.0000      -0.409385       -11.1399
 262   2.0000      -0.404524       -11.0077
 263   2.0000      -0.402618       -10.9558
 264   2.0000      -0.399209       -10.8630
 265   2.0000      -0.392369       -10.6769
 266   2.0000      -0.377252       -10.2655
 267   2.0000      -0.372953       -10.1486
 268   2.0000      -0.370562       -10.0835
 269   2.0000      -0.361306        -9.8316
 270   2.0000      -0.359663        -9.7869
 271   2.0000      -0.358700        -9.7607
 272   2.0000      -0.354509        -9.6467
 273   2.0000      -0.353096        -9.6082
 274   2.0000      -0.351222        -9.5572
 275   2.0000      -0.349776        -9.5179
 276   2.0000      -0.348725        -9.4893
 277   2.0000      -0.339346        -9.2341
 278   2.0000      -0.333868        -9.0850
 279   2.0000      -0.331257        -9.0140
 280   2.0000      -0.328146        -8.9293
 281   2.0000      -0.324797        -8.8382
 282   2.0000      -0.320719        -8.7272
 283   2.0000      -0.288921        -7.8620
 284   2.0000      -0.264645        -7.2014
 285   2.0000      -0.239870        -6.5272
 286   0.0000      -0.116720        -3.1761
 287   0.0000      -0.109714        -2.9855
 288   0.0000      -0.089163        -2.4263
 289   0.0000      -0.085080        -2.3152
 290   0.0000      -0.068759        -1.8710

MULLIKEN ATOMIC CHARGES
-----------------------
   0 C :   -0.085853
   1 C :    0.005699
   2 C :    0.179102
   3 O :   -0.147935
   4 O :   -0.144244
   5 C :   -0.076057
   6 C :   -0.158329
   7 N :    0.144156
   8 C :   -0.033365
   9 C :    0.011110
  10 C :    0.029060
  11 C :    0.239902
  12 C :   -0.308709
  13 C :   -0.175341
  14 N :    0.142121
  15 C :   -0.206944
  16 N :    0.187143
  17 C :   -0.149350
  18 C :    0.148508
  19 O :   -0.128725
  20 C :    0.055996
  21 C :   -0.068119
  22 C :   -0.004899
  23 C :    0.217666
  24 C :   -0.148174
  25 S :    0.172095
  26 C :   -0.057874
  27 C :   -0.120300
  28 C :    0.355467
  29 O :   -0.298077
  30 C :   -0.051625
  31 C :   -0.030890
  32 S :    0.171228
  33 C :   -0.022699
  34 C :   -0.071693
  35 C :    0.213359
  36 C :   -0.172635
  37 S :    0.152116
  38 C :   -0.046390
  39 C :   -0.127978
  40 C :    0.353442
  41 O :   -0.296197
  42 C :   -0.031635
  43 C :   -0.048176
  44 S :    0.158575
  45 C :   -0.004901
  46 C :   -0.071326
  47 C :    0.221191
  48 C :   -0.179472
  49 S :    0.157997
  50 C :   -0.024634
  51 C :   -0.129046
  52 C :    0.352900
  53 O :   -0.287948
  54 C :    0.022941
  55 C :   -0.082966
  56 S :    0.167104
  57 C :    0.057048
  58 C :   -0.153262
  59 C :    0.146429
  60 O :   -0.133812
  61 C :    0.013394
  62 C :    0.030136
  63 C :   -0.089511
  64 C :    0.008543
  65 C :   -0.078914
  66 C :   -0.039181
  67 C :   -0.155743
  68 N :    0.143630
  69 C :    0.177728
  70 O :   -0.149405
  71 O :   -0.145062
  72 C :    0.237442
  73 C :   -0.311557
  74 C :   -0.206532
  75 N :    0.174522
  76 C :   -0.174295
  77 N :    0.140490
  78 H :    0.007181
  79 H :    0.191921
  80 H :    0.018242
  81 H :    0.030747
  82 H :    0.002318
  83 H :    0.032983
  84 H :    0.036039
  85 H :   -0.008466
  86 H :   -0.004788
  87 H :    0.027599
  88 H :    0.032274
  89 H :   -0.017565
  90 H :   -0.014968
  91 H :    0.035804
  92 H :    0.035851
  93 H :   -0.003746
  94 H :    0.026367
  95 H :    0.006074
  96 H :    0.015784
  97 H :    0.191894
Sum of atomic charges:    0.0000000

LOEWDIN ATOMIC CHARGES
----------------------
   0 C :   -0.005690
   1 C :   -0.036747
   2 C :    0.079574
   3 O :   -0.120275
   4 O :   -0.015676
   5 C :   -0.026351
   6 C :   -0.034316
   7 N :   -0.024849
   8 C :    0.049201
   9 C :   -0.032108
  10 C :    0.003991
  11 C :    0.056901
  12 C :   -0.141322
  13 C :   -0.016682
  14 N :   -0.058300
  15 C :   -0.040316
  16 N :   -0.036438
  17 C :   -0.114040
  18 C :    0.082999
  19 O :   -0.131813
  20 C :    0.059002
  21 C :   -0.177776
  22 C :   -0.018006
  23 C :    0.023277
  24 C :   -0.199957
  25 S :    0.477865
  26 C :   -0.198518
  27 C :   -0.059718
  28 C :    0.109155
  29 O :   -0.094199
  30 C :   -0.057739
  31 C :   -0.165876
  32 S :    0.458510
  33 C :   -0.171781
  34 C :   -0.068722
  35 C :    0.036614
  36 C :   -0.244709
  37 S :    0.441076
  38 C :   -0.178332
  39 C :   -0.082592
  40 C :    0.108449
  41 O :   -0.091725
  42 C :   -0.035461
  43 C :   -0.192994
  44 S :    0.443332
  45 C :   -0.149075
  46 C :   -0.076628
  47 C :    0.054625
  48 C :   -0.259517
  49 S :    0.434632
  50 C :   -0.141975
  51 C :   -0.091811
  52 C :    0.109962
  53 O :   -0.083201
  54 C :    0.004573
  55 C :   -0.188289
  56 S :    0.476122
  57 C :    0.057048
  58 C :   -0.123025
  59 C :    0.081794
  60 O :   -0.137168
  61 C :   -0.031742
  62 C :    0.004330
  63 C :   -0.006727
  64 C :   -0.037876
  65 C :   -0.027663
  66 C :    0.048084
  67 C :   -0.034101
  68 N :   -0.026855
  69 C :    0.079630
  70 O :   -0.121589
  71 O :   -0.016427
  72 C :    0.056779
  73 C :   -0.147123
  74 C :   -0.038742
  75 N :   -0.043509
  76 C :   -0.016880
  77 N :   -0.062808
  78 H :    0.036292
  79 H :    0.099681
  80 H :    0.053644
  81 H :    0.054758
  82 H :    0.045045
  83 H :    0.037596
  84 H :    0.028361
  85 H :    0.030295
  86 H :    0.035314
  87 H :    0.035290
  88 H :    0.025606
  89 H :    0.033124
  90 H :    0.036728
  91 H :    0.038153
  92 H :    0.027817
  93 H :    0.039643
  94 H :    0.052782
  95 H :    0.035829
  96 H :    0.052792
  97 H :    0.099482

  Mayer bond orders larger than 0.100000
B(  0-C ,  1-C ) :   1.3241 B(  0-C , 10-C ) :   1.3884 B(  0-C , 78-H ) :   0.9709
B(  1-C ,  2-C ) :   0.8687 B(  1-C ,  5-C ) :   1.4002 B(  2-C ,  3-O ) :   2.1705
B(  2-C ,  4-O ) :   1.2560 B(  4-O , 79-H ) :   0.9444 B(  5-C ,  6-C ) :   1.0713
B(  5-C ,  8-C ) :   1.3598 B(  6-C ,  7-N ) :   3.0391 B(  8-C ,  9-C ) :   1.3641
B(  8-C , 80-H ) :   1.0154 B(  9-C , 10-C ) :   1.3487 B(  9-C , 18-C ) :   0.8981
B( 10-C , 11-C ) :   0.9925 B( 11-C , 12-C ) :   1.6454 B( 11-C , 17-C ) :   1.0639
B( 12-C , 13-C ) :   1.1410 B( 12-C , 15-C ) :   1.1484 B( 13-C , 14-N ) :   2.9900
B( 15-C , 16-N ) :   3.0297 B( 17-C , 18-C ) :   0.9578 B( 17-C , 20-C ) :   1.5620
B( 18-C , 19-O ) :   2.2765 B( 20-C , 21-C ) :   1.2139 B( 20-C , 81-H ) :   0.9484
B( 21-C , 22-C ) :   1.3476 B( 21-C , 25-S ) :   1.0812 B( 22-C , 23-C ) :   1.3129
B( 22-C , 82-H ) :   1.0143 B( 23-C , 24-C ) :   1.3900 B( 23-C , 29-O ) :   1.1553
B( 24-C , 25-S ) :   1.1287 B( 24-C , 26-C ) :   1.1752 B( 26-C , 27-C ) :   1.5156
B( 26-C , 32-S ) :   1.1023 B( 27-C , 28-C ) :   1.0242 B( 27-C , 30-C ) :   1.3039
B( 28-C , 29-O ) :   0.9488 B( 28-C , 83-H ) :   0.9350 B( 28-C , 84-H ) :   0.9320
B( 30-C , 31-C ) :   1.4569 B( 30-C , 85-H ) :   0.9986 B( 31-C , 32-S ) :   1.1327
B( 31-C , 33-C ) :   1.1811 B( 33-C , 34-C ) :   1.4404 B( 33-C , 37-S ) :   1.1189
B( 34-C , 35-C ) :   1.2739 B( 34-C , 86-H ) :   1.0068 B( 35-C , 36-C ) :   1.4448
B( 35-C , 41-O ) :   1.1668 B( 36-C , 37-S ) :   1.0734 B( 36-C , 38-C ) :   1.1592
B( 38-C , 39-C ) :   1.5171 B( 38-C , 43-C ) :   0.1025 B( 38-C , 44-S ) :   1.1281
B( 39-C , 40-C ) :   1.0227 B( 39-C , 42-C ) :   1.3024 B( 40-C , 41-O ) :   0.9462
B( 40-C , 87-H ) :   0.9374 B( 40-C , 88-H ) :   0.9337 B( 42-C , 43-C ) :   1.4829
B( 42-C , 89-H ) :   1.0003 B( 43-C , 44-S ) :   1.1004 B( 43-C , 45-C ) :   1.1458
B( 45-C , 46-C ) :   1.4560 B( 45-C , 49-S ) :   1.1240 B( 46-C , 47-C ) :   1.2758
B( 46-C , 90-H ) :   1.0113 B( 47-C , 48-C ) :   1.4053 B( 47-C , 53-O ) :   1.1875
B( 48-C , 49-S ) :   1.0552 B( 48-C , 50-C ) :   1.2171 B( 50-C , 51-C ) :   1.4363
B( 50-C , 56-S ) :   1.1609 B( 51-C , 52-C ) :   1.0195 B( 51-C , 54-C ) :   1.3628
B( 52-C , 53-O ) :   0.9370 B( 52-C , 91-H ) :   0.9372 B( 52-C , 92-H ) :   0.9375
B( 54-C , 55-C ) :   1.3533 B( 54-C , 93-H ) :   1.0060 B( 55-C , 56-S ) :   1.0697
B( 55-C , 57-C ) :   1.2333 B( 57-C , 58-C ) :   1.5324 B( 57-C , 94-H ) :   0.9495
B( 58-C , 59-C ) :   0.9643 B( 58-C , 72-C ) :   1.0761 B( 59-C , 60-O ) :   2.2739
B( 59-C , 61-C ) :   0.8971 B( 61-C , 62-C ) :   1.3485 B( 61-C , 66-C ) :   1.3630
B( 62-C , 63-C ) :   1.3911 B( 62-C , 72-C ) :   0.9920 B( 63-C , 64-C ) :   1.3186
B( 63-C , 95-H ) :   0.9703 B( 64-C , 65-C ) :   1.4005 B( 64-C , 69-C ) :   0.8697
B( 65-C , 66-C ) :   1.3600 B( 65-C , 67-C ) :   1.0707 B( 66-C , 96-H ) :   1.0160
B( 67-C , 68-N ) :   3.0394 B( 69-C , 70-O ) :   2.1704 B( 69-C , 71-O ) :   1.2557
B( 71-O , 97-H ) :   0.9444 B( 72-C , 73-C ) :   1.6331 B( 73-C , 74-C ) :   1.1517
B( 73-C , 76-C ) :   1.1399 B( 74-C , 75-N ) :   3.0264 B( 76-C , 77-N ) :   2.9883

-----------------------------------------------------------------------------
         ABSORPTION SPECTRUM VIA TRANSITION ELECTRIC DIPOLE MOMENTS
-----------------------------------------------------------------------------
State   Energy  Wavelength   fosc         T2         TX        TY        TZ
        (cm-1)    (nm)                  (au**2)     (au)      (au)      (au)
-----------------------------------------------------------------------------
   0   13068.8    765.2   1.721274659  43.35997   3.48540  -0.16643  -5.58429
   1   15106.1    662.0   0.250156057   5.45174   1.64250   0.80166   1.45303
   2   20053.7    498.7   0.623479693  10.23536   0.58774   0.32830   3.12764
   3   20779.4    481.2   0.077104226   1.22158   0.07238   0.28271   1.06603
   4   21462.6    465.9   0.155498793   2.38518  -1.44056  -0.15872  -0.53364
   5   22151.6    451.4   0.163208995   2.42557   1.54880  -0.16355  -0.00727
   6   24400.1    409.8   0.218025904   2.94165   0.86431  -0.35256   1.43886
   7   26641.9    375.3   0.027917553   0.34497   0.25067   0.12629   0.51594
   8   27211.0    367.5   0.032714853   0.39580   0.56250  -0.24671  -0.13612
   9   28312.3    353.2   0.008657151   0.10066   0.05397   0.25955   0.17432
  10   28412.5    352.0   0.117860636   1.36564   1.09927  -0.13926  -0.37127
  11   28665.1    348.9   0.080962506   0.92984  -0.22702  -0.45647  -0.81850
  12   28909.0    345.9   0.057259074   0.65206  -0.74511  -0.08247  -0.30011
  13   29331.7    340.9   0.093803536   1.05283   0.58911  -0.76663  -0.34359
  14   30155.6    331.6   0.090270757   0.98550  -0.54719   0.49090   0.66716
  15   30708.5    325.6   0.035525805   0.38086   0.53575   0.03325  -0.30450
  16   31149.0    321.0   0.039678448   0.41936   0.53472  -0.20329  -0.30349
  17   31192.0    320.6   0.057745987   0.60947  -0.14874  -0.46371  -0.61018
  18   31254.0    320.0   0.006435487   0.06779  -0.02331   0.09470   0.24140
  19   31779.9    314.7   0.082424792   0.85385  -0.18745  -0.64327  -0.63633
  20   32213.1    310.4   0.037456530   0.38280   0.49304   0.34084   0.15343
  21   32323.8    309.4   0.205936026   2.09742  -0.96334   1.03617   0.30942
  22   32817.9    304.7   0.118745543   1.19119   0.91798  -0.45284   0.37874
  23   32952.2    303.5   0.069700292   0.69635  -0.58840   0.37304   0.45932
  24   33613.2    297.5   0.005260071   0.05152  -0.15128   0.14344   0.08976
  25   33703.9    296.7   0.009182198   0.08969   0.04646  -0.27330   0.11332
  26   34256.0    291.9   0.046700267   0.44881   0.02644   0.05083   0.66748
  27   34759.8    287.7   0.266526203   2.52429  -0.90445   1.03146   0.80147
  28   34902.3    286.5   0.095082407   0.89686   0.02099  -0.74036  -0.59015
  29   35398.9    282.5   0.219472478   2.04111  -1.18416   0.02465  -0.79892
  30   35448.7    282.1   0.105624480   0.98094   0.04019   0.76490   0.62789
  31   35965.7    278.0   0.386301760   3.53601  -1.02384   1.40293   0.72081
  32   36086.3    277.1   0.069584893   0.63482   0.63889  -0.46100  -0.11880
  33   36158.4    276.6   0.054815137   0.49908  -0.44630   0.23493  -0.49467
  34   36912.0    270.9   0.023576810   0.21028  -0.41648   0.00630   0.19178
  35   37059.6    269.8   0.082148572   0.72975  -0.05239  -0.28254  -0.80447
  36   37225.3    268.6   0.066623327   0.58920   0.65552  -0.14597   0.37174
  37   37559.8    266.2   0.044285355   0.38816  -0.52791   0.32914   0.03382
  38   37816.9    264.4   0.092016806   0.80104  -0.11566   0.63496   0.62007
  39   38241.4    261.5   0.054145359   0.46613  -0.42744  -0.40966  -0.34000
  40   38430.7    260.2   0.072680383   0.62261  -0.73483   0.20595   0.20053
  41   38658.6    258.7   0.066093618   0.56284  -0.27208   0.40599   0.56920
  42   38761.2    258.0   0.045210974   0.38399  -0.58722   0.07935  -0.18130
  43   39323.1    254.3   0.019438994   0.16274   0.14219   0.15796   0.34289
  44   39497.8    253.2   0.017170461   0.14311  -0.13796   0.17450   0.30600
  45   39758.7    251.5   0.008979277   0.07435  -0.13638   0.21298  -0.10195
  46   39783.9    251.4   0.035544773   0.29413   0.40423  -0.35128  -0.08566
  47   39878.6    250.8   0.016207981   0.13380  -0.36064   0.00006  -0.06116
  48   39965.3    250.2   0.034828633   0.28690  -0.07870   0.42143   0.32110
  49   40149.3    249.1   0.049520570   0.40605   0.54619  -0.18326   0.27230

FINAL SINGLE POINT ENERGY     -5573.971377766152

DIPOLE MOMENT
-------------
                                X             Y             Z
Electronic contribution:     -5.66476      -1.21783     -11.29077
Nuclear contribution   :      8.18937       3.10287      14.65655
                        -----------------------------------------
Total Dipole Moment    :      2.52460       1.88504       3.36578
                        -----------------------------------------
Magnitude (a.u.)       :      4.61037
Magnitude (Debye)      :     11.71862

Rotational constants in cm-1:     0.001232     0.000162     0.000150
Rotational constants in MHz :    36.936159     4.849712     4.488040

                             ****ORCA TERMINATED NORMALLY****
TOTAL RUN TIME: 0 days 0 hours 10 minutes 30 seconds 355 msec
