                         Program Version 4.2.0 -  RELEASE  -
|  1> # ORCA input file
|  2> # SCF done       -205.301442124343          0.000418863785
|  3> ! CAM-B3LYP def2-SVP def2/J RIJCOSX Grid4 TightSCF
|  4> %maxcore 5000
|  5> %tddft
|  6>     Mode sTDDFT
|  7>     Ethresh 5.0
|  8>     maxcore 5000
|  9> end
| 10>
| 11> %pal
| 12>   nprocs 6
| 13>   end
| 14> * xyz 0 1
| 15>    C       10.64185        -2.11630        -3.83184
| 16>    C       11.63114        -1.86347        -4.78127
| 17>    C       12.85350        -1.10293        -4.41015
| 18>    O       13.69984        -0.75448        -5.19082
| 19>    O       12.92345        -0.84105        -3.10084
| 20>    C       11.49161        -2.31310        -6.10496
| 21>    C       12.47783        -2.07398        -7.09530
| 22>    N       13.19937        -1.96084        -7.97809
| 23>    C       10.35831        -3.03945        -6.48713
| 24>    C        9.39440        -3.29369        -5.53665
| 25>    C        9.52066        -2.83092        -4.21267
| 26>    C        8.32562        -3.22338        -3.46526
| 27>    C        7.85558        -2.59159        -2.34338
| 28>    C        8.57264        -1.60474        -1.63836
| 29>    N        9.12539        -0.80722        -1.02534
| 30>    C        6.54777        -2.78536        -1.84996
| 31>    N        5.47226        -2.87924        -1.46120
| 32>    C        7.59337        -4.15398        -4.29124
| 33>    C        8.13491        -4.06857        -5.66960
| 34>    O        7.67876        -4.56953        -6.67048
| 35>    C        6.64776        -5.09922        -4.00427
| 36>    C        6.32215        -5.70964        -2.78046
| 37>    C        5.27063        -6.59766        -2.58153
| 38>    C        5.25881        -7.16330        -1.31205
| 39>    C        6.32085        -6.71831        -0.51453
| 40>    S        7.32553        -5.60357        -1.34989
| 41>    C        6.40151        -7.16331         0.81910
| 42>    C        5.52252        -8.14848         1.25201
| 43>    C        4.60996        -8.81165         0.26452
| 44>    O        4.30726        -8.01166        -0.87400
| 45>    C        5.65306        -8.42382         2.60826
| 46>    C        6.62965        -7.65895         3.22621
| 47>    S        7.40061        -6.57513         2.10019
| 48>    C        6.99716        -7.68016         4.59194
| 49>    C        7.97237        -6.93977         5.23263
| 50>    C        8.03435        -7.19841         6.60605
| 51>    C        7.09743        -8.14234         7.01740
| 52>    S        6.14411        -8.72385         5.70113
| 53>    C        7.04084        -8.51114         8.37634
| 54>    C        7.86268        -7.86789         9.29312
| 55>    C        8.73987        -6.73431         8.84586
| 56>    O        8.93777        -6.63525         7.43406
| 57>    C        7.69077        -8.34717        10.58866
| 58>    C        6.72965        -9.34235        10.67642
| 59>    S        6.04658        -9.70199         9.10759
| 60>    C        6.21653       -10.01457        11.81873
| 61>    C        5.10784       -10.82455        11.70963
| 62>    C        4.46560       -11.45823        12.76141
| 63>    C        5.07024       -11.50097        14.09412
| 64>    C        6.16453       -10.78184        14.43439
| 65>    S        6.99959        -9.72913        13.36049
| 66>    C        4.26086       -12.40511        14.84020
| 67>    C        3.21272       -12.87366        14.04475
| 68>    C        2.36897       -13.76228        14.74392
| 69>    C        2.79089       -13.94700        16.02299
| 70>    S        4.21295       -13.05029        16.43234
| 71>    C        3.29225       -12.25348        12.74636
| 72>    C        2.38732       -12.38467        11.67929
| 73>    C        2.30178       -11.45497        10.67002
| 74>    C        1.62847       -11.62767         9.45882
| 75>    C        1.74664       -10.73500         8.40893
| 76>    C        1.15847       -10.85530         7.09513
| 77>    C        0.25885       -11.80384         6.67048
| 78>    C       -0.27055       -11.85935         5.36603
| 79>    N       -0.73206       -11.95835         4.31872
| 80>    C       -0.27077       -12.84199         7.46222
| 81>    N       -0.75026       -13.71361         8.03731
| 82>    C        1.67719        -9.76534         6.26823
| 83>    C        2.51799        -8.95806         7.06938
| 84>    C        2.60069        -9.53598         8.42455
| 85>    O        3.29168        -9.09555         9.33000
| 86>    C        3.15581        -7.84079         6.59195
| 87>    C        2.97350        -7.51114         5.24453
| 88>    C        2.14716        -8.33251         4.44556
| 89>    C        1.48646        -9.45443         4.93536
| 90>    S        2.07913        -7.75713         2.80471
| 91>    C        3.15103        -6.44196         3.21110
| 92>    C        3.53594        -6.43165         4.50924
| 93>   Br        3.66207        -5.21377         1.88201
| 94>    H       10.77743        -1.76104        -2.82331
| 95>    H       13.72652        -0.33341        -2.90477
| 96>    H       10.24389        -3.39349        -7.50048
| 97>    H        6.14980        -5.52037        -4.87277
| 98>    H        4.53003        -6.80605        -3.33088
| 99>    H        3.64487        -9.05143         0.71951
|100>    H        5.07163        -9.75324        -0.08090
|101>    H        5.07017        -9.15475         3.14057
|102>    H        8.61258        -6.24219         4.72526
|103>    H        9.74258        -6.82521         9.27700
|104>    H        8.30624        -5.78137         9.19362
|105>    H        8.22264        -7.97528        11.44626
|106>    H        4.72085       -10.96236        10.71132
|107>    H        6.58684       -10.79819        15.42654
|108>    H        1.50131       -14.24196        14.32924
|109>    H        2.34793       -14.56790        16.77691
|110>    H        1.73639       -13.25067        11.66901
|111>    H        2.81007       -10.51437        10.80431
|112>    H        1.05294       -12.53317         9.31815
|113>    H        3.77853        -7.24074         7.23677
|114>    H        0.86256       -10.04166         4.28266
|115>    H        4.19251        -5.69334         4.93218
|116> *
|117>
|118>                          ****END OF INPUT****

CARTESIAN COORDINATES (ANGSTROEM)
---------------------------------
  C     10.641850   -2.116300   -3.831840
  C     11.631140   -1.863470   -4.781270
  C     12.853500   -1.102930   -4.410150
  O     13.699840   -0.754480   -5.190820
  O     12.923450   -0.841050   -3.100840
  C     11.491610   -2.313100   -6.104960
  C     12.477830   -2.073980   -7.095300
  N     13.199370   -1.960840   -7.978090
  C     10.358310   -3.039450   -6.487130
  C      9.394400   -3.293690   -5.536650
  C      9.520660   -2.830920   -4.212670
  C      8.325620   -3.223380   -3.465260
  C      7.855580   -2.591590   -2.343380
  C      8.572640   -1.604740   -1.638360
  N      9.125390   -0.807220   -1.025340
  C      6.547770   -2.785360   -1.849960
  N      5.472260   -2.879240   -1.461200
  C      7.593370   -4.153980   -4.291240
  C      8.134910   -4.068570   -5.669600
  O      7.678760   -4.569530   -6.670480
  C      6.647760   -5.099220   -4.004270
  C      6.322150   -5.709640   -2.780460
  C      5.270630   -6.597660   -2.581530
  C      5.258810   -7.163300   -1.312050
  C      6.320850   -6.718310   -0.514530
  S      7.325530   -5.603570   -1.349890
  C      6.401510   -7.163310    0.819100
  C      5.522520   -8.148480    1.252010
  C      4.609960   -8.811650    0.264520
  O      4.307260   -8.011660   -0.874000
  C      5.653060   -8.423820    2.608260
  C      6.629650   -7.658950    3.226210
  S      7.400610   -6.575130    2.100190
  C      6.997160   -7.680160    4.591940
  C      7.972370   -6.939770    5.232630
  C      8.034350   -7.198410    6.606050
  C      7.097430   -8.142340    7.017400
  S      6.144110   -8.723850    5.701130
  C      7.040840   -8.511140    8.376340
  C      7.862680   -7.867890    9.293120
  C      8.739870   -6.734310    8.845860
  O      8.937770   -6.635250    7.434060
  C      7.690770   -8.347170   10.588660
  C      6.729650   -9.342350   10.676420
  S      6.046580   -9.701990    9.107590
  C      6.216530  -10.014570   11.818730
  C      5.107840  -10.824550   11.709630
  C      4.465600  -11.458230   12.761410
  C      5.070240  -11.500970   14.094120
  C      6.164530  -10.781840   14.434390
  S      6.999590   -9.729130   13.360490
  C      4.260860  -12.405110   14.840200
  C      3.212720  -12.873660   14.044750
  C      2.368970  -13.762280   14.743920
  C      2.790890  -13.947000   16.022990
  S      4.212950  -13.050290   16.432340
  C      3.292250  -12.253480   12.746360
  C      2.387320  -12.384670   11.679290
  C      2.301780  -11.454970   10.670020
  C      1.628470  -11.627670    9.458820
  C      1.746640  -10.735000    8.408930
  C      1.158470  -10.855300    7.095130
  C      0.258850  -11.803840    6.670480
  C     -0.270550  -11.859350    5.366030
  N     -0.732060  -11.958350    4.318720
  C     -0.270770  -12.841990    7.462220
  N     -0.750260  -13.713610    8.037310
  C      1.677190   -9.765340    6.268230
  C      2.517990   -8.958060    7.069380
  C      2.600690   -9.535980    8.424550
  O      3.291680   -9.095550    9.330000
  C      3.155810   -7.840790    6.591950
  C      2.973500   -7.511140    5.244530
  C      2.147160   -8.332510    4.445560
  C      1.486460   -9.454430    4.935360
  S      2.079130   -7.757130    2.804710
  C      3.151030   -6.441960    3.211100
  C      3.535940   -6.431650    4.509240
  Br     3.662070   -5.213770    1.882010
  H     10.777430   -1.761040   -2.823310
  H     13.726520   -0.333410   -2.904770
  H     10.243890   -3.393490   -7.500480
  H      6.149800   -5.520370   -4.872770
  H      4.530030   -6.806050   -3.330880
  H      3.644870   -9.051430    0.719510
  H      5.071630   -9.753240   -0.080900
  H      5.070170   -9.154750    3.140570
  H      8.612580   -6.242190    4.725260
  H      9.742580   -6.825210    9.277000
  H      8.306240   -5.781370    9.193620
  H      8.222640   -7.975280   11.446260
  H      4.720850  -10.962360   10.711320
  H      6.586840  -10.798190   15.426540
  H      1.501310  -14.241960   14.329240
  H      2.347930  -14.567900   16.776910
  H      1.736390  -13.250670   11.669010
  H      2.810070  -10.514370   10.804310
  H      1.052940  -12.533170    9.318150
  H      3.778530   -7.240740    7.236770
  H      0.862560  -10.041660    4.282660
  H      4.192510   -5.693340    4.932180

 Total Charge           Charge          ....    0
 Multiplicity           Mult            ....    1
 Number of Electrons    NEL             ....  612
 Basis Dimension        Dim             .... 1262

ORBITAL ENERGIES
----------------

  NO   OCC          E(Eh)            E(eV)
   0   2.0000    -482.884238    -13139.9481
   1   2.0000     -88.994732     -2421.6698
   2   2.0000     -88.982737     -2421.3434
   3   2.0000     -88.982130     -2421.3269
   4   2.0000     -88.979094     -2421.2442
   5   2.0000     -88.977938     -2421.2128
   6   2.0000     -88.977581     -2421.2031
   7   2.0000     -88.966148     -2420.8920
   8   2.0000     -62.561454     -1702.3837
   9   2.0000     -56.395469     -1534.5987
  10   2.0000     -56.392690     -1534.5231
  11   2.0000     -56.392639     -1534.5217
  12   2.0000     -19.276802      -524.5485
  13   2.0000     -19.267382      -524.2921
  14   2.0000     -19.266260      -524.2616
  15   2.0000     -19.223485      -523.0976
  16   2.0000     -19.218962      -522.9745
  17   2.0000     -19.212178      -522.7899
  18   2.0000     -14.422267      -392.4498
  19   2.0000     -14.420212      -392.3939
  20   2.0000     -14.408477      -392.0746
  21   2.0000     -14.407681      -392.0529
  22   2.0000     -14.404253      -391.9596
  23   2.0000     -10.420975      -283.5692
  24   2.0000     -10.375478      -282.3311
  25   2.0000     -10.360304      -281.9182
  26   2.0000     -10.358558      -281.8707
  27   2.0000     -10.355325      -281.7827
  28   2.0000     -10.355058      -281.7755
  29   2.0000     -10.353414      -281.7307
  30   2.0000     -10.351931      -281.6904
  31   2.0000     -10.350650      -281.6555
  32   2.0000     -10.349695      -281.6295
  33   2.0000     -10.345354      -281.5114
  34   2.0000     -10.342464      -281.4327
  35   2.0000     -10.341681      -281.4114
  36   2.0000     -10.333669      -281.1934
  37   2.0000     -10.332090      -281.1505
  38   2.0000     -10.331789      -281.1423
  39   2.0000     -10.331597      -281.1370
  40   2.0000     -10.330756      -281.1141
  41   2.0000     -10.328905      -281.0638
  42   2.0000     -10.326746      -281.0050
  43   2.0000     -10.326474      -280.9976
  44   2.0000     -10.326236      -280.9912
  45   2.0000     -10.325239      -280.9640
  46   2.0000     -10.325172      -280.9622
  47   2.0000     -10.324585      -280.9462
  48   2.0000     -10.324402      -280.9413
  49   2.0000     -10.324370      -280.9404
  50   2.0000     -10.321913      -280.8735
  51   2.0000     -10.317945      -280.7656
  52   2.0000     -10.316066      -280.7144
  53   2.0000     -10.315571      -280.7010
  54   2.0000     -10.314294      -280.6662
  55   2.0000     -10.312059      -280.6054
  56   2.0000     -10.311697      -280.5955
  57   2.0000     -10.311612      -280.5932
  58   2.0000     -10.307606      -280.4842
  59   2.0000     -10.305922      -280.4384
  60   2.0000     -10.305775      -280.4344
  61   2.0000     -10.305514      -280.4273
  62   2.0000     -10.305196      -280.4186
  63   2.0000     -10.304866      -280.4097
  64   2.0000     -10.304481      -280.3992
  65   2.0000     -10.304413      -280.3973
  66   2.0000     -10.304308      -280.3945
  67   2.0000     -10.303807      -280.3808
  68   2.0000     -10.303242      -280.3655
  69   2.0000     -10.301226      -280.3106
  70   2.0000     -10.299574      -280.2657
  71   2.0000     -10.298865      -280.2464
  72   2.0000     -10.298588      -280.2388
  73   2.0000     -10.298358      -280.2326
  74   2.0000     -10.297861      -280.2190
  75   2.0000     -10.296330      -280.1774
  76   2.0000     -10.294948      -280.1398
  77   2.0000     -10.287945      -279.9492
  78   2.0000     -10.286700      -279.9153
  79   2.0000     -10.285616      -279.8858
  80   2.0000     -10.285263      -279.8762
  81   2.0000     -10.283530      -279.8291
  82   2.0000     -10.271197      -279.4935
  83   2.0000      -8.790685      -239.2067
  84   2.0000      -8.089761      -220.1336
  85   2.0000      -8.077579      -219.8021
  86   2.0000      -8.077368      -219.7963
  87   2.0000      -8.073535      -219.6921
  88   2.0000      -8.073390      -219.6881
  89   2.0000      -8.072174      -219.6550
  90   2.0000      -8.061613      -219.3676
  91   2.0000      -6.627065      -180.3316
  92   2.0000      -6.612357      -179.9314
  93   2.0000      -6.612172      -179.9263
  94   2.0000      -6.059262      -164.8809
  95   2.0000      -6.054725      -164.7574
  96   2.0000      -6.051836      -164.6788
  97   2.0000      -6.046959      -164.5461
  98   2.0000      -6.046705      -164.5392
  99   2.0000      -6.043096      -164.4410
 100   2.0000      -6.043016      -164.4388
 101   2.0000      -6.042921      -164.4362
 102   2.0000      -6.042680      -164.4297
 103   2.0000      -6.041515      -164.3980
 104   2.0000      -6.039439      -164.3415
 105   2.0000      -6.039294      -164.3375
 106   2.0000      -6.039010      -164.3298
 107   2.0000      -6.038807      -164.3243
 108   2.0000      -6.037333      -164.2842
 109   2.0000      -6.035274      -164.2281
 110   2.0000      -6.034698      -164.2125
 111   2.0000      -6.034263      -164.2007
 112   2.0000      -6.031057      -164.1134
 113   2.0000      -6.026791      -163.9973
 114   2.0000      -6.023628      -163.9112
 115   2.0000      -2.742856       -74.6369
 116   2.0000      -2.738815       -74.5269
 117   2.0000      -2.738651       -74.5225
 118   2.0000      -2.726981       -74.2049
 119   2.0000      -2.726958       -74.2043
 120   2.0000      -1.205856       -32.8130
 121   2.0000      -1.175167       -31.9779
 122   2.0000      -1.173413       -31.9302
 123   2.0000      -1.138982       -30.9933
 124   2.0000      -1.124844       -30.6086
 125   2.0000      -1.110387       -30.2152
 126   2.0000      -1.029295       -28.0086
 127   2.0000      -1.023217       -27.8431
 128   2.0000      -1.021167       -27.7874
 129   2.0000      -1.019165       -27.7329
 130   2.0000      -1.012438       -27.5498
 131   2.0000      -1.010902       -27.5080
 132   2.0000      -1.007944       -27.4276
 133   2.0000      -1.005798       -27.3691
 134   2.0000      -0.998780       -27.1782
 135   2.0000      -0.992419       -27.0051
 136   2.0000      -0.990102       -26.9420
 137   2.0000      -0.987148       -26.8617
 138   2.0000      -0.984199       -26.7814
 139   2.0000      -0.980201       -26.6726
 140   2.0000      -0.964948       -26.2576
 141   2.0000      -0.944467       -25.7002
 142   2.0000      -0.938189       -25.5294
 143   2.0000      -0.920770       -25.0554
 144   2.0000      -0.916131       -24.9292
 145   2.0000      -0.912558       -24.8320
 146   2.0000      -0.906223       -24.6596
 147   2.0000      -0.903835       -24.5946
 148   2.0000      -0.901088       -24.5199
 149   2.0000      -0.888554       -24.1788
 150   2.0000      -0.883873       -24.0514
 151   2.0000      -0.881337       -23.9824
 152   2.0000      -0.877477       -23.8774
 153   2.0000      -0.873586       -23.7715
 154   2.0000      -0.871313       -23.7096
 155   2.0000      -0.860133       -23.4054
 156   2.0000      -0.855661       -23.2837
 157   2.0000      -0.853968       -23.2377
 158   2.0000      -0.839878       -22.8542
 159   2.0000      -0.833317       -22.6757
 160   2.0000      -0.827360       -22.5136
 161   2.0000      -0.826563       -22.4919
 162   2.0000      -0.811575       -22.0841
 163   2.0000      -0.807140       -21.9634
 164   2.0000      -0.800358       -21.7788
 165   2.0000      -0.794569       -21.6213
 166   2.0000      -0.780834       -21.2476
 167   2.0000      -0.769973       -20.9520
 168   2.0000      -0.754973       -20.5439
 169   2.0000      -0.753396       -20.5009
 170   2.0000      -0.748534       -20.3686
 171   2.0000      -0.744965       -20.2715
 172   2.0000      -0.731714       -19.9110
 173   2.0000      -0.720887       -19.6163
 174   2.0000      -0.713097       -19.4044
 175   2.0000      -0.706076       -19.2133
 176   2.0000      -0.701538       -19.0898
 177   2.0000      -0.696513       -18.9531
 178   2.0000      -0.688585       -18.7374
 179   2.0000      -0.686270       -18.6744
 180   2.0000      -0.683317       -18.5940
 181   2.0000      -0.679742       -18.4967
 182   2.0000      -0.672509       -18.2999
 183   2.0000      -0.667650       -18.1677
 184   2.0000      -0.664759       -18.0890
 185   2.0000      -0.659399       -17.9431
 186   2.0000      -0.654302       -17.8045
 187   2.0000      -0.651122       -17.7179
 188   2.0000      -0.643020       -17.4975
 189   2.0000      -0.641061       -17.4441
 190   2.0000      -0.628876       -17.1126
 191   2.0000      -0.626700       -17.0534
 192   2.0000      -0.620667       -16.8892
 193   2.0000      -0.619937       -16.8693
 194   2.0000      -0.618426       -16.8282
 195   2.0000      -0.607963       -16.5435
 196   2.0000      -0.601921       -16.3791
 197   2.0000      -0.600821       -16.3492
 198   2.0000      -0.594793       -16.1851
 199   2.0000      -0.593300       -16.1445
 200   2.0000      -0.591555       -16.0970
 201   2.0000      -0.583473       -15.8771
 202   2.0000      -0.582472       -15.8499
 203   2.0000      -0.580657       -15.8005
 204   2.0000      -0.576695       -15.6927
 205   2.0000      -0.571395       -15.5484
 206   2.0000      -0.568730       -15.4759
 207   2.0000      -0.566993       -15.4287
 208   2.0000      -0.563799       -15.3418
 209   2.0000      -0.561402       -15.2765
 210   2.0000      -0.558651       -15.2017
 211   2.0000      -0.554464       -15.0877
 212   2.0000      -0.552067       -15.0225
 213   2.0000      -0.549168       -14.9436
 214   2.0000      -0.547240       -14.8912
 215   2.0000      -0.541395       -14.7321
 216   2.0000      -0.539637       -14.6843
 217   2.0000      -0.538525       -14.6540
 218   2.0000      -0.537596       -14.6287
 219   2.0000      -0.530236       -14.4284
 220   2.0000      -0.527695       -14.3593
 221   2.0000      -0.526691       -14.3320
 222   2.0000      -0.525951       -14.3118
 223   2.0000      -0.524821       -14.2811
 224   2.0000      -0.521538       -14.1918
 225   2.0000      -0.520742       -14.1701
 226   2.0000      -0.519556       -14.1378
 227   2.0000      -0.514158       -13.9909
 228   2.0000      -0.511028       -13.9058
 229   2.0000      -0.509802       -13.8724
 230   2.0000      -0.505168       -13.7463
 231   2.0000      -0.504444       -13.7266
 232   2.0000      -0.500599       -13.6220
 233   2.0000      -0.499554       -13.5936
 234   2.0000      -0.496685       -13.5155
 235   2.0000      -0.496095       -13.4994
 236   2.0000      -0.494819       -13.4647
 237   2.0000      -0.491398       -13.3716
 238   2.0000      -0.490475       -13.3465
 239   2.0000      -0.489153       -13.3105
 240   2.0000      -0.486131       -13.2283
 241   2.0000      -0.482414       -13.1271
 242   2.0000      -0.481910       -13.1134
 243   2.0000      -0.479775       -13.0553
 244   2.0000      -0.475527       -12.9397
 245   2.0000      -0.472534       -12.8583
 246   2.0000      -0.471062       -12.8182
 247   2.0000      -0.469981       -12.7888
 248   2.0000      -0.464248       -12.6328
 249   2.0000      -0.463502       -12.6125
 250   2.0000      -0.457739       -12.4557
 251   2.0000      -0.457002       -12.4356
 252   2.0000      -0.454672       -12.3722
 253   2.0000      -0.452962       -12.3257
 254   2.0000      -0.452030       -12.3004
 255   2.0000      -0.449702       -12.2370
 256   2.0000      -0.448257       -12.1977
 257   2.0000      -0.445078       -12.1112
 258   2.0000      -0.443805       -12.0766
 259   2.0000      -0.442547       -12.0423
 260   2.0000      -0.440941       -11.9986
 261   2.0000      -0.438796       -11.9403
 262   2.0000      -0.438178       -11.9234
 263   2.0000      -0.437498       -11.9049
 264   2.0000      -0.436031       -11.8650
 265   2.0000      -0.434467       -11.8224
 266   2.0000      -0.433570       -11.7980
 267   2.0000      -0.432854       -11.7786
 268   2.0000      -0.428680       -11.6650
 269   2.0000      -0.426325       -11.6009
 270   2.0000      -0.421936       -11.4815
 271   2.0000      -0.421318       -11.4646
 272   2.0000      -0.419586       -11.4175
 273   2.0000      -0.417927       -11.3724
 274   2.0000      -0.417614       -11.3639
 275   2.0000      -0.415145       -11.2967
 276   2.0000      -0.411226       -11.1900
 277   2.0000      -0.410694       -11.1755
 278   2.0000      -0.409869       -11.1531
 279   2.0000      -0.406843       -11.0708
 280   2.0000      -0.401419       -10.9232
 281   2.0000      -0.399724       -10.8770
 282   2.0000      -0.393996       -10.7212
 283   2.0000      -0.388736       -10.5780
 284   2.0000      -0.381698       -10.3865
 285   2.0000      -0.373582       -10.1657
 286   2.0000      -0.364766        -9.9258
 287   2.0000      -0.362420        -9.8619
 288   2.0000      -0.362185        -9.8555
 289   2.0000      -0.360776        -9.8172
 290   2.0000      -0.347707        -9.4616
 291   2.0000      -0.346606        -9.4316
 292   2.0000      -0.343199        -9.3389
 293   2.0000      -0.340025        -9.2526
 294   2.0000      -0.334847        -9.1116
 295   2.0000      -0.329897        -8.9769
 296   2.0000      -0.327724        -8.9178
 297   2.0000      -0.321221        -8.7409
 298   2.0000      -0.316982        -8.6255
 299   2.0000      -0.314469        -8.5571
 300   2.0000      -0.309774        -8.4294
 301   2.0000      -0.295698        -8.0464
 302   2.0000      -0.289498        -7.8776
 303   2.0000      -0.274755        -7.4765
 304   2.0000      -0.250743        -6.8231
 305   2.0000      -0.229476        -6.2444
 306   0.0000      -0.108041        -2.9399
 307   0.0000      -0.097502        -2.6532
 308   0.0000      -0.083335        -2.2677
 309   0.0000      -0.065154        -1.7729
 310   0.0000      -0.060653        -1.6505

MULLIKEN ATOMIC CHARGES
-----------------------
   0 C :   -0.057967
   1 C :    0.030123
   2 C :    0.144603
   3 O :   -0.160448
   4 O :   -0.158603
   5 C :   -0.090441
   6 C :   -0.149289
   7 N :    0.137825
   8 C :   -0.042478
   9 C :    0.011417
  10 C :    0.047930
  11 C :    0.250113
  12 C :   -0.312734
  13 C :   -0.178826
  14 N :    0.160352
  15 C :   -0.211227
  16 N :    0.174096
  17 C :   -0.149511
  18 C :    0.147537
  19 O :   -0.131934
  20 C :    0.055541
  21 C :   -0.068169
  22 C :   -0.009017
  23 C :    0.218956
  24 C :   -0.156152
  25 S :    0.170807
  26 C :   -0.048956
  27 C :   -0.132324
  28 C :    0.360779
  29 O :   -0.296862
  30 C :   -0.035086
  31 C :   -0.036444
  32 S :    0.165979
  33 C :   -0.027353
  34 C :   -0.081059
  35 C :    0.220521
  36 C :   -0.176394
  37 S :    0.151895
  38 C :   -0.041835
  39 C :   -0.129596
  40 C :    0.355427
  41 O :   -0.304464
  42 C :   -0.045617
  43 C :   -0.053663
  44 S :    0.175776
  45 C :   -0.008506
  46 C :   -0.093328
  47 C :    0.063183
  48 C :    0.067717
  49 C :   -0.128612
  50 S :    0.151987
  51 C :   -0.115292
  52 C :    0.070983
  53 C :    0.011493
  54 C :   -0.068070
  55 S :    0.134071
  56 C :    0.058566
  57 C :    0.012862
  58 C :   -0.050139
  59 C :   -0.013568
  60 C :   -0.096144
  61 C :    0.323301
  62 C :   -0.359239
  63 C :   -0.187081
  64 N :    0.140026
  65 C :   -0.194205
  66 N :    0.140940
  67 C :    0.020424
  68 C :   -0.001288
  69 C :    0.140744
  70 O :   -0.187448
  71 C :   -0.077565
  72 C :    0.111626
  73 C :   -0.097650
  74 C :   -0.033290
  75 S :    0.168629
  76 C :   -0.133881
  77 C :    0.047620
  78 Br:    0.043949
  79 H :    0.020567
  80 H :    0.201349
  81 H :    0.014269
  82 H :    0.028650
  83 H :    0.001368
  84 H :    0.024101
  85 H :    0.030938
  86 H :   -0.007334
  87 H :   -0.009075
  88 H :    0.028376
  89 H :    0.029924
  90 H :   -0.013074
  91 H :    0.019735
  92 H :    0.041525
  93 H :   -0.012303
  94 H :    0.031866
  95 H :    0.000680
  96 H :    0.038796
  97 H :    0.006299
  98 H :   -0.017896
  99 H :   -0.010908
 100 H :   -0.003888
Sum of atomic charges:   -0.0000000

LOEWDIN ATOMIC CHARGES
----------------------
   0 C :    0.024170
   1 C :   -0.035626
   2 C :    0.083372
   3 O :   -0.142747
   4 O :   -0.026342
   5 C :   -0.024016
   6 C :   -0.034038
   7 N :   -0.031671
   8 C :    0.043741
   9 C :   -0.028856
  10 C :   -0.001035
  11 C :    0.056402
  12 C :   -0.139391
  13 C :   -0.023133
  14 N :   -0.045455
  15 C :   -0.036967
  16 N :   -0.045138
  17 C :   -0.113948
  18 C :    0.082225
  19 O :   -0.135261
  20 C :    0.058140
  21 C :   -0.178297
  22 C :   -0.018920
  23 C :    0.021473
  24 C :   -0.202713
  25 S :    0.475658
  26 C :   -0.200628
  27 C :   -0.063380
  28 C :    0.104899
  29 O :   -0.092530
  30 C :   -0.056308
  31 C :   -0.171517
  32 S :    0.455283
  33 C :   -0.174009
  34 C :   -0.072998
  35 C :    0.035914
  36 C :   -0.247259
  37 S :    0.464386
  38 C :   -0.186502
  39 C :   -0.081308
  40 C :    0.109846
  41 O :   -0.096952
  42 C :   -0.053569
  43 C :   -0.185334
  44 S :    0.500835
  45 C :   -0.161676
  46 C :   -0.029419
  47 C :    0.016435
  48 C :   -0.044936
  49 C :   -0.140689
  50 S :    0.471796
  51 C :   -0.208570
  52 C :   -0.035055
  53 C :   -0.061331
  54 C :   -0.160371
  55 S :    0.426802
  56 C :   -0.066227
  57 C :    0.046773
  58 C :   -0.061442
  59 C :    0.064104
  60 C :   -0.116092
  61 C :    0.074147
  62 C :   -0.152703
  63 C :   -0.018653
  64 N :   -0.065532
  65 C :   -0.020687
  66 N :   -0.061659
  67 C :   -0.017858
  68 C :   -0.051559
  69 C :    0.078473
  70 O :   -0.174078
  71 C :    0.009133
  72 C :   -0.042197
  73 C :   -0.151350
  74 C :   -0.015147
  75 S :    0.430136
  76 C :   -0.271515
  77 C :   -0.070080
  78 Br:    0.155779
  79 H :    0.045043
  80 H :    0.109659
  81 H :    0.052136
  82 H :    0.053988
  83 H :    0.044565
  84 H :    0.023981
  85 H :    0.026614
  86 H :    0.028201
  87 H :    0.034457
  88 H :    0.033745
  89 H :    0.025852
  90 H :    0.027993
  91 H :    0.031035
  92 H :    0.038624
  93 H :    0.033127
  94 H :    0.025592
  95 H :    0.035511
  96 H :    0.031287
  97 H :    0.040138
  98 H :    0.035149
  99 H :    0.039759
 100 H :    0.038300

  Mayer bond orders larger than 0.100000
B(  0-C ,  1-C ) :   1.3234 B(  0-C , 10-C ) :   1.3398 B(  0-C , 79-H ) :   0.9884
B(  1-C ,  2-C ) :   0.8875 B(  1-C ,  5-C ) :   1.3908 B(  2-C ,  3-O ) :   2.1528
B(  2-C ,  4-O ) :   1.3028 B(  4-O , 80-H ) :   0.9369 B(  5-C ,  6-C ) :   1.0667
B(  5-C ,  8-C ) :   1.3626 B(  6-C ,  7-N ) :   3.0357 B(  8-C ,  9-C ) :   1.3641
B(  8-C , 81-H ) :   1.0163 B(  9-C , 10-C ) :   1.3377 B(  9-C , 18-C ) :   0.8991
B( 10-C , 11-C ) :   0.9919 B( 11-C , 12-C ) :   1.6508 B( 11-C , 17-C ) :   1.0579
B( 12-C , 13-C ) :   1.1363 B( 12-C , 15-C ) :   1.1494 B( 13-C , 14-N ) :   2.9904
B( 15-C , 16-N ) :   3.0279 B( 17-C , 18-C ) :   0.9604 B( 17-C , 20-C ) :   1.5633
B( 18-C , 19-O ) :   2.2727 B( 20-C , 21-C ) :   1.2122 B( 20-C , 82-H ) :   0.9478
B( 21-C , 22-C ) :   1.3492 B( 21-C , 25-S ) :   1.0805 B( 22-C , 23-C ) :   1.3119
B( 22-C , 83-H ) :   1.0149 B( 23-C , 24-C ) :   1.3867 B( 23-C , 29-O ) :   1.1577
B( 24-C , 25-S ) :   1.1273 B( 24-C , 26-C ) :   1.1799 B( 26-C , 27-C ) :   1.5070
B( 26-C , 32-S ) :   1.1015 B( 27-C , 28-C ) :   1.0242 B( 27-C , 30-C ) :   1.3074
B( 28-C , 29-O ) :   0.9476 B( 28-C , 84-H ) :   0.9279 B( 28-C , 85-H ) :   0.9293
B( 30-C , 31-C ) :   1.4499 B( 30-C , 86-H ) :   1.0014 B( 31-C , 32-S ) :   1.1310
B( 31-C , 33-C ) :   1.1798 B( 33-C , 34-C ) :   1.4301 B( 33-C , 36-C ) :   0.1012
B( 33-C , 37-S ) :   1.1245 B( 34-C , 35-C ) :   1.2655 B( 34-C , 87-H ) :   1.0101
B( 35-C , 36-C ) :   1.4487 B( 35-C , 41-O ) :   1.1585 B( 36-C , 37-S ) :   1.0786
B( 36-C , 38-C ) :   1.1524 B( 38-C , 39-C ) :   1.5081 B( 38-C , 44-S ) :   1.1564
B( 39-C , 40-C ) :   1.0201 B( 39-C , 42-C ) :   1.3201 B( 40-C , 41-O ) :   0.9459
B( 40-C , 88-H ) :   0.9360 B( 40-C , 89-H ) :   0.9359 B( 42-C , 43-C ) :   1.4426
B( 42-C , 90-H ) :   0.9926 B( 43-C , 44-S ) :   1.1333 B( 43-C , 45-C ) :   1.1783
B( 45-C , 46-C ) :   1.4693 B( 45-C , 50-S ) :   1.0800 B( 46-C , 47-C ) :   1.3054
B( 46-C , 91-H ) :   0.9524 B( 47-C , 48-C ) :   1.0786 B( 47-C , 56-C ) :   1.3092
B( 48-C , 49-C ) :   1.5961 B( 48-C , 51-C ) :   1.1638 B( 49-C , 50-S ) :   1.1443
B( 49-C , 92-H ) :   0.9395 B( 51-C , 52-C ) :   1.4519 B( 51-C , 55-S ) :   1.0769
B( 52-C , 53-C ) :   1.2312 B( 52-C , 56-C ) :   1.0763 B( 53-C , 54-C ) :   1.5771
B( 53-C , 93-H ) :   1.0003 B( 54-C , 55-S ) :   1.1612 B( 54-C , 94-H ) :   0.9668
B( 56-C , 57-C ) :   1.2243 B( 57-C , 58-C ) :   1.4408 B( 57-C , 95-H ) :   0.9759
B( 58-C , 59-C ) :   1.2630 B( 58-C , 96-H ) :   0.9701 B( 59-C , 60-C ) :   1.4367
B( 59-C , 97-H ) :   0.9645 B( 60-C , 61-C ) :   1.0926 B( 60-C , 69-C ) :   0.9879
B( 61-C , 62-C ) :   1.6011 B( 61-C , 67-C ) :   0.9906 B( 62-C , 63-C ) :   1.1461
B( 62-C , 65-C ) :   1.1523 B( 63-C , 64-N ) :   2.9634 B( 65-C , 66-N ) :   2.9627
B( 67-C , 68-C ) :   1.2771 B( 67-C , 74-C ) :   1.4167 B( 68-C , 69-C ) :   0.9502
B( 68-C , 71-C ) :   1.4208 B( 69-C , 70-O ) :   2.0998 B( 71-C , 72-C ) :   1.2230
B( 71-C , 98-H ) :   1.0212 B( 72-C , 73-C ) :   1.3237 B( 72-C , 77-C ) :   1.1609
B( 73-C , 74-C ) :   1.3112 B( 73-C , 75-S ) :   1.0754 B( 74-C , 99-H ) :   0.9817
B( 75-S , 76-C ) :   1.0832 B( 76-C , 77-C ) :   1.6124 B( 76-C , 78-Br) :   1.0276
B( 77-C ,100-H ) :   1.0014

-----------------------------------------------------------------------------
         ABSORPTION SPECTRUM VIA TRANSITION ELECTRIC DIPOLE MOMENTS
-----------------------------------------------------------------------------
State   Energy  Wavelength   fosc         T2         TX        TY        TZ
        (cm-1)    (nm)                  (au**2)     (au)      (au)      (au)
-----------------------------------------------------------------------------
   0   12283.8    814.1   0.548080268  14.68881   2.56683   1.96929  -2.05477
   1   14509.5    689.2   0.918866769  20.84860  -0.50143   1.87134  -4.13464
   2   18848.7    530.5   0.098841677   1.72637  -0.49013   0.50386  -1.11007
   3   19965.7    500.9   0.680435535  11.21964  -0.50836   0.44496  -3.28073
   4   20378.4    490.7   0.336207673   5.43142   0.43479  -0.11399   2.28678
   5   21032.8    475.4   0.044211437   0.69201   0.66381   0.50089  -0.02210
   6   22718.5    440.2   0.407411603   5.90377   0.36777  -0.76558   2.27649
   7   22826.4    438.1   0.031643261   0.45637   0.24251   0.23709  -0.58425
   8   23918.4    418.1   0.136670894   1.88113   0.64229   0.34806   1.16080
   9   24960.7    400.6   0.036178990   0.47717  -0.33697   0.32020  -0.51098
  10   25723.0    388.8   0.011038437   0.14127  -0.27047  -0.14545   0.21672
  11   26263.4    380.8   0.062999333   0.78970   0.52160   0.71597  -0.07079
  12   26436.7    378.3   0.037805738   0.47079  -0.01605   0.27525  -0.62831
  13   27295.2    366.4   0.034664433   0.41809  -0.43822  -0.41765   0.22721
  14   27753.3    360.3   0.017157651   0.20353  -0.16036  -0.37936   0.18412
  15   27823.4    359.4   0.076688680   0.90740  -0.09723  -0.64441   0.69475
  16   28090.1    356.0   0.052395462   0.61407  -0.66220  -0.41846  -0.02116
  17   28253.9    353.9   0.050110064   0.58388   0.03842   0.63903   0.41718
  18   28858.8    346.5   0.057430753   0.65515   0.39711   0.32414   0.62641
  19   29610.0    337.7   0.034601066   0.38470  -0.28069  -0.33760  -0.43811
  20   29738.8    336.3   0.141163707   1.56270  -0.45071  -0.93341   0.69879
  21   30471.2    328.2   0.098210600   1.06107   0.52713  -0.09434  -0.87995
  22   30777.5    324.9   0.065114627   0.69650   0.26947   0.17712   0.76975
  23   31047.2    322.1   0.189878185   2.01339   0.74025   0.72724  -0.96775
  24   31199.5    320.5   0.020894312   0.22047   0.32762   0.15041   0.30085
  25   31592.0    316.5   0.015925906   0.16596  -0.25666  -0.07472   0.30741
  26   31760.0    314.9   0.303772841   3.14879   0.46898   1.21397  -1.20629
  27   31912.8    313.4   0.056230533   0.58007  -0.12513  -0.64082   0.39213
  28   31999.8    312.5   0.118766639   1.22187   0.19269   0.37325  -1.02246
  29   32216.9    310.4   0.004941950   0.05050  -0.21230   0.06669  -0.03129
  30   32552.6    307.2   0.107099091   1.08312   0.65482   0.66793  -0.45629
  31   32838.7    304.5   0.053439920   0.53574   0.41677  -0.05653   0.59904
  32   33106.6    302.1   0.011985472   0.11918   0.25390   0.11394   0.20429
  33   33341.5    299.9   0.385145576   3.80290  -1.15311  -1.48242   0.52503
  34   33460.8    298.9   0.076905432   0.75665   0.06642  -0.16913   0.85067
  35   33927.0    294.8   0.037462988   0.36352  -0.04644   0.48601  -0.35378
  36   34197.7    292.4   0.041669631   0.40114  -0.33975   0.05297  -0.53189
  37   34470.9    290.1   0.471505117   4.50308  -1.30668   0.05339   1.67117
  38   34770.1    287.6   0.112256564   1.06287   0.59070   0.77499  -0.33665
  39   35140.3    284.6   0.081398184   0.76258   0.64116   0.44413  -0.39273
  40   35274.6    283.5   0.118623433   1.10709  -0.74323  -0.52536   0.52792
  41   35585.3    281.0   0.012633366   0.11688   0.27183   0.06774   0.19595
  42   35804.2    279.3   0.019298244   0.17744   0.34199   0.24572  -0.01019
  43   36235.9    276.0   0.042405368   0.38526   0.38779   0.35297  -0.33210
  44   36296.1    275.5   0.056868097   0.51580   0.62504   0.34169   0.09152
  45   36402.9    274.7   0.018756418   0.16962  -0.34856  -0.18863   0.11202
  46   36595.0    273.3   0.013354497   0.12014   0.09465  -0.13685   0.30406
  47   36847.4    271.4   0.029666762   0.26506  -0.27008   0.00387  -0.43829
  48   37035.2    270.0   0.019669109   0.17484   0.23301   0.33283   0.09887
  49   37325.5    267.9   0.111762965   0.98575   0.18620   0.31735  -0.92216
  50   37584.9    266.1   0.073065811   0.63999   0.56553   0.51021   0.24464
  51   37657.8    265.5   0.036077945   0.31540   0.23432   0.49210  -0.13539
  52   37924.4    263.7   0.220804893   1.91675   1.04099   0.89670   0.17032
  53   38048.5    262.8   0.076833084   0.66479   0.33549   0.41157  -0.61875
  54   38180.7    261.9   0.003778515   0.03258   0.01153   0.14494   0.10695
  55   38265.1    261.3   0.216182563   1.85992  -1.15466  -0.60924  -0.39435
  56   38368.4    260.6   0.171656725   1.47287   0.72538   0.70839  -0.66698
  57   38761.2    258.0   0.042178626   0.35824   0.28192   0.52630   0.04203
  58   38891.0    257.1   0.215568894   1.82479   0.14109  -0.26163  -1.31774
  59   39016.1    256.3   0.008470530   0.07147   0.26723  -0.00710  -0.00318
  60   39195.4    255.1   0.025368086   0.21307  -0.33803   0.24876   0.19217
  61   39418.9    253.7   0.119423622   0.99738   0.39578   0.22319  -0.88934
  62   39508.5    253.1   0.061672616   0.51390  -0.12709  -0.17090   0.68450
  63   39705.3    251.9   0.031626688   0.26223  -0.03822   0.34293   0.37837
  64   39878.3    250.8   0.055097028   0.45485  -0.06245   0.01157   0.67143
  65   39992.3    250.0   0.032585068   0.26824   0.28147   0.39785   0.17528
  66   40180.8    248.9   0.074116790   0.60726  -0.55604  -0.54357   0.05103

FINAL SINGLE POINT ENERGY     -8381.267434380363

DIPOLE MOMENT
-------------
                                X             Y             Z
Electronic contribution:    -15.56047      36.00419     -44.25995
Nuclear contribution   :     17.30989     -37.19741      49.65034
                        -----------------------------------------
Total Dipole Moment    :      1.74941      -1.19322       5.39039
                        -----------------------------------------
Magnitude (a.u.)       :      5.79142
Magnitude (Debye)      :     14.72063

Rotational constants in cm-1:     0.001558     0.000243     0.000218
Rotational constants in MHz :    46.720884     7.279692     6.540107

                             ****ORCA TERMINATED NORMALLY****
TOTAL RUN TIME: 0 days 0 hours 13 minutes 31 seconds 727 msec
