                         Program Version 4.2.0 -  RELEASE  -
|  1> # ORCA input file
|  2> # SCF done       -206.240517033102          0.000821833154
|  3> ! CAM-B3LYP def2-SVP def2/J RIJCOSX Grid4 TightSCF
|  4> %maxcore 5000
|  5> %tddft
|  6>     Mode sTDDFT
|  7>     Ethresh 5.0
|  8>     maxcore 5000
|  9> end
| 10>
| 11> %pal
| 12>   nprocs 6
| 13>   end
| 14> * xyz 0 1
| 15>    C       -3.36647        -2.75553         0.44938
| 16>    C       -4.61638        -3.37029         0.45131
| 17>    C       -5.88975        -2.57454         0.50782
| 18>    O       -6.91345        -2.98615         0.04198
| 19>    O       -5.82767        -1.37944         1.10464
| 20>    C       -4.72216        -4.76742         0.34148
| 21>    C       -5.97701        -5.42877         0.37153
| 22>    N       -6.92138        -6.07433         0.42615
| 23>    C       -3.57503        -5.55826         0.22396
| 24>    C       -2.34668        -4.93465         0.23588
| 25>    C       -2.22613        -3.53921         0.35654
| 26>    C       -0.80915        -3.18236         0.35107
| 27>    C       -0.30145        -1.93120         0.58694
| 28>    C       -1.10478        -0.80461         0.85843
| 29>    N       -1.73621         0.12258         1.10247
| 30>    C        1.07286        -1.61268         0.63430
| 31>    N        2.17063        -1.28390         0.69774
| 32>    C       -0.04932        -4.40319         0.17724
| 33>    C       -1.00242        -5.54155         0.08690
| 34>    O       -0.76707        -6.69657        -0.18045
| 35>    C        1.29179        -4.50338        -0.03231
| 36>    C        2.04211        -5.71702         0.02080
| 37>    C        3.14365        -5.93736        -0.80794
| 38>    C        3.89192        -7.13571        -0.81421
| 39>    N        4.91610        -7.11973        -1.71584
| 40>    C        4.96933        -6.03203        -2.37818
| 41>    S        3.75512        -4.84213        -2.00590
| 42>    C        3.58357        -8.20687         0.06542
| 43>    C        2.53874        -7.93983         0.96463
| 44>    C        1.78345        -6.74025         0.95140
| 45>    N        0.83974        -6.64828         1.92423
| 46>    C        0.78952        -7.70167         2.63888
| 47>    S        1.91708        -8.96108         2.23033
| 48>    C        4.29233        -9.46260        -0.00769
| 49>    C        4.97585        -9.83293        -1.14308
| 50>    C        5.65059       -11.03236        -1.33696
| 51>    C        5.82087       -11.99172        -0.24154
| 52>    C        5.23425       -11.84127         0.96758
| 53>    S        4.22456       -10.52323         1.39203
| 54>    C        6.67910       -13.00324        -0.75062
| 55>    C        7.01722       -12.70602        -2.07469
| 56>    C        7.86807       -13.68164        -2.63931
| 57>    C        8.15067       -14.66873        -1.75006
| 58>    S        7.39850       -14.46274        -0.20249
| 59>    C        6.35666       -11.49387        -2.47203
| 60>    C        6.44810       -10.92847        -3.76632
| 61>    C        5.57541       -10.02524        -4.28530
| 62>    C        5.68062        -9.36827        -5.54261
| 63>    C        4.74597        -8.37861        -5.88408
| 64>    C        4.74797        -7.66444        -7.09788
| 65>    N        3.77673        -6.71383        -7.18922
| 66>    C        3.03962        -6.68207        -6.14691
| 67>    S        3.43339        -7.81361        -4.88952
| 68>    C        5.72172        -7.92174        -8.08945
| 69>    C        6.68541        -8.87509        -7.73412
| 70>    C        6.67960        -9.59372        -6.51621
| 71>    N        7.69608       -10.49330        -6.40409
| 72>    C        8.44187       -10.50692        -7.43799
| 73>    S        8.00611        -9.40891        -8.72066
| 74>    C        5.78740        -7.23589        -9.33473
| 75>    C        4.78995        -6.61927       -10.02584
| 76>    C        5.12820        -5.60732       -11.05962
| 77>    O        6.20811        -5.39599       -11.55715
| 78>    C        3.86007        -4.87334       -11.30071
| 79>    C        2.82073        -5.48427       -10.57333
| 80>    C        1.55671        -4.92341       -10.57261
| 81>    C        1.31488        -3.77122       -11.32154
| 82>    C        2.35203        -3.19262       -12.07425
| 83>    C        3.64074        -3.74395       -12.05522
| 84>    C        2.17050        -2.03007       -12.85953
| 85>    N        2.06303        -1.09920       -13.52218
| 86>    C       -0.07257        -3.19724       -11.19560
| 87>    O       -0.73834        -3.42731       -10.22502
| 88>    O       -0.54576        -2.44487       -12.18984
| 89>    C        3.35013        -6.67202        -9.90708
| 90>    C        2.60284        -7.73806        -9.48545
| 91>    C        3.16584        -8.95921        -9.06284
| 92>    N        3.58235        -9.97619        -8.73144
| 93>    C        1.19271        -7.76455        -9.48812
| 94>    N        0.04811        -7.83638        -9.46143
| 95>    H       -3.28761        -1.67920         0.47743
| 96>    H       -4.95769        -1.15197         1.46074
| 97>    H       -3.64917        -6.63070         0.12657
| 98>    H        1.86029        -3.61673        -0.28776
| 99>    H        5.70957        -5.83678        -3.12913
|100>    H        0.10916        -7.83259         3.45759
|101>    H        5.00344        -9.10279        -1.93427
|102>    H        5.34522       -12.56115         1.76329
|103>    H        8.25079       -13.65571        -3.64307
|104>    H        8.76806       -15.53255        -1.90145
|105>    H        7.26606       -11.26669        -4.38778
|106>    H        4.68841        -9.76116        -3.72732
|107>    H        2.21448        -6.00679        -6.02891
|108>    H        9.29614       -11.14634        -7.54467
|109>    H        6.77928        -7.14007        -9.76828
|110>    H        0.74363        -5.33195        -9.99279
|111>    H        4.44231        -3.28590       -12.61494
|112>    H        0.07617        -2.26495       -12.91041
|113> *
|114>
|115>                          ****END OF INPUT****

CARTESIAN COORDINATES (ANGSTROEM)
---------------------------------
  C     -3.366470   -2.755530    0.449380
  C     -4.616380   -3.370290    0.451310
  C     -5.889750   -2.574540    0.507820
  O     -6.913450   -2.986150    0.041980
  O     -5.827670   -1.379440    1.104640
  C     -4.722160   -4.767420    0.341480
  C     -5.977010   -5.428770    0.371530
  N     -6.921380   -6.074330    0.426150
  C     -3.575030   -5.558260    0.223960
  C     -2.346680   -4.934650    0.235880
  C     -2.226130   -3.539210    0.356540
  C     -0.809150   -3.182360    0.351070
  C     -0.301450   -1.931200    0.586940
  C     -1.104780   -0.804610    0.858430
  N     -1.736210    0.122580    1.102470
  C      1.072860   -1.612680    0.634300
  N      2.170630   -1.283900    0.697740
  C     -0.049320   -4.403190    0.177240
  C     -1.002420   -5.541550    0.086900
  O     -0.767070   -6.696570   -0.180450
  C      1.291790   -4.503380   -0.032310
  C      2.042110   -5.717020    0.020800
  C      3.143650   -5.937360   -0.807940
  C      3.891920   -7.135710   -0.814210
  N      4.916100   -7.119730   -1.715840
  C      4.969330   -6.032030   -2.378180
  S      3.755120   -4.842130   -2.005900
  C      3.583570   -8.206870    0.065420
  C      2.538740   -7.939830    0.964630
  C      1.783450   -6.740250    0.951400
  N      0.839740   -6.648280    1.924230
  C      0.789520   -7.701670    2.638880
  S      1.917080   -8.961080    2.230330
  C      4.292330   -9.462600   -0.007690
  C      4.975850   -9.832930   -1.143080
  C      5.650590  -11.032360   -1.336960
  C      5.820870  -11.991720   -0.241540
  C      5.234250  -11.841270    0.967580
  S      4.224560  -10.523230    1.392030
  C      6.679100  -13.003240   -0.750620
  C      7.017220  -12.706020   -2.074690
  C      7.868070  -13.681640   -2.639310
  C      8.150670  -14.668730   -1.750060
  S      7.398500  -14.462740   -0.202490
  C      6.356660  -11.493870   -2.472030
  C      6.448100  -10.928470   -3.766320
  C      5.575410  -10.025240   -4.285300
  C      5.680620   -9.368270   -5.542610
  C      4.745970   -8.378610   -5.884080
  C      4.747970   -7.664440   -7.097880
  N      3.776730   -6.713830   -7.189220
  C      3.039620   -6.682070   -6.146910
  S      3.433390   -7.813610   -4.889520
  C      5.721720   -7.921740   -8.089450
  C      6.685410   -8.875090   -7.734120
  C      6.679600   -9.593720   -6.516210
  N      7.696080  -10.493300   -6.404090
  C      8.441870  -10.506920   -7.437990
  S      8.006110   -9.408910   -8.720660
  C      5.787400   -7.235890   -9.334730
  C      4.789950   -6.619270  -10.025840
  C      5.128200   -5.607320  -11.059620
  O      6.208110   -5.395990  -11.557150
  C      3.860070   -4.873340  -11.300710
  C      2.820730   -5.484270  -10.573330
  C      1.556710   -4.923410  -10.572610
  C      1.314880   -3.771220  -11.321540
  C      2.352030   -3.192620  -12.074250
  C      3.640740   -3.743950  -12.055220
  C      2.170500   -2.030070  -12.859530
  N      2.063030   -1.099200  -13.522180
  C     -0.072570   -3.197240  -11.195600
  O     -0.738340   -3.427310  -10.225020
  O     -0.545760   -2.444870  -12.189840
  C      3.350130   -6.672020   -9.907080
  C      2.602840   -7.738060   -9.485450
  C      3.165840   -8.959210   -9.062840
  N      3.582350   -9.976190   -8.731440
  C      1.192710   -7.764550   -9.488120
  N      0.048110   -7.836380   -9.461430
  H     -3.287610   -1.679200    0.477430
  H     -4.957690   -1.151970    1.460740
  H     -3.649170   -6.630700    0.126570
  H      1.860290   -3.616730   -0.287760
  H      5.709570   -5.836780   -3.129130
  H      0.109160   -7.832590    3.457590
  H      5.003440   -9.102790   -1.934270
  H      5.345220  -12.561150    1.763290
  H      8.250790  -13.655710   -3.643070
  H      8.768060  -15.532550   -1.901450
  H      7.266060  -11.266690   -4.387780
  H      4.688410   -9.761160   -3.727320
  H      2.214480   -6.006790   -6.028910
  H      9.296140  -11.146340   -7.544670
  H      6.779280   -7.140070   -9.768280
  H      0.743630   -5.331950   -9.992790
  H      4.442310   -3.285900  -12.614940
  H      0.076170   -2.264950  -12.910410

 Total Charge           Charge          ....    0
 Multiplicity           Mult            ....    1
 Number of Electrons    NEL             ....  580
 Basis Dimension        Dim             .... 1234

ORBITAL ENERGIES
----------------

  NO   OCC          E(Eh)            E(eV)
   0   2.0000     -88.990356     -2421.5507
   1   2.0000     -88.989815     -2421.5360
   2   2.0000     -88.983768     -2421.3714
   3   2.0000     -88.983699     -2421.3695
   4   2.0000     -88.980201     -2421.2744
   5   2.0000     -88.965463     -2420.8733
   6   2.0000     -19.276691      -524.5454
   7   2.0000     -19.270632      -524.3806
   8   2.0000     -19.236409      -523.4493
   9   2.0000     -19.230831      -523.2975
  10   2.0000     -19.215868      -522.8903
  11   2.0000     -19.211570      -522.7734
  12   2.0000     -14.442857      -393.0101
  13   2.0000     -14.439158      -392.9095
  14   2.0000     -14.439017      -392.9056
  15   2.0000     -14.436369      -392.8336
  16   2.0000     -14.433894      -392.7662
  17   2.0000     -14.433475      -392.7548
  18   2.0000     -14.431396      -392.6982
  19   2.0000     -14.422803      -392.4644
  20   2.0000     -14.421706      -392.4346
  21   2.0000     -14.412106      -392.1733
  22   2.0000     -10.421957      -283.5959
  23   2.0000     -10.419904      -283.5400
  24   2.0000     -10.387954      -282.6706
  25   2.0000     -10.381646      -282.4990
  26   2.0000     -10.367584      -282.1163
  27   2.0000     -10.363587      -282.0075
  28   2.0000     -10.362652      -281.9821
  29   2.0000     -10.359821      -281.9051
  30   2.0000     -10.358377      -281.8658
  31   2.0000     -10.354691      -281.7655
  32   2.0000     -10.353669      -281.7377
  33   2.0000     -10.352123      -281.6956
  34   2.0000     -10.351620      -281.6819
  35   2.0000     -10.348397      -281.5942
  36   2.0000     -10.341451      -281.4052
  37   2.0000     -10.341277      -281.4004
  38   2.0000     -10.341222      -281.3990
  39   2.0000     -10.340954      -281.3917
  40   2.0000     -10.340100      -281.3684
  41   2.0000     -10.339790      -281.3600
  42   2.0000     -10.339542      -281.3532
  43   2.0000     -10.338707      -281.3305
  44   2.0000     -10.338579      -281.3270
  45   2.0000     -10.337938      -281.3096
  46   2.0000     -10.337717      -281.3036
  47   2.0000     -10.337177      -281.2889
  48   2.0000     -10.336846      -281.2799
  49   2.0000     -10.336024      -281.2575
  50   2.0000     -10.334365      -281.2124
  51   2.0000     -10.333280      -281.1828
  52   2.0000     -10.330885      -281.1177
  53   2.0000     -10.330797      -281.1153
  54   2.0000     -10.329594      -281.0825
  55   2.0000     -10.329431      -281.0781
  56   2.0000     -10.327574      -281.0276
  57   2.0000     -10.326329      -280.9937
  58   2.0000     -10.324440      -280.9423
  59   2.0000     -10.323349      -280.9126
  60   2.0000     -10.323297      -280.9112
  61   2.0000     -10.322568      -280.8914
  62   2.0000     -10.320569      -280.8370
  63   2.0000     -10.319437      -280.8061
  64   2.0000     -10.319270      -280.8016
  65   2.0000     -10.318589      -280.7831
  66   2.0000     -10.317044      -280.7410
  67   2.0000     -10.312507      -280.6176
  68   2.0000     -10.312173      -280.6085
  69   2.0000     -10.309925      -280.5473
  70   2.0000     -10.306485      -280.4537
  71   2.0000     -10.305777      -280.4345
  72   2.0000     -10.301135      -280.3081
  73   2.0000     -10.297638      -280.2130
  74   2.0000     -10.297170      -280.2002
  75   2.0000     -10.289865      -280.0015
  76   2.0000     -10.286996      -279.9234
  77   2.0000     -10.285954      -279.8950
  78   2.0000     -10.283470      -279.8275
  79   2.0000     -10.283092      -279.8171
  80   2.0000      -8.086257      -220.0382
  81   2.0000      -8.085612      -220.0207
  82   2.0000      -8.079826      -219.8632
  83   2.0000      -8.079298      -219.8489
  84   2.0000      -8.076666      -219.7772
  85   2.0000      -8.060921      -219.3488
  86   2.0000      -6.055525      -164.7792
  87   2.0000      -6.055085      -164.7672
  88   2.0000      -6.051432      -164.6678
  89   2.0000      -6.050516      -164.6429
  90   2.0000      -6.049303      -164.6099
  91   2.0000      -6.048556      -164.5896
  92   2.0000      -6.048097      -164.5771
  93   2.0000      -6.047669      -164.5654
  94   2.0000      -6.045900      -164.5173
  95   2.0000      -6.044884      -164.4897
  96   2.0000      -6.044471      -164.4784
  97   2.0000      -6.041833      -164.4066
  98   2.0000      -6.041512      -164.3979
  99   2.0000      -6.041311      -164.3924
 100   2.0000      -6.038536      -164.3169
 101   2.0000      -6.030393      -164.0953
 102   2.0000      -6.026117      -163.9790
 103   2.0000      -6.022897      -163.8914
 104   2.0000      -1.200966       -32.6799
 105   2.0000      -1.196690       -32.5636
 106   2.0000      -1.152308       -31.3559
 107   2.0000      -1.146114       -31.1873
 108   2.0000      -1.116095       -30.3705
 109   2.0000      -1.110709       -30.2239
 110   2.0000      -1.099442       -29.9173
 111   2.0000      -1.093949       -29.7679
 112   2.0000      -1.090653       -29.6782
 113   2.0000      -1.085157       -29.5286
 114   2.0000      -1.042716       -28.3737
 115   2.0000      -1.035259       -28.1708
 116   2.0000      -1.026016       -27.9193
 117   2.0000      -1.024939       -27.8900
 118   2.0000      -1.017465       -27.6866
 119   2.0000      -1.016120       -27.6500
 120   2.0000      -1.010754       -27.5040
 121   2.0000      -1.000635       -27.2287
 122   2.0000      -1.000372       -27.2215
 123   2.0000      -0.992417       -27.0050
 124   2.0000      -0.981096       -26.6970
 125   2.0000      -0.977327       -26.5944
 126   2.0000      -0.971187       -26.4273
 127   2.0000      -0.970110       -26.3980
 128   2.0000      -0.954142       -25.9635
 129   2.0000      -0.950237       -25.8573
 130   2.0000      -0.932389       -25.3716
 131   2.0000      -0.926894       -25.2221
 132   2.0000      -0.917720       -24.9724
 133   2.0000      -0.916201       -24.9311
 134   2.0000      -0.908771       -24.7289
 135   2.0000      -0.903439       -24.5838
 136   2.0000      -0.899633       -24.4803
 137   2.0000      -0.897768       -24.4295
 138   2.0000      -0.896177       -24.3862
 139   2.0000      -0.891595       -24.2615
 140   2.0000      -0.882081       -24.0026
 141   2.0000      -0.861615       -23.4457
 142   2.0000      -0.857451       -23.3324
 143   2.0000      -0.848421       -23.0867
 144   2.0000      -0.845117       -22.9968
 145   2.0000      -0.840361       -22.8674
 146   2.0000      -0.828435       -22.5429
 147   2.0000      -0.815525       -22.1916
 148   2.0000      -0.807990       -21.9865
 149   2.0000      -0.803843       -21.8737
 150   2.0000      -0.798808       -21.7367
 151   2.0000      -0.781493       -21.2655
 152   2.0000      -0.769136       -20.9293
 153   2.0000      -0.761488       -20.7211
 154   2.0000      -0.753007       -20.4903
 155   2.0000      -0.747351       -20.3365
 156   2.0000      -0.743020       -20.2186
 157   2.0000      -0.738184       -20.0870
 158   2.0000      -0.727676       -19.8011
 159   2.0000      -0.723049       -19.6752
 160   2.0000      -0.720116       -19.5954
 161   2.0000      -0.714770       -19.4499
 162   2.0000      -0.709407       -19.3039
 163   2.0000      -0.707753       -19.2589
 164   2.0000      -0.704726       -19.1766
 165   2.0000      -0.700926       -19.0732
 166   2.0000      -0.692091       -18.8328
 167   2.0000      -0.685858       -18.6631
 168   2.0000      -0.679138       -18.4803
 169   2.0000      -0.677938       -18.4476
 170   2.0000      -0.672500       -18.2996
 171   2.0000      -0.669982       -18.2311
 172   2.0000      -0.664877       -18.0922
 173   2.0000      -0.656386       -17.8612
 174   2.0000      -0.653723       -17.7887
 175   2.0000      -0.648323       -17.6418
 176   2.0000      -0.645695       -17.5703
 177   2.0000      -0.638573       -17.3765
 178   2.0000      -0.625214       -17.0129
 179   2.0000      -0.619043       -16.8450
 180   2.0000      -0.614883       -16.7318
 181   2.0000      -0.609689       -16.5905
 182   2.0000      -0.606063       -16.4918
 183   2.0000      -0.604093       -16.4382
 184   2.0000      -0.600522       -16.3410
 185   2.0000      -0.599164       -16.3041
 186   2.0000      -0.595418       -16.2022
 187   2.0000      -0.592634       -16.1264
 188   2.0000      -0.585985       -15.9455
 189   2.0000      -0.572433       -15.5767
 190   2.0000      -0.570531       -15.5249
 191   2.0000      -0.566302       -15.4099
 192   2.0000      -0.565854       -15.3977
 193   2.0000      -0.562651       -15.3105
 194   2.0000      -0.561711       -15.2849
 195   2.0000      -0.560585       -15.2543
 196   2.0000      -0.557591       -15.1728
 197   2.0000      -0.555824       -15.1247
 198   2.0000      -0.555497       -15.1158
 199   2.0000      -0.554196       -15.0804
 200   2.0000      -0.551276       -15.0010
 201   2.0000      -0.548775       -14.9329
 202   2.0000      -0.546336       -14.8666
 203   2.0000      -0.544277       -14.8105
 204   2.0000      -0.541828       -14.7439
 205   2.0000      -0.539417       -14.6783
 206   2.0000      -0.536100       -14.5880
 207   2.0000      -0.534845       -14.5539
 208   2.0000      -0.532815       -14.4986
 209   2.0000      -0.529882       -14.4188
 210   2.0000      -0.526826       -14.3357
 211   2.0000      -0.524918       -14.2837
 212   2.0000      -0.524481       -14.2719
 213   2.0000      -0.522951       -14.2302
 214   2.0000      -0.519631       -14.1399
 215   2.0000      -0.517759       -14.0889
 216   2.0000      -0.516854       -14.0643
 217   2.0000      -0.514863       -14.0101
 218   2.0000      -0.509787       -13.8720
 219   2.0000      -0.508545       -13.8382
 220   2.0000      -0.505278       -13.7493
 221   2.0000      -0.500872       -13.6294
 222   2.0000      -0.499491       -13.5918
 223   2.0000      -0.498527       -13.5656
 224   2.0000      -0.495593       -13.4858
 225   2.0000      -0.488967       -13.3055
 226   2.0000      -0.487091       -13.2544
 227   2.0000      -0.483314       -13.1516
 228   2.0000      -0.480164       -13.0659
 229   2.0000      -0.478859       -13.0304
 230   2.0000      -0.473844       -12.8939
 231   2.0000      -0.471967       -12.8429
 232   2.0000      -0.471113       -12.8196
 233   2.0000      -0.469839       -12.7850
 234   2.0000      -0.466064       -12.6822
 235   2.0000      -0.464632       -12.6433
 236   2.0000      -0.463948       -12.6247
 237   2.0000      -0.459924       -12.5152
 238   2.0000      -0.458381       -12.4732
 239   2.0000      -0.457482       -12.4487
 240   2.0000      -0.455900       -12.4057
 241   2.0000      -0.454325       -12.3628
 242   2.0000      -0.454148       -12.3580
 243   2.0000      -0.449356       -12.2276
 244   2.0000      -0.448318       -12.1993
 245   2.0000      -0.447564       -12.1788
 246   2.0000      -0.445418       -12.1204
 247   2.0000      -0.443399       -12.0655
 248   2.0000      -0.439878       -11.9697
 249   2.0000      -0.439315       -11.9544
 250   2.0000      -0.438913       -11.9434
 251   2.0000      -0.437007       -11.8916
 252   2.0000      -0.435832       -11.8596
 253   2.0000      -0.433402       -11.7935
 254   2.0000      -0.431288       -11.7360
 255   2.0000      -0.429780       -11.6949
 256   2.0000      -0.427509       -11.6331
 257   2.0000      -0.424415       -11.5489
 258   2.0000      -0.421511       -11.4699
 259   2.0000      -0.417594       -11.3633
 260   2.0000      -0.416464       -11.3326
 261   2.0000      -0.414510       -11.2794
 262   2.0000      -0.407794       -11.0966
 263   2.0000      -0.405266       -11.0278
 264   2.0000      -0.402258       -10.9460
 265   2.0000      -0.384851       -10.4723
 266   2.0000      -0.384213       -10.4550
 267   2.0000      -0.378525       -10.3002
 268   2.0000      -0.376584       -10.2474
 269   2.0000      -0.375039       -10.2053
 270   2.0000      -0.372660       -10.1406
 271   2.0000      -0.370930       -10.0935
 272   2.0000      -0.370530       -10.0826
 273   2.0000      -0.365366        -9.9421
 274   2.0000      -0.363991        -9.9047
 275   2.0000      -0.362805        -9.8724
 276   2.0000      -0.361651        -9.8410
 277   2.0000      -0.359370        -9.7790
 278   2.0000      -0.358216        -9.7476
 279   2.0000      -0.353411        -9.6168
 280   2.0000      -0.351618        -9.5680
 281   2.0000      -0.339199        -9.2301
 282   2.0000      -0.334337        -9.0978
 283   2.0000      -0.329167        -8.9571
 284   2.0000      -0.324311        -8.8250
 285   2.0000      -0.317683        -8.6446
 286   2.0000      -0.307319        -8.3626
 287   2.0000      -0.297412        -8.0930
 288   2.0000      -0.282511        -7.6875
 289   2.0000      -0.238854        -6.4995
 290   0.0000      -0.119912        -3.2630
 291   0.0000      -0.105146        -2.8612
 292   0.0000      -0.094204        -2.5634
 293   0.0000      -0.087486        -2.3806
 294   0.0000      -0.068253        -1.8573

MULLIKEN ATOMIC CHARGES
-----------------------
   0 C :   -0.088158
   1 C :    0.016486
   2 C :    0.181339
   3 O :   -0.143580
   4 O :   -0.140683
   5 C :   -0.071972
   6 C :   -0.155993
   7 N :    0.142346
   8 C :   -0.032270
   9 C :   -0.010444
  10 C :    0.042484
  11 C :    0.295765
  12 C :   -0.324740
  13 C :   -0.183136
  14 N :    0.150297
  15 C :   -0.188254
  16 N :    0.168461
  17 C :   -0.055374
  18 C :    0.163769
  19 O :   -0.124569
  20 C :   -0.097421
  21 C :    0.059351
  22 C :   -0.103142
  23 C :    0.003681
  24 N :   -0.074850
  25 C :    0.030757
  26 S :    0.117172
  27 C :    0.109060
  28 C :   -0.134500
  29 C :    0.042166
  30 N :   -0.066696
  31 C :    0.038348
  32 S :    0.112809
  33 C :   -0.134976
  34 C :   -0.032837
  35 C :    0.048841
  36 C :    0.063640
  37 C :   -0.112559
  38 S :    0.118742
  39 C :   -0.105973
  40 C :    0.053054
  41 C :    0.014836
  42 C :   -0.066188
  43 S :    0.133216
  44 C :    0.089425
  45 C :    0.007697
  46 C :   -0.116249
  47 C :    0.107242
  48 C :   -0.112420
  49 C :   -0.008210
  50 N :   -0.068086
  51 C :    0.029102
  52 S :    0.110017
  53 C :    0.055798
  54 C :   -0.081541
  55 C :    0.008774
  56 N :   -0.055529
  57 C :    0.021156
  58 S :    0.118380
  59 C :   -0.042859
  60 C :   -0.121168
  61 C :    0.138031
  62 O :   -0.130067
  63 C :    0.018401
  64 C :    0.047056
  65 C :   -0.074940
  66 C :    0.004187
  67 C :   -0.047943
  68 C :   -0.036839
  69 C :   -0.225080
  70 N :    0.127810
  71 C :    0.168366
  72 O :   -0.160305
  73 O :   -0.132002
  74 C :    0.330341
  75 C :   -0.320146
  76 C :   -0.200129
  77 N :    0.181362
  78 C :   -0.204758
  79 N :    0.176504
  80 H :   -0.003544
  81 H :    0.190699
  82 H :    0.018175
  83 H :    0.038020
  84 H :    0.053543
  85 H :    0.050906
  86 H :   -0.005439
  87 H :    0.041108
  88 H :   -0.011670
  89 H :    0.029987
  90 H :    0.002307
  91 H :   -0.015105
  92 H :    0.055105
  93 H :    0.047699
  94 H :    0.021244
  95 H :    0.028878
  96 H :    0.016181
  97 H :    0.182221
Sum of atomic charges:   -0.0000000

LOEWDIN ATOMIC CHARGES
----------------------
   0 C :   -0.001139
   1 C :   -0.037408
   2 C :    0.080728
   3 O :   -0.116625
   4 O :   -0.013753
   5 C :   -0.020473
   6 C :   -0.034438
   7 N :   -0.023508
   8 C :    0.049199
   9 C :   -0.027277
  10 C :   -0.000954
  11 C :    0.072141
  12 C :   -0.126148
  13 C :   -0.015677
  14 N :   -0.048714
  15 C :   -0.022671
  16 N :   -0.035547
  17 C :   -0.077451
  18 C :    0.086066
  19 O :   -0.120312
  20 C :    0.072621
  21 C :   -0.059861
  22 C :   -0.147662
  23 C :   -0.032115
  24 N :   -0.081506
  25 C :   -0.099763
  26 S :    0.412237
  27 C :   -0.023866
  28 C :   -0.176658
  29 C :   -0.001490
  30 N :   -0.082463
  31 C :   -0.091157
  32 S :    0.400822
  33 C :   -0.179678
  34 C :    0.004325
  35 C :   -0.015008
  36 C :   -0.046809
  37 C :   -0.137482
  38 S :    0.456386
  39 C :   -0.202671
  40 C :   -0.036085
  41 C :   -0.060013
  42 C :   -0.160026
  43 S :    0.424449
  44 C :   -0.044795
  45 C :    0.026939
  46 C :   -0.051026
  47 C :   -0.001098
  48 C :   -0.168946
  49 C :   -0.019602
  50 N :   -0.087934
  51 C :   -0.096454
  52 S :    0.423101
  53 C :   -0.071369
  54 C :   -0.141033
  55 C :   -0.033565
  56 N :   -0.078426
  57 C :   -0.098434
  58 S :    0.413869
  59 C :    0.067228
  60 C :   -0.085220
  61 C :    0.084564
  62 O :   -0.131086
  63 C :   -0.034289
  64 C :    0.012211
  65 C :    0.033256
  66 C :   -0.032671
  67 C :   -0.059203
  68 C :    0.046627
  69 C :   -0.042457
  70 N :   -0.031788
  71 C :    0.081903
  72 O :   -0.139679
  73 O :   -0.008906
  74 C :    0.071187
  75 C :   -0.121589
  76 C :   -0.017291
  77 N :   -0.040101
  78 C :   -0.026016
  79 N :   -0.038690
  80 H :    0.034759
  81 H :    0.098499
  82 H :    0.053454
  83 H :    0.040538
  84 H :    0.024366
  85 H :    0.025151
  86 H :    0.034046
  87 H :    0.038823
  88 H :    0.033489
  89 H :    0.024870
  90 H :    0.032490
  91 H :    0.018280
  92 H :    0.025918
  93 H :    0.023126
  94 H :    0.040652
  95 H :    0.050184
  96 H :    0.051811
  97 H :    0.087758

  Mayer bond orders larger than 0.100000
B(  0-C ,  1-C ) :   1.3213 B(  0-C , 10-C ) :   1.3859 B(  0-C , 80-H ) :   0.9600
B(  1-C ,  2-C ) :   0.8676 B(  1-C ,  5-C ) :   1.3926 B(  2-C ,  3-O ) :   2.1679
B(  2-C ,  4-O ) :   1.2578 B(  4-O , 81-H ) :   0.9472 B(  5-C ,  6-C ) :   1.0657
B(  5-C ,  8-C ) :   1.3626 B(  6-C ,  7-N ) :   3.0361 B(  8-C ,  9-C ) :   1.3557
B(  8-C , 82-H ) :   1.0158 B(  9-C , 10-C ) :   1.3435 B(  9-C , 18-C ) :   0.9231
B( 10-C , 11-C ) :   0.9854 B( 11-C , 12-C ) :   1.6512 B( 11-C , 17-C ) :   1.0743
B( 12-C , 13-C ) :   1.1416 B( 12-C , 15-C ) :   1.1388 B( 13-C , 14-N ) :   2.9697
B( 15-C , 16-N ) :   2.9813 B( 17-C , 18-C ) :   0.9323 B( 17-C , 20-C ) :   1.6426
B( 18-C , 19-O ) :   2.2455 B( 20-C , 21-C ) :   1.1054 B( 20-C , 83-H ) :   0.9332
B( 21-C , 22-C ) :   1.3376 B( 21-C , 29-C ) :   1.3141 B( 22-C , 23-C ) :   1.3086
B( 22-C , 26-S ) :   1.0903 B( 23-C , 24-N ) :   1.2989 B( 23-C , 27-C ) :   1.3142
B( 24-N , 25-C ) :   1.7484 B( 24-N , 26-S ) :   0.1019 B( 24-N , 86-H ) :   0.1042
B( 25-C , 26-S ) :   1.1101 B( 25-C , 84-H ) :   0.9627 B( 27-C , 28-C ) :   1.3402
B( 27-C , 33-C ) :   1.1041 B( 28-C , 29-C ) :   1.2972 B( 28-C , 32-S ) :   1.0692
B( 29-C , 30-N ) :   1.3385 B( 30-N , 31-C ) :   1.7405 B( 30-N , 32-S ) :   0.1034
B( 31-C , 32-S ) :   1.1172 B( 31-C , 85-H ) :   0.9626 B( 33-C , 34-C ) :   1.5168
B( 33-C , 38-S ) :   1.0389 B( 34-C , 35-C ) :   1.2590 B( 34-C , 86-H ) :   0.9268
B( 35-C , 36-C ) :   1.0593 B( 35-C , 44-C ) :   1.3551 B( 36-C , 37-C ) :   1.5868
B( 36-C , 39-C ) :   1.1804 B( 37-C , 38-S ) :   1.1600 B( 37-C , 87-H ) :   0.9404
B( 39-C , 40-C ) :   1.4272 B( 39-C , 43-S ) :   1.0769 B( 40-C , 41-C ) :   1.2232
B( 40-C , 44-C ) :   1.1104 B( 41-C , 42-C ) :   1.5870 B( 41-C , 88-H ) :   0.9980
B( 42-C , 43-S ) :   1.1520 B( 42-C , 89-H ) :   0.9659 B( 44-C , 45-C ) :   1.1409
B( 45-C , 46-C ) :   1.6085 B( 45-C , 90-H ) :   0.9455 B( 46-C , 47-C ) :   1.1545
B( 46-C , 91-H ) :   0.9565 B( 47-C , 48-C ) :   1.3318 B( 47-C , 55-C ) :   1.2606
B( 48-C , 49-C ) :   1.3087 B( 48-C , 52-S ) :   1.0717 B( 49-C , 50-N ) :   1.3561
B( 49-C , 53-C ) :   1.2751 B( 50-N , 51-C ) :   1.7072 B( 50-N , 52-S ) :   0.1051
B( 51-C , 52-S ) :   1.1434 B( 51-C , 92-H ) :   0.9637 B( 53-C , 54-C ) :   1.3451
B( 53-C , 59-C ) :   1.0926 B( 54-C , 55-C ) :   1.3123 B( 54-C , 58-S ) :   1.0964
B( 55-C , 56-N ) :   1.3312 B( 56-N , 57-C ) :   1.7541 B( 56-N , 58-S ) :   0.1041
B( 57-C , 58-S ) :   1.1101 B( 57-C , 93-H ) :   0.9642 B( 59-C , 60-C ) :   1.6626
B( 59-C , 94-H ) :   0.9403 B( 60-C , 61-C ) :   0.9521 B( 60-C , 74-C ) :   1.0392
B( 61-C , 62-O ) :   2.2777 B( 61-C , 63-C ) :   0.8959 B( 63-C , 64-C ) :   1.3270
B( 63-C , 68-C ) :   1.3757 B( 64-C , 65-C ) :   1.3312 B( 64-C , 74-C ) :   0.9940
B( 65-C , 66-C ) :   1.3710 B( 65-C , 95-H ) :   0.9933 B( 66-C , 67-C ) :   1.3508
B( 66-C , 71-C ) :   0.8617 B( 67-C , 68-C ) :   1.3546 B( 67-C , 69-C ) :   1.0596
B( 68-C , 96-H ) :   1.0119 B( 69-C , 70-N ) :   2.9906 B( 71-C , 72-O ) :   2.1754
B( 71-C , 73-O ) :   1.2753 B( 73-O , 97-H ) :   0.9385 B( 74-C , 75-C ) :   1.6579
B( 75-C , 76-C ) :   1.1677 B( 75-C , 78-C ) :   1.1410 B( 76-C , 77-N ) :   3.0119
B( 78-C , 79-N ) :   2.9989

-----------------------------------------------------------------------------
         ABSORPTION SPECTRUM VIA TRANSITION ELECTRIC DIPOLE MOMENTS
-----------------------------------------------------------------------------
State   Energy  Wavelength   fosc         T2         TX        TY        TZ
        (cm-1)    (nm)                  (au**2)     (au)      (au)      (au)
-----------------------------------------------------------------------------
   0   12202.7    819.5   0.561281837  15.14256   1.65373  -1.36691  -3.24643
   1   15814.7    632.3   0.593788484  12.36078   1.55507  -2.22795   2.23131
   2   19356.7    516.6   0.047257842   0.80375  -0.76591   0.22388   0.40866
   3   20329.6    491.9   0.051917316   0.84073   0.40653   0.01965  -0.82163
   4   21502.4    465.1   0.733019545  11.22286   1.84419  -2.54685   1.15559
   5   22062.9    453.2   0.084945023   1.26751   0.39701  -0.93208   0.49105
   6   23769.0    420.7   0.048156985   0.66700  -0.14496   0.27555  -0.75502
   7   24426.6    409.4   0.059771735   0.80558  -0.23270  -0.39210  -0.77311
   8   25717.2    388.8   0.010199568   0.13057   0.28478   0.01257  -0.22206
   9   26119.9    382.9   0.016385637   0.20652  -0.36900   0.17146   0.20239
  10   26724.2    374.2   0.028502665   0.35112   0.01864  -0.23850   0.54211
  11   27011.0    370.2   0.001178335   0.01436   0.00553  -0.11719  -0.02445
  12   27360.6    365.5   0.017493592   0.21049   0.40411  -0.21549   0.02738
  13   27565.7    362.8   0.102908647   1.22902   0.77125   0.32751  -0.72590
  14   28496.6    350.9   0.123062049   1.42169  -0.65833  -0.46210   0.88020
  15   28540.6    350.4   0.024112270   0.27813  -0.19705   0.28267   0.39925
  16   29183.7    342.7   0.041819748   0.47176  -0.34805   0.32172  -0.49711
  17   29793.4    335.6   0.056870170   0.62841  -0.26110  -0.48278   0.57198
  18   30022.4    333.1   0.074082068   0.81235  -0.30344  -0.83630  -0.14446
  19   30173.3    331.4   0.086662064   0.94554   0.03604  -0.69877   0.67525
  20   30494.4    327.9   0.089778413   0.96923  -0.84954  -0.38591  -0.31399
  21   30700.4    325.7   0.088729895   0.95148   0.38934   0.67768  -0.58365
  22   31445.9    318.0   0.014815151   0.15510   0.26950   0.08913  -0.27299
  23   31600.6    316.4   0.130197510   1.35638   0.23068   1.04204  -0.46617
  24   32042.0    312.1   0.119508741   1.22788   0.23515   0.87586  -0.63675
  25   32622.2    306.5   0.010972344   0.11073  -0.27672   0.16334   0.08647
  26   32663.3    306.2   0.008268617   0.08334   0.20254   0.14473  -0.14619
  27   32975.2    303.3   0.185599523   1.85296   0.19136  -1.23849   0.53149
  28   33219.6    301.0   0.073992348   0.73328   0.58436  -0.19378   0.59519
  29   33344.5    299.9   0.145226450   1.43383   0.04078   1.08115   0.51311
  30   33581.8    297.8   0.053450009   0.52399   0.67352   0.05423   0.25965
  31   33891.5    295.1   0.028190108   0.27383   0.34949   0.35346  -0.16357
  32   34227.0    292.2   0.139427351   1.34108  -0.68520  -0.72365   0.58984
  33   34463.3    290.2   0.136052813   1.29965  -0.93221  -0.60710  -0.24912
  34   34533.1    289.6   0.031512258   0.30041  -0.42291  -0.22682  -0.26479
  35   34911.1    286.4   0.041318819   0.38964  -0.22513  -0.58051   0.04432
  36   35026.1    285.5   0.038777690   0.36447   0.40586   0.43929   0.08227
  37   35096.5    284.9   0.033529027   0.31451  -0.47883  -0.27052   0.10976
  38   35158.7    284.4   0.031695747   0.29679  -0.20305   0.47973  -0.15942
  39   35271.1    283.5   0.276921356   2.58472  -0.54498   1.49958   0.19743
  40   35608.3    280.8   0.003587269   0.03317  -0.16216  -0.03897  -0.07315
  41   35861.7    278.8   0.070327370   0.64561   0.23487  -0.67660   0.36422
  42   36127.5    276.8   0.153571689   1.39942  -0.92256  -0.38032   0.63535
  43   36269.1    275.7   0.015524503   0.14091  -0.05718   0.36522  -0.06529
  44   36359.3    275.0   0.016569447   0.15003  -0.18632  -0.20081   0.27384
  45   36533.6    273.7   0.080039817   0.72126   0.77062  -0.31207   0.17325
  46   36751.0    272.1   0.042491483   0.38063   0.22938  -0.44644   0.35876
  47   36775.9    271.9   0.018694840   0.16735   0.37141  -0.12333   0.11916
  48   37129.9    269.3   0.170548889   1.51217  -1.10612  -0.45708   0.28238
  49   37264.3    268.4   0.116316371   1.02760  -0.13296  -0.96232  -0.28957
  50   37565.1    266.2   0.031386949   0.27507   0.10451  -0.01858  -0.51361
  51   37942.4    263.6   0.178097555   1.54529   0.07366  -1.15882   0.44385
  52   38078.8    262.6   0.034985824   0.30247   0.45391  -0.25017   0.18398
  53   38094.5    262.5   0.075509303   0.65255   0.50118  -0.62123   0.12426
  54   38337.3    260.8   0.006226689   0.05347   0.17405   0.14032   0.05905
  55   38371.6    260.6   0.026896712   0.23076  -0.29708   0.31834   0.20290
  56   38687.5    258.5   0.006014080   0.05118  -0.16588   0.14557  -0.04969
  57   38822.6    257.6   0.092491600   0.78432   0.28095  -0.61233   0.57483
  58   38912.3    257.0   0.112919056   0.95533   0.62971  -0.72539   0.18056
  59   38973.2    256.6   0.039054078   0.32990  -0.17151   0.48603  -0.25348
  60   39145.7    255.5   0.055232445   0.46450  -0.65582  -0.18549   0.00095
  61   39389.3    253.9   0.100134148   0.83691  -0.08404   0.89286   0.18069
  62   39582.9    252.6   0.015969488   0.13282  -0.26884   0.13065  -0.20850
  63   39707.1    251.8   0.038528885   0.31944   0.42820  -0.11669  -0.34995
  64   39825.7    251.1   0.028245668   0.23349  -0.01602  -0.47300   0.09750
  65   39991.4    250.1   0.162757944   1.33983   0.96501  -0.44845  -0.45550
  66   40168.2    249.0   0.040020598   0.32800   0.22782  -0.51325   0.11257
  67   40200.3    248.8   0.143443125   1.17470   0.49039   0.33479  -0.90671
  68   40242.6    248.5   0.060532945   0.49520   0.24152  -0.58728   0.30326

FINAL SINGLE POINT ENERGY     -5604.180016459576

DIPOLE MOMENT
-------------
                                X             Y             Z
Electronic contribution:     -5.85046       5.12554       4.83426
Nuclear contribution   :     11.31270      -7.85993      -2.75053
                        -----------------------------------------
Total Dipole Moment    :      5.46224      -2.73439       2.08372
                        -----------------------------------------
Magnitude (a.u.)       :      6.45406
Magnitude (Debye)      :     16.40491

Rotational constants in cm-1:     0.000634     0.000504     0.000312
Rotational constants in MHz :    19.010064    15.119431     9.368460

                             ****ORCA TERMINATED NORMALLY****
TOTAL RUN TIME: 0 days 0 hours 11 minutes 59 seconds 795 msec
