                         Program Version 4.2.0 -  RELEASE  -
|  1> # ORCA input file
|  2> # SCF done       -197.979687602658          0.000956639297
|  3> ! CAM-B3LYP def2-SVP def2/J RIJCOSX Grid4 TightSCF
|  4> %maxcore 5000
|  5> %tddft
|  6>     Mode sTDDFT
|  7>     Ethresh 5.0
|  8>     maxcore 5000
|  9> end
| 10>
| 11> %pal
| 12>   nprocs 6
| 13>   end
| 14> * xyz 0 1
| 15>    C       -3.15196        -3.30217         3.48709
| 16>    C       -3.92986        -2.14928         3.57226
| 17>    C       -4.44969        -1.63525         4.88387
| 18>    O       -5.44023        -0.96526         4.95349
| 19>    O       -3.75329        -1.95872         5.97988
| 20>    C       -4.30172        -1.45517         2.40806
| 21>    C       -5.07523        -0.26690         2.45607
| 22>    N       -5.65797         0.71502         2.36533
| 23>    C       -3.88753        -1.90603         1.15072
| 24>    C       -3.11402        -3.04387         1.08621
| 25>    C       -2.73835        -3.75145         2.24237
| 26>    C       -1.95875        -4.92642         1.85068
| 27>    C       -1.67639        -5.99183         2.66571
| 28>    C       -1.88662        -5.98761         4.05865
| 29>    N       -1.99594        -5.99464         5.20171
| 30>    C       -1.18486        -7.22984         2.20689
| 31>    N       -0.81635        -8.26640         1.88109
| 32>    C       -1.71358        -4.83020         0.43142
| 33>    C       -2.55566        -3.72611        -0.10573
| 34>    O       -2.71877        -3.43033        -1.26534
| 35>    C       -0.87067        -5.46263        -0.43082
| 36>    C        0.25279        -6.32892        -0.24413
| 37>    C        1.10878        -6.27897         0.88680
| 38>    O        0.79590        -5.31893         1.78641
| 39>    C        1.62542        -4.99624         2.88443
| 40>    C        2.17415        -7.18773         0.98026
| 41>    O        2.99955        -7.15484         2.08863
| 42>    C        4.36145        -6.87227         1.83492
| 43>    C        2.35901        -8.15759        -0.01158
| 44>    C        1.55776        -8.14506        -1.15254
| 45>    C        0.54778        -7.22848        -1.27823
| 46>    C        3.33294        -9.24442         0.18708
| 47>    C        4.29496        -9.54475        -0.79797
| 48>    O        4.29798        -8.69407        -1.85842
| 49>    C        5.32298        -8.71909        -2.82770
| 50>    C        5.15988       -10.62634        -0.58782
| 51>    O        6.10579       -10.97801        -1.54301
| 52>    C        5.80920       -12.16819        -2.24189
| 53>    C        5.08027       -11.36705         0.59910
| 54>    C        4.12657       -11.05069         1.55742
| 55>    C        3.25546       -10.00381         1.34624
| 56>    C        6.04636       -12.44387         0.87785
| 57>    C        5.58318       -13.72575         1.23829
| 58>    O        4.24090       -13.91166         1.15026
| 59>    C        3.59000       -14.82925         2.00808
| 60>    C        6.50700       -14.70430         1.60590
| 61>    O        6.09187       -15.99599         1.90712
| 62>    C        6.14251       -16.87289         0.79970
| 63>    C        7.88308       -14.40098         1.64743
| 64>    C        8.31946       -13.15046         1.21057
| 65>    C        7.40934       -12.18572         0.83820
| 66>    C        8.85211       -15.36808         2.09987
| 67>    C        8.70926       -16.29289         3.07705
| 68>    C        9.66414       -17.42964         3.17305
| 69>    O       10.73805       -17.53229         2.63168
| 70>    C        8.97363       -18.43504         4.01706
| 71>    C        7.75774       -17.90134         4.48711
| 72>    C        6.90044       -18.69319         5.23138
| 73>    C        7.27088       -20.00031         5.54487
| 74>    C        8.50536       -20.50831         5.10209
| 75>    C        9.35874       -19.72217         4.31764
| 76>    C        8.93816       -21.82316         5.39643
| 77>    N        9.33613       -22.87376         5.62972
| 78>    C        6.24466       -20.80291         6.30327
| 79>    O        5.07928       -20.53859         6.20976
| 80>    O        6.66626       -21.79293         7.09065
| 81>    C        7.65354       -16.51023         4.05349
| 82>    C        6.86749       -15.56179         4.63969
| 83>    C        6.95617       -14.17748         4.37526
| 84>    N        7.00727       -13.03705         4.25985
| 85>    C        5.91143       -15.83917         5.64170
| 86>    N        5.11105       -16.00039         6.44718
| 87>    H       -2.89702        -3.85903         4.37649
| 88>    H       -2.97282        -2.50328         5.80986
| 89>    H       -4.17129        -1.37829         0.25289
| 90>    H       -1.08475        -5.23354        -1.47275
| 91>    H        1.10890        -4.18132         3.39359
| 92>    H        2.60724        -4.64710         2.55850
| 93>    H        1.74462        -5.84009         3.56498
| 94>    H        4.85652        -6.91605         2.80307
| 95>    H        4.48096        -5.86987         1.40654
| 96>    H        4.81516        -7.60289         1.16211
| 97>    H        1.72809        -8.88242        -1.91936
| 98>    H       -0.08376        -7.23225        -2.15336
| 99>    H        5.17616        -7.81139        -3.41363
|100>    H        5.24014        -9.58695        -3.48622
|101>    H        6.31388        -8.70713        -2.37073
|102>    H        4.89712       -12.05844        -2.84074
|103>    H        5.68408       -13.01614        -1.56246
|104>    H        6.65746       -12.35007        -2.89951
|105>    H        4.08823       -11.61650         2.47379
|106>    H        2.50315        -9.75964         2.07925
|107>    H        3.63411       -15.85197         1.62769
|108>    H        2.55041       -14.50323         2.03876
|109>    H        4.01028       -14.80237         3.01566
|110>    H        7.17017       -16.98883         0.43656
|111>    H        5.77083       -17.83245         1.15554
|112>    H        5.51376       -16.51704        -0.02329
|113>    H        9.37524       -12.92930         1.22333
|114>    H        7.74663       -11.20711         0.53604
|115>    H        9.79981       -15.38589         1.57066
|116>    H        5.93690       -18.34338         5.56816
|117>    H       10.29506       -20.11931         3.95536
|118>    H        7.61825       -21.96910         7.06907
|119> *
|120>
|121>                          ****END OF INPUT****

CARTESIAN COORDINATES (ANGSTROEM)
---------------------------------
  C     -3.151960   -3.302170    3.487090
  C     -3.929860   -2.149280    3.572260
  C     -4.449690   -1.635250    4.883870
  O     -5.440230   -0.965260    4.953490
  O     -3.753290   -1.958720    5.979880
  C     -4.301720   -1.455170    2.408060
  C     -5.075230   -0.266900    2.456070
  N     -5.657970    0.715020    2.365330
  C     -3.887530   -1.906030    1.150720
  C     -3.114020   -3.043870    1.086210
  C     -2.738350   -3.751450    2.242370
  C     -1.958750   -4.926420    1.850680
  C     -1.676390   -5.991830    2.665710
  C     -1.886620   -5.987610    4.058650
  N     -1.995940   -5.994640    5.201710
  C     -1.184860   -7.229840    2.206890
  N     -0.816350   -8.266400    1.881090
  C     -1.713580   -4.830200    0.431420
  C     -2.555660   -3.726110   -0.105730
  O     -2.718770   -3.430330   -1.265340
  C     -0.870670   -5.462630   -0.430820
  C      0.252790   -6.328920   -0.244130
  C      1.108780   -6.278970    0.886800
  O      0.795900   -5.318930    1.786410
  C      1.625420   -4.996240    2.884430
  C      2.174150   -7.187730    0.980260
  O      2.999550   -7.154840    2.088630
  C      4.361450   -6.872270    1.834920
  C      2.359010   -8.157590   -0.011580
  C      1.557760   -8.145060   -1.152540
  C      0.547780   -7.228480   -1.278230
  C      3.332940   -9.244420    0.187080
  C      4.294960   -9.544750   -0.797970
  O      4.297980   -8.694070   -1.858420
  C      5.322980   -8.719090   -2.827700
  C      5.159880  -10.626340   -0.587820
  O      6.105790  -10.978010   -1.543010
  C      5.809200  -12.168190   -2.241890
  C      5.080270  -11.367050    0.599100
  C      4.126570  -11.050690    1.557420
  C      3.255460  -10.003810    1.346240
  C      6.046360  -12.443870    0.877850
  C      5.583180  -13.725750    1.238290
  O      4.240900  -13.911660    1.150260
  C      3.590000  -14.829250    2.008080
  C      6.507000  -14.704300    1.605900
  O      6.091870  -15.995990    1.907120
  C      6.142510  -16.872890    0.799700
  C      7.883080  -14.400980    1.647430
  C      8.319460  -13.150460    1.210570
  C      7.409340  -12.185720    0.838200
  C      8.852110  -15.368080    2.099870
  C      8.709260  -16.292890    3.077050
  C      9.664140  -17.429640    3.173050
  O     10.738050  -17.532290    2.631680
  C      8.973630  -18.435040    4.017060
  C      7.757740  -17.901340    4.487110
  C      6.900440  -18.693190    5.231380
  C      7.270880  -20.000310    5.544870
  C      8.505360  -20.508310    5.102090
  C      9.358740  -19.722170    4.317640
  C      8.938160  -21.823160    5.396430
  N      9.336130  -22.873760    5.629720
  C      6.244660  -20.802910    6.303270
  O      5.079280  -20.538590    6.209760
  O      6.666260  -21.792930    7.090650
  C      7.653540  -16.510230    4.053490
  C      6.867490  -15.561790    4.639690
  C      6.956170  -14.177480    4.375260
  N      7.007270  -13.037050    4.259850
  C      5.911430  -15.839170    5.641700
  N      5.111050  -16.000390    6.447180
  H     -2.897020   -3.859030    4.376490
  H     -2.972820   -2.503280    5.809860
  H     -4.171290   -1.378290    0.252890
  H     -1.084750   -5.233540   -1.472750
  H      1.108900   -4.181320    3.393590
  H      2.607240   -4.647100    2.558500
  H      1.744620   -5.840090    3.564980
  H      4.856520   -6.916050    2.803070
  H      4.480960   -5.869870    1.406540
  H      4.815160   -7.602890    1.162110
  H      1.728090   -8.882420   -1.919360
  H     -0.083760   -7.232250   -2.153360
  H      5.176160   -7.811390   -3.413630
  H      5.240140   -9.586950   -3.486220
  H      6.313880   -8.707130   -2.370730
  H      4.897120  -12.058440   -2.840740
  H      5.684080  -13.016140   -1.562460
  H      6.657460  -12.350070   -2.899510
  H      4.088230  -11.616500    2.473790
  H      2.503150   -9.759640    2.079250
  H      3.634110  -15.851970    1.627690
  H      2.550410  -14.503230    2.038760
  H      4.010280  -14.802370    3.015660
  H      7.170170  -16.988830    0.436560
  H      5.770830  -17.832450    1.155540
  H      5.513760  -16.517040   -0.023290
  H      9.375240  -12.929300    1.223330
  H      7.746630  -11.207110    0.536040
  H      9.799810  -15.385890    1.570660
  H      5.936900  -18.343380    5.568160
  H     10.295060  -20.119310    3.955360
  H      7.618250  -21.969100    7.069070

 Total Charge           Charge          ....    0
 Multiplicity           Mult            ....    1
 Number of Electrons    NEL             ....  494
 Basis Dimension        Dim             .... 1168

ORBITAL ENERGIES
----------------

  NO   OCC          E(Eh)            E(eV)
   0   2.0000     -19.278054      -524.5825
   1   2.0000     -19.272521      -524.4320
   2   2.0000     -19.269679      -524.3546
   3   2.0000     -19.262401      -524.1566
   4   2.0000     -19.258340      -524.0461
   5   2.0000     -19.254110      -523.9310
   6   2.0000     -19.246446      -523.7224
   7   2.0000     -19.245913      -523.7079
   8   2.0000     -19.240394      -523.5577
   9   2.0000     -19.227401      -523.2042
  10   2.0000     -19.218939      -522.9739
  11   2.0000     -19.210955      -522.7567
  12   2.0000     -14.449753      -393.1978
  13   2.0000     -14.431879      -392.7114
  14   2.0000     -14.430275      -392.6677
  15   2.0000     -14.429839      -392.6559
  16   2.0000     -14.422476      -392.4555
  17   2.0000     -14.404728      -391.9726
  18   2.0000     -10.427120      -283.7364
  19   2.0000     -10.416958      -283.4598
  20   2.0000     -10.391462      -282.7661
  21   2.0000     -10.376911      -282.3701
  22   2.0000     -10.363923      -282.0167
  23   2.0000     -10.363553      -282.0066
  24   2.0000     -10.359438      -281.8947
  25   2.0000     -10.358016      -281.8559
  26   2.0000     -10.353881      -281.7434
  27   2.0000     -10.353295      -281.7275
  28   2.0000     -10.351514      -281.6790
  29   2.0000     -10.347492      -281.5696
  30   2.0000     -10.346687      -281.5477
  31   2.0000     -10.345517      -281.5158
  32   2.0000     -10.345179      -281.5066
  33   2.0000     -10.343241      -281.4539
  34   2.0000     -10.342666      -281.4382
  35   2.0000     -10.340979      -281.3924
  36   2.0000     -10.339336      -281.3476
  37   2.0000     -10.338600      -281.3276
  38   2.0000     -10.335922      -281.2547
  39   2.0000     -10.333667      -281.1934
  40   2.0000     -10.332662      -281.1660
  41   2.0000     -10.332437      -281.1599
  42   2.0000     -10.331828      -281.1433
  43   2.0000     -10.331723      -281.1405
  44   2.0000     -10.331501      -281.1344
  45   2.0000     -10.329760      -281.0871
  46   2.0000     -10.328190      -281.0443
  47   2.0000     -10.328069      -281.0410
  48   2.0000     -10.327770      -281.0329
  49   2.0000     -10.326902      -281.0093
  50   2.0000     -10.324854      -280.9536
  51   2.0000     -10.324572      -280.9459
  52   2.0000     -10.324538      -280.9450
  53   2.0000     -10.322904      -280.9005
  54   2.0000     -10.321756      -280.8693
  55   2.0000     -10.321020      -280.8492
  56   2.0000     -10.316060      -280.7143
  57   2.0000     -10.313341      -280.6403
  58   2.0000     -10.307965      -280.4940
  59   2.0000     -10.305443      -280.4254
  60   2.0000     -10.300902      -280.3018
  61   2.0000     -10.300881      -280.3012
  62   2.0000     -10.297231      -280.2019
  63   2.0000     -10.296069      -280.1703
  64   2.0000     -10.293790      -280.1083
  65   2.0000     -10.290573      -280.0207
  66   2.0000     -10.289255      -279.9849
  67   2.0000     -10.286205      -279.9019
  68   2.0000     -10.285803      -279.8909
  69   2.0000     -10.276028      -279.6249
  70   2.0000     -10.274164      -279.5742
  71   2.0000     -10.271853      -279.5113
  72   2.0000      -1.204005       -32.7626
  73   2.0000      -1.196417       -32.5562
  74   2.0000      -1.175820       -31.9957
  75   2.0000      -1.174268       -31.9534
  76   2.0000      -1.162987       -31.6465
  77   2.0000      -1.156040       -31.4575
  78   2.0000      -1.152058       -31.3491
  79   2.0000      -1.144515       -31.1438
  80   2.0000      -1.142687       -31.0941
  81   2.0000      -1.140755       -31.0415
  82   2.0000      -1.118188       -30.4275
  83   2.0000      -1.111378       -30.2421
  84   2.0000      -1.043756       -28.4020
  85   2.0000      -1.034274       -28.1440
  86   2.0000      -1.031076       -28.0570
  87   2.0000      -1.019659       -27.7463
  88   2.0000      -1.015355       -27.6292
  89   2.0000      -1.009182       -27.4612
  90   2.0000      -1.004534       -27.3348
  91   2.0000      -0.991404       -26.9775
  92   2.0000      -0.985591       -26.8193
  93   2.0000      -0.978195       -26.6180
  94   2.0000      -0.972445       -26.4616
  95   2.0000      -0.965143       -26.2629
  96   2.0000      -0.954645       -25.9772
  97   2.0000      -0.926071       -25.1997
  98   2.0000      -0.922612       -25.1055
  99   2.0000      -0.915768       -24.9193
 100   2.0000      -0.907461       -24.6933
 101   2.0000      -0.902985       -24.5715
 102   2.0000      -0.891782       -24.2666
 103   2.0000      -0.884248       -24.0616
 104   2.0000      -0.867108       -23.5952
 105   2.0000      -0.863296       -23.4915
 106   2.0000      -0.859227       -23.3807
 107   2.0000      -0.851665       -23.1750
 108   2.0000      -0.842992       -22.9390
 109   2.0000      -0.826866       -22.5002
 110   2.0000      -0.815267       -22.1846
 111   2.0000      -0.810533       -22.0557
 112   2.0000      -0.804449       -21.8902
 113   2.0000      -0.802068       -21.8254
 114   2.0000      -0.795323       -21.6418
 115   2.0000      -0.784512       -21.3476
 116   2.0000      -0.779219       -21.2036
 117   2.0000      -0.772454       -21.0195
 118   2.0000      -0.767809       -20.8931
 119   2.0000      -0.756792       -20.5934
 120   2.0000      -0.751147       -20.4397
 121   2.0000      -0.743180       -20.2230
 122   2.0000      -0.731846       -19.9146
 123   2.0000      -0.723186       -19.6789
 124   2.0000      -0.716459       -19.4958
 125   2.0000      -0.712097       -19.3772
 126   2.0000      -0.705285       -19.1918
 127   2.0000      -0.702482       -19.1155
 128   2.0000      -0.698875       -19.0174
 129   2.0000      -0.694031       -18.8855
 130   2.0000      -0.692663       -18.8483
 131   2.0000      -0.683592       -18.6015
 132   2.0000      -0.682577       -18.5739
 133   2.0000      -0.676333       -18.4040
 134   2.0000      -0.667127       -18.1535
 135   2.0000      -0.658644       -17.9226
 136   2.0000      -0.644301       -17.5323
 137   2.0000      -0.640916       -17.4402
 138   2.0000      -0.634826       -17.2745
 139   2.0000      -0.629215       -17.1218
 140   2.0000      -0.624150       -16.9840
 141   2.0000      -0.620332       -16.8801
 142   2.0000      -0.613905       -16.7052
 143   2.0000      -0.611401       -16.6371
 144   2.0000      -0.605894       -16.4872
 145   2.0000      -0.601336       -16.3632
 146   2.0000      -0.597823       -16.2676
 147   2.0000      -0.595642       -16.2082
 148   2.0000      -0.590473       -16.0676
 149   2.0000      -0.586637       -15.9632
 150   2.0000      -0.584399       -15.9023
 151   2.0000      -0.582006       -15.8372
 152   2.0000      -0.578485       -15.7414
 153   2.0000      -0.573174       -15.5969
 154   2.0000      -0.569424       -15.4948
 155   2.0000      -0.566759       -15.4223
 156   2.0000      -0.565588       -15.3904
 157   2.0000      -0.564332       -15.3563
 158   2.0000      -0.562396       -15.3036
 159   2.0000      -0.561471       -15.2784
 160   2.0000      -0.556340       -15.1388
 161   2.0000      -0.554359       -15.0849
 162   2.0000      -0.553489       -15.0612
 163   2.0000      -0.550949       -14.9921
 164   2.0000      -0.549801       -14.9608
 165   2.0000      -0.546596       -14.8736
 166   2.0000      -0.545176       -14.8350
 167   2.0000      -0.541079       -14.7235
 168   2.0000      -0.540204       -14.6997
 169   2.0000      -0.539964       -14.6932
 170   2.0000      -0.537021       -14.6131
 171   2.0000      -0.535171       -14.5627
 172   2.0000      -0.533618       -14.5205
 173   2.0000      -0.533188       -14.5088
 174   2.0000      -0.530951       -14.4479
 175   2.0000      -0.529974       -14.4213
 176   2.0000      -0.520458       -14.1624
 177   2.0000      -0.518729       -14.1153
 178   2.0000      -0.518627       -14.1126
 179   2.0000      -0.515921       -14.0389
 180   2.0000      -0.514557       -14.0018
 181   2.0000      -0.510497       -13.8913
 182   2.0000      -0.507435       -13.8080
 183   2.0000      -0.502651       -13.6778
 184   2.0000      -0.500140       -13.6095
 185   2.0000      -0.492764       -13.4088
 186   2.0000      -0.491042       -13.3619
 187   2.0000      -0.487119       -13.2552
 188   2.0000      -0.484512       -13.1843
 189   2.0000      -0.482132       -13.1195
 190   2.0000      -0.480422       -13.0729
 191   2.0000      -0.476884       -12.9767
 192   2.0000      -0.474221       -12.9042
 193   2.0000      -0.472508       -12.8576
 194   2.0000      -0.470568       -12.8048
 195   2.0000      -0.468791       -12.7564
 196   2.0000      -0.466766       -12.7014
 197   2.0000      -0.465761       -12.6740
 198   2.0000      -0.464611       -12.6427
 199   2.0000      -0.463683       -12.6175
 200   2.0000      -0.461450       -12.5567
 201   2.0000      -0.456801       -12.4302
 202   2.0000      -0.455616       -12.3979
 203   2.0000      -0.454780       -12.3752
 204   2.0000      -0.452238       -12.3060
 205   2.0000      -0.448614       -12.2074
 206   2.0000      -0.446870       -12.1599
 207   2.0000      -0.444679       -12.1003
 208   2.0000      -0.444142       -12.0857
 209   2.0000      -0.442186       -12.0325
 210   2.0000      -0.440668       -11.9912
 211   2.0000      -0.437506       -11.9051
 212   2.0000      -0.435969       -11.8633
 213   2.0000      -0.432686       -11.7740
 214   2.0000      -0.431987       -11.7550
 215   2.0000      -0.428946       -11.6722
 216   2.0000      -0.428283       -11.6542
 217   2.0000      -0.425419       -11.5762
 218   2.0000      -0.422730       -11.5031
 219   2.0000      -0.418581       -11.3902
 220   2.0000      -0.417329       -11.3561
 221   2.0000      -0.415482       -11.3059
 222   2.0000      -0.411774       -11.2050
 223   2.0000      -0.410242       -11.1632
 224   2.0000      -0.409196       -11.1348
 225   2.0000      -0.405295       -11.0286
 226   2.0000      -0.402042       -10.9401
 227   2.0000      -0.400050       -10.8859
 228   2.0000      -0.383749       -10.4423
 229   2.0000      -0.379266       -10.3203
 230   2.0000      -0.375544       -10.2191
 231   2.0000      -0.372760       -10.1433
 232   2.0000      -0.367770       -10.0075
 233   2.0000      -0.366076        -9.9614
 234   2.0000      -0.365471        -9.9450
 235   2.0000      -0.361484        -9.8365
 236   2.0000      -0.361157        -9.8276
 237   2.0000      -0.356703        -9.7064
 238   2.0000      -0.348396        -9.4803
 239   2.0000      -0.339943        -9.2503
 240   2.0000      -0.331619        -9.0238
 241   2.0000      -0.325503        -8.8574
 242   2.0000      -0.315694        -8.5905
 243   2.0000      -0.302634        -8.2351
 244   2.0000      -0.298755        -8.1295
 245   2.0000      -0.296358        -8.0643
 246   2.0000      -0.280309        -7.6276
 247   0.0000      -0.108606        -2.9553
 248   0.0000      -0.096087        -2.6147
 249   0.0000      -0.091034        -2.4772
 250   0.0000      -0.078923        -2.1476
 251   0.0000      -0.033572        -0.9135

MULLIKEN ATOMIC CHARGES
-----------------------
   0 C :   -0.092410
   1 C :    0.021422
   2 C :    0.183024
   3 O :   -0.146049
   4 O :   -0.141111
   5 C :   -0.083724
   6 C :   -0.153200
   7 N :    0.136560
   8 C :   -0.032890
   9 C :    0.001919
  10 C :    0.039746
  11 C :    0.318238
  12 C :   -0.330039
  13 C :   -0.178711
  14 N :    0.133543
  15 C :   -0.201953
  16 N :    0.186613
  17 C :   -0.107846
  18 C :    0.138053
  19 O :   -0.130312
  20 C :    0.010276
  21 C :    0.043815
  22 C :    0.145740
  23 O :   -0.319367
  24 C :    0.199576
  25 C :    0.074783
  26 O :   -0.352407
  27 C :    0.205248
  28 C :    0.067316
  29 C :    0.018103
  30 C :   -0.006024
  31 C :   -0.099968
  32 C :    0.175875
  33 O :   -0.311158
  34 C :    0.202790
  35 C :    0.042871
  36 O :   -0.361723
  37 C :    0.212012
  38 C :    0.054962
  39 C :   -0.002210
  40 C :    0.024986
  41 C :   -0.052124
  42 C :    0.181644
  43 O :   -0.308697
  44 C :    0.199285
  45 C :    0.028428
  46 O :   -0.364625
  47 C :    0.204660
  48 C :    0.071781
  49 C :   -0.019405
  50 C :    0.043484
  51 C :    0.002885
  52 C :   -0.124870
  53 C :    0.146269
  54 O :   -0.124640
  55 C :    0.008035
  56 C :    0.044153
  57 C :   -0.069478
  58 C :   -0.001069
  59 C :   -0.049341
  60 C :   -0.035389
  61 C :   -0.224048
  62 N :    0.137948
  63 C :    0.172375
  64 O :   -0.157132
  65 O :   -0.130982
  66 C :    0.320805
  67 C :   -0.303629
  68 C :   -0.208528
  69 N :    0.190017
  70 C :   -0.207526
  71 N :    0.184969
  72 H :   -0.018338
  73 H :    0.187801
  74 H :    0.015622
  75 H :    0.028552
  76 H :    0.023630
  77 H :    0.018384
  78 H :    0.050852
  79 H :    0.035320
  80 H :    0.009548
  81 H :    0.038066
  82 H :   -0.022256
  83 H :   -0.017299
  84 H :    0.028762
  85 H :    0.010236
  86 H :    0.028445
  87 H :    0.012450
  88 H :    0.024270
  89 H :    0.031400
  90 H :   -0.025321
  91 H :   -0.002390
  92 H :    0.015768
  93 H :    0.039815
  94 H :    0.026645
  95 H :    0.019170
  96 H :    0.040848
  97 H :    0.023918
  98 H :   -0.018178
  99 H :   -0.011353
 100 H :    0.029129
 101 H :    0.033211
 102 H :    0.017521
 103 H :    0.184149
Sum of atomic charges:   -0.0000000

LOEWDIN ATOMIC CHARGES
----------------------
   0 C :   -0.008596
   1 C :   -0.038583
   2 C :    0.081835
   3 O :   -0.118106
   4 O :   -0.015676
   5 C :   -0.026355
   6 C :   -0.034477
   7 N :   -0.029531
   8 C :    0.049852
   9 C :   -0.034235
  10 C :    0.005369
  11 C :    0.064939
  12 C :   -0.127008
  13 C :   -0.017324
  14 N :   -0.057067
  15 C :   -0.016914
  16 N :   -0.038587
  17 C :   -0.099690
  18 C :    0.085235
  19 O :   -0.129940
  20 C :    0.090149
  21 C :   -0.065033
  22 C :    0.062661
  23 O :   -0.076045
  24 C :    0.080648
  25 C :    0.016163
  26 O :   -0.125441
  27 C :    0.079742
  28 C :    0.003451
  29 C :   -0.014153
  30 C :    0.005335
  31 C :   -0.049996
  32 C :    0.042191
  33 O :   -0.100095
  34 C :    0.078752
  35 C :    0.007995
  36 O :   -0.135856
  37 C :    0.077396
  38 C :   -0.024728
  39 C :   -0.016543
  40 C :    0.000096
  41 C :   -0.015411
  42 C :    0.043661
  43 O :   -0.099208
  44 C :    0.082112
  45 C :    0.015847
  46 O :   -0.128552
  47 C :    0.078345
  48 C :   -0.056301
  49 C :   -0.006773
  50 C :    0.005028
  51 C :    0.084247
  52 C :   -0.088750
  53 C :    0.083488
  54 O :   -0.127556
  55 C :   -0.036554
  56 C :    0.008241
  57 C :    0.034981
  58 C :   -0.031345
  59 C :   -0.057028
  60 C :    0.048239
  61 C :   -0.043915
  62 N :   -0.027167
  63 C :    0.081490
  64 O :   -0.135998
  65 O :   -0.007112
  66 C :    0.069930
  67 C :   -0.110431
  68 C :   -0.020633
  69 N :   -0.032786
  70 C :   -0.024975
  71 N :   -0.031035
  72 H :    0.031948
  73 H :    0.096131
  74 H :    0.052939
  75 H :    0.048591
  76 H :    0.021071
  77 H :    0.017344
  78 H :    0.024042
  79 H :    0.027495
  80 H :    0.007800
  81 H :    0.019154
  82 H :    0.031871
  83 H :    0.033450
  84 H :    0.022928
  85 H :    0.012737
  86 H :    0.017489
  87 H :    0.010108
  88 H :    0.014956
  89 H :    0.024590
  90 H :    0.031685
  91 H :    0.038521
  92 H :    0.013482
  93 H :    0.027584
  94 H :    0.018663
  95 H :    0.013406
  96 H :    0.027124
  97 H :    0.016421
  98 H :    0.033341
  99 H :    0.036564
 100 H :    0.048849
 101 H :    0.051687
 102 H :    0.052684
 103 H :    0.089433

  Mayer bond orders larger than 0.100000
B(  0-C ,  1-C ) :   1.3106 B(  0-C , 10-C ) :   1.3948 B(  0-C , 72-H ) :   0.9557
B(  1-C ,  2-C ) :   0.8686 B(  1-C ,  5-C ) :   1.3972 B(  2-C ,  3-O ) :   2.1656
B(  2-C ,  4-O ) :   1.2546 B(  4-O , 73-H ) :   0.9511 B(  5-C ,  6-C ) :   1.0648
B(  5-C ,  8-C ) :   1.3638 B(  6-C ,  7-N ) :   3.0362 B(  8-C ,  9-C ) :   1.3584
B(  8-C , 74-H ) :   1.0160 B(  9-C , 10-C ) :   1.3384 B(  9-C , 18-C ) :   0.9011
B( 10-C , 11-C ) :   1.0022 B( 11-C , 12-C ) :   1.6362 B( 11-C , 17-C ) :   1.0535
B( 12-C , 13-C ) :   1.1365 B( 12-C , 15-C ) :   1.1715 B( 13-C , 14-N ) :   2.9542
B( 15-C , 16-N ) :   3.0047 B( 17-C , 18-C ) :   0.9478 B( 17-C , 20-C ) :   1.6349
B( 18-C , 19-O ) :   2.2668 B( 20-C , 21-C ) :   1.1064 B( 20-C , 75-H ) :   0.9362
B( 21-C , 22-C ) :   1.2976 B( 21-C , 30-C ) :   1.2967 B( 22-C , 23-O ) :   1.1929
B( 22-C , 25-C ) :   1.2905 B( 23-O , 24-C ) :   0.9152 B( 24-C , 76-H ) :   0.9741
B( 24-C , 77-H ) :   0.9764 B( 24-C , 78-H ) :   0.9729 B( 25-C , 26-O ) :   1.1144
B( 25-C , 28-C ) :   1.4077 B( 26-O , 27-C ) :   0.9349 B( 27-C , 79-H ) :   0.9820
B( 27-C , 80-H ) :   0.9607 B( 27-C , 81-H ) :   0.9662 B( 28-C , 29-C ) :   1.3383
B( 28-C , 31-C ) :   0.9253 B( 29-C , 30-C ) :   1.3852 B( 29-C , 82-H ) :   0.9951
B( 30-C , 83-H ) :   1.0041 B( 31-C , 32-C ) :   1.3548 B( 31-C , 38-C ) :   0.1134
B( 31-C , 40-C ) :   1.4089 B( 32-C , 33-O ) :   1.2099 B( 32-C , 35-C ) :   1.3068
B( 33-O , 34-C ) :   0.9398 B( 34-C , 84-H ) :   0.9767 B( 34-C , 85-H ) :   0.9751
B( 34-C , 86-H ) :   0.9731 B( 35-C , 36-O ) :   1.0891 B( 35-C , 38-C ) :   1.3798
B( 36-O , 37-C ) :   0.9447 B( 37-C , 87-H ) :   0.9617 B( 37-C , 88-H ) :   0.9660
B( 37-C , 89-H ) :   0.9817 B( 38-C , 39-C ) :   1.3773 B( 38-C , 41-C ) :   0.9243
B( 39-C , 40-C ) :   1.3368 B( 39-C , 90-H ) :   1.0006 B( 40-C , 91-H ) :   1.0039
B( 41-C , 42-C ) :   1.3562 B( 41-C , 48-C ) :   0.1062 B( 41-C , 50-C ) :   1.4064
B( 42-C , 43-O ) :   1.2206 B( 42-C , 45-C ) :   1.3264 B( 43-O , 44-C ) :   0.9318
B( 44-C , 92-H ) :   0.9742 B( 44-C , 93-H ) :   0.9770 B( 44-C , 94-H ) :   0.9717
B( 45-C , 46-O ) :   1.0739 B( 45-C , 48-C ) :   1.3121 B( 46-O , 47-C ) :   0.9362
B( 47-C , 95-H ) :   0.9662 B( 47-C , 96-H ) :   0.9809 B( 47-C , 97-H ) :   0.9665
B( 48-C , 49-C ) :   1.3159 B( 48-C , 51-C ) :   1.0305 B( 49-C , 50-C ) :   1.3379
B( 49-C , 98-H ) :   1.0057 B( 50-C , 99-H ) :   0.9980 B( 51-C , 52-C ) :   1.7191
B( 51-C ,100-H ) :   0.9470 B( 52-C , 53-C ) :   0.9398 B( 52-C , 66-C ) :   1.0048
B( 53-C , 54-O ) :   2.2880 B( 53-C , 55-C ) :   0.8967 B( 55-C , 56-C ) :   1.3281
B( 55-C , 60-C ) :   1.3734 B( 56-C , 57-C ) :   1.3257 B( 56-C , 66-C ) :   0.9976
B( 57-C , 58-C ) :   1.3787 B( 57-C ,101-H ) :   0.9922 B( 58-C , 59-C ) :   1.3504
B( 58-C , 63-C ) :   0.8609 B( 59-C , 60-C ) :   1.3585 B( 59-C , 61-C ) :   1.0606
B( 60-C ,102-H ) :   1.0126 B( 61-C , 62-N ) :   2.9970 B( 63-C , 64-O ) :   2.1774
B( 63-C , 65-O ) :   1.2728 B( 65-O ,103-H ) :   0.9386 B( 66-C , 67-C ) :   1.6933
B( 67-C , 68-C ) :   1.1617 B( 67-C , 70-C ) :   1.1383 B( 68-C , 69-N ) :   3.0022
B( 70-C , 71-N ) :   2.9928

-----------------------------------------------------------------------------
         ABSORPTION SPECTRUM VIA TRANSITION ELECTRIC DIPOLE MOMENTS
-----------------------------------------------------------------------------
State   Energy  Wavelength   fosc         T2         TX        TY        TZ
        (cm-1)    (nm)                  (au**2)     (au)      (au)      (au)
-----------------------------------------------------------------------------
   0   22223.8    450.0   0.294689889   4.36539  -1.04801   1.60696  -0.82751
   1   23091.2    433.1   0.313753141   4.47319  -1.70061   0.75250   1.00740
   2   24994.5    400.1   0.037593770   0.49516   0.51670  -0.45374  -0.14936
   3   25070.3    398.9   0.076088813   0.99916  -0.32157   0.16826   0.93137
   4   27159.0    368.2   0.079284529   0.96106  -0.72199   0.64101   0.17000
   5   27735.8    360.5   0.345581312   4.10190  -1.18648   1.48462  -0.70005
   6   28014.5    357.0   0.054458376   0.63997  -0.16747  -0.60012   0.50177
   7   29044.8    344.3   0.047401502   0.53728   0.31603  -0.63844   0.17261
   8   29677.4    337.0   0.159625780   1.77073   1.01265  -0.72190  -0.47343
   9   30136.7    331.8   0.004456347   0.04868   0.05969  -0.08828  -0.19320
  10   30271.8    330.3   0.013886315   0.15102   0.11419  -0.30300   0.21486
  11   30718.6    325.5   0.054131878   0.58013  -0.50794   0.48333   0.29754
  12   31421.4    318.3   0.020638561   0.21624   0.14180   0.14861   0.41719
  13   31893.3    313.5   0.143481494   1.48106  -0.57289   1.07370   0.00364
  14   31997.4    312.5   0.188353928   1.93792  -0.62670   1.23472  -0.14361
  15   32015.7    312.3   0.037257997   0.38312   0.09161  -0.42593   0.43967
  16   32493.8    307.8   0.035023334   0.35484   0.24390  -0.41256   0.35377
  17   32915.7    303.8   0.055841461   0.55851  -0.02196  -0.65806   0.35353
  18   33185.2    301.3   0.050902575   0.50498   0.18396  -0.67652  -0.11598
  19   33487.1    298.6   0.177153768   1.74160   0.60824  -1.12325  -0.33158
  20   34061.0    293.6   0.195604910   1.89060   0.42030  -1.28506  -0.25010
  21   34799.7    287.4   0.164548635   1.55666  -0.60776   1.08806  -0.05848
  22   35114.9    284.8   0.011897690   0.11154  -0.23540   0.13900   0.19185
  23   35364.9    282.8   0.554747618   5.16415  -1.03150   1.93137  -0.60823
  24   35488.2    281.8   0.005131490   0.04760  -0.13029  -0.10984   0.13624
  25   36032.9    277.5   0.015411085   0.14080  -0.20037   0.21970   0.22888
  26   36481.9    274.1   0.060811137   0.54876  -0.63131   0.11373   0.37051
  27   36630.9    273.0   0.423534378   3.80642   0.82625  -1.74191   0.29913
  28   36722.3    272.3   0.004302162   0.03857   0.12465  -0.11362  -0.10060
  29   37113.8    269.4   0.026025330   0.23085  -0.26510   0.34025   0.21168
  30   37774.6    264.7   0.009326933   0.08129   0.00712  -0.21045   0.19221
  31   38769.5    257.9   0.004071002   0.03457  -0.08692   0.01206   0.16392
  32   39318.4    254.3   0.070718308   0.59212  -0.20993   0.41056  -0.61603
  33   39502.9    253.1   0.078361308   0.65305  -0.48854   0.59635  -0.24240
  34   39715.6    251.8   0.290347367   2.40676  -0.93793   1.23497   0.04337
  35   40005.1    250.0   0.042975930   0.35366  -0.37759   0.45848  -0.02982
  36   40107.9    249.3   0.024452068   0.20071   0.30042   0.06499  -0.32593

FINAL SINGLE POINT ENERGY     -3303.953791916353

DIPOLE MOMENT
-------------
                                X             Y             Z
Electronic contribution:    -22.45019       1.49110      31.47315
Nuclear contribution   :     27.50914      -3.40179     -35.03407
                        -----------------------------------------
Total Dipole Moment    :      5.05895      -1.91069      -3.56092
                        -----------------------------------------
Magnitude (a.u.)       :      6.47486
Magnitude (Debye)      :     16.45779

Rotational constants in cm-1:     0.002263     0.000297     0.000274
Rotational constants in MHz :    67.837879     8.907537     8.205845

                             ****ORCA TERMINATED NORMALLY****
TOTAL RUN TIME: 0 days 0 hours 15 minutes 19 seconds 474 msec
