                         Program Version 4.2.0 -  RELEASE  -
|  1> # ORCA input file
|  2> # SCF done       -200.701498211618          0.000746266930
|  3> ! CAM-B3LYP def2-SVP def2/J RIJCOSX Grid4 TightSCF
|  4> %maxcore 5000
|  5> %tddft
|  6>     Mode sTDDFT
|  7>     Ethresh 5.0
|  8>     maxcore 5000
|  9> end
| 10>
| 11> %pal
| 12>   nprocs 6
| 13>   end
| 14> * xyz 0 1
| 15>    C        4.20264        -1.65320         5.20682
| 16>    C        4.56684        -0.32462         4.99060
| 17>    C        4.36205         0.73063         6.03784
| 18>    O        4.18962         1.88142         5.75176
| 19>    O        4.37744         0.32668         7.31323
| 20>    C        5.08755         0.07675         3.74961
| 21>    C        5.49098         1.41381         3.50214
| 22>    N        5.88425         2.44545         3.19746
| 23>    C        5.25034        -0.85047         2.71496
| 24>    C        4.87941        -2.15599         2.94522
| 25>    C        4.36611        -2.57446         4.18553
| 26>    C        4.07224        -4.00805         4.11328
| 27>    C        3.57736        -4.76475         5.14564
| 28>    C        3.37031        -4.26224         6.44641
| 29>    N        3.21350        -3.89110         7.52167
| 30>    C        3.22413        -6.12813         5.06640
| 31>    N        2.89894        -7.22926         5.07339
| 32>    C        4.37327        -4.44302         2.76785
| 33>    C        4.93384        -3.31470         2.02660
| 34>    O        5.43720        -3.33336         0.91482
| 35>    C        4.28726        -5.73855         2.30109
| 36>    C        4.33628        -6.19708         0.98342
| 37>    C        4.13035        -5.61347        -0.26576
| 38>    C        4.14769        -6.51560        -1.36630
| 39>    C        3.84964        -5.80500        -2.56559
| 40>    C        3.58328        -4.48442        -2.39455
| 41>    S        3.72841        -4.00604        -0.72191
| 42>    C        3.24070        -3.49243        -3.44353
| 43>    F        3.80674        -6.35932        -3.79180
| 44>    C        4.41212        -7.83869        -0.98476
| 45>    S        4.57289        -7.92006         0.75333
| 46>    C        4.55951        -9.04159        -1.72604
| 47>    C        4.88919       -10.22715        -1.08821
| 48>    C        5.05855       -11.45221        -1.70808
| 49>    C        4.88552       -11.60952        -3.15228
| 50>    C        4.56393       -10.58838        -3.97861
| 51>    S        4.31391        -8.97774        -3.46510
| 52>    C        5.13337       -12.98194        -3.41445
| 53>    C        5.45343       -13.65019        -2.22510
| 54>    C        5.68859       -15.02591        -2.45410
| 55>    C        5.55140       -15.34946        -3.76620
| 56>    S        5.13168       -14.01477        -4.78364
| 57>    C        5.41820       -12.70434        -1.14155
| 58>    C        5.68786       -12.91080         0.22263
| 59>    C        6.15257       -14.06122         0.78871
| 60>    C        6.41039       -14.20989         2.16216
| 61>    C        6.93918       -15.32681         2.79656
| 62>    C        7.07469       -15.22003         4.19656
| 63>    C        7.71630       -16.37689         4.71501
| 64>    C        7.98924       -17.33971         3.79220
| 65>    S        7.49160       -16.85356         2.19219
| 66>    C        8.62265       -18.65891         4.03014
| 67>    F        8.10406       -16.50321         5.99820
| 68>    C        6.59854       -13.99892         4.69263
| 69>    S        6.10187       -12.97838         3.35584
| 70>    C        6.45915       -13.52263         6.00129
| 71>    C        6.35687       -14.23796         7.16793
| 72>    C        6.66264       -13.57287         8.45563
| 73>    O        6.83353       -12.39209         8.65120
| 74>    C        6.76966       -14.67817         9.44091
| 75>    C        6.44195       -15.89493         8.81422
| 76>    C        6.54708       -17.08158         9.51492
| 77>    C        6.94694       -17.05799        10.85228
| 78>    C        7.23675       -15.83236        11.47663
| 79>    C        7.15750       -14.63029        10.75942
| 80>    C        7.63906       -15.73553        12.82906
| 81>    N        7.94932       -15.60593        13.92660
| 82>    C        7.08978       -18.40599        11.50811
| 83>    O        7.26685       -19.39044        10.84633
| 84>    O        6.99600       -18.48331        12.83716
| 85>    C        6.03536       -15.61605         7.43585
| 86>    C        5.27510       -16.45670         6.66154
| 87>    C        4.68336       -16.08529         5.43982
| 88>    N        4.15441       -15.82728         4.45336
| 89>    C        4.93949       -17.77824         7.02057
| 90>    N        4.64697       -18.86654         7.23622
| 91>    H        3.76278        -1.95050         6.14660
| 92>    H        4.53909        -0.61948         7.43151
| 93>    H        5.64899        -0.54873         1.75847
| 94>    H        4.17146        -6.52459         3.03650
| 95>    H        3.20802        -3.97621        -4.41687
| 96>    H        3.98292        -2.69539        -3.46699
| 97>    H        2.27180        -3.03948        -3.23711
| 98>    H        5.02601       -10.17466        -0.01626
| 99>    H        4.44381       -10.71864        -5.04268
|100>    H        5.93594       -15.75530        -1.70557
|101>    H        5.67136       -16.31540        -4.21652
|102>    H        5.52548       -12.06789         0.88309
|103>    H        6.36538       -14.92965         0.18427
|104>    H        8.96671       -18.72392         5.05997
|105>    H        9.46672       -18.80646         3.35784
|106>    H        7.90623       -19.46075         3.84958
|107>    H        6.46524       -12.44392         6.12393
|108>    H        6.35163       -18.04123         9.06230
|109>    H        7.40145       -13.69087        11.23219
|110>    H        6.90563       -17.63640        13.29880
|111> *
|112>
|113>                          ****END OF INPUT****

CARTESIAN COORDINATES (ANGSTROEM)
---------------------------------
  C      4.202640   -1.653200    5.206820
  C      4.566840   -0.324620    4.990600
  C      4.362050    0.730630    6.037840
  O      4.189620    1.881420    5.751760
  O      4.377440    0.326680    7.313230
  C      5.087550    0.076750    3.749610
  C      5.490980    1.413810    3.502140
  N      5.884250    2.445450    3.197460
  C      5.250340   -0.850470    2.714960
  C      4.879410   -2.155990    2.945220
  C      4.366110   -2.574460    4.185530
  C      4.072240   -4.008050    4.113280
  C      3.577360   -4.764750    5.145640
  C      3.370310   -4.262240    6.446410
  N      3.213500   -3.891100    7.521670
  C      3.224130   -6.128130    5.066400
  N      2.898940   -7.229260    5.073390
  C      4.373270   -4.443020    2.767850
  C      4.933840   -3.314700    2.026600
  O      5.437200   -3.333360    0.914820
  C      4.287260   -5.738550    2.301090
  C      4.336280   -6.197080    0.983420
  C      4.130350   -5.613470   -0.265760
  C      4.147690   -6.515600   -1.366300
  C      3.849640   -5.805000   -2.565590
  C      3.583280   -4.484420   -2.394550
  S      3.728410   -4.006040   -0.721910
  C      3.240700   -3.492430   -3.443530
  F      3.806740   -6.359320   -3.791800
  C      4.412120   -7.838690   -0.984760
  S      4.572890   -7.920060    0.753330
  C      4.559510   -9.041590   -1.726040
  C      4.889190  -10.227150   -1.088210
  C      5.058550  -11.452210   -1.708080
  C      4.885520  -11.609520   -3.152280
  C      4.563930  -10.588380   -3.978610
  S      4.313910   -8.977740   -3.465100
  C      5.133370  -12.981940   -3.414450
  C      5.453430  -13.650190   -2.225100
  C      5.688590  -15.025910   -2.454100
  C      5.551400  -15.349460   -3.766200
  S      5.131680  -14.014770   -4.783640
  C      5.418200  -12.704340   -1.141550
  C      5.687860  -12.910800    0.222630
  C      6.152570  -14.061220    0.788710
  C      6.410390  -14.209890    2.162160
  C      6.939180  -15.326810    2.796560
  C      7.074690  -15.220030    4.196560
  C      7.716300  -16.376890    4.715010
  C      7.989240  -17.339710    3.792200
  S      7.491600  -16.853560    2.192190
  C      8.622650  -18.658910    4.030140
  F      8.104060  -16.503210    5.998200
  C      6.598540  -13.998920    4.692630
  S      6.101870  -12.978380    3.355840
  C      6.459150  -13.522630    6.001290
  C      6.356870  -14.237960    7.167930
  C      6.662640  -13.572870    8.455630
  O      6.833530  -12.392090    8.651200
  C      6.769660  -14.678170    9.440910
  C      6.441950  -15.894930    8.814220
  C      6.547080  -17.081580    9.514920
  C      6.946940  -17.057990   10.852280
  C      7.236750  -15.832360   11.476630
  C      7.157500  -14.630290   10.759420
  C      7.639060  -15.735530   12.829060
  N      7.949320  -15.605930   13.926600
  C      7.089780  -18.405990   11.508110
  O      7.266850  -19.390440   10.846330
  O      6.996000  -18.483310   12.837160
  C      6.035360  -15.616050    7.435850
  C      5.275100  -16.456700    6.661540
  C      4.683360  -16.085290    5.439820
  N      4.154410  -15.827280    4.453360
  C      4.939490  -17.778240    7.020570
  N      4.646970  -18.866540    7.236220
  H      3.762780   -1.950500    6.146600
  H      4.539090   -0.619480    7.431510
  H      5.648990   -0.548730    1.758470
  H      4.171460   -6.524590    3.036500
  H      3.208020   -3.976210   -4.416870
  H      3.982920   -2.695390   -3.466990
  H      2.271800   -3.039480   -3.237110
  H      5.026010  -10.174660   -0.016260
  H      4.443810  -10.718640   -5.042680
  H      5.935940  -15.755300   -1.705570
  H      5.671360  -16.315400   -4.216520
  H      5.525480  -12.067890    0.883090
  H      6.365380  -14.929650    0.184270
  H      8.966710  -18.723920    5.059970
  H      9.466720  -18.806460    3.357840
  H      7.906230  -19.460750    3.849580
  H      6.465240  -12.443920    6.123930
  H      6.351630  -18.041230    9.062300
  H      7.401450  -13.690870   11.232190
  H      6.905630  -17.636400   13.298800

 Total Charge           Charge          ....    0
 Multiplicity           Mult            ....    1
 Number of Electrons    NEL             ....  560
 Basis Dimension        Dim             .... 1188

ORBITAL ENERGIES
----------------

  NO   OCC          E(Eh)            E(eV)
   0   2.0000     -88.998930     -2421.7840
   1   2.0000     -88.995733     -2421.6970
   2   2.0000     -88.985005     -2421.4051
   3   2.0000     -88.981991     -2421.3231
   4   2.0000     -88.978481     -2421.2276
   5   2.0000     -88.977942     -2421.2129
   6   2.0000     -24.811016      -675.1421
   7   2.0000     -24.806361      -675.0154
   8   2.0000     -19.274286      -524.4800
   9   2.0000     -19.265309      -524.2357
  10   2.0000     -19.234809      -523.4058
  11   2.0000     -19.222143      -523.0611
  12   2.0000     -19.213274      -522.8198
  13   2.0000     -19.206296      -522.6299
  14   2.0000     -14.438308      -392.8863
  15   2.0000     -14.433302      -392.7501
  16   2.0000     -14.432506      -392.7284
  17   2.0000     -14.415606      -392.2686
  18   2.0000     -14.414190      -392.2300
  19   2.0000     -14.410125      -392.1194
  20   2.0000     -10.419259      -283.5224
  21   2.0000     -10.414510      -283.3932
  22   2.0000     -10.381284      -282.4891
  23   2.0000     -10.380682      -282.4727
  24   2.0000     -10.376096      -282.3479
  25   2.0000     -10.373363      -282.2736
  26   2.0000     -10.367594      -282.1166
  27   2.0000     -10.361207      -281.9428
  28   2.0000     -10.359486      -281.8959
  29   2.0000     -10.356150      -281.8052
  30   2.0000     -10.351284      -281.6728
  31   2.0000     -10.348700      -281.6025
  32   2.0000     -10.348420      -281.5948
  33   2.0000     -10.344018      -281.4750
  34   2.0000     -10.343687      -281.4660
  35   2.0000     -10.343271      -281.4547
  36   2.0000     -10.342916      -281.4451
  37   2.0000     -10.340615      -281.3824
  38   2.0000     -10.338292      -281.3192
  39   2.0000     -10.336283      -281.2646
  40   2.0000     -10.335608      -281.2462
  41   2.0000     -10.334596      -281.2187
  42   2.0000     -10.334320      -281.2111
  43   2.0000     -10.333693      -281.1941
  44   2.0000     -10.333462      -281.1878
  45   2.0000     -10.330715      -281.1130
  46   2.0000     -10.330146      -281.0976
  47   2.0000     -10.329664      -281.0844
  48   2.0000     -10.329185      -281.0714
  49   2.0000     -10.328072      -281.0411
  50   2.0000     -10.326260      -280.9918
  51   2.0000     -10.325745      -280.9778
  52   2.0000     -10.325700      -280.9766
  53   2.0000     -10.324611      -280.9469
  54   2.0000     -10.324319      -280.9390
  55   2.0000     -10.323092      -280.9056
  56   2.0000     -10.321573      -280.8643
  57   2.0000     -10.318804      -280.7889
  58   2.0000     -10.318196      -280.7724
  59   2.0000     -10.318042      -280.7682
  60   2.0000     -10.317635      -280.7571
  61   2.0000     -10.316752      -280.7331
  62   2.0000     -10.314575      -280.6738
  63   2.0000     -10.313047      -280.6323
  64   2.0000     -10.312458      -280.6163
  65   2.0000     -10.312126      -280.6072
  66   2.0000     -10.310460      -280.5619
  67   2.0000     -10.310376      -280.5596
  68   2.0000     -10.310356      -280.5590
  69   2.0000     -10.305774      -280.4344
  70   2.0000     -10.305198      -280.4187
  71   2.0000     -10.299888      -280.2742
  72   2.0000     -10.298660      -280.2408
  73   2.0000     -10.296872      -280.1921
  74   2.0000     -10.296535      -280.1830
  75   2.0000     -10.294501      -280.1276
  76   2.0000      -8.094133      -220.2526
  77   2.0000      -8.090806      -220.1620
  78   2.0000      -8.079498      -219.8543
  79   2.0000      -8.077020      -219.7869
  80   2.0000      -8.074009      -219.7050
  81   2.0000      -8.073484      -219.6907
  82   2.0000      -6.063718      -165.0021
  83   2.0000      -6.060339      -164.9102
  84   2.0000      -6.058952      -164.8725
  85   2.0000      -6.056126      -164.7956
  86   2.0000      -6.055963      -164.7911
  87   2.0000      -6.052477      -164.6963
  88   2.0000      -6.049112      -164.6047
  89   2.0000      -6.046385      -164.5305
  90   2.0000      -6.044650      -164.4833
  91   2.0000      -6.043457      -164.4508
  92   2.0000      -6.043205      -164.4440
  93   2.0000      -6.042377      -164.4214
  94   2.0000      -6.041189      -164.3891
  95   2.0000      -6.039129      -164.3331
  96   2.0000      -6.039128      -164.3330
  97   2.0000      -6.038882      -164.3263
  98   2.0000      -6.036051      -164.2493
  99   2.0000      -6.034629      -164.2106
 100   2.0000      -1.323996       -36.0278
 101   2.0000      -1.318082       -35.8668
 102   2.0000      -1.198259       -32.6063
 103   2.0000      -1.191323       -32.4175
 104   2.0000      -1.149064       -31.2676
 105   2.0000      -1.137399       -30.9502
 106   2.0000      -1.113243       -30.2929
 107   2.0000      -1.105285       -30.0763
 108   2.0000      -1.046126       -28.4665
 109   2.0000      -1.038305       -28.2537
 110   2.0000      -1.034772       -28.1576
 111   2.0000      -1.030389       -28.0383
 112   2.0000      -1.029380       -28.0108
 113   2.0000      -1.021178       -27.7877
 114   2.0000      -1.019685       -27.7470
 115   2.0000      -1.011675       -27.5291
 116   2.0000      -1.004556       -27.3354
 117   2.0000      -1.000311       -27.2198
 118   2.0000      -0.997771       -27.1507
 119   2.0000      -0.993321       -27.0296
 120   2.0000      -0.980482       -26.6803
 121   2.0000      -0.976714       -26.5777
 122   2.0000      -0.972159       -26.4538
 123   2.0000      -0.967713       -26.3328
 124   2.0000      -0.953951       -25.9583
 125   2.0000      -0.936551       -25.4848
 126   2.0000      -0.926079       -25.1999
 127   2.0000      -0.922554       -25.1040
 128   2.0000      -0.909568       -24.7506
 129   2.0000      -0.907773       -24.7017
 130   2.0000      -0.897323       -24.4174
 131   2.0000      -0.896455       -24.3938
 132   2.0000      -0.887973       -24.1630
 133   2.0000      -0.878535       -23.9062
 134   2.0000      -0.875166       -23.8145
 135   2.0000      -0.872274       -23.7358
 136   2.0000      -0.870110       -23.6769
 137   2.0000      -0.854996       -23.2656
 138   2.0000      -0.842852       -22.9352
 139   2.0000      -0.833830       -22.6897
 140   2.0000      -0.833449       -22.6793
 141   2.0000      -0.819029       -22.2869
 142   2.0000      -0.805702       -21.9243
 143   2.0000      -0.802384       -21.8340
 144   2.0000      -0.799600       -21.7582
 145   2.0000      -0.795247       -21.6398
 146   2.0000      -0.791833       -21.5469
 147   2.0000      -0.775703       -21.1080
 148   2.0000      -0.755072       -20.5465
 149   2.0000      -0.751316       -20.4443
 150   2.0000      -0.745696       -20.2914
 151   2.0000      -0.742297       -20.1989
 152   2.0000      -0.728629       -19.8270
 153   2.0000      -0.723661       -19.6918
 154   2.0000      -0.717228       -19.5168
 155   2.0000      -0.711658       -19.3652
 156   2.0000      -0.707828       -19.2610
 157   2.0000      -0.697705       -18.9855
 158   2.0000      -0.695499       -18.9255
 159   2.0000      -0.687766       -18.7151
 160   2.0000      -0.684769       -18.6335
 161   2.0000      -0.683007       -18.5856
 162   2.0000      -0.680259       -18.5108
 163   2.0000      -0.676697       -18.4139
 164   2.0000      -0.674376       -18.3507
 165   2.0000      -0.665800       -18.1173
 166   2.0000      -0.661305       -17.9950
 167   2.0000      -0.652684       -17.7604
 168   2.0000      -0.650033       -17.6883
 169   2.0000      -0.648442       -17.6450
 170   2.0000      -0.642447       -17.4819
 171   2.0000      -0.636230       -17.3127
 172   2.0000      -0.628322       -17.0975
 173   2.0000      -0.623721       -16.9723
 174   2.0000      -0.606849       -16.5132
 175   2.0000      -0.603836       -16.4312
 176   2.0000      -0.601988       -16.3809
 177   2.0000      -0.597112       -16.2482
 178   2.0000      -0.590851       -16.0779
 179   2.0000      -0.590651       -16.0724
 180   2.0000      -0.588011       -16.0006
 181   2.0000      -0.586277       -15.9534
 182   2.0000      -0.585221       -15.9247
 183   2.0000      -0.584824       -15.9139
 184   2.0000      -0.578796       -15.7498
 185   2.0000      -0.567342       -15.4382
 186   2.0000      -0.563197       -15.3254
 187   2.0000      -0.562896       -15.3172
 188   2.0000      -0.559993       -15.2382
 189   2.0000      -0.553999       -15.0751
 190   2.0000      -0.551074       -14.9955
 191   2.0000      -0.549650       -14.9567
 192   2.0000      -0.547857       -14.9080
 193   2.0000      -0.545391       -14.8408
 194   2.0000      -0.544098       -14.8057
 195   2.0000      -0.542835       -14.7713
 196   2.0000      -0.539448       -14.6791
 197   2.0000      -0.537710       -14.6318
 198   2.0000      -0.536853       -14.6085
 199   2.0000      -0.534571       -14.5464
 200   2.0000      -0.531543       -14.4640
 201   2.0000      -0.529140       -14.3986
 202   2.0000      -0.527310       -14.3488
 203   2.0000      -0.525614       -14.3027
 204   2.0000      -0.525147       -14.2900
 205   2.0000      -0.522715       -14.2238
 206   2.0000      -0.521122       -14.1804
 207   2.0000      -0.518150       -14.0996
 208   2.0000      -0.517673       -14.0866
 209   2.0000      -0.516546       -14.0559
 210   2.0000      -0.515728       -14.0337
 211   2.0000      -0.513270       -13.9668
 212   2.0000      -0.509882       -13.8746
 213   2.0000      -0.503156       -13.6916
 214   2.0000      -0.500916       -13.6306
 215   2.0000      -0.500279       -13.6133
 216   2.0000      -0.499850       -13.6016
 217   2.0000      -0.498517       -13.5653
 218   2.0000      -0.493070       -13.4171
 219   2.0000      -0.490603       -13.3500
 220   2.0000      -0.488157       -13.2834
 221   2.0000      -0.483678       -13.1615
 222   2.0000      -0.481858       -13.1120
 223   2.0000      -0.476148       -12.9566
 224   2.0000      -0.474587       -12.9142
 225   2.0000      -0.471096       -12.8192
 226   2.0000      -0.468599       -12.7512
 227   2.0000      -0.468465       -12.7476
 228   2.0000      -0.466625       -12.6975
 229   2.0000      -0.465587       -12.6693
 230   2.0000      -0.463184       -12.6039
 231   2.0000      -0.460676       -12.5356
 232   2.0000      -0.460480       -12.5303
 233   2.0000      -0.459033       -12.4909
 234   2.0000      -0.453271       -12.3341
 235   2.0000      -0.452413       -12.3108
 236   2.0000      -0.449185       -12.2230
 237   2.0000      -0.448785       -12.2121
 238   2.0000      -0.446001       -12.1363
 239   2.0000      -0.445568       -12.1245
 240   2.0000      -0.443108       -12.0576
 241   2.0000      -0.442951       -12.0533
 242   2.0000      -0.442282       -12.0351
 243   2.0000      -0.439585       -11.9617
 244   2.0000      -0.437896       -11.9158
 245   2.0000      -0.437170       -11.8960
 246   2.0000      -0.435288       -11.8448
 247   2.0000      -0.433293       -11.7905
 248   2.0000      -0.430519       -11.7150
 249   2.0000      -0.427836       -11.6420
 250   2.0000      -0.427117       -11.6224
 251   2.0000      -0.426536       -11.6066
 252   2.0000      -0.423197       -11.5158
 253   2.0000      -0.422853       -11.5064
 254   2.0000      -0.421946       -11.4817
 255   2.0000      -0.419595       -11.4177
 256   2.0000      -0.410296       -11.1647
 257   2.0000      -0.408783       -11.1236
 258   2.0000      -0.402468       -10.9517
 259   2.0000      -0.399666       -10.8755
 260   2.0000      -0.393644       -10.7116
 261   2.0000      -0.383677       -10.4404
 262   2.0000      -0.372220       -10.1286
 263   2.0000      -0.370292       -10.0761
 264   2.0000      -0.368764       -10.0346
 265   2.0000      -0.364556        -9.9201
 266   2.0000      -0.359063        -9.7706
 267   2.0000      -0.353718        -9.6252
 268   2.0000      -0.350304        -9.5322
 269   2.0000      -0.346270        -9.4225
 270   2.0000      -0.344039        -9.3618
 271   2.0000      -0.341911        -9.3039
 272   2.0000      -0.333079        -9.0635
 273   2.0000      -0.326664        -8.8890
 274   2.0000      -0.321670        -8.7531
 275   2.0000      -0.316483        -8.6119
 276   2.0000      -0.311336        -8.4719
 277   2.0000      -0.295563        -8.0427
 278   2.0000      -0.275694        -7.5020
 279   2.0000      -0.240713        -6.5501
 280   0.0000      -0.127118        -3.4591
 281   0.0000      -0.104513        -2.8439
 282   0.0000      -0.093873        -2.5544
 283   0.0000      -0.083183        -2.2635
 284   0.0000      -0.067047        -1.8245

MULLIKEN ATOMIC CHARGES
-----------------------
   0 C :   -0.088613
   1 C :    0.014652
   2 C :    0.182396
   3 O :   -0.148778
   4 O :   -0.140954
   5 C :   -0.077273
   6 C :   -0.155617
   7 N :    0.141282
   8 C :   -0.042191
   9 C :    0.005569
  10 C :    0.042555
  11 C :    0.316895
  12 C :   -0.345313
  13 C :   -0.179484
  14 N :    0.143320
  15 C :   -0.185845
  16 N :    0.160684
  17 C :   -0.095359
  18 C :    0.128769
  19 O :   -0.168886
  20 C :    0.021335
  21 C :   -0.129158
  22 C :   -0.014562
  23 C :    0.033563
  24 C :    0.227018
  25 C :   -0.294801
  26 S :    0.214629
  27 C :    0.117047
  28 F :   -0.185131
  29 C :   -0.059200
  30 S :    0.130774
  31 C :   -0.056911
  32 C :   -0.082795
  33 C :    0.069603
  34 C :    0.055581
  35 C :   -0.113838
  36 S :    0.174557
  37 C :   -0.106728
  38 C :    0.052472
  39 C :   -0.004995
  40 C :   -0.060299
  41 S :    0.144867
  42 C :    0.107554
  43 C :   -0.020680
  44 C :   -0.012253
  45 C :   -0.068230
  46 C :   -0.052317
  47 C :    0.116563
  48 C :    0.222897
  49 C :   -0.281549
  50 S :    0.147772
  51 C :    0.114949
  52 F :   -0.182333
  53 C :   -0.154403
  54 S :    0.152747
  55 C :    0.077526
  56 C :   -0.153605
  57 C :    0.140783
  58 O :   -0.135178
  59 C :    0.021682
  60 C :    0.052641
  61 C :   -0.077649
  62 C :    0.004470
  63 C :   -0.049212
  64 C :   -0.042317
  65 C :   -0.220550
  66 N :    0.122923
  67 C :    0.167211
  68 O :   -0.160081
  69 O :   -0.134619
  70 C :    0.298117
  71 C :   -0.347629
  72 C :   -0.206452
  73 N :    0.167823
  74 C :   -0.194880
  75 N :    0.172141
  76 H :   -0.008586
  77 H :    0.190431
  78 H :    0.012085
  79 H :    0.015390
  80 H :    0.036264
  81 H :    0.047281
  82 H :    0.041541
  83 H :    0.012778
  84 H :    0.045829
  85 H :   -0.003956
  86 H :    0.033460
  87 H :   -0.018945
  88 H :   -0.028216
  89 H :    0.043710
  90 H :    0.040592
  91 H :    0.056940
  92 H :    0.024644
  93 H :    0.029129
  94 H :    0.014184
  95 H :    0.180748
Sum of atomic charges:   -0.0000000

LOEWDIN ATOMIC CHARGES
----------------------
   0 C :   -0.001749
   1 C :   -0.041387
   2 C :    0.081180
   3 O :   -0.120428
   4 O :   -0.014500
   5 C :   -0.022597
   6 C :   -0.034056
   7 N :   -0.027329
   8 C :    0.043130
   9 C :   -0.026413
  10 C :   -0.001520
  11 C :    0.074189
  12 C :   -0.135419
  13 C :   -0.016127
  14 N :   -0.053477
  15 C :   -0.023097
  16 N :   -0.042092
  17 C :   -0.113182
  18 C :    0.059998
  19 O :   -0.163795
  20 C :    0.035027
  21 C :   -0.191911
  22 C :   -0.154817
  23 C :   -0.102559
  24 C :    0.023843
  25 C :   -0.191455
  26 S :    0.505150
  27 C :   -0.055437
  28 F :   -0.064872
  29 C :   -0.137795
  30 S :    0.470599
  31 C :   -0.197759
  32 C :   -0.006615
  33 C :   -0.013515
  34 C :   -0.053143
  35 C :   -0.134865
  36 S :    0.494023
  37 C :   -0.191727
  38 C :   -0.035753
  39 C :   -0.063427
  40 C :   -0.155295
  41 S :    0.436203
  42 C :   -0.038828
  43 C :    0.002629
  44 C :   -0.053102
  45 C :   -0.144319
  46 C :   -0.186805
  47 C :   -0.063154
  48 C :    0.026553
  49 C :   -0.162498
  50 S :    0.418891
  51 C :   -0.054326
  52 F :   -0.053234
  53 C :   -0.184284
  54 S :    0.464607
  55 C :    0.044940
  56 C :   -0.107063
  57 C :    0.080892
  58 O :   -0.137700
  59 C :   -0.032461
  60 C :    0.011462
  61 C :    0.033221
  62 C :   -0.034198
  63 C :   -0.060031
  64 C :    0.044914
  65 C :   -0.041277
  66 N :   -0.034421
  67 C :    0.081927
  68 O :   -0.140252
  69 O :   -0.011271
  70 C :    0.059292
  71 C :   -0.139138
  72 C :   -0.017822
  73 N :   -0.052080
  74 C :   -0.026392
  75 N :   -0.046008
  76 H :    0.033932
  77 H :    0.098224
  78 H :    0.051138
  79 H :    0.043847
  80 H :    0.043440
  81 H :    0.044585
  82 H :    0.042909
  83 H :    0.027771
  84 H :    0.041140
  85 H :    0.031374
  86 H :    0.027510
  87 H :    0.023983
  88 H :    0.031174
  89 H :    0.047224
  90 H :    0.042865
  91 H :    0.050077
  92 H :    0.047190
  93 H :    0.050170
  94 H :    0.051133
  95 H :    0.086419

  Mayer bond orders larger than 0.100000
B(  0-C ,  1-C ) :   1.3075 B(  0-C , 10-C ) :   1.4006 B(  0-C , 76-H ) :   0.9576
B(  1-C ,  2-C ) :   0.8702 B(  1-C ,  5-C ) :   1.4016 B(  2-C ,  3-O ) :   2.1646
B(  2-C ,  4-O ) :   1.2568 B(  4-O , 77-H ) :   0.9478 B(  5-C ,  6-C ) :   1.0654
B(  5-C ,  8-C ) :   1.3571 B(  6-C ,  7-N ) :   3.0373 B(  8-C ,  9-C ) :   1.3570
B(  8-C , 78-H ) :   1.0162 B(  9-C , 10-C ) :   1.3430 B(  9-C , 18-C ) :   0.9151
B( 10-C , 11-C ) :   0.9731 B( 11-C , 12-C ) :   1.6250 B( 11-C , 17-C ) :   1.1057
B( 12-C , 13-C ) :   1.1456 B( 12-C , 15-C ) :   1.1419 B( 13-C , 14-N ) :   2.9595
B( 15-C , 16-N ) :   2.9710 B( 17-C , 18-C ) :   1.0055 B( 17-C , 20-C ) :   1.4710
B( 18-C , 19-O ) :   2.1480 B( 20-C , 21-C ) :   1.3096 B( 20-C , 79-H ) :   0.9189
B( 21-C , 22-C ) :   1.3895 B( 21-C , 30-S ) :   1.0862 B( 22-C , 23-C ) :   1.2633
B( 22-C , 26-S ) :   1.1365 B( 23-C , 24-C ) :   1.0893 B( 23-C , 29-C ) :   1.3320
B( 24-C , 25-C ) :   1.6494 B( 24-C , 28-F ) :   1.1252 B( 25-C , 26-S ) :   1.0730
B( 25-C , 27-C ) :   1.0662 B( 27-C , 80-H ) :   0.9552 B( 27-C , 81-H ) :   0.9483
B( 27-C , 82-H ) :   0.9465 B( 29-C , 30-S ) :   1.1586 B( 29-C , 31-C ) :   1.2067
B( 31-C , 32-C ) :   1.4446 B( 31-C , 36-S ) :   1.0699 B( 32-C , 33-C ) :   1.3109
B( 32-C , 83-H ) :   0.9541 B( 33-C , 34-C ) :   1.0549 B( 33-C , 42-C ) :   1.3119
B( 34-C , 35-C ) :   1.5833 B( 34-C , 37-C ) :   1.1911 B( 35-C , 36-S ) :   1.1561
B( 35-C , 84-H ) :   0.9395 B( 37-C , 38-C ) :   1.4283 B( 37-C , 41-S ) :   1.0880
B( 38-C , 39-C ) :   1.2080 B( 38-C , 42-C ) :   1.0989 B( 39-C , 40-C ) :   1.5969
B( 39-C , 85-H ) :   0.9985 B( 40-C , 41-S ) :   1.1524 B( 40-C , 86-H ) :   0.9642
B( 42-C , 43-C ) :   1.2133 B( 43-C , 44-C ) :   1.5623 B( 43-C , 87-H ) :   0.9591
B( 44-C , 45-C ) :   1.1983 B( 44-C , 88-H ) :   0.9797 B( 45-C , 46-C ) :   1.4380
B( 45-C , 54-S ) :   1.1439 B( 46-C , 47-C ) :   1.2850 B( 46-C , 50-S ) :   1.0421
B( 47-C , 48-C ) :   1.1126 B( 47-C , 53-C ) :   1.3104 B( 48-C , 49-C ) :   1.6144
B( 48-C , 52-F ) :   1.1191 B( 49-C , 50-S ) :   1.0987 B( 49-C , 51-C ) :   1.0693
B( 51-C , 89-H ) :   0.9544 B( 51-C , 90-H ) :   0.9449 B( 51-C , 91-H ) :   0.9455
B( 53-C , 54-S ) :   1.0818 B( 53-C , 55-C ) :   1.2280 B( 55-C , 56-C ) :   1.5620
B( 55-C , 92-H ) :   0.9323 B( 56-C , 57-C ) :   0.9668 B( 56-C , 70-C ) :   1.0817
B( 57-C , 58-O ) :   2.2747 B( 57-C , 59-C ) :   0.8950 B( 59-C , 60-C ) :   1.3338
B( 59-C , 64-C ) :   1.3781 B( 60-C , 61-C ) :   1.3350 B( 60-C , 70-C ) :   0.9835
B( 61-C , 62-C ) :   1.3668 B( 61-C , 93-H ) :   0.9919 B( 62-C , 63-C ) :   1.3531
B( 62-C , 67-C ) :   0.8613 B( 63-C , 64-C ) :   1.3504 B( 63-C , 65-C ) :   1.0576
B( 64-C , 94-H ) :   1.0122 B( 65-C , 66-N ) :   2.9872 B( 67-C , 68-O ) :   2.1754
B( 67-C , 69-O ) :   1.2747 B( 69-O , 95-H ) :   0.9387 B( 70-C , 71-C ) :   1.6207
B( 71-C , 72-C ) :   1.1790 B( 71-C , 74-C ) :   1.1382 B( 72-C , 73-N ) :   3.0003
B( 74-C , 75-N ) :   2.9945

-----------------------------------------------------------------------------
         ABSORPTION SPECTRUM VIA TRANSITION ELECTRIC DIPOLE MOMENTS
-----------------------------------------------------------------------------
State   Energy  Wavelength   fosc         T2         TX        TY        TZ
        (cm-1)    (nm)                  (au**2)     (au)      (au)      (au)
-----------------------------------------------------------------------------
   0   10838.1    922.7   0.753661793  22.89271   0.81384  -4.49313   1.42904
   1   15800.6    632.9   0.659461854  13.74016  -0.32201   0.18733   3.68801
   2   18093.7    552.7   0.620859910  11.29645  -0.33876   1.54650   2.96480
   3   19225.5    520.1   0.095407087   1.63373  -0.44133   1.10583  -0.46485
   4   20433.1    489.4   0.321997694   5.18792   0.42366   0.88283   2.05647
   5   21599.7    463.0   0.105387210   1.60626  -0.10914  -0.65389  -1.08017
   6   22094.4    452.6   0.036506508   0.54396   0.61545  -0.40017   0.07097
   7   24312.5    411.3   0.037756473   0.51125  -0.03684  -0.25294  -0.66777
   8   24439.3    409.2   0.053724064   0.72370   0.02571   0.55344   0.64555
   9   25619.1    390.3   0.106349439   1.36662  -0.72330  -0.28545  -0.87291
  10   26192.4    381.8   0.090310370   1.13511  -0.02574   0.07432  -1.06251
  11   26600.4    375.9   0.006768472   0.08377   0.11709  -0.26080   0.04514
  12   27172.2    368.0   0.084634269   1.02541  -0.00433  -1.00650  -0.11108
  13   27977.2    357.4   0.203399931   2.39343  -0.86455   1.01195  -0.78864
  14   28453.9    351.4   0.029096309   0.33664  -0.08026   0.57361  -0.03423
  15   28850.2    346.6   0.009745422   0.11121   0.00625   0.32827   0.05835
  16   29125.0    343.3   0.079796323   0.90197  -0.19872  -0.31874   0.87229
  17   29367.6    340.5   0.009353014   0.10485   0.12043  -0.25772  -0.15467
  18   29923.1    334.2   0.066278916   0.72920   0.09611   0.76238  -0.37247
  19   30100.4    332.2   0.072378415   0.79161   0.56826   0.04761   0.68296
  20   30325.1    329.8   0.050632241   0.54967   0.34237   0.22803   0.61681
  21   31209.9    320.4   0.073854038   0.77904   0.01447  -0.83670   0.28063
  22   31311.1    319.4   0.094057216   0.98894  -0.18413   0.39598  -0.89344
  23   31723.3    315.2   0.030021895   0.31156  -0.25959   0.24981  -0.42634
  24   32012.9    312.4   0.015611590   0.16055   0.15103  -0.15499   0.33722
  25   32535.4    307.4   0.014128676   0.14296   0.19170  -0.10727   0.30775
  26   32645.4    306.3   0.310608012   3.13232   0.08301  -1.62873  -0.68752
  27   33226.0    301.0   0.042389567   0.42001   0.34413   0.28047   0.47214
  28   33347.5    299.9   0.234421715   2.31425   0.75268   1.30052  -0.23739
  29   33547.8    298.1   0.171090962   1.67895   0.23259   0.96954  -0.82756
  30   34095.5    293.3   0.060064433   0.57996   0.03561   0.75821  -0.06171
  31   34403.1    290.7   0.034156103   0.32685   0.26656   0.12348  -0.49046
  32   34553.5    289.4   0.368438332   3.51033  -0.44434  -0.45931  -1.76123
  33   34780.1    287.5   0.194638348   1.84235   0.44960  -0.35266   1.23120
  34   34809.0    287.3   0.170908263   1.61639  -0.25137   0.59944  -1.09265
  35   35188.3    284.2   0.127009465   1.18826   0.22660  -1.05701   0.14016
  36   35320.0    283.1   0.042810954   0.39903   0.21557  -0.25244   0.53744
  37   35739.4    279.8   0.014946490   0.13768  -0.08417  -0.26531   0.24537
  38   35834.4    279.1   0.043198876   0.39687   0.25007  -0.56518   0.12210
  39   36262.6    275.8   0.002977008   0.02703   0.02845  -0.12496   0.10297
  40   36400.2    274.7   0.083384754   0.75415   0.48679  -0.15022   0.70329
  41   36546.8    273.6   0.073285238   0.66015  -0.17737  -0.76743   0.19935
  42   36777.0    271.9   0.098864219   0.88499   0.14030   0.92784  -0.06649
  43   37129.9    269.3   0.025305280   0.22437  -0.23611  -0.10563  -0.39682
  44   37397.2    267.4   0.057783104   0.50867   0.35373  -0.60898   0.11266
  45   37702.6    265.2   0.040365092   0.35246   0.05568   0.57977  -0.11503
  46   37811.7    264.5   0.031894797   0.27770  -0.32184   0.33841   0.24412
  47   38018.5    263.0   0.195049784   1.68899  -0.09878   1.29386  -0.07174
  48   38236.8    261.5   0.158880203   1.36793  -0.36386  -0.72529  -0.84231
  49   38364.8    260.7   0.094632319   0.81205   0.37308  -0.37436   0.72987
  50   38494.6    259.8   0.073021790   0.62449   0.06500   0.20555  -0.76028
  51   38563.2    259.3   0.052015149   0.44405   0.37473   0.49637   0.23926
  52   38658.0    258.7   0.085720118   0.72999  -0.06980  -0.84875   0.06888
  53   38911.1    257.0   0.028263719   0.23913   0.11449  -0.34305  -0.32914
  54   39053.0    256.1   0.023338827   0.19674   0.18697   0.26668   0.30111
  55   39222.0    255.0   0.068696136   0.57660   0.09182   0.72575  -0.20363
  56   39271.3    254.6   0.009012158   0.07555  -0.13194  -0.23974  -0.02583
  57   39800.5    251.3   0.128067872   1.05932  -0.44920  -0.92484   0.04711
  58   39933.0    250.4   0.015436931   0.12726  -0.04313  -0.02729   0.35307
  59   40059.0    249.6   0.012899268   0.10601  -0.12568   0.20621   0.21838
  60   40225.0    248.6   0.000985858   0.00807   0.04644   0.07613  -0.01080

FINAL SINGLE POINT ENERGY     -5509.950372350882

DIPOLE MOMENT
-------------
                                X             Y             Z
Electronic contribution:     -3.83815       8.97927       2.74197
Nuclear contribution   :      4.52843     -10.16144      -9.43634
                        -----------------------------------------
Total Dipole Moment    :      0.69029      -1.18217      -6.69437
                        -----------------------------------------
Magnitude (a.u.)       :      6.83291
Magnitude (Debye)      :     17.36787

Rotational constants in cm-1:     0.000770     0.000358     0.000251
Rotational constants in MHz :    23.092626    10.733693     7.524589

                             ****ORCA TERMINATED NORMALLY****
TOTAL RUN TIME: 0 days 0 hours 15 minutes 41 seconds 69 msec
