                         Program Version 4.2.0 -  RELEASE  -
|  1> # ORCA input file
|  2> # SCF done       -221.101859694311          0.000430444440
|  3> ! CAM-B3LYP def2-SVP def2/J RIJCOSX Grid4 TightSCF
|  4> %maxcore 5000
|  5> %tddft
|  6>     Mode sTDDFT
|  7>     Ethresh 5.0
|  8>     maxcore 5000
|  9> end
| 10>
| 11> %pal
| 12>   nprocs 6
| 13>   end
| 14> * xyz 0 1
| 15>    C        7.30090        -0.46149         0.41094
| 16>    C        8.63111        -0.10920         0.62965
| 17>    C        9.09292         1.31913         0.55333
| 18>    O       10.01747         1.71741         1.20177
| 19>    O        8.41930         2.12696        -0.27154
| 20>    C        9.57599        -1.08358         0.99238
| 21>    C       10.94254        -0.76167         1.19720
| 22>    N       12.07016        -0.62835         1.34537
| 23>    C        9.19595        -2.42173         1.13497
| 24>    C        7.87618        -2.75152         0.91843
| 25>    C        6.92137        -1.78757         0.54907
| 26>    C        5.62683        -2.44605         0.38184
| 27>    C        4.44818        -1.82601         0.05468
| 28>    C        4.34959        -0.45337        -0.25092
| 29>    N        4.24304         0.65480        -0.53074
| 30>    C        3.19610        -2.47190        -0.02521
| 31>    N        2.14630        -2.93136        -0.09180
| 32>    C        5.81313        -3.85278         0.66091
| 33>    C        7.22787        -4.07875         1.03065
| 34>    O        7.77712        -5.12815         1.29025
| 35>    C        4.92831        -4.85633         0.36117
| 36>    C        5.06825        -6.22155         0.68762
| 37>    S        4.54941        -7.38238        -0.50958
| 38>    C        5.13392        -8.70333         0.44879
| 39>    C        5.62910        -8.25268         1.67575
| 40>    C        5.56878        -6.86100         1.82058
| 41>    C        5.82124        -6.16604         3.12111
| 42>    C        7.04870        -6.72641         3.80776
| 43>    S        6.57144        -8.40943         4.28022
| 44>    O        7.67725        -9.11742         4.85863
| 45>    O        5.35233        -8.33679         5.03693
| 46>    C        6.20072        -9.19871         2.67399
| 47>    C        5.09118       -10.03682        -0.02189
| 48>    C        4.53885       -10.39141        -1.21118
| 49>    C        4.48276       -11.69887        -1.75810
| 50>    C        3.89461       -11.92162        -2.98780
| 51>    C        3.79730       -13.15311        -3.62229
| 52>    C        4.23559       -14.37942        -2.94162
| 53>    C        4.85244       -14.39887        -1.73873
| 54>    S        5.20317       -12.99779        -0.81827
| 55>    C        3.86603       -15.44788        -3.80269
| 56>    C        3.24751       -14.93490        -4.94569
| 57>    C        2.86407       -15.95333        -5.84572
| 58>    C        3.19013       -17.18377        -5.37100
| 59>    S        3.97463       -17.16053        -3.82707
| 60>    C        3.22242       -13.49977        -4.86797
| 61>    C        2.71747       -12.68223        -5.90336
| 62>    C        2.96916       -11.35905        -6.10195
| 63>    C        2.41490       -10.59785        -7.15602
| 64>    S        1.28158       -11.28584        -8.27385
| 65>    C        1.14874        -9.78432        -9.14502
| 66>    C        1.98927        -8.80864        -8.59601
| 67>    C        2.67859        -9.25873        -7.46374
| 68>    C        3.64538        -8.45129        -6.64563
| 69>    C        3.50241        -6.96151        -6.86904
| 70>    S        3.72502        -6.71538        -8.65605
| 71>    O        3.67020        -5.31627        -8.96834
| 72>    O        4.87389        -7.46385        -9.07211
| 73>    C        2.19615        -7.49414        -9.25794
| 74>    C        0.27270        -9.74078       -10.24852
| 75>    C       -0.28720        -8.63677       -10.82415
| 76>    C       -1.16648        -8.68975       -11.92581
| 77>    C       -1.28044        -9.65313       -12.89250
| 78>    C       -2.53292        -9.74221       -13.68657
| 79>    O       -3.43353        -8.93830       -13.72055
| 80>    C       -2.45811       -11.04988       -14.38545
| 81>    C       -1.20705       -11.63845       -14.12736
| 82>    C       -0.91918       -12.89906       -14.62275
| 83>    C       -1.87404       -13.55642       -15.39558
| 84>    C       -3.11325       -12.95205       -15.66304
| 85>    C       -3.41073       -11.68402       -15.15203
| 86>    C       -4.08757       -13.58869       -16.47364
| 87>    N       -4.91849       -14.00563       -17.14198
| 88>    C       -1.63318       -14.95092       -15.89921
| 89>    O       -2.51798       -15.75020       -16.00765
| 90>    O       -0.36828       -15.26025       -16.20763
| 91>    C       -0.40349       -10.71169       -13.32756
| 92>    C        0.96984       -10.73263       -13.27049
| 93>    C        1.73569        -9.70399       -12.69270
| 94>    N        2.38420        -8.86480       -12.25302
| 95>    C        1.74525       -11.73970       -13.87571
| 96>    N        2.38604       -12.55857       -14.36310
| 97>    H        6.56868         0.29419         0.16981
| 98>    H        7.70099         1.69869        -0.75697
| 99>    H        9.91669        -3.17541         1.41341
|100>    H        4.08825        -4.61893        -0.28107
|101>    H        4.96511        -6.36597         3.77719
|102>    H        5.89259        -5.08896         2.98192
|103>    H        7.29563        -6.18860         4.71858
|104>    H        7.91155        -6.77981         3.15153
|105>    H        5.51471       -10.01332         2.90195
|106>    H        7.14892        -9.61197         2.33121
|107>    H        5.53216       -10.79148         0.61362
|108>    H        4.09699        -9.61179        -1.81997
|109>    H        3.45441       -11.05774        -3.46400
|110>    H        5.17928       -15.31459        -1.27184
|111>    H        2.37522       -15.79201        -6.78896
|112>    H        3.01907       -18.13351        -5.83881
|113>    H        2.10165       -13.18979        -6.63700
|114>    H        3.67187       -10.84575        -5.46523
|115>    H        4.66149        -8.73589        -6.93793
|116>    H        3.51603        -8.68409        -5.58500
|117>    H        4.26650        -6.39525        -6.34445
|118>    H        2.51762        -6.57966        -6.61515
|119>    H        2.28871        -7.62271       -10.33802
|120>    H        1.41625        -6.76719        -9.03736
|121>    H       -0.04473       -10.71187       -10.61218
|122>    H       -0.15365        -7.66920       -10.36670
|123>    H       -1.90178        -7.89444       -11.99826
|124>    H        0.01103       -13.38834       -14.37475
|125>    H       -4.36334       -11.21699       -15.35045
|126>    H        0.25826       -14.52945       -16.10957
|127> *
|128>
|129>                          ****END OF INPUT****

CARTESIAN COORDINATES (ANGSTROEM)
---------------------------------
  C      7.300900   -0.461490    0.410940
  C      8.631110   -0.109200    0.629650
  C      9.092920    1.319130    0.553330
  O     10.017470    1.717410    1.201770
  O      8.419300    2.126960   -0.271540
  C      9.575990   -1.083580    0.992380
  C     10.942540   -0.761670    1.197200
  N     12.070160   -0.628350    1.345370
  C      9.195950   -2.421730    1.134970
  C      7.876180   -2.751520    0.918430
  C      6.921370   -1.787570    0.549070
  C      5.626830   -2.446050    0.381840
  C      4.448180   -1.826010    0.054680
  C      4.349590   -0.453370   -0.250920
  N      4.243040    0.654800   -0.530740
  C      3.196100   -2.471900   -0.025210
  N      2.146300   -2.931360   -0.091800
  C      5.813130   -3.852780    0.660910
  C      7.227870   -4.078750    1.030650
  O      7.777120   -5.128150    1.290250
  C      4.928310   -4.856330    0.361170
  C      5.068250   -6.221550    0.687620
  S      4.549410   -7.382380   -0.509580
  C      5.133920   -8.703330    0.448790
  C      5.629100   -8.252680    1.675750
  C      5.568780   -6.861000    1.820580
  C      5.821240   -6.166040    3.121110
  C      7.048700   -6.726410    3.807760
  S      6.571440   -8.409430    4.280220
  O      7.677250   -9.117420    4.858630
  O      5.352330   -8.336790    5.036930
  C      6.200720   -9.198710    2.673990
  C      5.091180  -10.036820   -0.021890
  C      4.538850  -10.391410   -1.211180
  C      4.482760  -11.698870   -1.758100
  C      3.894610  -11.921620   -2.987800
  C      3.797300  -13.153110   -3.622290
  C      4.235590  -14.379420   -2.941620
  C      4.852440  -14.398870   -1.738730
  S      5.203170  -12.997790   -0.818270
  C      3.866030  -15.447880   -3.802690
  C      3.247510  -14.934900   -4.945690
  C      2.864070  -15.953330   -5.845720
  C      3.190130  -17.183770   -5.371000
  S      3.974630  -17.160530   -3.827070
  C      3.222420  -13.499770   -4.867970
  C      2.717470  -12.682230   -5.903360
  C      2.969160  -11.359050   -6.101950
  C      2.414900  -10.597850   -7.156020
  S      1.281580  -11.285840   -8.273850
  C      1.148740   -9.784320   -9.145020
  C      1.989270   -8.808640   -8.596010
  C      2.678590   -9.258730   -7.463740
  C      3.645380   -8.451290   -6.645630
  C      3.502410   -6.961510   -6.869040
  S      3.725020   -6.715380   -8.656050
  O      3.670200   -5.316270   -8.968340
  O      4.873890   -7.463850   -9.072110
  C      2.196150   -7.494140   -9.257940
  C      0.272700   -9.740780  -10.248520
  C     -0.287200   -8.636770  -10.824150
  C     -1.166480   -8.689750  -11.925810
  C     -1.280440   -9.653130  -12.892500
  C     -2.532920   -9.742210  -13.686570
  O     -3.433530   -8.938300  -13.720550
  C     -2.458110  -11.049880  -14.385450
  C     -1.207050  -11.638450  -14.127360
  C     -0.919180  -12.899060  -14.622750
  C     -1.874040  -13.556420  -15.395580
  C     -3.113250  -12.952050  -15.663040
  C     -3.410730  -11.684020  -15.152030
  C     -4.087570  -13.588690  -16.473640
  N     -4.918490  -14.005630  -17.141980
  C     -1.633180  -14.950920  -15.899210
  O     -2.517980  -15.750200  -16.007650
  O     -0.368280  -15.260250  -16.207630
  C     -0.403490  -10.711690  -13.327560
  C      0.969840  -10.732630  -13.270490
  C      1.735690   -9.703990  -12.692700
  N      2.384200   -8.864800  -12.253020
  C      1.745250  -11.739700  -13.875710
  N      2.386040  -12.558570  -14.363100
  H      6.568680    0.294190    0.169810
  H      7.700990    1.698690   -0.756970
  H      9.916690   -3.175410    1.413410
  H      4.088250   -4.618930   -0.281070
  H      4.965110   -6.365970    3.777190
  H      5.892590   -5.088960    2.981920
  H      7.295630   -6.188600    4.718580
  H      7.911550   -6.779810    3.151530
  H      5.514710  -10.013320    2.901950
  H      7.148920   -9.611970    2.331210
  H      5.532160  -10.791480    0.613620
  H      4.096990   -9.611790   -1.819970
  H      3.454410  -11.057740   -3.464000
  H      5.179280  -15.314590   -1.271840
  H      2.375220  -15.792010   -6.788960
  H      3.019070  -18.133510   -5.838810
  H      2.101650  -13.189790   -6.637000
  H      3.671870  -10.845750   -5.465230
  H      4.661490   -8.735890   -6.937930
  H      3.516030   -8.684090   -5.585000
  H      4.266500   -6.395250   -6.344450
  H      2.517620   -6.579660   -6.615150
  H      2.288710   -7.622710  -10.338020
  H      1.416250   -6.767190   -9.037360
  H     -0.044730  -10.711870  -10.612180
  H     -0.153650   -7.669200  -10.366700
  H     -1.901780   -7.894440  -11.998260
  H      0.011030  -13.388340  -14.374750
  H     -4.363340  -11.216990  -15.350450
  H      0.258260  -14.529450  -16.109570

 Total Charge           Charge          ....    0
 Multiplicity           Mult            ....    1
 Number of Electrons    NEL             ....  608
 Basis Dimension        Dim             .... 1322

ORBITAL ENERGIES
----------------

  NO   OCC          E(Eh)            E(eV)
   0   2.0000     -89.148230     -2425.8467
   1   2.0000     -89.144157     -2425.7358
   2   2.0000     -89.000603     -2421.8295
   3   2.0000     -88.993556     -2421.6378
   4   2.0000     -88.985107     -2421.4078
   5   2.0000     -88.977613     -2421.2039
   6   2.0000     -19.283135      -524.7208
   7   2.0000     -19.278974      -524.6075
   8   2.0000     -19.249800      -523.8137
   9   2.0000     -19.236429      -523.4498
  10   2.0000     -19.221926      -523.0552
  11   2.0000     -19.218425      -522.9599
  12   2.0000     -19.202341      -522.5223
  13   2.0000     -19.201103      -522.4886
  14   2.0000     -19.199232      -522.4377
  15   2.0000     -19.196419      -522.3611
  16   2.0000     -14.443612      -393.0307
  17   2.0000     -14.441533      -392.9741
  18   2.0000     -14.439686      -392.9238
  19   2.0000     -14.438274      -392.8854
  20   2.0000     -14.418595      -392.3499
  21   2.0000     -14.415314      -392.2606
  22   2.0000     -10.428069      -283.7622
  23   2.0000     -10.423956      -283.6503
  24   2.0000     -10.400759      -283.0190
  25   2.0000     -10.387580      -282.6604
  26   2.0000     -10.372816      -282.2587
  27   2.0000     -10.370041      -282.1832
  28   2.0000     -10.366082      -282.0754
  29   2.0000     -10.364710      -282.0381
  30   2.0000     -10.359141      -281.8866
  31   2.0000     -10.353392      -281.7301
  32   2.0000     -10.353356      -281.7291
  33   2.0000     -10.352304      -281.7005
  34   2.0000     -10.350512      -281.6517
  35   2.0000     -10.349043      -281.6118
  36   2.0000     -10.346123      -281.5323
  37   2.0000     -10.345903      -281.5263
  38   2.0000     -10.345772      -281.5228
  39   2.0000     -10.343361      -281.4572
  40   2.0000     -10.341653      -281.4107
  41   2.0000     -10.341455      -281.4053
  42   2.0000     -10.340266      -281.3730
  43   2.0000     -10.340028      -281.3665
  44   2.0000     -10.339958      -281.3646
  45   2.0000     -10.339225      -281.3446
  46   2.0000     -10.337464      -281.2967
  47   2.0000     -10.337159      -281.2884
  48   2.0000     -10.334372      -281.2126
  49   2.0000     -10.334097      -281.2051
  50   2.0000     -10.333365      -281.1851
  51   2.0000     -10.332111      -281.1510
  52   2.0000     -10.331346      -281.1302
  53   2.0000     -10.331145      -281.1248
  54   2.0000     -10.331083      -281.1231
  55   2.0000     -10.330130      -281.0971
  56   2.0000     -10.328134      -281.0428
  57   2.0000     -10.327223      -281.0180
  58   2.0000     -10.326419      -280.9962
  59   2.0000     -10.325449      -280.9697
  60   2.0000     -10.325121      -280.9608
  61   2.0000     -10.323867      -280.9267
  62   2.0000     -10.323284      -280.9108
  63   2.0000     -10.322347      -280.8853
  64   2.0000     -10.319928      -280.8195
  65   2.0000     -10.318876      -280.7909
  66   2.0000     -10.318866      -280.7906
  67   2.0000     -10.318373      -280.7772
  68   2.0000     -10.317035      -280.7408
  69   2.0000     -10.314547      -280.6731
  70   2.0000     -10.314533      -280.6727
  71   2.0000     -10.314274      -280.6657
  72   2.0000     -10.313716      -280.6505
  73   2.0000     -10.312911      -280.6286
  74   2.0000     -10.312855      -280.6270
  75   2.0000     -10.310896      -280.5738
  76   2.0000     -10.309968      -280.5485
  77   2.0000     -10.309488      -280.5354
  78   2.0000     -10.309101      -280.5249
  79   2.0000     -10.306004      -280.4406
  80   2.0000     -10.296786      -280.1898
  81   2.0000     -10.295597      -280.1574
  82   2.0000      -8.214499      -223.5279
  83   2.0000      -8.210523      -223.4197
  84   2.0000      -8.095983      -220.3029
  85   2.0000      -8.089456      -220.1253
  86   2.0000      -8.080911      -219.8928
  87   2.0000      -8.073116      -219.6807
  88   2.0000      -6.183333      -168.2570
  89   2.0000      -6.183198      -168.2534
  90   2.0000      -6.182501      -168.2344
  91   2.0000      -6.179382      -168.1495
  92   2.0000      -6.179021      -168.1397
  93   2.0000      -6.178701      -168.1310
  94   2.0000      -6.065452      -165.0493
  95   2.0000      -6.061014      -164.9286
  96   2.0000      -6.058659      -164.8645
  97   2.0000      -6.057943      -164.8450
  98   2.0000      -6.054751      -164.7581
  99   2.0000      -6.051395      -164.6668
 100   2.0000      -6.049981      -164.6283
 101   2.0000      -6.046198      -164.5254
 102   2.0000      -6.043034      -164.4393
 103   2.0000      -6.042573      -164.4268
 104   2.0000      -6.038274      -164.3098
 105   2.0000      -6.035115      -164.2238
 106   2.0000      -1.209485       -32.9118
 107   2.0000      -1.207242       -32.8507
 108   2.0000      -1.207086       -32.8465
 109   2.0000      -1.202752       -32.7286
 110   2.0000      -1.164708       -31.6933
 111   2.0000      -1.151885       -31.3444
 112   2.0000      -1.122347       -30.5406
 113   2.0000      -1.118015       -30.4227
 114   2.0000      -1.088138       -29.6097
 115   2.0000      -1.086627       -29.5686
 116   2.0000      -1.049459       -28.5572
 117   2.0000      -1.044158       -28.4130
 118   2.0000      -1.034037       -28.1376
 119   2.0000      -1.031462       -28.0675
 120   2.0000      -1.030651       -28.0454
 121   2.0000      -1.026550       -27.9338
 122   2.0000      -1.024483       -27.8776
 123   2.0000      -1.021085       -27.7851
 124   2.0000      -1.017664       -27.6920
 125   2.0000      -1.006837       -27.3974
 126   2.0000      -1.002530       -27.2802
 127   2.0000      -0.999369       -27.1942
 128   2.0000      -0.983811       -26.7709
 129   2.0000      -0.978973       -26.6392
 130   2.0000      -0.960234       -26.1293
 131   2.0000      -0.952294       -25.9133
 132   2.0000      -0.949060       -25.8252
 133   2.0000      -0.946458       -25.7544
 134   2.0000      -0.940886       -25.6028
 135   2.0000      -0.933613       -25.4049
 136   2.0000      -0.929183       -25.2843
 137   2.0000      -0.927001       -25.2250
 138   2.0000      -0.919006       -25.0074
 139   2.0000      -0.908023       -24.7086
 140   2.0000      -0.901736       -24.5375
 141   2.0000      -0.898911       -24.4606
 142   2.0000      -0.894068       -24.3288
 143   2.0000      -0.891069       -24.2472
 144   2.0000      -0.883413       -24.0389
 145   2.0000      -0.867198       -23.5977
 146   2.0000      -0.857045       -23.3214
 147   2.0000      -0.854633       -23.2558
 148   2.0000      -0.851989       -23.1838
 149   2.0000      -0.835456       -22.7339
 150   2.0000      -0.831338       -22.6219
 151   2.0000      -0.820265       -22.3206
 152   2.0000      -0.813278       -22.1304
 153   2.0000      -0.807300       -21.9677
 154   2.0000      -0.803061       -21.8524
 155   2.0000      -0.787567       -21.4308
 156   2.0000      -0.770180       -20.9577
 157   2.0000      -0.764405       -20.8005
 158   2.0000      -0.763818       -20.7845
 159   2.0000      -0.760208       -20.6863
 160   2.0000      -0.754295       -20.5254
 161   2.0000      -0.753285       -20.4979
 162   2.0000      -0.741162       -20.1680
 163   2.0000      -0.735924       -20.0255
 164   2.0000      -0.727187       -19.7878
 165   2.0000      -0.724251       -19.7079
 166   2.0000      -0.721084       -19.6217
 167   2.0000      -0.714226       -19.4351
 168   2.0000      -0.713524       -19.4160
 169   2.0000      -0.705070       -19.1859
 170   2.0000      -0.697625       -18.9833
 171   2.0000      -0.695220       -18.9179
 172   2.0000      -0.691163       -18.8075
 173   2.0000      -0.685939       -18.6653
 174   2.0000      -0.678393       -18.4600
 175   2.0000      -0.667888       -18.1742
 176   2.0000      -0.665907       -18.1202
 177   2.0000      -0.661020       -17.9873
 178   2.0000      -0.656562       -17.8660
 179   2.0000      -0.654567       -17.8117
 180   2.0000      -0.651271       -17.7220
 181   2.0000      -0.645875       -17.5752
 182   2.0000      -0.638508       -17.3747
 183   2.0000      -0.631569       -17.1859
 184   2.0000      -0.629805       -17.1379
 185   2.0000      -0.629258       -17.1230
 186   2.0000      -0.619413       -16.8551
 187   2.0000      -0.609420       -16.5832
 188   2.0000      -0.606038       -16.4911
 189   2.0000      -0.604971       -16.4621
 190   2.0000      -0.604525       -16.4500
 191   2.0000      -0.601743       -16.3743
 192   2.0000      -0.598655       -16.2902
 193   2.0000      -0.592773       -16.1302
 194   2.0000      -0.589858       -16.0508
 195   2.0000      -0.582238       -15.8435
 196   2.0000      -0.580749       -15.8030
 197   2.0000      -0.577673       -15.7193
 198   2.0000      -0.577527       -15.7153
 199   2.0000      -0.576650       -15.6914
 200   2.0000      -0.573788       -15.6136
 201   2.0000      -0.571883       -15.5617
 202   2.0000      -0.570507       -15.5243
 203   2.0000      -0.569534       -15.4978
 204   2.0000      -0.565818       -15.3967
 205   2.0000      -0.564172       -15.3519
 206   2.0000      -0.559599       -15.2275
 207   2.0000      -0.555786       -15.1237
 208   2.0000      -0.555230       -15.1086
 209   2.0000      -0.553222       -15.0539
 210   2.0000      -0.549508       -14.9529
 211   2.0000      -0.549027       -14.9398
 212   2.0000      -0.545089       -14.8326
 213   2.0000      -0.543731       -14.7957
 214   2.0000      -0.541342       -14.7307
 215   2.0000      -0.540016       -14.6946
 216   2.0000      -0.539002       -14.6670
 217   2.0000      -0.537184       -14.6175
 218   2.0000      -0.535061       -14.5598
 219   2.0000      -0.533209       -14.5094
 220   2.0000      -0.531544       -14.4641
 221   2.0000      -0.531101       -14.4520
 222   2.0000      -0.528922       -14.3927
 223   2.0000      -0.526197       -14.3186
 224   2.0000      -0.525179       -14.2908
 225   2.0000      -0.521727       -14.1969
 226   2.0000      -0.520159       -14.1543
 227   2.0000      -0.516217       -14.0470
 228   2.0000      -0.510438       -13.8897
 229   2.0000      -0.508730       -13.8432
 230   2.0000      -0.504466       -13.7272
 231   2.0000      -0.503935       -13.7128
 232   2.0000      -0.503908       -13.7120
 233   2.0000      -0.502408       -13.6712
 234   2.0000      -0.500534       -13.6202
 235   2.0000      -0.497209       -13.5298
 236   2.0000      -0.493969       -13.4416
 237   2.0000      -0.491824       -13.3832
 238   2.0000      -0.486425       -13.2363
 239   2.0000      -0.485737       -13.2176
 240   2.0000      -0.482611       -13.1325
 241   2.0000      -0.482362       -13.1257
 242   2.0000      -0.479700       -13.0533
 243   2.0000      -0.476621       -12.9695
 244   2.0000      -0.475566       -12.9408
 245   2.0000      -0.474691       -12.9170
 246   2.0000      -0.473283       -12.8787
 247   2.0000      -0.472763       -12.8645
 248   2.0000      -0.472646       -12.8613
 249   2.0000      -0.470145       -12.7933
 250   2.0000      -0.469511       -12.7760
 251   2.0000      -0.468928       -12.7602
 252   2.0000      -0.463493       -12.6123
 253   2.0000      -0.461474       -12.5573
 254   2.0000      -0.460466       -12.5299
 255   2.0000      -0.458158       -12.4671
 256   2.0000      -0.455601       -12.3975
 257   2.0000      -0.454156       -12.3582
 258   2.0000      -0.453328       -12.3357
 259   2.0000      -0.452222       -12.3056
 260   2.0000      -0.450495       -12.2586
 261   2.0000      -0.446527       -12.1506
 262   2.0000      -0.445682       -12.1276
 263   2.0000      -0.444911       -12.1067
 264   2.0000      -0.443703       -12.0738
 265   2.0000      -0.441870       -12.0239
 266   2.0000      -0.440598       -11.9893
 267   2.0000      -0.438773       -11.9396
 268   2.0000      -0.437923       -11.9165
 269   2.0000      -0.431137       -11.7318
 270   2.0000      -0.430938       -11.7264
 271   2.0000      -0.428047       -11.6478
 272   2.0000      -0.427579       -11.6350
 273   2.0000      -0.425295       -11.5729
 274   2.0000      -0.411924       -11.2090
 275   2.0000      -0.411503       -11.1976
 276   2.0000      -0.410293       -11.1646
 277   2.0000      -0.407484       -11.0882
 278   2.0000      -0.406626       -11.0649
 279   2.0000      -0.401415       -10.9231
 280   2.0000      -0.398100       -10.8328
 281   2.0000      -0.396842       -10.7986
 282   2.0000      -0.390990       -10.6394
 283   2.0000      -0.383441       -10.4340
 284   2.0000      -0.377901       -10.2832
 285   2.0000      -0.377759       -10.2793
 286   2.0000      -0.374913       -10.2019
 287   2.0000      -0.374546       -10.1919
 288   2.0000      -0.368647       -10.0314
 289   2.0000      -0.367703       -10.0057
 290   2.0000      -0.365858        -9.9555
 291   2.0000      -0.364567        -9.9204
 292   2.0000      -0.361528        -9.8377
 293   2.0000      -0.360897        -9.8205
 294   2.0000      -0.357544        -9.7293
 295   2.0000      -0.348667        -9.4877
 296   2.0000      -0.345926        -9.4131
 297   2.0000      -0.343611        -9.3501
 298   2.0000      -0.342404        -9.3173
 299   2.0000      -0.334731        -9.1085
 300   2.0000      -0.313255        -8.5241
 301   2.0000      -0.303634        -8.2623
 302   2.0000      -0.284647        -7.7456
 303   2.0000      -0.248160        -6.7528
 304   0.0000      -0.130569        -3.5530
 305   0.0000      -0.118617        -3.2277
 306   0.0000      -0.105843        -2.8801
 307   0.0000      -0.096037        -2.6133
 308   0.0000      -0.083960        -2.2847

MULLIKEN ATOMIC CHARGES
-----------------------
   0 C :   -0.082434
   1 C :    0.014039
   2 C :    0.185093
   3 O :   -0.144635
   4 O :   -0.137237
   5 C :   -0.075448
   6 C :   -0.155830
   7 N :    0.145303
   8 C :   -0.030070
   9 C :   -0.011955
  10 C :    0.048730
  11 C :    0.294555
  12 C :   -0.323562
  13 C :   -0.177005
  14 N :    0.149940
  15 C :   -0.204995
  16 N :    0.173660
  17 C :   -0.114535
  18 C :    0.147777
  19 O :   -0.144734
  20 C :    0.013570
  21 C :   -0.151893
  22 S :    0.131446
  23 C :   -0.059096
  24 C :   -0.092014
  25 C :    0.011615
  26 C :    0.112550
  27 C :   -0.044510
  28 S :    0.662055
  29 O :   -0.449004
  30 O :   -0.458011
  31 C :    0.062767
  32 C :   -0.016235
  33 C :    0.001420
  34 C :   -0.034085
  35 C :   -0.051278
  36 C :    0.057630
  37 C :    0.057110
  38 C :   -0.113746
  39 S :    0.127602
  40 C :   -0.103623
  41 C :    0.048834
  42 C :    0.012596
  43 C :   -0.064794
  44 S :    0.144053
  45 C :    0.094185
  46 C :   -0.022884
  47 C :   -0.034390
  48 C :   -0.076938
  49 S :    0.131755
  50 C :   -0.131277
  51 C :   -0.040655
  52 C :   -0.081101
  53 C :    0.102490
  54 C :   -0.045568
  55 S :    0.681371
  56 O :   -0.449558
  57 O :   -0.441976
  58 C :    0.032759
  59 C :    0.060375
  60 C :   -0.019858
  61 C :    0.058569
  62 C :   -0.139851
  63 C :    0.143740
  64 O :   -0.124847
  65 C :    0.017222
  66 C :    0.023577
  67 C :   -0.086077
  68 C :    0.004840
  69 C :   -0.075406
  70 C :   -0.032843
  71 C :   -0.157731
  72 N :    0.145455
  73 C :    0.180873
  74 O :   -0.147680
  75 O :   -0.142539
  76 C :    0.250361
  77 C :   -0.329311
  78 C :   -0.157971
  79 N :    0.172313
  80 C :   -0.171327
  81 N :    0.145427
  82 H :   -0.007986
  83 H :    0.190957
  84 H :    0.016029
  85 H :    0.036077
  86 H :    0.070265
  87 H :    0.017504
  88 H :    0.074386
  89 H :    0.075456
  90 H :    0.076839
  91 H :    0.074890
  92 H :    0.012787
  93 H :    0.002040
  94 H :   -0.022610
  95 H :    0.044789
  96 H :   -0.012298
  97 H :    0.035285
  98 H :   -0.008704
  99 H :   -0.008994
 100 H :    0.063633
 101 H :    0.025069
 102 H :    0.064500
 103 H :    0.050567
 104 H :    0.096668
 105 H :    0.069706
 106 H :    0.012740
 107 H :    0.003187
 108 H :    0.034317
 109 H :    0.004903
 110 H :    0.018379
 111 H :    0.192482
Sum of atomic charges:   -0.0000000

LOEWDIN ATOMIC CHARGES
----------------------
   0 C :   -0.000733
   1 C :   -0.035812
   2 C :    0.080745
   3 O :   -0.116161
   4 O :   -0.011635
   5 C :   -0.020849
   6 C :   -0.035219
   7 N :   -0.020762
   8 C :    0.048623
   9 C :   -0.032045
  10 C :    0.000040
  11 C :    0.069539
  12 C :   -0.130311
  13 C :   -0.017425
  14 N :   -0.046329
  15 C :   -0.026277
  16 N :   -0.036921
  17 C :   -0.110825
  18 C :    0.081762
  19 O :   -0.135801
  20 C :    0.056537
  21 C :   -0.183521
  22 S :    0.451092
  23 C :   -0.135033
  24 C :   -0.080117
  25 C :   -0.003473
  26 C :   -0.042197
  27 C :   -0.129830
  28 S :    1.164500
  29 O :   -0.511007
  30 O :   -0.513094
  31 C :   -0.140849
  32 C :   -0.063315
  33 C :   -0.017962
  34 C :   -0.171724
  35 C :   -0.008409
  36 C :   -0.020609
  37 C :   -0.047167
  38 C :   -0.131836
  39 S :    0.461426
  40 C :   -0.198002
  41 C :   -0.039655
  42 C :   -0.061897
  43 C :   -0.156181
  44 S :    0.434215
  45 C :   -0.040462
  46 C :    0.000390
  47 C :   -0.057755
  48 C :   -0.144772
  49 S :    0.452925
  50 C :   -0.181043
  51 C :   -0.047187
  52 C :   -0.063004
  53 C :   -0.045200
  54 C :   -0.140003
  55 S :    1.164160
  56 O :   -0.511611
  57 O :   -0.501766
  58 C :   -0.143346
  59 C :    0.019929
  60 C :   -0.052511
  61 C :    0.076640
  62 C :   -0.107330
  63 C :    0.082886
  64 O :   -0.127431
  65 C :   -0.032193
  66 C :    0.001169
  67 C :   -0.004637
  68 C :   -0.036572
  69 C :   -0.024943
  70 C :    0.050136
  71 C :   -0.034510
  72 N :   -0.022271
  73 C :    0.079308
  74 O :   -0.119795
  75 O :   -0.014601
  76 C :    0.063579
  77 C :   -0.143374
  78 C :    0.000135
  79 N :   -0.034244
  80 C :   -0.018399
  81 N :   -0.056961
  82 H :    0.035055
  83 H :    0.098881
  84 H :    0.052967
  85 H :    0.046358
  86 H :    0.048045
  87 H :    0.035694
  88 H :    0.046103
  89 H :    0.037243
  90 H :    0.049684
  91 H :    0.045912
  92 H :    0.028134
  93 H :    0.029019
  94 H :    0.035553
  95 H :    0.040508
  96 H :    0.032319
  97 H :    0.027311
  98 H :    0.025425
  99 H :    0.029203
 100 H :    0.047722
 101 H :    0.033222
 102 H :    0.042254
 103 H :    0.031709
 104 H :    0.050632
 105 H :    0.039121
 106 H :    0.034597
 107 H :    0.035621
 108 H :    0.050608
 109 H :    0.036106
 110 H :    0.054046
 111 H :    0.100120

  Mayer bond orders larger than 0.100000
B(  0-C ,  1-C ) :   1.3191 B(  0-C , 10-C ) :   1.3933 B(  0-C , 82-H ) :   0.9570
B(  1-C ,  2-C ) :   0.8669 B(  1-C ,  5-C ) :   1.3976 B(  2-C ,  3-O ) :   2.1660
B(  2-C ,  4-O ) :   1.2586 B(  4-O , 83-H ) :   0.9477 B(  5-C ,  6-C ) :   1.0651
B(  5-C ,  8-C ) :   1.3618 B(  6-C ,  7-N ) :   3.0366 B(  8-C ,  9-C ) :   1.3574
B(  8-C , 84-H ) :   1.0148 B(  9-C , 10-C ) :   1.3399 B(  9-C , 18-C ) :   0.9239
B( 10-C , 11-C ) :   0.9857 B( 11-C , 12-C ) :   1.6489 B( 11-C , 17-C ) :   1.0797
B( 12-C , 13-C ) :   1.1378 B( 12-C , 15-C ) :   1.1397 B( 13-C , 14-N ) :   2.9602
B( 15-C , 16-N ) :   2.9936 B( 17-C , 18-C ) :   0.9642 B( 17-C , 20-C ) :   1.5638
B( 18-C , 19-O ) :   2.1893 B( 20-C , 21-C ) :   1.1991 B( 20-C , 85-H ) :   0.9325
B( 21-C , 22-S ) :   1.0831 B( 21-C , 25-C ) :   1.4544 B( 22-S , 23-C ) :   1.1472
B( 23-C , 24-C ) :   1.4495 B( 23-C , 32-C ) :   1.2025 B( 24-C , 25-C ) :   1.3478
B( 24-C , 31-C ) :   1.0076 B( 25-C , 26-C ) :   1.0609 B( 26-C , 27-C ) :   1.0108
B( 26-C , 86-H ) :   0.9100 B( 26-C , 87-H ) :   0.9064 B( 27-C , 28-S ) :   0.8733
B( 27-C , 88-H ) :   0.9312 B( 27-C , 89-H ) :   0.9375 B( 28-S , 29-O ) :   1.7499
B( 28-S , 30-O ) :   1.6841 B( 28-S , 31-C ) :   0.8305 B( 31-C , 90-H ) :   0.8978
B( 31-C , 91-H ) :   0.9164 B( 32-C , 33-C ) :   1.5909 B( 32-C , 92-H ) :   0.9556
B( 33-C , 34-C ) :   1.1851 B( 33-C , 93-H ) :   0.9835 B( 34-C , 35-C ) :   1.4731
B( 34-C , 39-S ) :   1.0481 B( 35-C , 36-C ) :   1.2358 B( 35-C , 94-H ) :   0.9751
B( 36-C , 37-C ) :   1.0562 B( 36-C , 45-C ) :   1.3512 B( 37-C , 38-C ) :   1.6010
B( 37-C , 40-C ) :   1.1843 B( 38-C , 39-S ) :   1.1460 B( 38-C , 95-H ) :   0.9409
B( 40-C , 41-C ) :   1.4290 B( 40-C , 44-S ) :   1.0846 B( 41-C , 42-C ) :   1.2220
B( 41-C , 45-C ) :   1.1090 B( 42-C , 43-C ) :   1.5888 B( 42-C , 96-H ) :   0.9973
B( 43-C , 44-S ) :   1.1549 B( 43-C , 97-H ) :   0.9663 B( 45-C , 46-C ) :   1.1818
B( 46-C , 47-C ) :   1.5843 B( 46-C , 98-H ) :   0.9594 B( 47-C , 48-C ) :   1.1890
B( 47-C , 99-H ) :   0.9636 B( 48-C , 49-S ) :   1.1397 B( 48-C , 52-C ) :   1.4430
B( 49-S , 50-C ) :   1.1043 B( 50-C , 51-C ) :   1.4547 B( 50-C , 59-C ) :   1.2146
B( 51-C , 52-C ) :   1.3623 B( 51-C , 58-C ) :   1.0048 B( 52-C , 53-C ) :   1.0553
B( 53-C , 54-C ) :   1.0353 B( 53-C ,100-H ) :   0.9012 B( 53-C ,101-H ) :   0.9081
B( 54-C , 55-S ) :   0.8667 B( 54-C ,102-H ) :   0.9299 B( 54-C ,103-H ) :   0.9410
B( 55-S , 56-O ) :   1.7474 B( 55-S , 57-O ) :   1.7155 B( 55-S , 58-C ) :   0.8374
B( 58-C ,104-H ) :   0.8737 B( 58-C ,105-H ) :   0.9028 B( 59-C , 60-C ) :   1.5721
B( 59-C ,106-H ) :   0.9422 B( 60-C , 61-C ) :   1.2092 B( 60-C ,107-H ) :   0.9621
B( 61-C , 62-C ) :   1.5855 B( 61-C ,108-H ) :   0.9348 B( 62-C , 63-C ) :   0.9555
B( 62-C , 76-C ) :   1.0725 B( 63-C , 64-O ) :   2.2811 B( 63-C , 65-C ) :   0.8964
B( 65-C , 66-C ) :   1.3471 B( 65-C , 70-C ) :   1.3577 B( 66-C , 67-C ) :   1.3861
B( 66-C , 76-C ) :   0.9850 B( 67-C , 68-C ) :   1.3251 B( 67-C ,109-H ) :   0.9713
B( 68-C , 69-C ) :   1.3981 B( 68-C , 73-C ) :   0.8693 B( 69-C , 70-C ) :   1.3618
B( 69-C , 71-C ) :   1.0699 B( 70-C ,110-H ) :   1.0160 B( 71-C , 72-N ) :   3.0391
B( 73-C , 74-O ) :   2.1700 B( 73-C , 75-O ) :   1.2570 B( 75-O ,111-H ) :   0.9442
B( 76-C , 77-C ) :   1.6366 B( 77-C , 78-C ) :   1.1727 B( 77-C , 80-C ) :   1.1280
B( 78-C , 79-N ) :   2.9569 B( 80-C , 81-N ) :   2.9871

-----------------------------------------------------------------------------
         ABSORPTION SPECTRUM VIA TRANSITION ELECTRIC DIPOLE MOMENTS
-----------------------------------------------------------------------------
State   Energy  Wavelength   fosc         T2         TX        TY        TZ
        (cm-1)    (nm)                  (au**2)     (au)      (au)      (au)
-----------------------------------------------------------------------------
   0   11944.8    837.2   1.182579471  32.59322  -2.13536  -2.18947  -4.82076
   1   15516.9    644.5   0.436510732   9.26115  -0.43162   2.64140  -1.44840
   2   19370.1    516.3   0.069505555   1.18131   0.74823   0.46163   0.63903
   3   19903.4    502.4   0.327111010   5.41057   0.44270  -2.09608   0.90611
   4   20675.8    483.7   0.417733403   6.65139  -0.38929   2.37217  -0.93417
   5   22112.4    452.2   0.053731478   0.79996   0.68550  -0.41098   0.40143
   6   22640.8    441.7   0.217940309   3.16899  -0.37862  -1.41218  -1.01557
   7   24446.4    409.1   0.060688895   0.81728  -0.21490   0.00065   0.87812
   8   25049.0    399.2   0.021149357   0.27796   0.04801  -0.50473  -0.14459
   9   25883.2    386.4   0.022904107   0.29132   0.29294  -0.41877   0.17360
  10   26251.1    380.9   0.025709647   0.32242  -0.36542   0.04102  -0.43268
  11   27689.3    361.2   0.090647841   1.07776   0.80131  -0.46116   0.47222
  12   28542.7    350.4   0.052829449   0.60933   0.66580  -0.32964   0.23955
  13   29036.7    344.4   0.129238647   1.46528   0.18401  -1.13263   0.38545
  14   29378.2    340.4   0.320683540   3.59358  -0.43068  -1.69743  -0.72584
  15   29781.3    335.8   0.091917547   1.01609  -0.49552   0.55824  -0.67743
  16   30186.4    331.3   0.050799855   0.55402   0.45962  -0.40751   0.42036
  17   30492.0    328.0   0.155443985   1.67828  -1.20692   0.02198  -0.47025
  18   30682.6    325.9   0.056977047   0.61134   0.20381   0.75464  -0.01807
  19   30881.7    323.8   0.005731114   0.06110  -0.14128   0.09578  -0.17878
  20   31008.0    322.5   0.053602628   0.56910  -0.25738  -0.63839   0.30872
  21   31275.8    319.7   0.009036104   0.09511  -0.19353  -0.23230  -0.06083
  22   31498.0    317.5   0.140590955   1.46944   1.05489   0.09914   0.58891
  23   32600.9    306.7   0.145879190   1.47312  -0.11024   1.20698   0.06455
  24   32697.1    305.8   0.050892469   0.51241   0.35638   0.01010   0.62073
  25   33350.5    299.8   0.211848305   2.09121  -1.43584  -0.07920   0.15270
  26   33640.5    297.3   0.021162793   0.20710  -0.32921   0.31307   0.02667
  27   33918.6    294.8   0.356607876   3.46122  -1.31889  -0.93181  -0.92383
  28   34443.5    290.3   0.200846972   1.91970  -1.34330   0.25286  -0.22651
  29   34582.3    289.2   0.124660821   1.18673  -1.07657   0.01923  -0.16539
  30   34796.2    287.4   0.026794828   0.25351   0.10098   0.46725   0.15807
  31   34900.1    286.5   0.241289301   2.27608  -0.67589  -0.90668  -0.99859
  32   35150.2    284.5   0.075682225   0.70883   0.05773   0.73804  -0.40100
  33   35239.1    283.8   0.110269998   1.03017  -0.95076  -0.22744  -0.27294
  34   35377.2    282.7   0.129324702   1.20347   0.95328   0.47113   0.26973
  35   35533.6    281.4   0.018743200   0.17365  -0.26236  -0.15573  -0.28385
  36   35756.0    279.7   0.024301163   0.22374   0.41419  -0.22193  -0.05421
  37   36043.9    277.4   0.036435975   0.33279  -0.48193   0.28827  -0.13206
  38   36174.5    276.4   0.056555857   0.51470  -0.57418  -0.36102   0.23382
  39   36462.5    274.3   0.008962001   0.08092  -0.18578  -0.21395   0.02503
  40   36525.8    273.8   0.025873220   0.23320   0.23188   0.00543   0.42356
  41   36617.7    273.1   0.014323662   0.12878   0.20981   0.19037   0.22026
  42   37283.3    268.2   0.109930152   0.97069  -0.86628   0.41308   0.22272
  43   37760.8    264.8   0.327855722   2.85836   0.98249   0.89976   1.04091
  44   37950.5    263.5   0.075911351   0.65851   0.23286   0.56089   0.53823
  45   38124.1    262.3   0.061910953   0.53462  -0.15052   0.05194  -0.71363
  46   38470.7    259.9   0.011493105   0.09835  -0.31080   0.04189  -0.00053
  47   38520.4    259.6   0.019270577   0.16469   0.21821  -0.27804   0.19943
  48   38621.4    258.9   0.026680218   0.22742  -0.11478  -0.30581   0.34746
  49   38714.1    258.3   0.023032226   0.19586  -0.19757  -0.38352  -0.09869
  50   39161.5    255.4   0.093047909   0.78221  -0.80088  -0.31005  -0.21136
  51   39331.3    254.3   0.034782694   0.29114  -0.50554   0.18376  -0.04249
  52   39412.9    253.7   0.002705948   0.02260   0.14432   0.02053   0.03678
  53   39575.4    252.7   0.066164893   0.55040   0.64474   0.31083   0.19518
  54   39722.1    251.7   0.028603180   0.23706  -0.19487  -0.15057  -0.42001
  55   39918.4    250.5   0.018802254   0.15506   0.03772   0.36474   0.14354
  56   40059.6    249.6   0.034765439   0.28570   0.50185   0.15420   0.10036
  57   40286.6    248.2   0.068895596   0.56300  -0.39660   0.63170   0.08160

FINAL SINGLE POINT ENERGY     -5769.118729853967

DIPOLE MOMENT
-------------
                                X             Y             Z
Electronic contribution:     -3.29166       2.09655     -12.99520
Nuclear contribution   :      2.54102      -4.87724      15.09294
                        -----------------------------------------
Total Dipole Moment    :     -0.75064      -2.78069       2.09774
                        -----------------------------------------
Magnitude (a.u.)       :      3.56318
Magnitude (Debye)      :      9.05687

Rotational constants in cm-1:     0.000868     0.000222     0.000187
Rotational constants in MHz :    26.017759     6.665071     5.606504

                             ****ORCA TERMINATED NORMALLY****
TOTAL RUN TIME: 0 days 0 hours 14 minutes 5 seconds 360 msec
