                         Program Version 4.2.0 -  RELEASE  -
|  1> # ORCA input file
|  2> # SCF done       -198.622018209062          0.000727793662
|  3> ! CAM-B3LYP def2-SVP def2/J RIJCOSX Grid4 TightSCF
|  4> %maxcore 5000
|  5> %tddft
|  6>     Mode sTDDFT
|  7>     Ethresh 5.0
|  8>     maxcore 5000
|  9> end
| 10>
| 11> %pal
| 12>   nprocs 6
| 13>   end
| 14> * xyz 0 1
| 15>    C        2.99396        -1.55174         1.43357
| 16>    C        1.82715        -1.54707         2.18745
| 17>    C        0.68920        -0.97711         1.65571
| 18>    C        0.71226        -0.45289         0.35273
| 19>    C        1.87803        -0.45645        -0.39538
| 20>    C        3.02244        -1.00275         0.16142
| 21>    C       -0.62588        -0.00927         0.00965
| 22>    C       -1.47041        -0.25979         1.10132
| 23>    C       -0.68871        -0.83543         2.26273
| 24>    C       -0.71808         0.22300         3.39043
| 25>    C        0.15077        -0.07448         4.60520
| 26>    C       -1.25976        -2.18122         2.73238
| 27>    C       -1.36346        -3.19302         1.59673
| 28>    C       -2.80738         0.04718         1.03588
| 29>    C       -3.33476         0.60377        -0.13615
| 30>    C       -2.48024         0.85459        -1.21564
| 31>    C       -1.13388         0.55309        -1.15080
| 32>    C       -4.74606         0.91994        -0.21046
| 33>    C       -5.48947         1.19325        -1.31785
| 34>    C       -6.86172         1.47865        -1.05854
| 35>    C       -7.12225         1.40806         0.34014
| 36>    S       -5.70579         0.98800         1.25363
| 37>    C       -8.35010         1.64206         0.92886
| 38>    O       -8.49544         1.51125         2.29183
| 39>    C       -8.65987         2.73024         2.98889
| 40>    C       -9.41155         1.97347         0.07543
| 41>    C       -9.16139         2.05765        -1.30930
| 42>    C       -7.92754         1.81912        -1.90895
| 43>    O       -7.94562         1.96475        -3.26264
| 44>    C       -6.81921         1.69078        -4.05444
| 45>    S      -10.59468         2.48843        -2.19118
| 46>    C      -11.53083         2.55058        -0.70077
| 47>    C      -10.76766         2.24798         0.38604
| 48>    C      -12.93223         2.89655        -0.75524
| 49>    C      -13.59804         2.92214        -1.96748
| 50>    C      -14.94887         3.24727        -2.06730
| 51>    C      -15.69133         3.56842        -0.95515
| 52>    C      -15.04577         3.59222         0.30354
| 53>    C      -13.67229         3.24492         0.41267
| 54>    N      -13.08457         3.26106         1.62411
| 55>    C      -13.76775         3.63645         2.67128
| 56>    C      -15.12677         4.05016         2.55022
| 57>    N      -15.73642         3.99288         1.39489
| 58>    C      -15.88899         4.56012         3.72535
| 59>    C      -13.07268         3.61426         3.99196
| 60>    C      -17.12277         3.89150        -1.05809
| 61>    C      -17.58558         5.06807        -1.49593
| 62>    C      -18.99009         5.35552        -1.56273
| 63>    C      -19.91120         4.54658        -0.99958
| 64>    C      -19.45957         3.30689        -0.25289
| 65>    C      -18.09334         2.77606        -0.72074
| 66>    N      -17.46566         1.89342         0.23736
| 67>    C      -17.65503         2.15104         1.45514
| 68>    C      -18.65115         3.13257         1.91862
| 69>    N      -19.50529         3.64498         1.15344
| 70>    F      -18.69678         3.41236         3.21911
| 71>    F      -17.04398         1.41394         2.38127
| 72>    C      -21.31396         4.85222        -0.97574
| 73>    C      -21.92984         6.02628        -1.29885
| 74>    C      -23.33969         5.99378        -1.17767
| 75>    C      -23.80560         4.72619        -0.74852
| 76>    S      -22.47850         3.63247        -0.49344
| 77>    C      -25.15061         4.46404        -0.55604
| 78>    S      -25.75701         2.88529        -0.01462
| 79>    C      -25.19566         1.82023        -1.38074
| 80>    C      -26.05284         5.50894        -0.77656
| 81>    C      -25.59080         6.78031        -1.20188
| 82>    C      -24.24419         7.04415        -1.39817
| 83>    S      -23.58923         8.58855        -1.95688
| 84>    C      -24.50239         9.81485        -0.96947
| 85>    S      -26.93610         7.86448        -1.45314
| 86>    C      -28.06032         6.63588        -0.98827
| 87>    C      -27.47279         5.46895        -0.66186
| 88>    H        3.89037        -1.99377         1.84389
| 89>    H        1.82124        -1.99999         3.16749
| 90>    H        1.89311        -0.04867        -1.39532
| 91>    H        3.94235        -1.01436        -0.40502
| 92>    H       -1.75614         0.33428         3.71198
| 93>    H       -0.40271         1.17744         2.96020
| 94>    H       -0.11773        -1.02299         5.06283
| 95>    H        0.01071         0.70856         5.34774
| 96>    H        1.20258        -0.09688         4.33365
| 97>    H       -2.24966        -2.01354         3.16194
| 98>    H       -0.61775        -2.58988         3.51384
| 99>    H       -2.02520        -2.82708         0.81487
|100>    H       -1.75785        -4.13611         1.96842
|101>    H       -0.38491        -3.37698         1.15813
|102>    H       -3.46608        -0.14492         1.87049
|103>    H       -2.87471         1.30561        -2.11327
|104>    H       -0.49012         0.75719        -1.99350
|105>    H       -5.05338         1.17140        -2.29710
|106>    H       -8.84741         2.45914         4.02633
|107>    H       -9.50024         3.31212         2.59913
|108>    H       -7.74977         3.33835         2.93118
|109>    H       -6.47549         0.66036        -3.92513
|110>    H       -6.00351         2.39115        -3.85046
|111>    H       -7.15443         1.82790        -5.08250
|112>    H      -11.17491         2.20236         1.37772
|113>    H      -13.05320         2.67158        -2.86586
|114>    H      -15.42523         3.24102        -3.03655
|115>    H      -16.13851         3.73861         4.39667
|116>    H      -16.80882         5.03244         3.39341
|117>    H      -15.29352         5.28159         4.28112
|118>    H      -12.08129         3.18609         3.87413
|119>    H      -13.64041         3.02230         4.70761
|120>    H      -12.97798         4.62470         4.38839
|121>    H      -16.89406         5.84162        -1.79481
|122>    H      -19.29331         6.26073        -2.06457
|123>    H      -20.21609         2.51906        -0.38825
|124>    H      -18.22563         2.18024        -1.63564
|125>    H      -21.40665         6.91425        -1.60090
|126>    H      -25.65902         0.85392        -1.21172
|127>    H      -24.11480         1.72476        -1.36624
|128>    H      -25.53663         2.24121        -2.32151
|129>    H      -23.84299        10.67277        -0.88344
|130>    H      -24.70559         9.40042         0.01118
|131>    H      -25.42194        10.10073        -1.46889
|132>    H      -29.10550         6.87570        -0.99182
|133>    H      -28.00212         4.58904        -0.34542
|134> *
|135>
|136>                          ****END OF INPUT****

CARTESIAN COORDINATES (ANGSTROEM)
---------------------------------
  C      2.993960   -1.551740    1.433570
  C      1.827150   -1.547070    2.187450
  C      0.689200   -0.977110    1.655710
  C      0.712260   -0.452890    0.352730
  C      1.878030   -0.456450   -0.395380
  C      3.022440   -1.002750    0.161420
  C     -0.625880   -0.009270    0.009650
  C     -1.470410   -0.259790    1.101320
  C     -0.688710   -0.835430    2.262730
  C     -0.718080    0.223000    3.390430
  C      0.150770   -0.074480    4.605200
  C     -1.259760   -2.181220    2.732380
  C     -1.363460   -3.193020    1.596730
  C     -2.807380    0.047180    1.035880
  C     -3.334760    0.603770   -0.136150
  C     -2.480240    0.854590   -1.215640
  C     -1.133880    0.553090   -1.150800
  C     -4.746060    0.919940   -0.210460
  C     -5.489470    1.193250   -1.317850
  C     -6.861720    1.478650   -1.058540
  C     -7.122250    1.408060    0.340140
  S     -5.705790    0.988000    1.253630
  C     -8.350100    1.642060    0.928860
  O     -8.495440    1.511250    2.291830
  C     -8.659870    2.730240    2.988890
  C     -9.411550    1.973470    0.075430
  C     -9.161390    2.057650   -1.309300
  C     -7.927540    1.819120   -1.908950
  O     -7.945620    1.964750   -3.262640
  C     -6.819210    1.690780   -4.054440
  S    -10.594680    2.488430   -2.191180
  C    -11.530830    2.550580   -0.700770
  C    -10.767660    2.247980    0.386040
  C    -12.932230    2.896550   -0.755240
  C    -13.598040    2.922140   -1.967480
  C    -14.948870    3.247270   -2.067300
  C    -15.691330    3.568420   -0.955150
  C    -15.045770    3.592220    0.303540
  C    -13.672290    3.244920    0.412670
  N    -13.084570    3.261060    1.624110
  C    -13.767750    3.636450    2.671280
  C    -15.126770    4.050160    2.550220
  N    -15.736420    3.992880    1.394890
  C    -15.888990    4.560120    3.725350
  C    -13.072680    3.614260    3.991960
  C    -17.122770    3.891500   -1.058090
  C    -17.585580    5.068070   -1.495930
  C    -18.990090    5.355520   -1.562730
  C    -19.911200    4.546580   -0.999580
  C    -19.459570    3.306890   -0.252890
  C    -18.093340    2.776060   -0.720740
  N    -17.465660    1.893420    0.237360
  C    -17.655030    2.151040    1.455140
  C    -18.651150    3.132570    1.918620
  N    -19.505290    3.644980    1.153440
  F    -18.696780    3.412360    3.219110
  F    -17.043980    1.413940    2.381270
  C    -21.313960    4.852220   -0.975740
  C    -21.929840    6.026280   -1.298850
  C    -23.339690    5.993780   -1.177670
  C    -23.805600    4.726190   -0.748520
  S    -22.478500    3.632470   -0.493440
  C    -25.150610    4.464040   -0.556040
  S    -25.757010    2.885290   -0.014620
  C    -25.195660    1.820230   -1.380740
  C    -26.052840    5.508940   -0.776560
  C    -25.590800    6.780310   -1.201880
  C    -24.244190    7.044150   -1.398170
  S    -23.589230    8.588550   -1.956880
  C    -24.502390    9.814850   -0.969470
  S    -26.936100    7.864480   -1.453140
  C    -28.060320    6.635880   -0.988270
  C    -27.472790    5.468950   -0.661860
  H      3.890370   -1.993770    1.843890
  H      1.821240   -1.999990    3.167490
  H      1.893110   -0.048670   -1.395320
  H      3.942350   -1.014360   -0.405020
  H     -1.756140    0.334280    3.711980
  H     -0.402710    1.177440    2.960200
  H     -0.117730   -1.022990    5.062830
  H      0.010710    0.708560    5.347740
  H      1.202580   -0.096880    4.333650
  H     -2.249660   -2.013540    3.161940
  H     -0.617750   -2.589880    3.513840
  H     -2.025200   -2.827080    0.814870
  H     -1.757850   -4.136110    1.968420
  H     -0.384910   -3.376980    1.158130
  H     -3.466080   -0.144920    1.870490
  H     -2.874710    1.305610   -2.113270
  H     -0.490120    0.757190   -1.993500
  H     -5.053380    1.171400   -2.297100
  H     -8.847410    2.459140    4.026330
  H     -9.500240    3.312120    2.599130
  H     -7.749770    3.338350    2.931180
  H     -6.475490    0.660360   -3.925130
  H     -6.003510    2.391150   -3.850460
  H     -7.154430    1.827900   -5.082500
  H    -11.174910    2.202360    1.377720
  H    -13.053200    2.671580   -2.865860
  H    -15.425230    3.241020   -3.036550
  H    -16.138510    3.738610    4.396670
  H    -16.808820    5.032440    3.393410
  H    -15.293520    5.281590    4.281120
  H    -12.081290    3.186090    3.874130
  H    -13.640410    3.022300    4.707610
  H    -12.977980    4.624700    4.388390
  H    -16.894060    5.841620   -1.794810
  H    -19.293310    6.260730   -2.064570
  H    -20.216090    2.519060   -0.388250
  H    -18.225630    2.180240   -1.635640
  H    -21.406650    6.914250   -1.600900
  H    -25.659020    0.853920   -1.211720
  H    -24.114800    1.724760   -1.366240
  H    -25.536630    2.241210   -2.321510
  H    -23.842990   10.672770   -0.883440
  H    -24.705590    9.400420    0.011180
  H    -25.421940   10.100730   -1.468890
  H    -29.105500    6.875700   -0.991820
  H    -28.002120    4.589040   -0.345420

 Total Charge           Charge          ....    0
 Multiplicity           Mult            ....    1
 Number of Electrons    NEL             ....  558
 Basis Dimension        Dim             .... 1276

ORBITAL ENERGIES
----------------

  NO   OCC          E(Eh)            E(eV)
   0   2.0000     -88.944895     -2420.3137
   1   2.0000     -88.943822     -2420.2845
   2   2.0000     -88.933881     -2420.0139
   3   2.0000     -88.930883     -2419.9323
   4   2.0000     -88.920040     -2419.6373
   5   2.0000     -88.914965     -2419.4992
   6   2.0000     -24.796565      -674.7488
   7   2.0000     -24.795756      -674.7268
   8   2.0000     -19.241323      -523.5830
   9   2.0000     -19.222532      -523.0717
  10   2.0000     -14.418844      -392.3567
  11   2.0000     -14.416058      -392.2809
  12   2.0000     -14.414016      -392.2253
  13   2.0000     -14.411259      -392.1503
  14   2.0000     -10.406174      -283.1664
  15   2.0000     -10.404362      -283.1171
  16   2.0000     -10.328825      -281.0616
  17   2.0000     -10.320387      -280.8320
  18   2.0000     -10.320032      -280.8224
  19   2.0000     -10.318894      -280.7914
  20   2.0000     -10.317609      -280.7564
  21   2.0000     -10.317468      -280.7526
  22   2.0000     -10.311690      -280.5953
  23   2.0000     -10.307485      -280.4809
  24   2.0000     -10.307210      -280.4734
  25   2.0000     -10.306543      -280.4553
  26   2.0000     -10.300849      -280.3004
  27   2.0000     -10.298480      -280.2359
  28   2.0000     -10.296778      -280.1896
  29   2.0000     -10.296262      -280.1755
  30   2.0000     -10.295111      -280.1442
  31   2.0000     -10.290738      -280.0252
  32   2.0000     -10.290066      -280.0069
  33   2.0000     -10.287981      -279.9502
  34   2.0000     -10.286937      -279.9218
  35   2.0000     -10.286674      -279.9146
  36   2.0000     -10.284751      -279.8623
  37   2.0000     -10.284330      -279.8508
  38   2.0000     -10.282348      -279.7969
  39   2.0000     -10.281918      -279.7852
  40   2.0000     -10.279573      -279.7214
  41   2.0000     -10.279371      -279.7159
  42   2.0000     -10.278645      -279.6962
  43   2.0000     -10.278545      -279.6934
  44   2.0000     -10.276452      -279.6365
  45   2.0000     -10.275869      -279.6206
  46   2.0000     -10.274735      -279.5897
  47   2.0000     -10.274437      -279.5816
  48   2.0000     -10.273072      -279.5445
  49   2.0000     -10.271191      -279.4933
  50   2.0000     -10.269766      -279.4545
  51   2.0000     -10.268504      -279.4202
  52   2.0000     -10.265274      -279.3323
  53   2.0000     -10.265207      -279.3305
  54   2.0000     -10.264850      -279.3208
  55   2.0000     -10.264657      -279.3155
  56   2.0000     -10.264534      -279.3122
  57   2.0000     -10.264523      -279.3119
  58   2.0000     -10.264202      -279.3031
  59   2.0000     -10.262661      -279.2612
  60   2.0000     -10.262096      -279.2458
  61   2.0000     -10.261894      -279.2403
  62   2.0000     -10.261427      -279.2276
  63   2.0000     -10.260855      -279.2121
  64   2.0000     -10.260529      -279.2032
  65   2.0000     -10.260476      -279.2017
  66   2.0000     -10.260098      -279.1915
  67   2.0000     -10.259712      -279.1810
  68   2.0000     -10.256911      -279.1047
  69   2.0000     -10.255907      -279.0774
  70   2.0000     -10.252371      -278.9812
  71   2.0000     -10.245759      -278.8013
  72   2.0000     -10.239662      -278.6354
  73   2.0000      -8.040161      -218.7839
  74   2.0000      -8.039702      -218.7714
  75   2.0000      -8.029061      -218.4818
  76   2.0000      -8.025907      -218.3960
  77   2.0000      -8.015186      -218.1043
  78   2.0000      -8.009882      -217.9600
  79   2.0000      -6.009696      -163.5322
  80   2.0000      -6.009437      -163.5251
  81   2.0000      -6.005663      -163.4224
  82   2.0000      -6.004990      -163.4041
  83   2.0000      -6.001653      -163.3133
  84   2.0000      -6.001149      -163.2996
  85   2.0000      -5.998709      -163.2332
  86   2.0000      -5.995575      -163.1479
  87   2.0000      -5.994645      -163.1226
  88   2.0000      -5.991486      -163.0366
  89   2.0000      -5.990400      -163.0071
  90   2.0000      -5.987260      -162.9216
  91   2.0000      -5.985760      -162.8808
  92   2.0000      -5.981625      -162.7683
  93   2.0000      -5.980508      -162.7379
  94   2.0000      -5.976492      -162.6286
  95   2.0000      -5.974695      -162.5797
  96   2.0000      -5.969234      -162.4311
  97   2.0000      -1.324367       -36.0379
  98   2.0000      -1.309599       -35.6360
  99   2.0000      -1.144510       -31.1437
 100   2.0000      -1.124973       -30.6121
 101   2.0000      -1.075591       -29.2683
 102   2.0000      -1.069645       -29.1065
 103   2.0000      -1.005506       -27.3612
 104   2.0000      -0.998070       -27.1589
 105   2.0000      -0.995961       -27.1015
 106   2.0000      -0.982525       -26.7359
 107   2.0000      -0.977462       -26.5981
 108   2.0000      -0.970257       -26.4020
 109   2.0000      -0.964893       -26.2561
 110   2.0000      -0.952157       -25.9095
 111   2.0000      -0.937562       -25.5124
 112   2.0000      -0.931400       -25.3447
 113   2.0000      -0.912326       -24.8256
 114   2.0000      -0.909514       -24.7491
 115   2.0000      -0.905851       -24.6495
 116   2.0000      -0.893298       -24.3079
 117   2.0000      -0.881054       -23.9747
 118   2.0000      -0.874413       -23.7940
 119   2.0000      -0.863476       -23.4964
 120   2.0000      -0.858774       -23.3684
 121   2.0000      -0.855780       -23.2869
 122   2.0000      -0.849849       -23.1256
 123   2.0000      -0.839581       -22.8461
 124   2.0000      -0.831147       -22.6167
 125   2.0000      -0.831076       -22.6147
 126   2.0000      -0.828169       -22.5356
 127   2.0000      -0.822540       -22.3824
 128   2.0000      -0.822415       -22.3791
 129   2.0000      -0.820840       -22.3362
 130   2.0000      -0.814486       -22.1633
 131   2.0000      -0.806237       -21.9388
 132   2.0000      -0.801286       -21.8041
 133   2.0000      -0.791873       -21.5480
 134   2.0000      -0.789443       -21.4818
 135   2.0000      -0.779066       -21.1995
 136   2.0000      -0.777906       -21.1679
 137   2.0000      -0.770140       -20.9566
 138   2.0000      -0.763933       -20.7877
 139   2.0000      -0.756399       -20.5827
 140   2.0000      -0.748392       -20.3648
 141   2.0000      -0.744240       -20.2518
 142   2.0000      -0.731617       -19.9083
 143   2.0000      -0.728717       -19.8294
 144   2.0000      -0.715400       -19.4670
 145   2.0000      -0.713479       -19.4147
 146   2.0000      -0.712181       -19.3794
 147   2.0000      -0.698670       -19.0118
 148   2.0000      -0.697113       -18.9694
 149   2.0000      -0.687537       -18.7088
 150   2.0000      -0.683518       -18.5995
 151   2.0000      -0.671966       -18.2851
 152   2.0000      -0.668857       -18.2005
 153   2.0000      -0.665011       -18.0959
 154   2.0000      -0.661185       -17.9918
 155   2.0000      -0.654505       -17.8100
 156   2.0000      -0.650945       -17.7131
 157   2.0000      -0.646775       -17.5996
 158   2.0000      -0.646278       -17.5861
 159   2.0000      -0.643247       -17.5036
 160   2.0000      -0.633578       -17.2405
 161   2.0000      -0.629510       -17.1298
 162   2.0000      -0.624830       -17.0025
 163   2.0000      -0.622475       -16.9384
 164   2.0000      -0.618512       -16.8306
 165   2.0000      -0.613764       -16.7014
 166   2.0000      -0.612508       -16.6672
 167   2.0000      -0.603792       -16.4300
 168   2.0000      -0.595494       -16.2042
 169   2.0000      -0.590122       -16.0580
 170   2.0000      -0.585822       -15.9410
 171   2.0000      -0.584024       -15.8921
 172   2.0000      -0.577493       -15.7144
 173   2.0000      -0.570439       -15.5224
 174   2.0000      -0.568388       -15.4666
 175   2.0000      -0.560731       -15.2583
 176   2.0000      -0.558746       -15.2042
 177   2.0000      -0.555329       -15.1113
 178   2.0000      -0.552412       -15.0319
 179   2.0000      -0.550621       -14.9832
 180   2.0000      -0.549738       -14.9591
 181   2.0000      -0.541779       -14.7426
 182   2.0000      -0.541029       -14.7221
 183   2.0000      -0.533743       -14.5239
 184   2.0000      -0.533001       -14.5037
 185   2.0000      -0.531933       -14.4746
 186   2.0000      -0.530321       -14.4308
 187   2.0000      -0.527648       -14.3580
 188   2.0000      -0.525128       -14.2894
 189   2.0000      -0.522776       -14.2255
 190   2.0000      -0.522573       -14.2199
 191   2.0000      -0.521512       -14.1911
 192   2.0000      -0.516395       -14.0518
 193   2.0000      -0.516152       -14.0452
 194   2.0000      -0.512416       -13.9435
 195   2.0000      -0.510744       -13.8981
 196   2.0000      -0.510039       -13.8789
 197   2.0000      -0.508766       -13.8442
 198   2.0000      -0.505215       -13.7476
 199   2.0000      -0.503645       -13.7049
 200   2.0000      -0.502273       -13.6675
 201   2.0000      -0.498837       -13.5740
 202   2.0000      -0.497792       -13.5456
 203   2.0000      -0.496729       -13.5167
 204   2.0000      -0.495921       -13.4947
 205   2.0000      -0.492804       -13.4099
 206   2.0000      -0.491612       -13.3775
 207   2.0000      -0.490890       -13.3578
 208   2.0000      -0.489320       -13.3151
 209   2.0000      -0.486926       -13.2499
 210   2.0000      -0.485950       -13.2234
 211   2.0000      -0.484590       -13.1864
 212   2.0000      -0.481090       -13.0911
 213   2.0000      -0.475764       -12.9462
 214   2.0000      -0.471921       -12.8416
 215   2.0000      -0.471117       -12.8197
 216   2.0000      -0.468496       -12.7484
 217   2.0000      -0.464025       -12.6268
 218   2.0000      -0.461872       -12.5682
 219   2.0000      -0.459505       -12.5038
 220   2.0000      -0.456763       -12.4291
 221   2.0000      -0.456313       -12.4169
 222   2.0000      -0.452773       -12.3206
 223   2.0000      -0.451608       -12.2889
 224   2.0000      -0.448949       -12.2165
 225   2.0000      -0.448852       -12.2139
 226   2.0000      -0.447452       -12.1758
 227   2.0000      -0.445950       -12.1349
 228   2.0000      -0.439981       -11.9725
 229   2.0000      -0.438171       -11.9233
 230   2.0000      -0.436798       -11.8859
 231   2.0000      -0.434544       -11.8245
 232   2.0000      -0.433430       -11.7942
 233   2.0000      -0.431767       -11.7490
 234   2.0000      -0.425548       -11.5798
 235   2.0000      -0.422731       -11.5031
 236   2.0000      -0.421170       -11.4606
 237   2.0000      -0.417691       -11.3659
 238   2.0000      -0.415660       -11.3107
 239   2.0000      -0.412760       -11.2318
 240   2.0000      -0.410665       -11.1748
 241   2.0000      -0.409770       -11.1504
 242   2.0000      -0.409168       -11.1340
 243   2.0000      -0.408257       -11.1092
 244   2.0000      -0.407649       -11.0927
 245   2.0000      -0.405259       -11.0277
 246   2.0000      -0.399250       -10.8641
 247   2.0000      -0.398296       -10.8382
 248   2.0000      -0.391907       -10.6643
 249   2.0000      -0.387283       -10.5385
 250   2.0000      -0.385628       -10.4935
 251   2.0000      -0.384109       -10.4521
 252   2.0000      -0.383112       -10.4250
 253   2.0000      -0.378882       -10.3099
 254   2.0000      -0.371691       -10.1142
 255   2.0000      -0.371281       -10.1031
 256   2.0000      -0.368842       -10.0367
 257   2.0000      -0.367583       -10.0024
 258   2.0000      -0.362046        -9.8518
 259   2.0000      -0.348792        -9.4911
 260   2.0000      -0.345673        -9.4062
 261   2.0000      -0.338234        -9.2038
 262   2.0000      -0.336418        -9.1544
 263   2.0000      -0.328586        -8.9413
 264   2.0000      -0.321512        -8.7488
 265   2.0000      -0.316825        -8.6213
 266   2.0000      -0.313325        -8.5260
 267   2.0000      -0.311832        -8.4854
 268   2.0000      -0.310364        -8.4454
 269   2.0000      -0.306277        -8.3342
 270   2.0000      -0.305510        -8.3133
 271   2.0000      -0.300833        -8.1861
 272   2.0000      -0.298095        -8.1116
 273   2.0000      -0.292240        -7.9523
 274   2.0000      -0.270893        -7.3714
 275   2.0000      -0.265421        -7.2225
 276   2.0000      -0.252338        -6.8665
 277   2.0000      -0.239009        -6.5038
 278   2.0000      -0.225630        -6.1397
 279   0.0000      -0.047027        -1.2797
 280   0.0000      -0.038681        -1.0526
 281   0.0000      -0.022520        -0.6128
 282   0.0000      -0.014893        -0.4053
 283   0.0000       0.011503         0.3130

MULLIKEN ATOMIC CHARGES
-----------------------
   0 C :    0.025813
   1 C :   -0.048926
   2 C :    0.007352
   3 C :    0.109519
   4 C :   -0.062206
   5 C :    0.034900
   6 C :    0.096405
   7 C :    0.020749
   8 C :   -0.139184
   9 C :    0.081290
  10 C :    0.028863
  11 C :    0.052747
  12 C :    0.027031
  13 C :   -0.127300
  14 C :    0.152023
  15 C :   -0.032763
  16 C :   -0.047337
  17 C :   -0.025915
  18 C :   -0.103327
  19 C :    0.065372
  20 C :   -0.103550
  21 S :    0.105851
  22 C :    0.050592
  23 O :   -0.337477
  24 C :    0.200674
  25 C :    0.112062
  26 C :   -0.115398
  27 C :    0.127213
  28 O :   -0.313674
  29 C :    0.187495
  30 S :    0.102501
  31 C :   -0.082638
  32 C :   -0.080276
  33 C :    0.156005
  34 C :   -0.064075
  35 C :   -0.022636
  36 C :    0.063218
  37 C :   -0.004978
  38 C :   -0.038735
  39 N :    0.000934
  40 C :   -0.160378
  41 C :   -0.161011
  42 N :   -0.036140
  43 C :    0.124263
  44 C :    0.122803
  45 C :   -0.083967
  46 C :    0.052164
  47 C :   -0.062723
  48 C :    0.076206
  49 C :    0.052900
  50 C :    0.132311
  51 N :   -0.092338
  52 C :    0.130276
  53 C :    0.128521
  54 N :   -0.065549
  55 F :   -0.154091
  56 F :   -0.153813
  57 C :   -0.018458
  58 C :   -0.057438
  59 C :    0.087661
  60 C :   -0.057517
  61 S :    0.098839
  62 C :   -0.141067
  63 S :   -0.030951
  64 C :   -0.088999
  65 C :    0.072695
  66 C :   -0.094926
  67 C :   -0.106539
  68 S :   -0.027666
  69 C :   -0.099598
  70 S :    0.082561
  71 C :   -0.044891
  72 C :    0.010422
  73 H :   -0.022254
  74 H :   -0.032890
  75 H :   -0.038257
  76 H :   -0.021518
  77 H :   -0.004109
  78 H :    0.003267
  79 H :    0.001931
  80 H :    0.011742
  81 H :    0.019223
  82 H :   -0.001436
  83 H :    0.004467
  84 H :    0.021915
  85 H :    0.006753
  86 H :    0.018839
  87 H :   -0.024155
  88 H :   -0.037091
  89 H :   -0.039628
  90 H :   -0.049011
  91 H :    0.029463
  92 H :    0.019814
  93 H :    0.011165
  94 H :    0.030759
  95 H :    0.028433
  96 H :    0.033488
  97 H :   -0.011703
  98 H :   -0.007698
  99 H :   -0.025953
 100 H :    0.034985
 101 H :    0.037510
 102 H :    0.016260
 103 H :    0.023601
 104 H :    0.027335
 105 H :    0.029312
 106 H :   -0.023184
 107 H :   -0.018978
 108 H :    0.039226
 109 H :    0.024147
 110 H :   -0.018105
 111 H :    0.055093
 112 H :    0.063950
 113 H :    0.063774
 114 H :    0.061799
 115 H :    0.072190
 116 H :    0.074748
 117 H :    0.027583
 118 H :   -0.008576
Sum of atomic charges:   -0.0000000

LOEWDIN ATOMIC CHARGES
----------------------
   0 C :   -0.026089
   1 C :   -0.028705
   2 C :    0.001050
   3 C :   -0.017536
   4 C :   -0.023293
   5 C :   -0.026197
   6 C :   -0.018505
   7 C :    0.007132
   8 C :   -0.034826
   9 C :   -0.009315
  10 C :   -0.059634
  11 C :   -0.015371
  12 C :   -0.056356
  13 C :   -0.028871
  14 C :   -0.034958
  15 C :   -0.018164
  16 C :   -0.018721
  17 C :   -0.145822
  18 C :   -0.069195
  19 C :   -0.078090
  20 C :   -0.167175
  21 S :    0.403867
  22 C :    0.007739
  23 O :   -0.137781
  24 C :    0.078746
  25 C :   -0.062063
  26 C :   -0.176374
  27 C :    0.030825
  28 O :   -0.107644
  29 C :    0.077806
  30 S :    0.401248
  31 C :   -0.146147
  32 C :   -0.045798
  33 C :   -0.030210
  34 C :   -0.019343
  35 C :   -0.008974
  36 C :   -0.020042
  37 C :   -0.001698
  38 C :   -0.001646
  39 N :   -0.033505
  40 C :    0.000617
  41 C :    0.002745
  42 N :   -0.052675
  43 C :   -0.057059
  44 C :   -0.052914
  45 C :   -0.007835
  46 C :   -0.029707
  47 C :   -0.013670
  48 C :   -0.034633
  49 C :    0.011041
  50 C :    0.022222
  51 N :   -0.081840
  52 C :    0.052519
  53 C :    0.048620
  54 N :   -0.066168
  55 F :   -0.033131
  56 F :   -0.038135
  57 C :   -0.141662
  58 C :   -0.053792
  59 C :   -0.059528
  60 C :   -0.167902
  61 S :    0.418898
  62 C :   -0.183352
  63 S :    0.262550
  64 C :   -0.155721
  65 C :   -0.057122
  66 C :   -0.176906
  67 C :   -0.175271
  68 S :    0.277031
  69 C :   -0.161899
  70 S :    0.402898
  71 C :   -0.163129
  72 C :   -0.061688
  73 H :    0.025657
  74 H :    0.024276
  75 H :    0.024427
  76 H :    0.026182
  77 H :    0.019991
  78 H :    0.026251
  79 H :    0.019400
  80 H :    0.026926
  81 H :    0.024011
  82 H :    0.020507
  83 H :    0.019077
  84 H :    0.025509
  85 H :    0.023039
  86 H :    0.025195
  87 H :    0.017180
  88 H :    0.023780
  89 H :    0.025804
  90 H :    0.020940
  91 H :    0.022680
  92 H :    0.011431
  93 H :    0.012349
  94 H :    0.017164
  95 H :    0.015504
  96 H :    0.029390
  97 H :    0.025566
  98 H :    0.023640
  99 H :    0.031418
 100 H :    0.041781
 101 H :    0.037554
 102 H :    0.034386
 103 H :    0.037144
 104 H :    0.038669
 105 H :    0.038715
 106 H :    0.031789
 107 H :    0.030468
 108 H :    0.027352
 109 H :    0.042989
 110 H :    0.022863
 111 H :    0.029373
 112 H :    0.009040
 113 H :    0.027036
 114 H :    0.031420
 115 H :    0.031151
 116 H :    0.014941
 117 H :    0.025079
 118 H :    0.027188

  Mayer bond orders larger than 0.100000
B(  0-C ,  1-C ) :   1.3547 B(  0-C ,  5-C ) :   1.3930 B(  0-C , 73-H ) :   0.9856
B(  1-C ,  2-C ) :   1.4094 B(  1-C , 74-H ) :   0.9948 B(  2-C ,  3-C ) :   1.3873
B(  2-C ,  8-C ) :   0.9234 B(  3-C ,  4-C ) :   1.3595 B(  3-C ,  6-C ) :   0.9882
B(  4-C ,  5-C ) :   1.3723 B(  4-C , 75-H ) :   0.9897 B(  5-C , 76-H ) :   0.9856
B(  6-C ,  7-C ) :   1.3871 B(  6-C , 16-C ) :   1.3416 B(  7-C ,  8-C ) :   0.9282
B(  7-C , 13-C ) :   1.3963 B(  8-C ,  9-C ) :   1.0159 B(  8-C , 11-C ) :   1.0325
B(  9-C , 10-C ) :   1.1125 B(  9-C , 77-H ) :   0.9364 B(  9-C , 78-H ) :   0.9391
B( 10-C , 79-H ) :   0.9633 B( 10-C , 80-H ) :   0.9602 B( 10-C , 81-H ) :   0.9610
B( 11-C , 12-C ) :   1.1050 B( 11-C , 82-H ) :   0.9391 B( 11-C , 83-H ) :   0.9381
B( 12-C , 84-H ) :   0.9629 B( 12-C , 85-H ) :   0.9644 B( 12-C , 86-H ) :   0.9648
B( 13-C , 14-C ) :   1.2981 B( 13-C , 87-H ) :   0.9925 B( 14-C , 15-C ) :   1.3672
B( 14-C , 17-C ) :   1.0310 B( 15-C , 16-C ) :   1.3854 B( 15-C , 88-H ) :   0.9859
B( 16-C , 89-H ) :   0.9896 B( 17-C , 18-C ) :   1.6237 B( 17-C , 21-S ) :   1.0589
B( 18-C , 19-C ) :   1.1211 B( 18-C , 90-H ) :   0.9926 B( 19-C , 20-C ) :   1.2941
B( 19-C , 27-C ) :   1.2293 B( 20-C , 21-S ) :   1.0369 B( 20-C , 22-C ) :   1.4335
B( 22-C , 23-O ) :   1.1968 B( 22-C , 25-C ) :   1.2520 B( 23-O , 24-C ) :   0.9489
B( 24-C , 91-H ) :   0.9831 B( 24-C , 92-H ) :   0.9667 B( 24-C , 93-H ) :   0.9643
B( 25-C , 26-C ) :   1.3445 B( 25-C , 32-C ) :   1.0989 B( 26-C , 27-C ) :   1.3972
B( 26-C , 30-S ) :   1.0328 B( 27-C , 28-O ) :   1.2493 B( 28-O , 29-C ) :   0.9567
B( 29-C , 94-H ) :   0.9680 B( 29-C , 95-H ) :   0.9682 B( 29-C , 96-H ) :   0.9738
B( 30-S , 31-C ) :   1.0580 B( 31-C , 32-C ) :   1.6128 B( 31-C , 33-C ) :   1.0722
B( 32-C , 97-H ) :   0.9951 B( 33-C , 34-C ) :   1.4288 B( 33-C , 36-C ) :   0.1168
B( 33-C , 38-C ) :   1.2241 B( 34-C , 35-C ) :   1.2313 B( 34-C , 98-H ) :   0.9916
B( 35-C , 36-C ) :   1.4875 B( 35-C , 99-H ) :   1.0008 B( 36-C , 37-C ) :   1.2657
B( 36-C , 45-C ) :   0.9368 B( 37-C , 38-C ) :   1.2680 B( 37-C , 42-N ) :   1.3955
B( 38-C , 39-N ) :   1.4334 B( 39-N , 40-C ) :   1.6838 B( 40-C , 41-C ) :   1.1672
B( 40-C , 44-C ) :   1.0960 B( 41-C , 42-N ) :   1.6532 B( 41-C , 43-C ) :   1.1072
B( 43-C ,100-H ) :   0.9352 B( 43-C ,101-H ) :   0.9378 B( 43-C ,102-H ) :   0.9370
B( 44-C ,103-H ) :   0.9446 B( 44-C ,104-H ) :   0.9402 B( 44-C ,105-H ) :   0.9397
B( 45-C , 46-C ) :   1.8352 B( 45-C , 50-C ) :   0.9496 B( 46-C , 47-C ) :   1.0551
B( 46-C ,106-H ) :   0.9778 B( 47-C , 48-C ) :   1.7584 B( 47-C ,107-H ) :   0.9787
B( 48-C , 49-C ) :   0.9849 B( 48-C , 57-C ) :   1.0757 B( 49-C , 50-C ) :   0.9815
B( 49-C , 54-N ) :   1.0345 B( 49-C ,108-H ) :   0.8912 B( 50-C , 51-N ) :   1.0350
B( 50-C ,109-H ) :   0.8781 B( 51-N , 52-C ) :   1.9387 B( 52-C , 53-C ) :   0.9329
B( 52-C , 56-F ) :   1.1456 B( 53-C , 54-N ) :   1.9724 B( 53-C , 55-F ) :   1.1255
B( 57-C , 58-C ) :   1.5982 B( 57-C , 61-S ) :   1.0592 B( 58-C , 59-C ) :   1.1791
B( 58-C ,110-H ) :   0.9850 B( 59-C , 60-C ) :   1.3070 B( 59-C , 67-C ) :   1.3727
B( 60-C , 61-S ) :   1.0632 B( 60-C , 62-C ) :   1.4122 B( 62-C , 63-S ) :   1.0441
B( 62-C , 65-C ) :   1.3911 B( 63-S , 64-C ) :   0.9993 B( 64-C ,111-H ) :   0.9721
B( 64-C ,112-H ) :   0.9643 B( 64-C ,113-H ) :   0.9709 B( 65-C , 66-C ) :   1.3092
B( 65-C , 72-C ) :   1.1879 B( 66-C , 67-C ) :   1.4272 B( 66-C , 70-S ) :   1.0568
B( 67-C , 68-S ) :   1.0347 B( 68-S , 69-C ) :   0.9945 B( 69-C ,114-H ) :   0.9707
B( 69-C ,115-H ) :   0.9722 B( 69-C ,116-H ) :   0.9646 B( 70-S , 71-C ) :   1.1024
B( 71-C , 72-C ) :   1.6435 B( 71-C ,117-H ) :   0.9683 B( 72-C ,118-H ) :   0.9882

-----------------------------------------------------------------------------
         ABSORPTION SPECTRUM VIA TRANSITION ELECTRIC DIPOLE MOMENTS
-----------------------------------------------------------------------------
State   Energy  Wavelength   fosc         T2         TX        TY        TZ
        (cm-1)    (nm)                  (au**2)     (au)      (au)      (au)
-----------------------------------------------------------------------------
   0   23560.9    424.4   0.654621895   9.14691   2.83631  -0.85395   0.61074
   1   27069.3    369.4   0.507471659   6.17178  -2.09431   1.31987  -0.20880
   2   27290.3    366.4   0.332923058   4.01617  -1.80176   0.87519   0.06207
   3   28642.6    349.1   0.098621274   1.13353  -0.46389  -0.22606   0.93126
   4   29540.4    338.5   1.291092762  14.38855  -3.69893   0.68128  -0.49223
   5   30617.4    326.6   0.024381256   0.26216   0.16885   0.41037  -0.25543
   6   31174.1    320.8   0.023855434   0.25192   0.21159  -0.44714   0.08497
   7   31242.4    320.1   0.029901201   0.31508  -0.54923  -0.02246   0.11367
   8   32285.8    309.7   0.366581162   3.73796  -1.92615   0.16686  -0.00693
   9   33360.5    299.8   0.264518283   2.61035   1.51135  -0.54614  -0.16706
  10   34106.1    293.2   0.138584858   1.33770   1.12116  -0.28324   0.02191
  11   34405.3    290.7   0.100630364   0.96290   0.95716  -0.12841   0.17395
  12   35294.0    283.3   0.025504190   0.23790  -0.27947   0.11318   0.38338
  13   35575.1    281.1   0.068055232   0.62978   0.68255  -0.16166  -0.37117
  14   35793.5    279.4   0.048049635   0.44194  -0.63626   0.19232  -0.01103
  15   36706.7    272.4   0.023687786   0.21245  -0.30819  -0.33358   0.07869
  16   37222.3    268.7   0.252126228   2.22993   1.48862  -0.09097  -0.07528
  17   37459.2    267.0   0.020670531   0.18166   0.34109  -0.25365   0.03130
  18   37658.8    265.5   0.143630254   1.25561  -0.91887  -0.33843  -0.54475
  19   37778.8    264.7   0.040533137   0.35321   0.28031  -0.45754   0.25553
  20   38156.9    262.1   0.272874348   2.35432   1.13841   0.92179  -0.45679
  21   38563.2    259.3   0.069402894   0.59249  -0.70915   0.14579   0.26143
  22   39197.6    255.1   0.042528841   0.35719   0.42500  -0.22409  -0.35546
  23   39397.2    253.8   0.100170049   0.83704   0.68444  -0.14292   0.59005
  24   39689.9    252.0   0.127246280   1.05546   0.94713  -0.27116   0.29133

FINAL SINGLE POINT ENERGY     -5229.987454945745

DIPOLE MOMENT
-------------
                                X             Y             Z
Electronic contribution:   -131.47405      27.22905     -20.94811
Nuclear contribution   :    131.87755     -26.34845      20.58562
                        -----------------------------------------
Total Dipole Moment    :      0.40350       0.88060      -0.36249
                        -----------------------------------------
Magnitude (a.u.)       :      1.03425
Magnitude (Debye)      :      2.62884

Rotational constants in cm-1:     0.003304     0.000175     0.000172
Rotational constants in MHz :    99.053624     5.255948     5.168216

                             ****ORCA TERMINATED NORMALLY****
TOTAL RUN TIME: 0 days 0 hours 15 minutes 52 seconds 682 msec
