                         Program Version 4.2.0 -  RELEASE  -
|  1> # ORCA input file
|  2> # SCF done       -172.595526287982          0.000278905432
|  3> ! CAM-B3LYP def2-SVP def2/J RIJCOSX Grid4 TightSCF
|  4> %maxcore 5000
|  5> %tddft
|  6>     Mode sTDDFT
|  7>     Ethresh 5.0
|  8>     maxcore 5000
|  9> end
| 10>
| 11> %pal
| 12>   nprocs 6
| 13>   end
| 14> * xyz 0 1
| 15>    C        2.76759        -5.55029        -1.10729
| 16>    O        3.66516        -5.53477        -0.29512
| 17>    C        1.39359        -5.99406        -0.95556
| 18>    C        0.70322        -5.93923        -2.16502
| 19>    C       -0.62732        -6.38479        -2.04793
| 20>    C       -0.90296        -6.76247        -0.76653
| 21>    S        0.42509        -6.59092         0.31855
| 22>    C        1.57753        -5.43066        -3.19780
| 23>    C        1.23019        -5.20912        -4.49939
| 24>    C       -0.06639        -5.49561        -4.98171
| 25>    N       -1.11347        -5.72562        -5.38829
| 26>    C        2.08645        -4.67699        -5.48634
| 27>    N        2.73278        -4.24042        -6.32751
| 28>    C        2.86739        -5.17125        -2.55900
| 29>    C        4.01081        -4.74014        -3.11918
| 30>    C        5.18561        -4.43367        -2.31973
| 31>    N        6.32412        -5.03084        -2.55256
| 32>    N        7.41000        -4.81990        -1.84294
| 33>    C        7.46274        -4.02375        -0.80075
| 34>    C        6.29696        -3.26385        -0.47520
| 35>    C        5.11885        -3.47044        -1.26983
| 36>    N        4.19169        -2.64532        -0.83008
| 37>    O        4.74849        -1.98103         0.17753
| 38>    N        6.00814        -2.33348         0.41203
| 39>    C        8.70116        -3.84071        -0.06684
| 40>    C        9.04234        -2.56155         0.27992
| 41>    S       10.59587        -2.40474         0.96819
| 42>    C       10.81557        -4.12575         0.86659
| 43>    C        9.71816        -4.79829         0.30437
| 44>    C        9.73906        -6.21427         0.24422
| 45>    C        8.49360        -6.93175        -0.18981
| 46>    C        7.38848        -6.78355         0.85962
| 47>    C       10.87273        -6.91243         0.65137
| 48>    C       10.97478        -8.40441         0.47464
| 49>    C       10.36784        -9.17785         1.64854
| 50>    C       11.96987        -6.22439         1.22139
| 51>    C       13.23051        -6.71761         1.73499
| 52>    C       14.05538        -5.69288         2.11829
| 53>    S       13.37809        -4.13106         1.96416
| 54>    C       11.92700        -4.82458         1.30381
| 55>    C       13.62748        -8.08397         1.94819
| 56>    C       14.89889        -8.53231         1.86427
| 57>    C       15.23215        -9.89128         2.15314
| 58>    N       14.28621       -10.75850         2.47774
| 59>    N       14.52252       -11.99400         2.81534
| 60>    C       15.73349       -12.51491         2.89264
| 61>    C       16.84242       -11.71821         2.48749
| 62>    C       16.58093       -10.35915         2.10030
| 63>    N       17.73512        -9.81499         1.77691
| 64>    O       18.64818       -10.76479         1.94993
| 65>    N       18.14008       -11.91672         2.37862
| 66>    C       15.88994       -13.87841         3.32156
| 67>    C       15.10789       -14.52588         4.20815
| 68>    C       15.14093       -16.02724         4.28949
| 69>    O       15.97860       -16.75683         3.81823
| 70>    C       13.91461       -16.34982         5.00690
| 71>    C       13.26104       -15.19998         5.44429
| 72>    C       14.04772       -14.03876         5.08559
| 73>    C       13.92846       -12.80346         5.65542
| 74>    C       12.87797       -12.49499         6.54587
| 75>    N       12.02422       -12.22628         7.26320
| 76>    C       14.85463       -11.75194         5.49846
| 77>    N       15.60318       -10.88279         5.45806
| 78>    C       12.07442       -15.48433         6.14606
| 79>    C       11.85951       -16.82944         6.21302
| 80>    S       13.08170       -17.77553         5.44902
| 81>    H       -1.33907        -6.42847        -2.85126
| 82>    H       -1.83347        -7.14094        -0.39034
| 83>    H        4.10929        -4.61117        -4.18821
| 84>    H        8.45481        -1.67948         0.11491
| 85>    H        8.15131        -6.51452        -1.13877
| 86>    H        8.67773        -7.99122        -0.34181
| 87>    H        7.14460        -5.73867         1.03758
| 88>    H        7.69876        -7.21741         1.80812
| 89>    H        6.48502        -7.28709         0.52370
| 90>    H       12.02684        -8.66904         0.36339
| 91>    H       10.48154        -8.70440        -0.45071
| 92>    H       10.72889        -8.79076         2.59887
| 93>    H       10.63121       -10.23070         1.58047
| 94>    H        9.28457        -9.09283         1.64719
| 95>    H       15.02653        -5.79337         2.56258
| 96>    H       12.87972        -8.80067         2.25081
| 97>    H       15.71738        -7.89750         1.55833
| 98>    H       16.68274       -14.44465         2.84654
| 99>    H       11.41528       -14.74902         6.56880
|100>    H       11.03695       -17.33091         6.68472
|101> *
|102>
|103>                          ****END OF INPUT****

CARTESIAN COORDINATES (ANGSTROEM)
---------------------------------
  C      2.767590   -5.550290   -1.107290
  O      3.665160   -5.534770   -0.295120
  C      1.393590   -5.994060   -0.955560
  C      0.703220   -5.939230   -2.165020
  C     -0.627320   -6.384790   -2.047930
  C     -0.902960   -6.762470   -0.766530
  S      0.425090   -6.590920    0.318550
  C      1.577530   -5.430660   -3.197800
  C      1.230190   -5.209120   -4.499390
  C     -0.066390   -5.495610   -4.981710
  N     -1.113470   -5.725620   -5.388290
  C      2.086450   -4.676990   -5.486340
  N      2.732780   -4.240420   -6.327510
  C      2.867390   -5.171250   -2.559000
  C      4.010810   -4.740140   -3.119180
  C      5.185610   -4.433670   -2.319730
  N      6.324120   -5.030840   -2.552560
  N      7.410000   -4.819900   -1.842940
  C      7.462740   -4.023750   -0.800750
  C      6.296960   -3.263850   -0.475200
  C      5.118850   -3.470440   -1.269830
  N      4.191690   -2.645320   -0.830080
  O      4.748490   -1.981030    0.177530
  N      6.008140   -2.333480    0.412030
  C      8.701160   -3.840710   -0.066840
  C      9.042340   -2.561550    0.279920
  S     10.595870   -2.404740    0.968190
  C     10.815570   -4.125750    0.866590
  C      9.718160   -4.798290    0.304370
  C      9.739060   -6.214270    0.244220
  C      8.493600   -6.931750   -0.189810
  C      7.388480   -6.783550    0.859620
  C     10.872730   -6.912430    0.651370
  C     10.974780   -8.404410    0.474640
  C     10.367840   -9.177850    1.648540
  C     11.969870   -6.224390    1.221390
  C     13.230510   -6.717610    1.734990
  C     14.055380   -5.692880    2.118290
  S     13.378090   -4.131060    1.964160
  C     11.927000   -4.824580    1.303810
  C     13.627480   -8.083970    1.948190
  C     14.898890   -8.532310    1.864270
  C     15.232150   -9.891280    2.153140
  N     14.286210  -10.758500    2.477740
  N     14.522520  -11.994000    2.815340
  C     15.733490  -12.514910    2.892640
  C     16.842420  -11.718210    2.487490
  C     16.580930  -10.359150    2.100300
  N     17.735120   -9.814990    1.776910
  O     18.648180  -10.764790    1.949930
  N     18.140080  -11.916720    2.378620
  C     15.889940  -13.878410    3.321560
  C     15.107890  -14.525880    4.208150
  C     15.140930  -16.027240    4.289490
  O     15.978600  -16.756830    3.818230
  C     13.914610  -16.349820    5.006900
  C     13.261040  -15.199980    5.444290
  C     14.047720  -14.038760    5.085590
  C     13.928460  -12.803460    5.655420
  C     12.877970  -12.494990    6.545870
  N     12.024220  -12.226280    7.263200
  C     14.854630  -11.751940    5.498460
  N     15.603180  -10.882790    5.458060
  C     12.074420  -15.484330    6.146060
  C     11.859510  -16.829440    6.213020
  S     13.081700  -17.775530    5.449020
  H     -1.339070   -6.428470   -2.851260
  H     -1.833470   -7.140940   -0.390340
  H      4.109290   -4.611170   -4.188210
  H      8.454810   -1.679480    0.114910
  H      8.151310   -6.514520   -1.138770
  H      8.677730   -7.991220   -0.341810
  H      7.144600   -5.738670    1.037580
  H      7.698760   -7.217410    1.808120
  H      6.485020   -7.287090    0.523700
  H     12.026840   -8.669040    0.363390
  H     10.481540   -8.704400   -0.450710
  H     10.728890   -8.790760    2.598870
  H     10.631210  -10.230700    1.580470
  H      9.284570   -9.092830    1.647190
  H     15.026530   -5.793370    2.562580
  H     12.879720   -8.800670    2.250810
  H     15.717380   -7.897500    1.558330
  H     16.682740  -14.444650    2.846540
  H     11.415280  -14.749020    6.568800
  H     11.036950  -17.330910    6.684720

 Total Charge           Charge          ....    0
 Multiplicity           Mult            ....    1
 Number of Electrons    NEL             ....  476
 Basis Dimension        Dim             .... 1040

ORBITAL ENERGIES
----------------

  NO   OCC          E(Eh)            E(eV)
   0   2.0000     -89.003884     -2421.9188
   1   2.0000     -88.993084     -2421.6249
   2   2.0000     -88.966630     -2420.9051
   3   2.0000     -88.963639     -2420.8237
   4   2.0000     -19.379112      -527.3325
   5   2.0000     -19.376184      -527.2528
   6   2.0000     -19.239843      -523.5427
   7   2.0000     -19.224522      -523.1258
   8   2.0000     -14.505439      -394.7131
   9   2.0000     -14.502825      -394.6419
  10   2.0000     -14.502325      -394.6283
  11   2.0000     -14.499715      -394.5573
  12   2.0000     -14.460097      -393.4792
  13   2.0000     -14.459400      -393.4603
  14   2.0000     -14.452659      -393.2768
  15   2.0000     -14.447702      -393.1420
  16   2.0000     -14.433868      -392.7655
  17   2.0000     -14.432374      -392.7249
  18   2.0000     -14.421514      -392.4293
  19   2.0000     -14.420338      -392.3973
  20   2.0000     -10.397134      -282.9204
  21   2.0000     -10.382976      -282.5351
  22   2.0000     -10.366285      -282.0809
  23   2.0000     -10.362940      -281.9899
  24   2.0000     -10.357913      -281.8531
  25   2.0000     -10.356532      -281.8156
  26   2.0000     -10.351085      -281.6673
  27   2.0000     -10.350843      -281.6608
  28   2.0000     -10.350302      -281.6460
  29   2.0000     -10.347245      -281.5628
  30   2.0000     -10.346468      -281.5417
  31   2.0000     -10.346168      -281.5335
  32   2.0000     -10.342745      -281.4404
  33   2.0000     -10.341676      -281.4113
  34   2.0000     -10.338115      -281.3144
  35   2.0000     -10.334637      -281.2198
  36   2.0000     -10.333526      -281.1895
  37   2.0000     -10.333521      -281.1894
  38   2.0000     -10.333438      -281.1872
  39   2.0000     -10.329967      -281.0927
  40   2.0000     -10.328259      -281.0462
  41   2.0000     -10.327921      -281.0370
  42   2.0000     -10.324551      -280.9453
  43   2.0000     -10.322361      -280.8857
  44   2.0000     -10.322167      -280.8804
  45   2.0000     -10.320342      -280.8308
  46   2.0000     -10.318920      -280.7921
  47   2.0000     -10.314397      -280.6690
  48   2.0000     -10.314392      -280.6689
  49   2.0000     -10.313942      -280.6566
  50   2.0000     -10.308663      -280.5130
  51   2.0000     -10.308005      -280.4951
  52   2.0000     -10.306292      -280.4485
  53   2.0000     -10.304039      -280.3872
  54   2.0000     -10.300663      -280.2953
  55   2.0000     -10.299587      -280.2660
  56   2.0000     -10.292767      -280.0804
  57   2.0000     -10.289674      -279.9963
  58   2.0000     -10.286630      -279.9134
  59   2.0000     -10.285961      -279.8952
  60   2.0000     -10.278868      -279.7022
  61   2.0000     -10.278393      -279.6893
  62   2.0000     -10.264951      -279.3235
  63   2.0000     -10.255156      -279.0570
  64   2.0000     -10.251402      -278.9548
  65   2.0000     -10.249592      -278.9056
  66   2.0000      -8.098921      -220.3828
  67   2.0000      -8.088231      -220.0920
  68   2.0000      -8.062966      -219.4045
  69   2.0000      -8.059847      -219.3196
  70   2.0000      -6.068049      -165.1200
  71   2.0000      -6.063610      -164.9992
  72   2.0000      -6.061672      -164.9465
  73   2.0000      -6.057386      -164.8298
  74   2.0000      -6.052960      -164.7094
  75   2.0000      -6.050923      -164.6540
  76   2.0000      -6.032337      -164.1482
  77   2.0000      -6.029293      -164.0654
  78   2.0000      -6.028156      -164.0345
  79   2.0000      -6.025013      -163.9489
  80   2.0000      -6.024772      -163.9424
  81   2.0000      -6.021657      -163.8576
  82   2.0000      -1.332889       -36.2697
  83   2.0000      -1.329378       -36.1742
  84   2.0000      -1.157107       -31.4865
  85   2.0000      -1.141827       -31.0707
  86   2.0000      -1.137231       -30.9456
  87   2.0000      -1.134455       -30.8701
  88   2.0000      -1.044807       -28.4306
  89   2.0000      -1.036427       -28.2026
  90   2.0000      -1.033974       -28.1359
  91   2.0000      -1.031470       -28.0677
  92   2.0000      -1.025340       -27.9009
  93   2.0000      -1.013831       -27.5877
  94   2.0000      -1.013379       -27.5754
  95   2.0000      -1.011004       -27.5108
  96   2.0000      -0.999506       -27.1979
  97   2.0000      -0.995393       -27.0860
  98   2.0000      -0.990775       -26.9604
  99   2.0000      -0.988572       -26.9004
 100   2.0000      -0.981778       -26.7155
 101   2.0000      -0.976139       -26.5621
 102   2.0000      -0.962735       -26.1973
 103   2.0000      -0.958564       -26.0839
 104   2.0000      -0.930334       -25.3157
 105   2.0000      -0.921889       -25.0859
 106   2.0000      -0.913601       -24.8603
 107   2.0000      -0.905208       -24.6320
 108   2.0000      -0.897197       -24.4140
 109   2.0000      -0.880433       -23.9578
 110   2.0000      -0.872416       -23.7397
 111   2.0000      -0.866353       -23.5747
 112   2.0000      -0.862349       -23.4657
 113   2.0000      -0.858239       -23.3539
 114   2.0000      -0.850022       -23.1303
 115   2.0000      -0.836533       -22.7632
 116   2.0000      -0.821178       -22.3454
 117   2.0000      -0.818380       -22.2692
 118   2.0000      -0.800487       -21.7824
 119   2.0000      -0.793806       -21.6006
 120   2.0000      -0.789784       -21.4911
 121   2.0000      -0.786130       -21.3917
 122   2.0000      -0.782498       -21.2928
 123   2.0000      -0.776631       -21.1332
 124   2.0000      -0.773680       -21.0529
 125   2.0000      -0.763743       -20.7825
 126   2.0000      -0.731353       -19.9011
 127   2.0000      -0.724418       -19.7124
 128   2.0000      -0.720827       -19.6147
 129   2.0000      -0.707063       -19.2402
 130   2.0000      -0.705790       -19.2055
 131   2.0000      -0.700950       -19.0738
 132   2.0000      -0.696865       -18.9627
 133   2.0000      -0.694456       -18.8971
 134   2.0000      -0.686424       -18.6786
 135   2.0000      -0.680561       -18.5190
 136   2.0000      -0.677094       -18.4247
 137   2.0000      -0.671959       -18.2849
 138   2.0000      -0.665959       -18.1217
 139   2.0000      -0.663896       -18.0655
 140   2.0000      -0.654812       -17.8183
 141   2.0000      -0.648218       -17.6389
 142   2.0000      -0.642553       -17.4847
 143   2.0000      -0.635760       -17.2999
 144   2.0000      -0.632569       -17.2131
 145   2.0000      -0.629573       -17.1316
 146   2.0000      -0.626155       -17.0385
 147   2.0000      -0.621786       -16.9197
 148   2.0000      -0.618880       -16.8406
 149   2.0000      -0.618384       -16.8271
 150   2.0000      -0.609786       -16.5931
 151   2.0000      -0.597199       -16.2506
 152   2.0000      -0.588451       -16.0126
 153   2.0000      -0.582112       -15.8401
 154   2.0000      -0.579317       -15.7640
 155   2.0000      -0.571933       -15.5631
 156   2.0000      -0.565784       -15.3958
 157   2.0000      -0.563118       -15.3232
 158   2.0000      -0.561184       -15.2706
 159   2.0000      -0.551201       -14.9989
 160   2.0000      -0.547850       -14.9078
 161   2.0000      -0.545043       -14.8314
 162   2.0000      -0.544094       -14.8056
 163   2.0000      -0.541000       -14.7214
 164   2.0000      -0.539092       -14.6695
 165   2.0000      -0.536534       -14.5998
 166   2.0000      -0.530332       -14.4311
 167   2.0000      -0.529759       -14.4155
 168   2.0000      -0.527485       -14.3536
 169   2.0000      -0.526530       -14.3276
 170   2.0000      -0.522191       -14.2095
 171   2.0000      -0.516432       -14.0528
 172   2.0000      -0.515348       -14.0233
 173   2.0000      -0.512287       -13.9400
 174   2.0000      -0.509908       -13.8753
 175   2.0000      -0.500627       -13.6227
 176   2.0000      -0.497930       -13.5494
 177   2.0000      -0.496519       -13.5110
 178   2.0000      -0.495976       -13.4962
 179   2.0000      -0.492495       -13.4015
 180   2.0000      -0.491667       -13.3789
 181   2.0000      -0.489005       -13.3065
 182   2.0000      -0.486427       -13.2364
 183   2.0000      -0.482171       -13.1205
 184   2.0000      -0.476819       -12.9749
 185   2.0000      -0.473638       -12.8884
 186   2.0000      -0.466711       -12.6998
 187   2.0000      -0.465874       -12.6771
 188   2.0000      -0.463668       -12.6170
 189   2.0000      -0.462794       -12.5933
 190   2.0000      -0.460341       -12.5265
 191   2.0000      -0.457489       -12.4489
 192   2.0000      -0.456809       -12.4304
 193   2.0000      -0.456415       -12.4197
 194   2.0000      -0.451632       -12.2895
 195   2.0000      -0.448286       -12.1985
 196   2.0000      -0.447189       -12.1686
 197   2.0000      -0.446798       -12.1580
 198   2.0000      -0.445048       -12.1104
 199   2.0000      -0.443495       -12.0681
 200   2.0000      -0.441651       -12.0179
 201   2.0000      -0.435597       -11.8532
 202   2.0000      -0.434402       -11.8207
 203   2.0000      -0.433618       -11.7994
 204   2.0000      -0.432371       -11.7654
 205   2.0000      -0.430543       -11.7157
 206   2.0000      -0.428079       -11.6486
 207   2.0000      -0.427222       -11.6253
 208   2.0000      -0.423988       -11.5373
 209   2.0000      -0.418443       -11.3864
 210   2.0000      -0.417646       -11.3647
 211   2.0000      -0.416963       -11.3461
 212   2.0000      -0.416305       -11.3282
 213   2.0000      -0.415298       -11.3008
 214   2.0000      -0.412926       -11.2363
 215   2.0000      -0.411105       -11.1867
 216   2.0000      -0.410647       -11.1743
 217   2.0000      -0.408588       -11.1182
 218   2.0000      -0.397030       -10.8037
 219   2.0000      -0.391090       -10.6421
 220   2.0000      -0.389381       -10.5956
 221   2.0000      -0.380455       -10.3527
 222   2.0000      -0.378344       -10.2953
 223   2.0000      -0.371649       -10.1131
 224   2.0000      -0.366561        -9.9746
 225   2.0000      -0.358958        -9.7677
 226   2.0000      -0.353050        -9.6070
 227   2.0000      -0.350618        -9.5408
 228   2.0000      -0.346388        -9.4257
 229   2.0000      -0.338713        -9.2168
 230   2.0000      -0.329576        -8.9682
 231   2.0000      -0.324778        -8.8377
 232   2.0000      -0.321930        -8.7602
 233   2.0000      -0.315015        -8.5720
 234   2.0000      -0.311693        -8.4816
 235   2.0000      -0.302276        -8.2253
 236   2.0000      -0.277539        -7.5522
 237   2.0000      -0.267595        -7.2816
 238   0.0000      -0.106144        -2.8883
 239   0.0000      -0.101916        -2.7733
 240   0.0000      -0.090892        -2.4733
 241   0.0000      -0.078051        -2.1239
 242   0.0000      -0.065263        -1.7759

MULLIKEN ATOMIC CHARGES
-----------------------
   0 C :    0.142865
   1 O :   -0.141612
   2 C :   -0.160662
   3 C :    0.003203
   4 C :    0.027135
   5 C :   -0.052738
   6 S :    0.227676
   7 C :    0.300880
   8 C :   -0.316115
   9 C :   -0.190596
  10 N :    0.169708
  11 C :   -0.188564
  12 N :    0.178572
  13 C :   -0.081158
  14 C :   -0.021197
  15 C :   -0.075723
  16 N :   -0.025207
  17 N :   -0.060843
  18 C :   -0.059306
  19 C :    0.002627
  20 C :    0.027651
  21 N :    0.073537
  22 O :   -0.087660
  23 N :    0.077700
  24 C :    0.007939
  25 C :   -0.087498
  26 S :    0.154361
  27 C :   -0.159943
  28 C :    0.141783
  29 C :   -0.112058
  30 C :    0.045294
  31 C :    0.022549
  32 C :   -0.126636
  33 C :   -0.002038
  34 C :    0.035683
  35 C :    0.127836
  36 C :    0.071053
  37 C :   -0.097196
  38 S :    0.147029
  39 C :   -0.146439
  40 C :    0.028599
  41 C :   -0.066260
  42 C :   -0.006850
  43 N :   -0.077277
  44 N :   -0.041365
  45 C :   -0.122081
  46 C :    0.051685
  47 C :    0.009641
  48 N :    0.076559
  49 O :   -0.087022
  50 N :    0.083333
  51 C :    0.024174
  52 C :   -0.107521
  53 C :    0.118318
  54 O :   -0.129433
  55 C :   -0.161274
  56 C :   -0.011901
  57 C :    0.300329
  58 C :   -0.301442
  59 C :   -0.191203
  60 N :    0.155369
  61 C :   -0.164074
  62 N :    0.155645
  63 C :    0.035515
  64 C :   -0.059927
  65 S :    0.214677
  66 H :    0.023382
  67 H :    0.049748
  68 H :    0.057652
  69 H :    0.036592
  70 H :    0.044595
  71 H :   -0.015592
  72 H :    0.013783
  73 H :    0.007996
  74 H :    0.016583
  75 H :    0.011282
  76 H :    0.017628
  77 H :    0.019464
  78 H :    0.027015
  79 H :    0.010006
  80 H :    0.031581
  81 H :    0.029998
  82 H :   -0.002516
  83 H :    0.036264
  84 H :    0.020193
  85 H :    0.046243
Sum of atomic charges:   -0.0000000

LOEWDIN ATOMIC CHARGES
----------------------
   0 C :    0.072127
   1 O :   -0.131193
   2 C :   -0.206880
   3 C :   -0.033136
   4 C :   -0.042754
   5 C :   -0.139918
   6 S :    0.515813
   7 C :    0.071012
   8 C :   -0.116639
   9 C :   -0.016667
  10 N :   -0.037095
  11 C :   -0.021811
  12 N :   -0.029339
  13 C :   -0.050766
  14 C :    0.066218
  15 C :   -0.011765
  16 N :   -0.028617
  17 N :   -0.040981
  18 C :    0.021646
  19 C :   -0.060953
  20 C :   -0.059595
  21 N :   -0.009659
  22 O :    0.090918
  23 N :   -0.003760
  24 C :   -0.072156
  25 C :   -0.140121
  26 S :    0.440952
  27 C :   -0.176950
  28 C :   -0.030398
  29 C :   -0.004449
  30 C :   -0.040576
  31 C :   -0.049046
  32 C :   -0.016501
  33 C :   -0.030987
  34 C :   -0.051465
  35 C :   -0.037460
  36 C :   -0.068296
  37 C :   -0.148090
  38 S :    0.432413
  39 C :   -0.179692
  40 C :    0.057117
  41 C :   -0.053845
  42 C :    0.024324
  43 N :   -0.062211
  44 N :   -0.025635
  45 C :   -0.029916
  46 C :   -0.058748
  47 C :   -0.062490
  48 N :   -0.001430
  49 O :    0.092607
  50 N :   -0.006993
  51 C :    0.051465
  52 C :   -0.044576
  53 C :    0.066407
  54 O :   -0.131181
  55 C :   -0.210944
  56 C :   -0.030817
  57 C :    0.075830
  58 C :   -0.116707
  59 C :   -0.015988
  60 N :   -0.047012
  61 C :   -0.012680
  62 N :   -0.054932
  63 C :   -0.044173
  64 C :   -0.144269
  65 S :    0.505442
  66 H :    0.045698
  67 H :    0.034412
  68 H :    0.056901
  69 H :    0.028123
  70 H :    0.030101
  71 H :    0.022298
  72 H :    0.019155
  73 H :    0.021667
  74 H :    0.026742
  75 H :    0.029576
  76 H :    0.030452
  77 H :    0.023242
  78 H :    0.030326
  79 H :    0.024297
  80 H :    0.028114
  81 H :    0.041367
  82 H :    0.034434
  83 H :    0.053873
  84 H :    0.044721
  85 H :    0.032473

  Mayer bond orders larger than 0.100000
B(  0-C ,  1-O ) :   2.1673 B(  0-C ,  2-C ) :   1.0919 B(  0-C , 13-C ) :   0.9138
B(  2-C ,  3-C ) :   1.4392 B(  2-C ,  6-S ) :   1.1278 B(  3-C ,  4-C ) :   1.2709
B(  3-C ,  7-C ) :   1.0199 B(  4-C ,  5-C ) :   1.5402 B(  4-C , 66-H ) :   0.9954
B(  5-C ,  6-S ) :   1.1920 B(  5-C , 67-H ) :   0.9617 B(  7-C ,  8-C ) :   1.6993
B(  7-C , 13-C ) :   1.0151 B(  8-C ,  9-C ) :   1.1380 B(  8-C , 11-C ) :   1.1357
B(  9-C , 10-N ) :   2.9935 B( 11-C , 12-N ) :   2.9843 B( 13-C , 14-C ) :   1.8269
B( 14-C , 15-C ) :   1.0003 B( 14-C , 68-H ) :   0.9389 B( 15-C , 16-N ) :   1.7544
B( 15-C , 18-C ) :   0.1103 B( 15-C , 20-C ) :   1.0826 B( 16-N , 17-N ) :   1.1609
B( 17-N , 18-C ) :   1.7119 B( 18-C , 19-C ) :   1.0769 B( 18-C , 24-C ) :   1.0258
B( 19-C , 20-C ) :   1.1832 B( 19-C , 23-N ) :   1.6108 B( 20-C , 21-N ) :   1.6087
B( 21-N , 22-O ) :   1.0742 B( 21-N , 23-N ) :   0.1829 B( 22-O , 23-N ) :   1.0757
B( 24-C , 25-C ) :   1.5982 B( 24-C , 28-C ) :   1.1583 B( 25-C , 26-S ) :   1.1529
B( 25-C , 69-H ) :   0.9594 B( 26-S , 27-C ) :   1.0718 B( 27-C , 28-C ) :   1.3629
B( 27-C , 39-C ) :   1.3834 B( 28-C , 29-C ) :   1.2612 B( 29-C , 30-C ) :   1.0836
B( 29-C , 32-C ) :   1.4970 B( 30-C , 31-C ) :   1.1033 B( 30-C , 70-H ) :   0.8903
B( 30-C , 71-H ) :   0.9029 B( 31-C , 72-H ) :   0.9624 B( 31-C , 73-H ) :   0.9561
B( 31-C , 74-H ) :   0.9666 B( 32-C , 33-C ) :   1.0543 B( 32-C , 35-C ) :   1.2758
B( 33-C , 34-C ) :   1.1019 B( 33-C , 75-H ) :   0.9226 B( 33-C , 76-H ) :   0.9212
B( 34-C , 77-H ) :   0.9591 B( 34-C , 78-H ) :   0.9634 B( 34-C , 79-H ) :   0.9606
B( 35-C , 36-C ) :   1.1366 B( 35-C , 39-C ) :   1.3701 B( 36-C , 37-C ) :   1.5852
B( 36-C , 40-C ) :   1.0110 B( 37-C , 38-S ) :   1.1440 B( 37-C , 80-H ) :   0.9613
B( 38-S , 39-C ) :   1.0706 B( 40-C , 41-C ) :   1.6759 B( 40-C , 81-H ) :   0.9521
B( 41-C , 42-C ) :   1.1614 B( 41-C , 82-H ) :   0.9824 B( 42-C , 43-N ) :   1.6383
B( 42-C , 45-C ) :   0.1138 B( 42-C , 47-C ) :   1.0359 B( 43-N , 44-N ) :   1.2108
B( 44-N , 45-C ) :   1.6531 B( 45-C , 46-C ) :   1.0680 B( 45-C , 51-C ) :   1.0474
B( 46-C , 47-C ) :   1.1788 B( 46-C , 50-N ) :   1.6356 B( 47-C , 48-N ) :   1.6259
B( 48-N , 49-O ) :   1.0790 B( 48-N , 50-N ) :   0.1833 B( 49-O , 50-N ) :   1.0703
B( 51-C , 52-C ) :   1.7735 B( 51-C , 83-H ) :   0.9500 B( 52-C , 53-C ) :   0.9235
B( 52-C , 57-C ) :   0.9917 B( 53-C , 54-O ) :   2.2600 B( 53-C , 55-C ) :   1.0281
B( 55-C , 56-C ) :   1.4411 B( 55-C , 65-S ) :   1.1297 B( 56-C , 57-C ) :   1.0267
B( 56-C , 63-C ) :   1.2735 B( 57-C , 58-C ) :   1.7033 B( 58-C , 59-C ) :   1.1352
B( 58-C , 61-C ) :   1.1540 B( 59-C , 60-N ) :   2.9977 B( 61-C , 62-N ) :   2.9843
B( 63-C , 64-C ) :   1.5411 B( 63-C , 84-H ) :   0.9948 B( 64-C , 65-S ) :   1.1910
B( 64-C , 85-H ) :   0.9623

-----------------------------------------------------------------------------
         ABSORPTION SPECTRUM VIA TRANSITION ELECTRIC DIPOLE MOMENTS
-----------------------------------------------------------------------------
State   Energy  Wavelength   fosc         T2         TX        TY        TZ
        (cm-1)    (nm)                  (au**2)     (au)      (au)      (au)
-----------------------------------------------------------------------------
   0   17922.8    557.9   0.143934637   2.64384  -0.56874   1.39065  -0.62167
   1   19797.2    505.1   0.534775653   8.89292   1.22552  -2.51614   1.02958
   2   20410.0    490.0   0.002787291   0.04496   0.08913   0.14183   0.12999
   3   22335.1    447.7   0.296170116   4.36544   1.93370   0.29258   0.73528
   4   23702.7    421.9   0.050613869   0.70299   0.74130   0.24251   0.30766
   5   24481.4    408.5   0.007930800   0.10665   0.18177   0.18073  -0.20235
   6   26180.1    382.0   0.080299470   1.00976   0.50527  -0.61982  -0.60851
   7   26630.3    375.5   0.023934841   0.29589  -0.31185   0.37613  -0.23909
   8   27225.2    367.3   0.000864014   0.01045   0.00259   0.01085   0.10160
   9   28097.2    355.9   0.000447400   0.00524  -0.00752   0.06799  -0.02374
  10   28935.2    345.6   0.143708347   1.63505   0.01217  -1.21623   0.39458
  11   29349.5    340.7   0.104756358   1.17505   0.12388  -0.98151   0.44310
  12   29413.7    340.0   0.048498749   0.54282  -0.60645  -0.28497  -0.30632
  13   30068.7    332.6   0.007322632   0.08017   0.22539   0.16577   0.04348
  14   30813.4    324.5   0.148959689   1.59150  -0.88735  -0.09067  -0.89212
  15   30900.2    323.6   0.071058820   0.75706   0.04036   0.85516   0.15537
  16   31300.4    319.5   0.023214035   0.24416  -0.29504   0.07841  -0.38854
  17   31350.3    319.0   0.090900728   0.95456   0.92502   0.31293   0.03124
  18   31561.3    316.8   0.022093050   0.23045  -0.34472  -0.24030   0.23210
  19   31717.0    315.3   0.036299963   0.37678  -0.06553  -0.60744   0.05922
  20   32150.2    311.0   0.034957806   0.35796   0.38237   0.33063  -0.32006
  21   32647.0    306.3   0.025890812   0.26108   0.48545   0.14580  -0.06450
  22   33141.8    301.7   0.002437190   0.02421  -0.13778   0.01680   0.07031
  23   33297.2    300.3   0.064066012   0.63343   0.77831   0.05283   0.15772
  24   33591.4    297.7   0.023835941   0.23360  -0.46986  -0.11307  -0.00717
  25   33763.5    296.2   0.067255931   0.65578  -0.30244   0.61774   0.42744
  26   34078.8    293.4   0.066773750   0.64506  -0.75548   0.07817   0.26113
  27   34140.6    292.9   0.042274049   0.40764  -0.60052  -0.21498  -0.02820
  28   34390.9    290.8   0.036889537   0.35313  -0.26124  -0.53251   0.03639
  29   35170.7    284.3   0.267835864   2.50705  -0.73507  -1.28233  -0.56777
  30   35341.0    283.0   0.817338119   7.61374   0.40688  -0.83180   2.59929
  31   35402.1    282.5   0.003490958   0.03246  -0.10010   0.14390   0.04168
  32   36026.0    277.6   0.113283076   1.03520  -0.71817   0.45192   0.56143
  33   36162.9    276.5   0.177103364   1.61228   0.00320   1.26371   0.12374
  34   36188.6    276.3   0.396147808   3.60380  -0.14027   1.86985   0.29629
  35   36642.8    272.9   0.053598435   0.48155  -0.28760  -0.04950  -0.62959
  36   36994.3    270.3   0.003089578   0.02749   0.06369  -0.12990   0.08102
  37   37214.3    268.7   0.006623211   0.05859   0.23353   0.01182   0.06256
  38   37634.7    265.7   0.008506436   0.07441  -0.00459   0.24993  -0.10919
  39   37741.0    265.0   0.008019432   0.06995   0.25129   0.02452  -0.07877
  40   38210.2    261.7   0.071932530   0.61976  -0.52872   0.52928   0.24508
  41   38449.1    260.1   0.067522734   0.57815  -0.72127   0.22601   0.08273
  42   38512.3    259.7   0.019082847   0.16312   0.15422  -0.23124  -0.29303
  43   38679.8    258.5   0.179948794   1.53158  -1.04698  -0.65386  -0.08877
  44   38800.2    257.7   0.017703334   0.15021   0.12152  -0.20628   0.30478
  45   38920.0    256.9   0.044192853   0.37381   0.40846   0.37835  -0.25264
  46   39862.1    250.9   0.050399394   0.41624  -0.03965   0.30226  -0.56860
  47   39947.3    250.3   0.083136599   0.68514  -0.55177  -0.56053   0.25788
  48   40285.1    248.2   0.037479113   0.30628  -0.47522  -0.27944  -0.04860

FINAL SINGLE POINT ENERGY     -4311.332046539260

DIPOLE MOMENT
-------------
                                X             Y             Z
Electronic contribution:      4.97734       5.30894       0.54568
Nuclear contribution   :     -7.12609      -6.21128       0.50320
                        -----------------------------------------
Total Dipole Moment    :     -2.14875      -0.90234       1.04889
                        -----------------------------------------
Magnitude (a.u.)       :      2.55569
Magnitude (Debye)      :      6.49604

Rotational constants in cm-1:     0.001502     0.000358     0.000311
Rotational constants in MHz :    45.042541    10.721868     9.324062

                             ****ORCA TERMINATED NORMALLY****
TOTAL RUN TIME: 0 days 0 hours 7 minutes 24 seconds 668 msec
