                         Program Version 4.2.0 -  RELEASE  -
|  1> # ORCA input file
|  2> # SCF done       -136.432170340683          0.000832576484
|  3> ! CAM-B3LYP def2-SVP def2/J RIJCOSX Grid4 TightSCF
|  4> %maxcore 5000
|  5> %tddft
|  6>     Mode sTDDFT
|  7>     Ethresh 5.0
|  8>     maxcore 5000
|  9> end
| 10>
| 11> %pal
| 12>   nprocs 6
| 13>   end
| 14> * xyz 0 1
| 15>    C        3.84505        -3.62289        -5.08813
| 16>    O        3.43148        -4.15394        -4.07979
| 17>    C        3.29045        -3.71312        -6.43988
| 18>    C        4.13331        -3.12679        -7.37182
| 19>    C        3.64164        -3.22413        -8.68877
| 20>    C        2.44896        -3.88283        -8.71540
| 21>    S        1.90148        -4.39812        -7.16159
| 22>    C        5.28574        -2.57849        -6.68159
| 23>    C        6.29902        -1.88014        -7.28732
| 24>    C        6.32888        -1.67946        -8.68232
| 25>    N        6.37382        -1.50750        -9.81640
| 26>    C        7.39053        -1.28173        -6.62897
| 27>    N        8.29906        -0.75700        -6.16117
| 28>    C        5.10614        -2.85672        -5.27071
| 29>    C        6.02141        -2.60434        -4.28397
| 30>    C        5.80382        -2.66418        -2.89703
| 31>    C        4.63340        -2.42492        -2.15551
| 32>    O        3.52727        -1.98471        -2.76613
| 33>    C        2.37311        -1.79537        -1.97841
| 34>    C        4.82819        -2.57874        -0.77941
| 35>    C        6.12885        -2.90679        -0.44030
| 36>    S        7.15078        -2.99558        -1.83329
| 37>    C        6.63858        -3.14219         0.85421
| 38>    C        7.96725        -3.44262         1.16960
| 39>    O        8.86460        -3.52636         0.16975
| 40>    C       10.20792        -3.78983         0.51191
| 41>    C        8.17383        -3.61948         2.53959
| 42>    C        7.01967        -3.45549         3.28477
| 43>    S        5.65170        -3.08102         2.28322
| 44>    C        6.88159        -3.54779         4.68494
| 45>    C        5.69973        -3.34718         5.40841
| 46>    O        4.56746        -3.07920         4.72833
| 47>    C        3.44372        -2.65986         5.47252
| 48>    C        5.87761        -3.45360         6.78634
| 49>    C        7.18512        -3.73422         7.15405
| 50>    S        8.19862        -3.90682         5.74394
| 51>    C        7.74439        -3.96259         8.42659
| 52>    C        7.26912        -3.64951         9.66642
| 53>    C        7.84276        -4.37801        10.84310
| 54>    O        8.82154        -5.08796        10.84430
| 55>    C        6.92552        -4.05741        11.93180
| 56>    C        5.95668        -3.15039        11.51968
| 57>    C        6.21480        -2.77824        10.13914
| 58>    C        5.69811        -1.65720         9.53922
| 59>    C        4.68900        -0.88489        10.14943
| 60>    N        3.84203        -0.26129        10.60951
| 61>    C        6.14703        -1.11399         8.32170
| 62>    N        6.49177        -0.60474         7.35187
| 63>    C        5.05918        -2.80929        12.54876
| 64>    C        5.36677        -3.47129        13.70111
| 65>    S        6.74508        -4.49937        13.57255
| 66>    H        4.13180        -2.83900        -9.56349
| 67>    H        1.84525        -4.10095        -9.57444
| 68>    H        7.03568        -2.36345        -4.58040
| 69>    H        1.59479        -1.47476        -2.66835
| 70>    H        2.53213        -1.02247        -1.21964
| 71>    H        2.06992        -2.72917        -1.49813
| 72>    H        4.06616        -2.46267        -0.03041
| 73>    H       10.75534        -3.79033        -0.42834
| 74>    H       10.30889        -4.76580         0.99563
| 75>    H       10.60862        -3.01278         1.16913
| 76>    H        9.11596        -3.85572         2.99978
| 77>    H        2.68690        -2.39298         4.73798
| 78>    H        3.68294        -1.78775         6.08756
| 79>    H        3.06499        -3.46640         6.10756
| 80>    H        5.07975        -3.38000         7.50241
| 81>    H        8.66825        -4.53356         8.43598
| 82>    H        4.23477        -2.12730        12.45265
| 83>    H        4.85433        -3.40778        14.64110
| 84> *
| 85>
| 86>                          ****END OF INPUT****

CARTESIAN COORDINATES (ANGSTROEM)
---------------------------------
  C      3.845050   -3.622890   -5.088130
  O      3.431480   -4.153940   -4.079790
  C      3.290450   -3.713120   -6.439880
  C      4.133310   -3.126790   -7.371820
  C      3.641640   -3.224130   -8.688770
  C      2.448960   -3.882830   -8.715400
  S      1.901480   -4.398120   -7.161590
  C      5.285740   -2.578490   -6.681590
  C      6.299020   -1.880140   -7.287320
  C      6.328880   -1.679460   -8.682320
  N      6.373820   -1.507500   -9.816400
  C      7.390530   -1.281730   -6.628970
  N      8.299060   -0.757000   -6.161170
  C      5.106140   -2.856720   -5.270710
  C      6.021410   -2.604340   -4.283970
  C      5.803820   -2.664180   -2.897030
  C      4.633400   -2.424920   -2.155510
  O      3.527270   -1.984710   -2.766130
  C      2.373110   -1.795370   -1.978410
  C      4.828190   -2.578740   -0.779410
  C      6.128850   -2.906790   -0.440300
  S      7.150780   -2.995580   -1.833290
  C      6.638580   -3.142190    0.854210
  C      7.967250   -3.442620    1.169600
  O      8.864600   -3.526360    0.169750
  C     10.207920   -3.789830    0.511910
  C      8.173830   -3.619480    2.539590
  C      7.019670   -3.455490    3.284770
  S      5.651700   -3.081020    2.283220
  C      6.881590   -3.547790    4.684940
  C      5.699730   -3.347180    5.408410
  O      4.567460   -3.079200    4.728330
  C      3.443720   -2.659860    5.472520
  C      5.877610   -3.453600    6.786340
  C      7.185120   -3.734220    7.154050
  S      8.198620   -3.906820    5.743940
  C      7.744390   -3.962590    8.426590
  C      7.269120   -3.649510    9.666420
  C      7.842760   -4.378010   10.843100
  O      8.821540   -5.087960   10.844300
  C      6.925520   -4.057410   11.931800
  C      5.956680   -3.150390   11.519680
  C      6.214800   -2.778240   10.139140
  C      5.698110   -1.657200    9.539220
  C      4.689000   -0.884890   10.149430
  N      3.842030   -0.261290   10.609510
  C      6.147030   -1.113990    8.321700
  N      6.491770   -0.604740    7.351870
  C      5.059180   -2.809290   12.548760
  C      5.366770   -3.471290   13.701110
  S      6.745080   -4.499370   13.572550
  H      4.131800   -2.839000   -9.563490
  H      1.845250   -4.100950   -9.574440
  H      7.035680   -2.363450   -4.580400
  H      1.594790   -1.474760   -2.668350
  H      2.532130   -1.022470   -1.219640
  H      2.069920   -2.729170   -1.498130
  H      4.066160   -2.462670   -0.030410
  H     10.755340   -3.790330   -0.428340
  H     10.308890   -4.765800    0.995630
  H     10.608620   -3.012780    1.169130
  H      9.115960   -3.855720    2.999780
  H      2.686900   -2.392980    4.737980
  H      3.682940   -1.787750    6.087560
  H      3.064990   -3.466400    6.107560
  H      5.079750   -3.380000    7.502410
  H      8.668250   -4.533560    8.435980
  H      4.234770   -2.127300   12.452650
  H      4.854330   -3.407780   14.641100

 Total Charge           Charge          ....    0
 Multiplicity           Mult            ....    1
 Number of Electrons    NEL             ....  388
 Basis Dimension        Dim             ....  824

ORBITAL ENERGIES
----------------

  NO   OCC          E(Eh)            E(eV)
   0   2.0000     -88.993299     -2421.6308
   1   2.0000     -88.980056     -2421.2704
   2   2.0000     -88.972353     -2421.0608
   3   2.0000     -88.969391     -2420.9802
   4   2.0000     -88.954231     -2420.5677
   5   2.0000     -19.274428      -524.4839
   6   2.0000     -19.268203      -524.3145
   7   2.0000     -19.253566      -523.9162
   8   2.0000     -19.222579      -523.0730
   9   2.0000     -19.196239      -522.3562
  10   2.0000     -14.424401      -392.5079
  11   2.0000     -14.423731      -392.4897
  12   2.0000     -14.400822      -391.8663
  13   2.0000     -14.398730      -391.8094
  14   2.0000     -10.380492      -282.4675
  15   2.0000     -10.357202      -281.8338
  16   2.0000     -10.354168      -281.7512
  17   2.0000     -10.354043      -281.7478
  18   2.0000     -10.352077      -281.6943
  19   2.0000     -10.350163      -281.6423
  20   2.0000     -10.345112      -281.5048
  21   2.0000     -10.341928      -281.4182
  22   2.0000     -10.336957      -281.2829
  23   2.0000     -10.327642      -281.0294
  24   2.0000     -10.327512      -281.0259
  25   2.0000     -10.327284      -281.0197
  26   2.0000     -10.327268      -281.0193
  27   2.0000     -10.326819      -281.0070
  28   2.0000     -10.326349      -280.9942
  29   2.0000     -10.326096      -280.9874
  30   2.0000     -10.325830      -280.9801
  31   2.0000     -10.325308      -280.9659
  32   2.0000     -10.324465      -280.9430
  33   2.0000     -10.321109      -280.8516
  34   2.0000     -10.320961      -280.8476
  35   2.0000     -10.317275      -280.7473
  36   2.0000     -10.305945      -280.4390
  37   2.0000     -10.305656      -280.4312
  38   2.0000     -10.305401      -280.4242
  39   2.0000     -10.305337      -280.4225
  40   2.0000     -10.304542      -280.4008
  41   2.0000     -10.304189      -280.3912
  42   2.0000     -10.302362      -280.3415
  43   2.0000     -10.301132      -280.3081
  44   2.0000     -10.297853      -280.2188
  45   2.0000     -10.291909      -280.0571
  46   2.0000     -10.290907      -280.0298
  47   2.0000     -10.288242      -279.9573
  48   2.0000     -10.283175      -279.8194
  49   2.0000     -10.275344      -279.6063
  50   2.0000     -10.275304      -279.6052
  51   2.0000      -8.088334      -220.0948
  52   2.0000      -8.075450      -219.7442
  53   2.0000      -8.067360      -219.5240
  54   2.0000      -8.063618      -219.4222
  55   2.0000      -8.049038      -219.0255
  56   2.0000      -6.057498      -164.8329
  57   2.0000      -6.053043      -164.7117
  58   2.0000      -6.051074      -164.6581
  59   2.0000      -6.044750      -164.4860
  60   2.0000      -6.040800      -164.3785
  61   2.0000      -6.037340      -164.2844
  62   2.0000      -6.036522      -164.2621
  63   2.0000      -6.033099      -164.1690
  64   2.0000      -6.032135      -164.1427
  65   2.0000      -6.030109      -164.0876
  66   2.0000      -6.028906      -164.0549
  67   2.0000      -6.025453      -163.9609
  68   2.0000      -6.018521      -163.7723
  69   2.0000      -6.014316      -163.6579
  70   2.0000      -6.010783      -163.5617
  71   2.0000      -1.180189       -32.1146
  72   2.0000      -1.173865       -31.9425
  73   2.0000      -1.161967       -31.6187
  74   2.0000      -1.139334       -31.0028
  75   2.0000      -1.111421       -30.2433
  76   2.0000      -1.034050       -28.1379
  77   2.0000      -1.016735       -27.6668
  78   2.0000      -1.012948       -27.5637
  79   2.0000      -1.009376       -27.4665
  80   2.0000      -1.002391       -27.2765
  81   2.0000      -0.995608       -27.0919
  82   2.0000      -0.992620       -27.0106
  83   2.0000      -0.978743       -26.6330
  84   2.0000      -0.976893       -26.5826
  85   2.0000      -0.969199       -26.3733
  86   2.0000      -0.945659       -25.7327
  87   2.0000      -0.916213       -24.9314
  88   2.0000      -0.903996       -24.5990
  89   2.0000      -0.891196       -24.2507
  90   2.0000      -0.880059       -23.9476
  91   2.0000      -0.866599       -23.5814
  92   2.0000      -0.863622       -23.5003
  93   2.0000      -0.859485       -23.3878
  94   2.0000      -0.847203       -23.0536
  95   2.0000      -0.843996       -22.9663
  96   2.0000      -0.838181       -22.8081
  97   2.0000      -0.829715       -22.5777
  98   2.0000      -0.812075       -22.0977
  99   2.0000      -0.802387       -21.8341
 100   2.0000      -0.790648       -21.5146
 101   2.0000      -0.779398       -21.2085
 102   2.0000      -0.772160       -21.0115
 103   2.0000      -0.756532       -20.5863
 104   2.0000      -0.744877       -20.2691
 105   2.0000      -0.734255       -19.9801
 106   2.0000      -0.706193       -19.2165
 107   2.0000      -0.700306       -19.0563
 108   2.0000      -0.691739       -18.8232
 109   2.0000      -0.679594       -18.4927
 110   2.0000      -0.671904       -18.2834
 111   2.0000      -0.667134       -18.1536
 112   2.0000      -0.662344       -18.0233
 113   2.0000      -0.658826       -17.9276
 114   2.0000      -0.648495       -17.6465
 115   2.0000      -0.646443       -17.5906
 116   2.0000      -0.635573       -17.2948
 117   2.0000      -0.633735       -17.2448
 118   2.0000      -0.621727       -16.9181
 119   2.0000      -0.618203       -16.8222
 120   2.0000      -0.609112       -16.5748
 121   2.0000      -0.602001       -16.3813
 122   2.0000      -0.592252       -16.1160
 123   2.0000      -0.590039       -16.0558
 124   2.0000      -0.579332       -15.7644
 125   2.0000      -0.578633       -15.7454
 126   2.0000      -0.572320       -15.5736
 127   2.0000      -0.571995       -15.5648
 128   2.0000      -0.565810       -15.3965
 129   2.0000      -0.561948       -15.2914
 130   2.0000      -0.559148       -15.2152
 131   2.0000      -0.551346       -15.0029
 132   2.0000      -0.546133       -14.8610
 133   2.0000      -0.541640       -14.7388
 134   2.0000      -0.533851       -14.5268
 135   2.0000      -0.530174       -14.4268
 136   2.0000      -0.526100       -14.3159
 137   2.0000      -0.524275       -14.2663
 138   2.0000      -0.519422       -14.1342
 139   2.0000      -0.514793       -14.0082
 140   2.0000      -0.513413       -13.9707
 141   2.0000      -0.512320       -13.9409
 142   2.0000      -0.507261       -13.8033
 143   2.0000      -0.502607       -13.6766
 144   2.0000      -0.498958       -13.5774
 145   2.0000      -0.497188       -13.5292
 146   2.0000      -0.494141       -13.4463
 147   2.0000      -0.490975       -13.3601
 148   2.0000      -0.485731       -13.2174
 149   2.0000      -0.482803       -13.1377
 150   2.0000      -0.480465       -13.0741
 151   2.0000      -0.475905       -12.9500
 152   2.0000      -0.474254       -12.9051
 153   2.0000      -0.472011       -12.8441
 154   2.0000      -0.464389       -12.6367
 155   2.0000      -0.459245       -12.4967
 156   2.0000      -0.458320       -12.4715
 157   2.0000      -0.457640       -12.4530
 158   2.0000      -0.456072       -12.4104
 159   2.0000      -0.453750       -12.3472
 160   2.0000      -0.448271       -12.1981
 161   2.0000      -0.445975       -12.1356
 162   2.0000      -0.443620       -12.0715
 163   2.0000      -0.439588       -11.9618
 164   2.0000      -0.436975       -11.8907
 165   2.0000      -0.435883       -11.8610
 166   2.0000      -0.433519       -11.7966
 167   2.0000      -0.433202       -11.7880
 168   2.0000      -0.426638       -11.6094
 169   2.0000      -0.426136       -11.5958
 170   2.0000      -0.419888       -11.4257
 171   2.0000      -0.417965       -11.3734
 172   2.0000      -0.416554       -11.3350
 173   2.0000      -0.413258       -11.2453
 174   2.0000      -0.412546       -11.2259
 175   2.0000      -0.411618       -11.2007
 176   2.0000      -0.406431       -11.0596
 177   2.0000      -0.400148       -10.8886
 178   2.0000      -0.395888       -10.7727
 179   2.0000      -0.392705       -10.6860
 180   2.0000      -0.380616       -10.3571
 181   2.0000      -0.362302        -9.8587
 182   2.0000      -0.350134        -9.5276
 183   2.0000      -0.345554        -9.4030
 184   2.0000      -0.333041        -9.0625
 185   2.0000      -0.327122        -8.9015
 186   2.0000      -0.325024        -8.8443
 187   2.0000      -0.321319        -8.7435
 188   2.0000      -0.318825        -8.6757
 189   2.0000      -0.312536        -8.5045
 190   2.0000      -0.304029        -8.2730
 191   2.0000      -0.294375        -8.0103
 192   2.0000      -0.277642        -7.5550
 193   2.0000      -0.234650        -6.3851
 194   0.0000      -0.098249        -2.6735
 195   0.0000      -0.078108        -2.1254
 196   0.0000      -0.063355        -1.7240
 197   0.0000      -0.049092        -1.3359
 198   0.0000      -0.019058        -0.5186

MULLIKEN ATOMIC CHARGES
-----------------------
   0 C :    0.125020
   1 O :   -0.152373
   2 C :   -0.172238
   3 C :   -0.003821
   4 C :    0.030013
   5 C :   -0.067620
   6 S :    0.188197
   7 C :    0.303485
   8 C :   -0.346117
   9 C :   -0.194737
  10 N :    0.141046
  11 C :   -0.193678
  12 N :    0.150236
  13 C :   -0.113693
  14 C :    0.013982
  15 C :   -0.165046
  16 C :    0.296851
  17 O :   -0.281191
  18 C :    0.179319
  19 C :   -0.157401
  20 C :   -0.017346
  21 S :    0.174234
  22 C :   -0.107071
  23 C :    0.242325
  24 O :   -0.312295
  25 C :    0.175658
  26 C :   -0.133392
  27 C :   -0.022695
  28 S :    0.175584
  29 C :   -0.090552
  30 C :    0.216168
  31 O :   -0.321269
  32 C :    0.174312
  33 C :   -0.058116
  34 C :   -0.086457
  35 S :    0.164567
  36 C :    0.093073
  37 C :   -0.157345
  38 C :    0.115727
  39 O :   -0.140648
  40 C :   -0.153817
  41 C :   -0.016911
  42 C :    0.282909
  43 C :   -0.344788
  44 C :   -0.180934
  45 N :    0.152327
  46 C :   -0.201881
  47 N :    0.180360
  48 C :    0.025689
  49 C :   -0.060927
  50 S :    0.213722
  51 H :    0.013000
  52 H :    0.035398
  53 H :    0.019326
  54 H :    0.041437
  55 H :    0.025261
  56 H :    0.032751
  57 H :   -0.021371
  58 H :    0.051189
  59 H :    0.029113
  60 H :    0.032470
  61 H :   -0.016845
  62 H :    0.046166
  63 H :    0.039620
  64 H :    0.030206
  65 H :   -0.003455
  66 H :    0.022693
  67 H :    0.018190
  68 H :    0.044407
Sum of atomic charges:    0.0000000

LOEWDIN ATOMIC CHARGES
----------------------
   0 C :    0.060311
   1 O :   -0.149069
   2 C :   -0.205510
   3 C :   -0.046368
   4 C :   -0.045366
   5 C :   -0.160193
   6 S :    0.486528
   7 C :    0.078581
   8 C :   -0.150424
   9 C :   -0.017244
  10 N :   -0.065772
  11 C :   -0.023507
  12 N :   -0.059610
  13 C :   -0.109350
  14 C :    0.045144
  15 C :   -0.227675
  16 C :    0.060708
  17 O :   -0.063642
  18 C :    0.082635
  19 C :   -0.116811
  20 C :   -0.144569
  21 S :    0.470315
  22 C :   -0.231381
  23 C :    0.027022
  24 O :   -0.092901
  25 C :    0.084122
  26 C :   -0.098574
  27 C :   -0.167171
  28 S :    0.479274
  29 C :   -0.194523
  30 C :    0.019470
  31 O :   -0.098053
  32 C :    0.084087
  33 C :   -0.050421
  34 C :   -0.178310
  35 S :    0.467906
  36 C :    0.041898
  37 C :   -0.096602
  38 C :    0.066642
  39 O :   -0.141220
  40 C :   -0.211365
  41 C :   -0.038825
  42 C :    0.067997
  43 C :   -0.146128
  44 C :   -0.020827
  45 N :   -0.053428
  46 C :   -0.022035
  47 N :   -0.041636
  48 C :   -0.047182
  49 C :   -0.149260
  50 S :    0.504789
  51 H :    0.041751
  52 H :    0.027631
  53 H :    0.041815
  54 H :    0.031388
  55 H :    0.016387
  56 H :    0.021223
  57 H :    0.023901
  58 H :    0.035111
  59 H :    0.019014
  60 H :    0.020285
  61 H :    0.027025
  62 H :    0.033415
  63 H :    0.024447
  64 H :    0.018533
  65 H :    0.034052
  66 H :    0.046641
  67 H :    0.043288
  68 H :    0.031617

  Mayer bond orders larger than 0.100000
B(  0-C ,  1-O ) :   2.2001 B(  0-C ,  2-C ) :   1.0372 B(  0-C , 13-C ) :   0.9627
B(  2-C ,  3-C ) :   1.4732 B(  2-C ,  6-S ) :   1.1284 B(  3-C ,  4-C ) :   1.2664
B(  3-C ,  7-C ) :   0.9960 B(  4-C ,  5-C ) :   1.5471 B(  4-C , 51-H ) :   0.9950
B(  5-C ,  6-S ) :   1.1784 B(  5-C , 52-H ) :   0.9627 B(  7-C ,  8-C ) :   1.6310
B(  7-C , 13-C ) :   1.0961 B(  8-C ,  9-C ) :   1.1477 B(  8-C , 11-C ) :   1.1363
B(  9-C , 10-N ) :   2.9867 B( 11-C , 12-N ) :   2.9863 B( 13-C , 14-C ) :   1.5769
B( 14-C , 15-C ) :   1.2254 B( 14-C , 53-H ) :   0.9275 B( 15-C , 16-C ) :   1.3784
B( 15-C , 21-S ) :   1.0478 B( 16-C , 17-O ) :   1.2083 B( 16-C , 19-C ) :   1.2439
B( 17-O , 18-C ) :   0.9478 B( 18-C , 54-H ) :   0.9798 B( 18-C , 55-H ) :   0.9694
B( 18-C , 56-H ) :   0.9703 B( 19-C , 20-C ) :   1.3997 B( 19-C , 57-H ) :   1.0009
B( 20-C , 21-S ) :   1.1732 B( 20-C , 22-C ) :   1.2024 B( 22-C , 23-C ) :   1.4172
B( 22-C , 27-C ) :   0.1034 B( 22-C , 28-S ) :   1.0816 B( 23-C , 24-O ) :   1.1655
B( 23-C , 26-C ) :   1.2412 B( 24-O , 25-C ) :   0.9434 B( 25-C , 58-H ) :   0.9797
B( 25-C , 59-H ) :   0.9719 B( 25-C , 60-H ) :   0.9713 B( 26-C , 27-C ) :   1.4133
B( 26-C , 61-H ) :   1.0034 B( 27-C , 28-S ) :   1.1455 B( 27-C , 29-C ) :   1.1993
B( 29-C , 30-C ) :   1.4033 B( 29-C , 34-C ) :   0.1058 B( 29-C , 35-S ) :   1.1410
B( 30-C , 31-O ) :   1.1579 B( 30-C , 33-C ) :   1.2847 B( 31-O , 32-C ) :   0.9395
B( 32-C , 62-H ) :   0.9788 B( 32-C , 63-H ) :   0.9717 B( 32-C , 64-H ) :   0.9709
B( 33-C , 34-C ) :   1.3916 B( 33-C , 65-H ) :   0.9923 B( 34-C , 35-S ) :   1.1089
B( 34-C , 36-C ) :   1.1530 B( 36-C , 37-C ) :   1.6694 B( 36-C , 66-H ) :   0.9242
B( 37-C , 38-C ) :   0.9481 B( 37-C , 42-C ) :   1.0409 B( 38-C , 39-O ) :   2.2369
B( 38-C , 40-C ) :   1.0286 B( 40-C , 41-C ) :   1.4563 B( 40-C , 50-S ) :   1.1312
B( 41-C , 42-C ) :   1.0172 B( 41-C , 48-C ) :   1.2734 B( 42-C , 43-C ) :   1.6393
B( 43-C , 44-C ) :   1.1294 B( 43-C , 46-C ) :   1.1671 B( 44-C , 45-N ) :   2.9956
B( 46-C , 47-N ) :   2.9890 B( 48-C , 49-C ) :   1.5394 B( 48-C , 67-H ) :   0.9954
B( 49-C , 50-S ) :   1.1905 B( 49-C , 68-H ) :   0.9622

-----------------------------------------------------------------------------
         ABSORPTION SPECTRUM VIA TRANSITION ELECTRIC DIPOLE MOMENTS
-----------------------------------------------------------------------------
State   Energy  Wavelength   fosc         T2         TX        TY        TZ
        (cm-1)    (nm)                  (au**2)     (au)      (au)      (au)
-----------------------------------------------------------------------------
   0   15457.6    646.9   1.491244525  31.76007   0.22454   0.08400   5.63051
   1   20032.0    499.2   0.402528071   6.61525  -0.36312   0.64678  -2.46274
   2   21505.9    465.0   0.101737711   1.55740   0.59088   0.01645   1.09908
   3   24171.3    413.7   0.118190230   1.60975  -0.56205  -0.06911  -1.13537
   4   25217.4    396.6   0.100091958   1.30670  -0.26875   0.38286   1.04302
   5   29390.0    340.3   0.047841464   0.53590  -0.60753   0.40675  -0.03677
   6   29639.3    337.4   0.077993640   0.86630  -0.56997   0.58097  -0.45155
   7   29924.3    334.2   0.011563283   0.12721   0.11739  -0.00630  -0.33674
   8   30339.0    329.6   0.012945909   0.14048   0.35076  -0.12043   0.05426
   9   30643.4    326.3   0.041187218   0.44249   0.43260   0.32537   0.38663
  10   30952.8    323.1   0.086901656   0.92428  -0.18545   0.72949  -0.59811
  11   31440.8    318.1   0.086114062   0.90169  -0.42785  -0.38787   0.75378
  12   31693.5    315.5   0.019004550   0.19741  -0.16433   0.22327   0.34721
  13   32387.5    308.8   0.047451531   0.48233  -0.68976  -0.01620   0.07942
  14   32733.5    305.5   0.016067375   0.16160   0.34312   0.18619   0.09590
  15   32860.6    304.3   0.026498940   0.26548  -0.04205  -0.40707   0.31305
  16   33157.6    301.6   0.075635408   0.75096  -0.24702  -0.34837   0.75404
  17   34586.2    289.1   0.205660769   1.95760  -0.80748  -0.66299   0.93060
  18   34950.6    286.1   0.063741320   0.60040   0.45142  -0.13703  -0.61469
  19   35291.8    283.4   0.241197814   2.24996  -0.53515   1.05851  -0.91822
  20   35488.2    281.8   0.150399559   1.39521   0.33381   1.03690  -0.45673
  21   36000.5    277.8   0.099086262   0.90611  -0.65927  -0.68515  -0.04513
  22   36350.7    275.1   0.338985045   3.07003  -1.61409  -0.63473   0.24875
  23   36775.9    271.9   0.126221699   1.12991  -0.78736   0.62147  -0.35179
  24   37076.7    269.7   0.185226906   1.64467  -0.33148   0.70088  -1.02154
  25   37296.2    268.1   0.038840787   0.34285  -0.50579  -0.20169  -0.21528
  26   37676.6    265.4   0.178000077   1.55534   0.44031   0.17192   1.15408
  27   38397.8    260.4   0.120317193   1.03157   0.57624  -0.17369   0.81814
  28   39297.5    254.5   0.014228305   0.11920   0.34385  -0.00219  -0.03099
  29   39854.3    250.9   0.141259897   1.16686  -0.70535  -0.05469   0.81630
  30   40098.6    249.4   0.024957397   0.20490  -0.28611  -0.03963   0.34853

FINAL SINGLE POINT ENERGY     -4003.569341364760

DIPOLE MOMENT
-------------
                                X             Y             Z
Electronic contribution:      7.09347      -2.96566       3.26038
Nuclear contribution   :     -8.74562       1.02217       0.61601
                        -----------------------------------------
Total Dipole Moment    :     -1.65216      -1.94349       3.87640
                        -----------------------------------------
Magnitude (a.u.)       :      4.64039
Magnitude (Debye)      :     11.79493

Rotational constants in cm-1:     0.005075     0.000430     0.000413
Rotational constants in MHz :   152.144116    12.878001    12.382050

                             ****ORCA TERMINATED NORMALLY****
TOTAL RUN TIME: 0 days 0 hours 5 minutes 12 seconds 710 msec
