                         Program Version 4.2.0 -  RELEASE  -
|  1> # ORCA input file
|  2> # SCF done       -198.610046194951          0.000937693886
|  3> ! CAM-B3LYP def2-SVP def2/J RIJCOSX Grid4 TightSCF
|  4> %maxcore 5000
|  5> %tddft
|  6>     Mode sTDDFT
|  7>     Ethresh 5.0
|  8>     maxcore 5000
|  9> end
| 10>
| 11> %pal
| 12>   nprocs 6
| 13>   end
| 14> * xyz 0 1
| 15>    C        0.36857        -8.08707        -1.48188
| 16>    O        1.46018        -7.62956        -1.77235
| 17>    C       -0.76295        -8.32985        -2.36310
| 18>    C       -1.83993        -8.85499        -1.65996
| 19>    C       -2.95342        -9.10363        -2.48468
| 20>    C       -2.68702        -8.76200        -3.77828
| 21>    S       -1.10032        -8.13635        -4.02698
| 22>    C       -1.47155        -8.98328        -0.26237
| 23>    C       -2.30708        -9.44541         0.71915
| 24>    C       -3.62688        -9.85530         0.43157
| 25>    N       -4.70226       -10.19383         0.21928
| 26>    C       -1.99493        -9.56616         2.08817
| 27>    N       -1.81287        -9.68629         3.21547
| 28>    C       -0.09587        -8.52090        -0.14806
| 29>    C        0.64653        -8.51107         1.00135
| 30>    C        1.96763        -8.09273         1.23296
| 31>    C        2.55882        -8.17843         2.49821
| 32>    C        3.85712        -7.70365         2.51038
| 33>    C        4.26904        -7.24356         1.23725
| 34>    S        3.07015        -7.40469         0.04016
| 35>    C        5.59716        -6.76696         1.35490
| 36>    C        6.02577        -6.92078         2.68460
| 37>    C        4.94806        -7.52075         3.45506
| 38>    C        4.96495        -7.84230         4.78020
| 39>    C        3.85663        -8.42736         5.42877
| 40>    N        2.96168        -8.90481         5.96277
| 41>    C        6.09650        -7.61236         5.59096
| 42>    N        7.01596        -7.42564         6.25025
| 43>    C        7.32474        -6.45733         2.89433
| 44>    C        7.88471        -5.95247         1.73603
| 45>    S        6.79478        -6.05666         0.36352
| 46>    C        9.17054        -5.36958         1.58129
| 47>    C        9.73037        -4.85404         0.44712
| 48>    C       11.01533        -4.30356         0.64494
| 49>    C       11.45817        -4.40973         1.98905
| 50>    S       10.23590        -5.21089         2.96090
| 51>    C       12.68640        -3.90353         2.38463
| 52>    O       13.26346        -3.92662         3.60786
| 53>    C       12.62377        -4.56520         4.68911
| 54>    C       13.44941        -3.25804         1.38561
| 55>    C       13.00604        -3.15546         0.04098
| 56>    C       11.79196        -3.68653        -0.36042
| 57>    O       11.22686        -3.68969        -1.59214
| 58>    C       11.91997        -3.15110        -2.69356
| 59>    S       14.18624        -2.27263        -0.90919
| 60>    C       15.22203        -2.04814         0.48284
| 61>    C       14.69731        -2.63285         1.60194
| 62>    C       16.42461        -1.29988         0.36314
| 63>    C       17.34049        -1.01377         1.36080
| 64>    C       18.38188        -0.21311         0.89495
| 65>    C       18.26024         0.10984        -0.46836
| 66>    S       16.86484        -0.57855        -1.17321
| 67>    C       19.34881         0.93609        -0.83875
| 68>    C       20.15809         1.13972         0.29778
| 69>    C       19.58684         0.41375         1.41690
| 70>    C       20.09639         0.32251         2.67941
| 71>    C       19.46071        -0.42087         3.69498
| 72>    N       18.93567        -1.02055         4.51905
| 73>    C       21.29438         0.97608         3.03669
| 74>    N       22.26601         1.51834         3.31419
| 75>    C       21.26585         1.93646         0.03788
| 76>    C       21.32277         2.34275        -1.28649
| 77>    S       19.94811         1.74189        -2.21161
| 78>    C       22.26072         3.18783        -1.91929
| 79>    C       23.51794         3.52221        -1.52202
| 80>    C       24.14568         4.74744        -2.11754
| 81>    O       23.74148         5.37028        -3.07178
| 82>    C       25.28957         5.00461        -1.25209
| 83>    C       25.43983         3.99815        -0.30434
| 84>    C       24.42548         2.98317        -0.52459
| 85>    C       24.50774         1.70066        -0.04903
| 86>    C       25.52739         1.30270         0.84209
| 87>    N       26.34978         0.96071         1.56449
| 88>    C       23.67801         0.63833        -0.45254
| 89>    N       23.04880        -0.26612        -0.77576
| 90>    C       26.53682         4.21517         0.54988
| 91>    C       27.17744         5.37668         0.23200
| 92>    S       26.48468         6.21764        -1.10420
| 93>    H       -3.89235        -9.50824        -2.15586
| 94>    H       -3.34816        -8.84394        -4.61880
| 95>    H        0.16114        -8.88461         1.89557
| 96>    H        2.03361        -8.57324         3.35004
| 97>    H        7.84941        -6.47379         3.83277
| 98>    H        9.24153        -4.85211        -0.51002
| 99>    H       11.67618        -4.08254         4.94118
|100>    H       13.31179        -4.46480         5.52725
|101>    H       12.45255        -5.62564         4.48806
|102>    H       12.87478        -3.65741        -2.85687
|103>    H       12.09008        -2.07735        -2.57978
|104>    H       11.27117        -3.32248        -3.55137
|105>    H       15.16790        -2.61757         2.56670
|106>    H       17.24217        -1.37036         2.36909
|107>    H       21.97500         2.25561         0.77956
|108>    H       21.91695         3.69960        -2.81331
|109>    H       26.83327         3.56779         1.35405
|110>    H       28.03952         5.79389         0.71474
|111> *
|112>
|113>                          ****END OF INPUT****

CARTESIAN COORDINATES (ANGSTROEM)
---------------------------------
  C      0.368570   -8.087070   -1.481880
  O      1.460180   -7.629560   -1.772350
  C     -0.762950   -8.329850   -2.363100
  C     -1.839930   -8.854990   -1.659960
  C     -2.953420   -9.103630   -2.484680
  C     -2.687020   -8.762000   -3.778280
  S     -1.100320   -8.136350   -4.026980
  C     -1.471550   -8.983280   -0.262370
  C     -2.307080   -9.445410    0.719150
  C     -3.626880   -9.855300    0.431570
  N     -4.702260  -10.193830    0.219280
  C     -1.994930   -9.566160    2.088170
  N     -1.812870   -9.686290    3.215470
  C     -0.095870   -8.520900   -0.148060
  C      0.646530   -8.511070    1.001350
  C      1.967630   -8.092730    1.232960
  C      2.558820   -8.178430    2.498210
  C      3.857120   -7.703650    2.510380
  C      4.269040   -7.243560    1.237250
  S      3.070150   -7.404690    0.040160
  C      5.597160   -6.766960    1.354900
  C      6.025770   -6.920780    2.684600
  C      4.948060   -7.520750    3.455060
  C      4.964950   -7.842300    4.780200
  C      3.856630   -8.427360    5.428770
  N      2.961680   -8.904810    5.962770
  C      6.096500   -7.612360    5.590960
  N      7.015960   -7.425640    6.250250
  C      7.324740   -6.457330    2.894330
  C      7.884710   -5.952470    1.736030
  S      6.794780   -6.056660    0.363520
  C      9.170540   -5.369580    1.581290
  C      9.730370   -4.854040    0.447120
  C     11.015330   -4.303560    0.644940
  C     11.458170   -4.409730    1.989050
  S     10.235900   -5.210890    2.960900
  C     12.686400   -3.903530    2.384630
  O     13.263460   -3.926620    3.607860
  C     12.623770   -4.565200    4.689110
  C     13.449410   -3.258040    1.385610
  C     13.006040   -3.155460    0.040980
  C     11.791960   -3.686530   -0.360420
  O     11.226860   -3.689690   -1.592140
  C     11.919970   -3.151100   -2.693560
  S     14.186240   -2.272630   -0.909190
  C     15.222030   -2.048140    0.482840
  C     14.697310   -2.632850    1.601940
  C     16.424610   -1.299880    0.363140
  C     17.340490   -1.013770    1.360800
  C     18.381880   -0.213110    0.894950
  C     18.260240    0.109840   -0.468360
  S     16.864840   -0.578550   -1.173210
  C     19.348810    0.936090   -0.838750
  C     20.158090    1.139720    0.297780
  C     19.586840    0.413750    1.416900
  C     20.096390    0.322510    2.679410
  C     19.460710   -0.420870    3.694980
  N     18.935670   -1.020550    4.519050
  C     21.294380    0.976080    3.036690
  N     22.266010    1.518340    3.314190
  C     21.265850    1.936460    0.037880
  C     21.322770    2.342750   -1.286490
  S     19.948110    1.741890   -2.211610
  C     22.260720    3.187830   -1.919290
  C     23.517940    3.522210   -1.522020
  C     24.145680    4.747440   -2.117540
  O     23.741480    5.370280   -3.071780
  C     25.289570    5.004610   -1.252090
  C     25.439830    3.998150   -0.304340
  C     24.425480    2.983170   -0.524590
  C     24.507740    1.700660   -0.049030
  C     25.527390    1.302700    0.842090
  N     26.349780    0.960710    1.564490
  C     23.678010    0.638330   -0.452540
  N     23.048800   -0.266120   -0.775760
  C     26.536820    4.215170    0.549880
  C     27.177440    5.376680    0.232000
  S     26.484680    6.217640   -1.104200
  H     -3.892350   -9.508240   -2.155860
  H     -3.348160   -8.843940   -4.618800
  H      0.161140   -8.884610    1.895570
  H      2.033610   -8.573240    3.350040
  H      7.849410   -6.473790    3.832770
  H      9.241530   -4.852110   -0.510020
  H     11.676180   -4.082540    4.941180
  H     13.311790   -4.464800    5.527250
  H     12.452550   -5.625640    4.488060
  H     12.874780   -3.657410   -2.856870
  H     12.090080   -2.077350   -2.579780
  H     11.271170   -3.322480   -3.551370
  H     15.167900   -2.617570    2.566700
  H     17.242170   -1.370360    2.369090
  H     21.975000    2.255610    0.779560
  H     21.916950    3.699600   -2.813310
  H     26.833270    3.567790    1.354050
  H     28.039520    5.793890    0.714740

 Total Charge           Charge          ....    0
 Multiplicity           Mult            ....    1
 Number of Electrons    NEL             ....  582
 Basis Dimension        Dim             .... 1214

ORBITAL ENERGIES
----------------

  NO   OCC          E(Eh)            E(eV)
   0   2.0000     -88.995934     -2421.7025
   1   2.0000     -88.995849     -2421.7002
   2   2.0000     -88.994889     -2421.6740
   3   2.0000     -88.993028     -2421.6234
   4   2.0000     -88.990963     -2421.5672
   5   2.0000     -88.988619     -2421.5034
   6   2.0000     -88.965775     -2420.8818
   7   2.0000     -88.964740     -2420.8536
   8   2.0000     -19.261042      -524.1196
   9   2.0000     -19.258466      -524.0495
  10   2.0000     -19.230498      -523.2885
  11   2.0000     -19.218846      -522.9714
  12   2.0000     -14.433801      -392.7637
  13   2.0000     -14.433301      -392.7501
  14   2.0000     -14.433200      -392.7473
  15   2.0000     -14.431748      -392.7078
  16   2.0000     -14.422858      -392.4659
  17   2.0000     -14.420188      -392.3933
  18   2.0000     -14.418856      -392.3570
  19   2.0000     -14.415168      -392.2567
  20   2.0000     -10.386120      -282.6207
  21   2.0000     -10.377089      -282.3749
  22   2.0000     -10.368219      -282.1336
  23   2.0000     -10.367827      -282.1229
  24   2.0000     -10.355851      -281.7970
  25   2.0000     -10.355599      -281.7902
  26   2.0000     -10.350524      -281.6521
  27   2.0000     -10.350108      -281.6408
  28   2.0000     -10.350101      -281.6406
  29   2.0000     -10.349522      -281.6248
  30   2.0000     -10.348638      -281.6008
  31   2.0000     -10.347557      -281.5714
  32   2.0000     -10.343894      -281.4717
  33   2.0000     -10.336051      -281.2582
  34   2.0000     -10.335974      -281.2561
  35   2.0000     -10.335440      -281.2416
  36   2.0000     -10.335101      -281.2324
  37   2.0000     -10.335020      -281.2302
  38   2.0000     -10.334638      -281.2198
  39   2.0000     -10.334034      -281.2034
  40   2.0000     -10.333584      -281.1911
  41   2.0000     -10.333412      -281.1864
  42   2.0000     -10.331478      -281.1338
  43   2.0000     -10.330743      -281.1138
  44   2.0000     -10.329157      -281.0707
  45   2.0000     -10.327376      -281.0222
  46   2.0000     -10.326940      -281.0103
  47   2.0000     -10.326062      -280.9864
  48   2.0000     -10.324699      -280.9494
  49   2.0000     -10.324598      -280.9466
  50   2.0000     -10.322598      -280.8922
  51   2.0000     -10.322593      -280.8920
  52   2.0000     -10.322469      -280.8887
  53   2.0000     -10.321488      -280.8620
  54   2.0000     -10.321344      -280.8581
  55   2.0000     -10.319882      -280.8183
  56   2.0000     -10.317327      -280.7487
  57   2.0000     -10.316813      -280.7348
  58   2.0000     -10.316433      -280.7244
  59   2.0000     -10.315988      -280.7123
  60   2.0000     -10.315544      -280.7002
  61   2.0000     -10.314385      -280.6687
  62   2.0000     -10.312828      -280.6263
  63   2.0000     -10.312592      -280.6199
  64   2.0000     -10.312386      -280.6143
  65   2.0000     -10.311059      -280.5782
  66   2.0000     -10.306573      -280.4561
  67   2.0000     -10.306116      -280.4437
  68   2.0000     -10.305987      -280.4402
  69   2.0000     -10.305239      -280.4198
  70   2.0000     -10.305006      -280.4135
  71   2.0000     -10.303606      -280.3754
  72   2.0000     -10.302778      -280.3528
  73   2.0000     -10.299040      -280.2511
  74   2.0000     -10.293618      -280.1036
  75   2.0000     -10.293079      -280.0889
  76   2.0000     -10.289831      -280.0005
  77   2.0000     -10.288447      -279.9629
  78   2.0000      -8.090637      -220.1574
  79   2.0000      -8.090525      -220.1544
  80   2.0000      -8.089411      -220.1241
  81   2.0000      -8.088028      -220.0864
  82   2.0000      -8.083657      -219.9675
  83   2.0000      -8.083413      -219.9609
  84   2.0000      -8.060911      -219.3485
  85   2.0000      -8.059452      -219.3088
  86   2.0000      -6.059833      -164.8965
  87   2.0000      -6.059790      -164.8953
  88   2.0000      -6.058690      -164.8653
  89   2.0000      -6.057159      -164.8237
  90   2.0000      -6.055651      -164.7826
  91   2.0000      -6.055562      -164.7802
  92   2.0000      -6.054498      -164.7513
  93   2.0000      -6.053087      -164.7129
  94   2.0000      -6.052898      -164.7077
  95   2.0000      -6.052841      -164.7062
  96   2.0000      -6.052813      -164.7054
  97   2.0000      -6.052773      -164.7043
  98   2.0000      -6.051719      -164.6756
  99   2.0000      -6.050772      -164.6499
 100   2.0000      -6.048387      -164.5850
 101   2.0000      -6.048085      -164.5768
 102   2.0000      -6.046393      -164.5307
 103   2.0000      -6.045955      -164.5188
 104   2.0000      -6.030874      -164.1084
 105   2.0000      -6.029423      -164.0689
 106   2.0000      -6.026523      -163.9900
 107   2.0000      -6.025089      -163.9510
 108   2.0000      -6.021895      -163.8641
 109   2.0000      -6.020431      -163.8242
 110   2.0000      -1.166272       -31.7359
 111   2.0000      -1.163828       -31.6694
 112   2.0000      -1.147476       -31.2244
 113   2.0000      -1.135779       -30.9061
 114   2.0000      -1.050506       -28.5857
 115   2.0000      -1.048991       -28.5445
 116   2.0000      -1.032453       -28.0945
 117   2.0000      -1.028971       -27.9997
 118   2.0000      -1.025496       -27.9052
 119   2.0000      -1.024646       -27.8820
 120   2.0000      -1.014030       -27.5932
 121   2.0000      -1.013424       -27.5767
 122   2.0000      -1.011203       -27.5162
 123   2.0000      -1.010515       -27.4975
 124   2.0000      -1.009835       -27.4790
 125   2.0000      -1.007264       -27.4091
 126   2.0000      -0.999232       -27.1905
 127   2.0000      -0.998571       -27.1725
 128   2.0000      -0.995166       -27.0798
 129   2.0000      -0.986523       -26.8447
 130   2.0000      -0.970615       -26.4118
 131   2.0000      -0.967797       -26.3351
 132   2.0000      -0.961620       -26.1670
 133   2.0000      -0.959755       -26.1163
 134   2.0000      -0.930352       -25.3162
 135   2.0000      -0.922689       -25.1077
 136   2.0000      -0.913945       -24.8697
 137   2.0000      -0.906795       -24.6751
 138   2.0000      -0.903360       -24.5817
 139   2.0000      -0.886135       -24.1130
 140   2.0000      -0.885089       -24.0845
 141   2.0000      -0.883217       -24.0336
 142   2.0000      -0.874678       -23.8012
 143   2.0000      -0.869194       -23.6520
 144   2.0000      -0.862982       -23.4829
 145   2.0000      -0.861433       -23.4408
 146   2.0000      -0.858928       -23.3726
 147   2.0000      -0.855746       -23.2860
 148   2.0000      -0.849962       -23.1286
 149   2.0000      -0.843188       -22.9443
 150   2.0000      -0.819647       -22.3037
 151   2.0000      -0.816838       -22.2273
 152   2.0000      -0.806959       -21.9585
 153   2.0000      -0.799683       -21.7605
 154   2.0000      -0.786276       -21.3957
 155   2.0000      -0.781477       -21.2651
 156   2.0000      -0.776009       -21.1163
 157   2.0000      -0.772724       -21.0269
 158   2.0000      -0.767937       -20.8966
 159   2.0000      -0.762905       -20.7597
 160   2.0000      -0.750037       -20.4095
 161   2.0000      -0.734560       -19.9884
 162   2.0000      -0.715874       -19.4799
 163   2.0000      -0.709227       -19.2991
 164   2.0000      -0.707227       -19.2446
 165   2.0000      -0.697764       -18.9871
 166   2.0000      -0.693366       -18.8674
 167   2.0000      -0.691841       -18.8259
 168   2.0000      -0.685306       -18.6481
 169   2.0000      -0.682327       -18.5671
 170   2.0000      -0.677718       -18.4417
 171   2.0000      -0.676539       -18.4096
 172   2.0000      -0.674324       -18.3493
 173   2.0000      -0.670063       -18.2334
 174   2.0000      -0.666995       -18.1499
 175   2.0000      -0.647178       -17.6106
 176   2.0000      -0.644665       -17.5422
 177   2.0000      -0.638509       -17.3747
 178   2.0000      -0.636110       -17.3094
 179   2.0000      -0.629609       -17.1325
 180   2.0000      -0.627498       -17.0751
 181   2.0000      -0.622779       -16.9467
 182   2.0000      -0.622059       -16.9271
 183   2.0000      -0.620321       -16.8798
 184   2.0000      -0.616424       -16.7737
 185   2.0000      -0.611482       -16.6393
 186   2.0000      -0.606269       -16.4974
 187   2.0000      -0.603890       -16.4327
 188   2.0000      -0.598339       -16.2816
 189   2.0000      -0.598116       -16.2756
 190   2.0000      -0.577530       -15.7154
 191   2.0000      -0.573044       -15.5933
 192   2.0000      -0.572720       -15.5845
 193   2.0000      -0.570329       -15.5195
 194   2.0000      -0.564560       -15.3625
 195   2.0000      -0.564348       -15.3567
 196   2.0000      -0.554287       -15.0829
 197   2.0000      -0.553402       -15.0588
 198   2.0000      -0.549902       -14.9636
 199   2.0000      -0.549170       -14.9437
 200   2.0000      -0.546295       -14.8654
 201   2.0000      -0.543474       -14.7887
 202   2.0000      -0.543142       -14.7797
 203   2.0000      -0.542795       -14.7702
 204   2.0000      -0.540277       -14.7017
 205   2.0000      -0.530400       -14.4329
 206   2.0000      -0.525566       -14.3014
 207   2.0000      -0.521824       -14.1995
 208   2.0000      -0.520448       -14.1621
 209   2.0000      -0.517538       -14.0829
 210   2.0000      -0.515473       -14.0267
 211   2.0000      -0.511756       -13.9256
 212   2.0000      -0.510242       -13.8844
 213   2.0000      -0.509374       -13.8608
 214   2.0000      -0.507784       -13.8175
 215   2.0000      -0.505454       -13.7541
 216   2.0000      -0.504190       -13.7197
 217   2.0000      -0.502137       -13.6638
 218   2.0000      -0.500341       -13.6150
 219   2.0000      -0.498659       -13.5692
 220   2.0000      -0.496955       -13.5228
 221   2.0000      -0.495837       -13.4924
 222   2.0000      -0.491641       -13.3782
 223   2.0000      -0.489410       -13.3175
 224   2.0000      -0.487866       -13.2755
 225   2.0000      -0.484738       -13.1904
 226   2.0000      -0.483918       -13.1681
 227   2.0000      -0.479274       -13.0417
 228   2.0000      -0.478514       -13.0210
 229   2.0000      -0.477334       -12.9889
 230   2.0000      -0.474114       -12.9013
 231   2.0000      -0.472045       -12.8450
 232   2.0000      -0.468689       -12.7537
 233   2.0000      -0.465596       -12.6695
 234   2.0000      -0.464424       -12.6376
 235   2.0000      -0.463425       -12.6104
 236   2.0000      -0.463097       -12.6015
 237   2.0000      -0.459936       -12.5155
 238   2.0000      -0.458200       -12.4683
 239   2.0000      -0.455796       -12.4028
 240   2.0000      -0.453427       -12.3384
 241   2.0000      -0.453036       -12.3277
 242   2.0000      -0.450859       -12.2685
 243   2.0000      -0.450637       -12.2625
 244   2.0000      -0.447437       -12.1754
 245   2.0000      -0.446539       -12.1509
 246   2.0000      -0.446225       -12.1424
 247   2.0000      -0.445659       -12.1270
 248   2.0000      -0.444384       -12.0923
 249   2.0000      -0.443536       -12.0692
 250   2.0000      -0.442546       -12.0423
 251   2.0000      -0.442212       -12.0332
 252   2.0000      -0.441269       -12.0075
 253   2.0000      -0.441218       -12.0062
 254   2.0000      -0.440332       -11.9820
 255   2.0000      -0.433322       -11.7913
 256   2.0000      -0.432191       -11.7605
 257   2.0000      -0.430506       -11.7147
 258   2.0000      -0.430069       -11.7028
 259   2.0000      -0.429847       -11.6967
 260   2.0000      -0.428394       -11.6572
 261   2.0000      -0.423170       -11.5150
 262   2.0000      -0.422939       -11.5087
 263   2.0000      -0.421564       -11.4713
 264   2.0000      -0.416572       -11.3355
 265   2.0000      -0.414379       -11.2758
 266   2.0000      -0.414069       -11.2674
 267   2.0000      -0.413975       -11.2648
 268   2.0000      -0.410970       -11.1831
 269   2.0000      -0.407786       -11.0964
 270   2.0000      -0.394185       -10.7263
 271   2.0000      -0.389088       -10.5876
 272   2.0000      -0.373169       -10.1544
 273   2.0000      -0.364279        -9.9125
 274   2.0000      -0.354191        -9.6380
 275   2.0000      -0.353122        -9.6089
 276   2.0000      -0.349892        -9.5211
 277   2.0000      -0.347627        -9.4594
 278   2.0000      -0.346568        -9.4306
 279   2.0000      -0.345339        -9.3972
 280   2.0000      -0.340700        -9.2709
 281   2.0000      -0.338892        -9.2217
 282   2.0000      -0.329837        -8.9753
 283   2.0000      -0.326385        -8.8814
 284   2.0000      -0.321523        -8.7491
 285   2.0000      -0.318072        -8.6552
 286   2.0000      -0.313449        -8.5294
 287   2.0000      -0.304856        -8.2955
 288   2.0000      -0.268542        -7.3074
 289   2.0000      -0.268196        -7.2980
 290   2.0000      -0.234778        -6.3886
 291   0.0000      -0.113563        -3.0902
 292   0.0000      -0.109817        -2.9883
 293   0.0000      -0.085710        -2.3323
 294   0.0000      -0.083870        -2.2822
 295   0.0000      -0.075525        -2.0551

MULLIKEN ATOMIC CHARGES
-----------------------
   0 C :    0.149762
   1 O :   -0.183305
   2 C :   -0.169216
   3 C :   -0.000630
   4 C :    0.026492
   5 C :   -0.058613
   6 S :    0.211393
   7 C :    0.315098
   8 C :   -0.341291
   9 C :   -0.188435
  10 N :    0.158357
  11 C :   -0.182622
  12 N :    0.156165
  13 C :   -0.110105
  14 C :   -0.033730
  15 C :   -0.056815
  16 C :   -0.058764
  17 C :    0.043606
  18 C :   -0.069463
  19 S :    0.236984
  20 C :   -0.105813
  21 C :    0.025605
  22 C :    0.305244
  23 C :   -0.297934
  24 C :   -0.193574
  25 N :    0.185941
  26 C :   -0.187934
  27 N :    0.171562
  28 C :   -0.069064
  29 C :   -0.035345
  30 S :    0.198066
  31 C :   -0.001812
  32 C :   -0.072211
  33 C :    0.060686
  34 C :   -0.111402
  35 S :    0.087112
  36 C :    0.111918
  37 O :   -0.308111
  38 C :    0.163094
  39 C :    0.053994
  40 C :   -0.107004
  41 C :    0.106581
  42 O :   -0.311895
  43 C :    0.165801
  44 S :    0.069698
  45 C :   -0.003371
  46 C :   -0.059684
  47 C :   -0.036232
  48 C :   -0.051440
  49 C :    0.020909
  50 C :   -0.111975
  51 S :    0.195319
  52 C :   -0.069767
  53 C :   -0.008154
  54 C :    0.306281
  55 C :   -0.287397
  56 C :   -0.186541
  57 N :    0.173864
  58 C :   -0.187338
  59 N :    0.172596
  60 C :   -0.002878
  61 C :   -0.110479
  62 S :    0.207876
  63 C :    0.077900
  64 C :   -0.150904
  65 C :    0.114940
  66 O :   -0.143630
  67 C :   -0.153836
  68 C :   -0.021195
  69 C :    0.277312
  70 C :   -0.320100
  71 C :   -0.172313
  72 N :    0.155905
  73 C :   -0.199092
  74 N :    0.170447
  75 C :    0.033889
  76 C :   -0.059018
  77 S :    0.210185
  78 H :    0.018580
  79 H :    0.045012
  80 H :    0.015862
  81 H :    0.026729
  82 H :    0.014926
  83 H :   -0.008756
  84 H :    0.039468
  85 H :    0.047465
  86 H :    0.039390
  87 H :    0.036917
  88 H :    0.038238
  89 H :    0.042140
  90 H :   -0.005098
  91 H :    0.008800
  92 H :    0.024259
  93 H :    0.020877
  94 H :    0.021021
  95 H :    0.044022
Sum of atomic charges:   -0.0000000

LOEWDIN ATOMIC CHARGES
----------------------
   0 C :    0.068963
   1 O :   -0.173208
   2 C :   -0.211384
   3 C :   -0.037570
   4 C :   -0.043233
   5 C :   -0.149123
   6 S :    0.502845
   7 C :    0.076351
   8 C :   -0.135180
   9 C :   -0.016733
  10 N :   -0.050286
  11 C :   -0.024007
  12 N :   -0.041873
  13 C :   -0.110468
  14 C :    0.050092
  15 C :   -0.187989
  16 C :    0.011209
  17 C :   -0.080941
  18 C :   -0.165110
  19 S :    0.543012
  20 C :   -0.188902
  21 C :   -0.054209
  22 C :    0.079032
  23 C :   -0.100363
  24 C :   -0.020111
  25 N :   -0.024151
  26 C :   -0.015847
  27 N :   -0.032653
  28 C :   -0.039541
  29 C :   -0.162870
  30 S :    0.485942
  31 C :   -0.177735
  32 C :   -0.041492
  33 C :   -0.057918
  34 C :   -0.181909
  35 S :    0.407803
  36 C :    0.028708
  37 O :   -0.098194
  38 C :    0.067686
  39 C :   -0.058009
  40 C :   -0.181920
  41 C :    0.026293
  42 O :   -0.101471
  43 C :    0.066524
  44 S :    0.385808
  45 C :   -0.179752
  46 C :   -0.027809
  47 C :   -0.167721
  48 C :   -0.025015
  49 C :   -0.054835
  50 C :   -0.192704
  51 S :    0.476308
  52 C :   -0.156176
  53 C :   -0.070667
  54 C :    0.083513
  55 C :   -0.097924
  56 C :   -0.016281
  57 N :   -0.030761
  58 C :   -0.013261
  59 N :   -0.031828
  60 C :    0.008753
  61 C :   -0.185329
  62 S :    0.493659
  63 C :    0.036922
  64 C :   -0.089801
  65 C :    0.066467
  66 O :   -0.143725
  67 C :   -0.212927
  68 C :   -0.035405
  69 C :    0.065768
  70 C :   -0.134299
  71 C :   -0.017162
  72 N :   -0.045487
  73 C :   -0.017061
  74 N :   -0.043318
  75 C :   -0.043744
  76 C :   -0.147903
  77 S :    0.502184
  78 H :    0.044086
  79 H :    0.031818
  80 H :    0.053939
  81 H :    0.047561
  82 H :    0.037521
  83 H :    0.029658
  84 H :    0.014178
  85 H :    0.034515
  86 H :    0.015220
  87 H :    0.014447
  88 H :    0.012994
  89 H :    0.032290
  90 H :    0.037146
  91 H :    0.041885
  92 H :    0.042199
  93 H :    0.045571
  94 H :    0.044929
  95 H :    0.031494

  Mayer bond orders larger than 0.100000
B(  0-C ,  1-O ) :   2.1025 B(  0-C ,  2-C ) :   1.0819 B(  0-C , 13-C ) :   0.9731
B(  2-C ,  3-C ) :   1.4632 B(  2-C ,  6-S ) :   1.1238 B(  3-C ,  4-C ) :   1.2741
B(  3-C ,  7-C ) :   0.9979 B(  4-C ,  5-C ) :   1.5385 B(  4-C , 78-H ) :   0.9950
B(  5-C ,  6-S ) :   1.1881 B(  5-C , 79-H ) :   0.9621 B(  7-C ,  8-C ) :   1.6503
B(  7-C , 13-C ) :   1.0724 B(  8-C ,  9-C ) :   1.1469 B(  8-C , 11-C ) :   1.1347
B(  9-C , 10-N ) :   2.9878 B( 11-C , 12-N ) :   2.9655 B( 13-C , 14-C ) :   1.5344
B( 14-C , 15-C ) :   1.2551 B( 14-C , 80-H ) :   0.9408 B( 15-C , 16-C ) :   1.3398
B( 15-C , 19-S ) :   1.0683 B( 16-C , 17-C ) :   1.3269 B( 16-C , 81-H ) :   1.0078
B( 17-C , 18-C ) :   1.3615 B( 17-C , 22-C ) :   0.9863 B( 18-C , 19-S ) :   1.1272
B( 18-C , 20-C ) :   1.2014 B( 20-C , 21-C ) :   1.4402 B( 20-C , 30-S ) :   1.1111
B( 21-C , 22-C ) :   0.9966 B( 21-C , 28-C ) :   1.2901 B( 22-C , 23-C ) :   1.7153
B( 23-C , 24-C ) :   1.1359 B( 23-C , 26-C ) :   1.1332 B( 24-C , 25-N ) :   2.9959
B( 26-C , 27-N ) :   2.9901 B( 28-C , 29-C ) :   1.4554 B( 28-C , 82-H ) :   0.9906
B( 29-C , 30-S ) :   1.1168 B( 29-C , 31-C ) :   1.1616 B( 31-C , 32-C ) :   1.5287
B( 31-C , 35-S ) :   1.0590 B( 32-C , 33-C ) :   1.1909 B( 32-C , 83-H ) :   1.0021
B( 33-C , 34-C ) :   1.3166 B( 33-C , 39-C ) :   0.1012 B( 33-C , 41-C ) :   1.2905
B( 34-C , 35-S ) :   1.0068 B( 34-C , 36-C ) :   1.3673 B( 36-C , 37-O ) :   1.2265
B( 36-C , 39-C ) :   1.2873 B( 37-O , 38-C ) :   0.9403 B( 38-C , 84-H ) :   0.9670
B( 38-C , 85-H ) :   0.9763 B( 38-C , 86-H ) :   0.9678 B( 39-C , 40-C ) :   1.3145
B( 39-C , 46-C ) :   1.1823 B( 40-C , 41-C ) :   1.3724 B( 40-C , 44-S ) :   1.0102
B( 41-C , 42-O ) :   1.2210 B( 42-O , 43-C ) :   0.9453 B( 43-C , 87-H ) :   0.9676
B( 43-C , 88-H ) :   0.9667 B( 43-C , 89-H ) :   0.9764 B( 44-S , 45-C ) :   1.0438
B( 45-C , 46-C ) :   1.5565 B( 45-C , 47-C ) :   1.1142 B( 46-C , 90-H ) :   1.0067
B( 47-C , 48-C ) :   1.4807 B( 47-C , 51-S ) :   1.1138 B( 48-C , 49-C ) :   1.2965
B( 48-C , 91-H ) :   0.9952 B( 49-C , 50-C ) :   1.4379 B( 49-C , 54-C ) :   0.9903
B( 50-C , 51-S ) :   1.1116 B( 50-C , 52-C ) :   1.1986 B( 52-C , 53-C ) :   1.4127
B( 52-C , 62-S ) :   1.1546 B( 53-C , 54-C ) :   1.0016 B( 53-C , 60-C ) :   1.3538
B( 54-C , 55-C ) :   1.7166 B( 55-C , 56-C ) :   1.1323 B( 55-C , 58-C ) :   1.1357
B( 56-C , 57-N ) :   2.9908 B( 58-C , 59-N ) :   2.9841 B( 60-C , 61-C ) :   1.4044
B( 60-C , 92-H ) :   0.9793 B( 61-C , 62-S ) :   1.0839 B( 61-C , 63-C ) :   1.1268
B( 63-C , 64-C ) :   1.7025 B( 63-C , 93-H ) :   0.9270 B( 64-C , 65-C ) :   0.9452
B( 64-C , 69-C ) :   1.0251 B( 65-C , 66-O ) :   2.2359 B( 65-C , 67-C ) :   1.0309
B( 67-C , 68-C ) :   1.4550 B( 67-C , 77-S ) :   1.1282 B( 68-C , 69-C ) :   1.0182
B( 68-C , 75-C ) :   1.2775 B( 69-C , 70-C ) :   1.6617 B( 70-C , 71-C ) :   1.1254
B( 70-C , 73-C ) :   1.1637 B( 71-C , 72-N ) :   2.9981 B( 73-C , 74-N ) :   2.9996
B( 75-C , 76-C ) :   1.5372 B( 75-C , 94-H ) :   0.9952 B( 76-C , 77-S ) :   1.1896
B( 76-C , 95-H ) :   0.9622

-----------------------------------------------------------------------------
         ABSORPTION SPECTRUM VIA TRANSITION ELECTRIC DIPOLE MOMENTS
-----------------------------------------------------------------------------
State   Energy  Wavelength   fosc         T2         TX        TY        TZ
        (cm-1)    (nm)                  (au**2)     (au)      (au)      (au)
-----------------------------------------------------------------------------
   0   11757.4    850.5   0.617636288  17.29409   3.65282   1.93449  -0.45690
   1   12639.3    791.2   0.065888389   1.71618   1.24104   0.33186   0.25665
   2   17380.2    575.4   0.125929341   2.38533   1.23484   0.76286  -0.52778
   3   17818.0    561.2   0.023889724   0.44140  -0.61064  -0.25299  -0.06716
   4   19884.7    502.9   1.340416725  22.19199   4.31906   1.84503  -0.36550
   5   20986.7    476.5   0.529456233   8.30541   2.64808   1.07469   0.37168
   6   22532.6    443.8   0.283173029   4.13729  -1.76378  -1.01307   0.00842
   7   24055.5    415.7   0.176934610   2.42144   0.43822  -0.52627   1.39730
   8   24370.6    410.3   0.238151790   3.21709  -1.42030  -1.05174   0.30608
   9   24777.6    403.6   0.003893814   0.05174   0.11506   0.13721  -0.14025
  10   25944.9    385.4   0.215375156   2.73287  -1.31168  -0.19586  -0.98692
  11   26166.8    382.2   0.084384700   1.06167  -0.97623  -0.32960   0.00168
  12   26791.0    373.3   0.244276315   3.00170  -1.49572  -0.69793   0.52670
  13   27572.5    362.7   0.021900690   0.26149  -0.34724   0.22040  -0.30388
  14   28176.5    354.9   0.058833877   0.68741   0.72434   0.40293  -0.01975
  15   28368.8    352.5   0.165354704   1.91890   1.17536   0.52599   0.51065
  16   29238.1    342.0   0.037090419   0.41763  -0.43750   0.08284  -0.46836
  17   30055.0    332.7   0.326060010   3.57154   1.25126   1.09728  -0.89548
  18   30559.0    327.2   0.034773911   0.37462   0.57405   0.18947  -0.09582
  19   30702.8    325.7   0.015847500   0.16993  -0.14466  -0.12214  -0.36617
  20   30879.3    323.8   0.289213853   3.08338  -0.85839  -0.28536  -1.50503
  21   30960.8    323.0   0.089035605   0.94673  -0.47559  -0.59548  -0.60493
  22   31356.2    318.9   0.368388681   3.86775  -0.19742  -0.68624   1.83244
  23   31628.1    316.2   0.231921336   2.41404  -0.41631   0.23909  -1.47769
  24   31911.6    313.4   0.007302167   0.07533  -0.15195  -0.15971  -0.16351
  25   32078.0    311.7   0.161187876   1.65425   0.58916   0.09773   1.13912
  26   32407.8    308.6   0.057855156   0.58772   0.16210  -0.74720   0.05604
  27   32934.5    303.6   0.001520976   0.01520   0.00276   0.12318  -0.00465
  28   33046.2    302.6   0.219029636   2.18201  -1.11855  -0.89282  -0.36568
  29   33263.7    300.6   0.283159158   2.80244   1.52976   0.50469   0.45559
  30   33434.4    299.1   0.083369559   0.82090   0.08266   0.51536  -0.74059
  31   33912.7    294.9   0.005573626   0.05411  -0.13361  -0.18951  -0.01841
  32   34090.8    293.3   0.141475315   1.36621  -0.36805   0.13601  -1.10102
  33   34386.9    290.8   0.017577181   0.16828  -0.10174   0.30881  -0.25012
  34   34738.0    287.9   0.035572119   0.33712  -0.55112  -0.15270   0.10032
  35   35054.4    285.3   0.288946433   2.71363  -1.07807  -0.70202   1.02886
  36   35147.1    284.5   0.185488273   1.73741  -1.21710  -0.50447   0.03979
  37   35272.9    283.5   0.180321867   1.68300  -0.39476  -0.30724   1.19698
  38   35442.7    282.1   0.264213562   2.45417   0.72752   0.21800  -1.37016
  39   35774.4    279.5   0.127896770   1.17696  -0.59697  -0.89771   0.12123
  40   35823.3    279.1   0.030518390   0.28046   0.15696   0.07490   0.50021
  41   36088.3    277.1   0.668346037   6.09692   0.22436   1.93906  -1.51216
  42   36203.7    276.2   0.112911115   1.02674   0.30940   0.24762   0.93258
  43   36337.1    275.2   0.005048639   0.04574   0.04951  -0.12667   0.16506
  44   36492.5    274.0   0.075357811   0.67983   0.24380  -0.00076   0.78765
  45   36607.9    273.2   0.146734548   1.31957  -0.22755   0.80107  -0.79125
  46   37062.0    269.8   0.038525789   0.34221   0.20887   0.28550  -0.46592
  47   37358.1    267.7   0.005869757   0.05173   0.08332   0.16058  -0.13784
  48   37486.4    266.8   0.040239495   0.35339  -0.49548  -0.23038  -0.23414
  49   37803.1    264.5   0.001986658   0.01730  -0.03502   0.03128  -0.12287
  50   38100.0    262.5   0.021569848   0.18638   0.27334   0.24710   0.22497
  51   38383.2    260.5   0.031128544   0.26699   0.32935   0.13863   0.37323
  52   38599.2    259.1   0.043858296   0.37407   0.18201   0.34322  -0.47237
  53   38876.0    257.2   0.050560363   0.42816   0.55842   0.34100  -0.00671
  54   39032.4    256.2   0.015875829   0.13390  -0.33383  -0.12695  -0.07964
  55   39225.2    254.9   0.008046843   0.06754  -0.24324  -0.08410  -0.03600
  56   39351.2    254.1   0.033728150   0.28217   0.37658   0.18081   0.32812
  57   39576.9    252.7   0.019506974   0.16226   0.36716   0.05369   0.15677
  58   39667.4    252.1   0.014728336   0.12223  -0.20824  -0.24118   0.14389
  59   39709.9    251.8   0.005812143   0.04819  -0.19754  -0.06788  -0.06749
  60   39986.4    250.1   0.016349647   0.13461  -0.28762  -0.12034  -0.19339
  61   40324.5    248.0   0.085625832   0.69906   0.49488   0.09855   0.66666

FINAL SINGLE POINT ENERGY     -6140.505463964859

DIPOLE MOMENT
-------------
                                X             Y             Z
Electronic contribution:     -0.73423       3.27162      -6.76325
Nuclear contribution   :      0.80489      -1.22970       2.78162
                        -----------------------------------------
Total Dipole Moment    :      0.07066       2.04192      -3.98162
                        -----------------------------------------
Magnitude (a.u.)       :      4.47524
Magnitude (Debye)      :     11.37516

Rotational constants in cm-1:     0.002310     0.000134     0.000127
Rotational constants in MHz :    69.263640     4.003450     3.814993

                             ****ORCA TERMINATED NORMALLY****
TOTAL RUN TIME: 0 days 0 hours 10 minutes 8 seconds 969 msec
