                         Program Version 4.2.0 -  RELEASE  -
|  1> # ORCA input file
|  2> # SCF done       -198.292110183989          0.000956391894
|  3> ! CAM-B3LYP def2-SVP def2/J RIJCOSX Grid4 TightSCF
|  4> %maxcore 5000
|  5> %tddft
|  6>     Mode sTDDFT
|  7>     Ethresh 5.0
|  8>     maxcore 5000
|  9> end
| 10>
| 11> %pal
| 12>   nprocs 6
| 13>   end
| 14> * xyz 0 1
| 15>    C        0.28895        -0.79566         1.19855
| 16>    O        0.81960        -1.43607         2.07970
| 17>    C       -0.95406        -0.03754         1.28044
| 18>    C       -1.24436         0.59921         0.08118
| 19>    C       -2.43823         1.34430         0.13999
| 20>    C       -3.00876         1.25033         1.37517
| 21>    S       -2.12637         0.26741         2.48381
| 22>    C       -0.20496         0.28815        -0.87838
| 23>    C       -0.20844         0.71120        -2.18177
| 24>    C       -1.24125         1.52927        -2.68897
| 25>    N       -2.06173         2.20360        -3.12280
| 26>    C        0.74851         0.40385        -3.16937
| 27>    N        1.47826         0.19108        -4.03066
| 28>    C        0.76792        -0.55829        -0.19596
| 29>    C        1.94694        -0.95311        -0.76041
| 30>    C        2.97630        -1.79062        -0.28305
| 31>    C        3.07441        -2.64356         0.80854
| 32>    C        4.30168        -3.29112         0.86048
| 33>    C        5.16600        -2.92825        -0.19828
| 34>    S        4.45029        -1.81930        -1.26732
| 35>    C        6.39595        -3.59996        -0.02407
| 36>    C        6.32075        -4.39238         1.13625
| 37>    C        4.99274        -4.23974         1.71798
| 38>    C        4.50359        -4.87636         2.81924
| 39>    C        3.17815        -4.71391         3.27963
| 40>    N        2.10319        -4.62386         3.66619
| 41>    C        5.29081        -5.77484         3.57232
| 42>    N        5.93419        -6.49837         4.18590
| 43>    C        7.50148        -5.08065         1.40314
| 44>    C        8.47960        -4.81581         0.45552
| 45>    S        7.92112        -3.70844        -0.78722
| 46>    C        9.80749        -5.30888         0.42247
| 47>    C       10.43165        -6.12921         1.34735
| 48>    C       11.75913        -6.38369         1.00797
| 49>    C       12.15205        -5.75610        -0.19664
| 50>    S       10.88219        -4.85342        -0.89656
| 51>    C       13.50248        -6.06117        -0.45185
| 52>    C       13.97523        -6.88748         0.59235
| 53>    C       12.89447        -7.10271         1.54668
| 54>    C       12.96833        -7.80039         2.71800
| 55>    C       11.87618        -7.90314         3.60401
| 56>    N       11.00172        -7.99348         4.33998
| 57>    C       14.14595        -8.44249         3.15155
| 58>    N       15.09117        -8.97448         3.52621
| 59>    C       15.30220        -7.24587         0.45563
| 60>    C       15.88666        -6.70426        -0.69344
| 61>    S       14.72391        -5.72978        -1.60264
| 62>    C       17.19335        -6.82457        -1.18054
| 63>    C       18.22041        -7.56608        -0.63634
| 64>    C       19.53602        -7.67152        -1.15138
| 65>    C       20.35922        -8.49436        -0.43678
| 66>    C       19.73546        -9.08445         0.68076
| 67>    S       18.08025        -8.55223         0.80324
| 68>    C       20.21239        -9.98596         1.62016
| 69>    C       21.46837       -10.62118         1.73184
| 70>    C       21.52922       -11.49607         2.77578
| 71>    C       20.32567       -11.60329         3.52483
| 72>    S       19.12439       -10.55162         2.85745
| 73>    C       20.17753       -12.34443         4.68614
| 74>    C       19.08124       -12.44609         5.54459
| 75>    C       17.73653       -12.22304         5.29796
| 76>    C       16.70847       -12.03894         6.29885
| 77>    C       16.88818       -11.93142         7.65652
| 78>    C       15.83834       -11.75242         8.58037
| 79>    N       15.02981       -11.62077         9.38515
| 80>    C       18.12803       -11.97565         8.32562
| 81>    N       19.09382       -11.98169         8.94820
| 82>    C       15.42814       -11.90247         5.60600
| 83>    C       15.65408       -12.05230         4.21687
| 84>    C       17.08675       -12.29472         3.98406
| 85>    O       17.61276       -12.55384         2.91314
| 86>    C       14.65596       -11.93458         3.28333
| 87>    C       13.36669       -11.64627         3.74358
| 88>    C       13.14490       -11.50535         5.13271
| 89>    C       14.15836       -11.63150         6.07752
| 90>    S       11.48129       -11.13721         5.47947
| 91>    C       11.11637       -11.16159         3.77769
| 92>    C       12.18175       -11.43762         2.98727
| 93>   Br        9.37513       -10.80577         3.18534
| 94>    H       -2.85471         1.91623        -0.66800
| 95>    H       -3.91890         1.71274         1.70406
| 96>    H        2.15623        -0.54998        -1.74491
| 97>    H        2.28060        -2.75974         1.52397
| 98>    H        7.65504        -5.73902         2.23779
| 99>    H        9.93760        -6.51273         2.22087
|100>    H       15.82950        -7.86308         1.15653
|101>    H       17.42078        -6.28043        -2.08820
|102>    H       19.83366        -7.13902        -2.03754
|103>    H       21.38599        -8.69199        -0.68691
|104>    H       22.27609       -10.42622         1.04938
|105>    H       22.39832       -12.07715         3.02982
|106>    H       21.08617       -12.82435         5.03150
|107>    H       19.33753       -12.75252         6.55205
|108>    H       14.86492       -12.04493         2.23092
|109>    H       13.93794       -11.50742         7.12464
|110>    H       12.13358       -11.49678         1.91474
|111> *
|112>
|113>                          ****END OF INPUT****

CARTESIAN COORDINATES (ANGSTROEM)
---------------------------------
  C      0.288950   -0.795660    1.198550
  O      0.819600   -1.436070    2.079700
  C     -0.954060   -0.037540    1.280440
  C     -1.244360    0.599210    0.081180
  C     -2.438230    1.344300    0.139990
  C     -3.008760    1.250330    1.375170
  S     -2.126370    0.267410    2.483810
  C     -0.204960    0.288150   -0.878380
  C     -0.208440    0.711200   -2.181770
  C     -1.241250    1.529270   -2.688970
  N     -2.061730    2.203600   -3.122800
  C      0.748510    0.403850   -3.169370
  N      1.478260    0.191080   -4.030660
  C      0.767920   -0.558290   -0.195960
  C      1.946940   -0.953110   -0.760410
  C      2.976300   -1.790620   -0.283050
  C      3.074410   -2.643560    0.808540
  C      4.301680   -3.291120    0.860480
  C      5.166000   -2.928250   -0.198280
  S      4.450290   -1.819300   -1.267320
  C      6.395950   -3.599960   -0.024070
  C      6.320750   -4.392380    1.136250
  C      4.992740   -4.239740    1.717980
  C      4.503590   -4.876360    2.819240
  C      3.178150   -4.713910    3.279630
  N      2.103190   -4.623860    3.666190
  C      5.290810   -5.774840    3.572320
  N      5.934190   -6.498370    4.185900
  C      7.501480   -5.080650    1.403140
  C      8.479600   -4.815810    0.455520
  S      7.921120   -3.708440   -0.787220
  C      9.807490   -5.308880    0.422470
  C     10.431650   -6.129210    1.347350
  C     11.759130   -6.383690    1.007970
  C     12.152050   -5.756100   -0.196640
  S     10.882190   -4.853420   -0.896560
  C     13.502480   -6.061170   -0.451850
  C     13.975230   -6.887480    0.592350
  C     12.894470   -7.102710    1.546680
  C     12.968330   -7.800390    2.718000
  C     11.876180   -7.903140    3.604010
  N     11.001720   -7.993480    4.339980
  C     14.145950   -8.442490    3.151550
  N     15.091170   -8.974480    3.526210
  C     15.302200   -7.245870    0.455630
  C     15.886660   -6.704260   -0.693440
  S     14.723910   -5.729780   -1.602640
  C     17.193350   -6.824570   -1.180540
  C     18.220410   -7.566080   -0.636340
  C     19.536020   -7.671520   -1.151380
  C     20.359220   -8.494360   -0.436780
  C     19.735460   -9.084450    0.680760
  S     18.080250   -8.552230    0.803240
  C     20.212390   -9.985960    1.620160
  C     21.468370  -10.621180    1.731840
  C     21.529220  -11.496070    2.775780
  C     20.325670  -11.603290    3.524830
  S     19.124390  -10.551620    2.857450
  C     20.177530  -12.344430    4.686140
  C     19.081240  -12.446090    5.544590
  C     17.736530  -12.223040    5.297960
  C     16.708470  -12.038940    6.298850
  C     16.888180  -11.931420    7.656520
  C     15.838340  -11.752420    8.580370
  N     15.029810  -11.620770    9.385150
  C     18.128030  -11.975650    8.325620
  N     19.093820  -11.981690    8.948200
  C     15.428140  -11.902470    5.606000
  C     15.654080  -12.052300    4.216870
  C     17.086750  -12.294720    3.984060
  O     17.612760  -12.553840    2.913140
  C     14.655960  -11.934580    3.283330
  C     13.366690  -11.646270    3.743580
  C     13.144900  -11.505350    5.132710
  C     14.158360  -11.631500    6.077520
  S     11.481290  -11.137210    5.479470
  C     11.116370  -11.161590    3.777690
  C     12.181750  -11.437620    2.987270
  Br     9.375130  -10.805770    3.185340
  H     -2.854710    1.916230   -0.668000
  H     -3.918900    1.712740    1.704060
  H      2.156230   -0.549980   -1.744910
  H      2.280600   -2.759740    1.523970
  H      7.655040   -5.739020    2.237790
  H      9.937600   -6.512730    2.220870
  H     15.829500   -7.863080    1.156530
  H     17.420780   -6.280430   -2.088200
  H     19.833660   -7.139020   -2.037540
  H     21.385990   -8.691990   -0.686910
  H     22.276090  -10.426220    1.049380
  H     22.398320  -12.077150    3.029820
  H     21.086170  -12.824350    5.031500
  H     19.337530  -12.752520    6.552050
  H     14.864920  -12.044930    2.230920
  H     13.937940  -11.507420    7.124640
  H     12.133580  -11.496780    1.914740

 Total Charge           Charge          ....    0
 Multiplicity           Mult            ....    1
 Number of Electrons    NEL             ....  612
 Basis Dimension        Dim             .... 1241

ORBITAL ENERGIES
----------------

  NO   OCC          E(Eh)            E(eV)
   0   2.0000    -482.875034    -13139.6977
   1   2.0000     -89.003883     -2421.9188
   2   2.0000     -89.003742     -2421.9149
   3   2.0000     -88.999688     -2421.8046
   4   2.0000     -88.999391     -2421.7965
   5   2.0000     -88.990856     -2421.5643
   6   2.0000     -88.969378     -2420.9799
   7   2.0000     -88.962226     -2420.7852
   8   2.0000     -88.959474     -2420.7103
   9   2.0000     -62.552607     -1702.1430
  10   2.0000     -56.386542     -1534.3558
  11   2.0000     -56.383888     -1534.2836
  12   2.0000     -56.383791     -1534.2809
  13   2.0000     -19.225087      -523.1412
  14   2.0000     -19.197870      -522.4006
  15   2.0000     -14.439595      -392.9214
  16   2.0000     -14.436654      -392.8413
  17   2.0000     -14.436123      -392.8269
  18   2.0000     -14.433077      -392.7440
  19   2.0000     -14.424753      -392.5175
  20   2.0000     -14.418916      -392.3586
  21   2.0000     -14.399784      -391.8380
  22   2.0000     -14.398934      -391.8149
  23   2.0000     -10.383877      -282.5597
  24   2.0000     -10.375387      -282.3286
  25   2.0000     -10.373357      -282.2734
  26   2.0000     -10.360424      -281.9215
  27   2.0000     -10.359269      -281.8901
  28   2.0000     -10.350517      -281.6519
  29   2.0000     -10.349931      -281.6359
  30   2.0000     -10.349537      -281.6252
  31   2.0000     -10.347354      -281.5658
  32   2.0000     -10.346503      -281.5427
  33   2.0000     -10.346396      -281.5398
  34   2.0000     -10.343077      -281.4494
  35   2.0000     -10.342852      -281.4433
  36   2.0000     -10.342785      -281.4415
  37   2.0000     -10.342193      -281.4254
  38   2.0000     -10.338660      -281.3292
  39   2.0000     -10.338030      -281.3121
  40   2.0000     -10.337708      -281.3033
  41   2.0000     -10.335706      -281.2489
  42   2.0000     -10.335470      -281.2424
  43   2.0000     -10.332684      -281.1666
  44   2.0000     -10.331877      -281.1447
  45   2.0000     -10.331840      -281.1437
  46   2.0000     -10.330697      -281.1126
  47   2.0000     -10.327330      -281.0209
  48   2.0000     -10.324233      -280.9367
  49   2.0000     -10.324225      -280.9364
  50   2.0000     -10.323666      -280.9212
  51   2.0000     -10.323469      -280.9159
  52   2.0000     -10.322967      -280.9022
  53   2.0000     -10.321614      -280.8654
  54   2.0000     -10.319668      -280.8124
  55   2.0000     -10.318371      -280.7772
  56   2.0000     -10.318163      -280.7715
  57   2.0000     -10.316253      -280.7195
  58   2.0000     -10.315599      -280.7017
  59   2.0000     -10.315278      -280.6930
  60   2.0000     -10.313949      -280.6568
  61   2.0000     -10.313933      -280.6564
  62   2.0000     -10.312090      -280.6062
  63   2.0000     -10.312067      -280.6056
  64   2.0000     -10.312063      -280.6055
  65   2.0000     -10.309722      -280.5418
  66   2.0000     -10.309403      -280.5331
  67   2.0000     -10.308961      -280.5211
  68   2.0000     -10.308613      -280.5116
  69   2.0000     -10.303481      -280.3720
  70   2.0000     -10.302593      -280.3478
  71   2.0000     -10.301226      -280.3106
  72   2.0000     -10.301205      -280.3100
  73   2.0000     -10.296122      -280.1717
  74   2.0000     -10.294905      -280.1386
  75   2.0000     -10.291749      -280.0527
  76   2.0000     -10.289994      -280.0050
  77   2.0000     -10.289169      -279.9825
  78   2.0000     -10.285884      -279.8931
  79   2.0000     -10.284460      -279.8544
  80   2.0000     -10.283203      -279.8202
  81   2.0000     -10.278643      -279.6961
  82   2.0000     -10.273318      -279.5512
  83   2.0000      -8.781999      -238.9703
  84   2.0000      -8.098746      -220.3781
  85   2.0000      -8.098556      -220.3729
  86   2.0000      -8.094225      -220.2550
  87   2.0000      -8.094158      -220.2532
  88   2.0000      -8.085811      -220.0261
  89   2.0000      -8.065295      -219.4678
  90   2.0000      -8.057929      -219.2674
  91   2.0000      -8.054964      -219.1867
  92   2.0000      -6.618228      -180.0911
  93   2.0000      -6.603801      -179.6985
  94   2.0000      -6.603544      -179.6916
  95   2.0000      -6.068078      -165.1208
  96   2.0000      -6.067888      -165.1156
  97   2.0000      -6.063868      -165.0062
  98   2.0000      -6.063697      -165.0016
  99   2.0000      -6.063493      -164.9960
 100   2.0000      -6.063271      -164.9900
 101   2.0000      -6.060921      -164.9261
 102   2.0000      -6.060740      -164.9211
 103   2.0000      -6.059430      -164.8855
 104   2.0000      -6.059138      -164.8775
 105   2.0000      -6.056689      -164.8109
 106   2.0000      -6.056469      -164.8049
 107   2.0000      -6.054958      -164.7638
 108   2.0000      -6.050510      -164.6427
 109   2.0000      -6.048597      -164.5907
 110   2.0000      -6.035028      -164.2215
 111   2.0000      -6.030793      -164.1062
 112   2.0000      -6.027606      -164.0195
 113   2.0000      -6.026369      -163.9858
 114   2.0000      -6.024458      -163.9338
 115   2.0000      -6.023349      -163.9037
 116   2.0000      -6.019994      -163.8124
 117   2.0000      -6.019184      -163.7903
 118   2.0000      -6.016656      -163.7215
 119   2.0000      -2.734144       -74.3998
 120   2.0000      -2.730081       -74.2893
 121   2.0000      -2.729876       -74.2837
 122   2.0000      -2.718404       -73.9715
 123   2.0000      -2.718398       -73.9714
 124   2.0000      -1.142332       -31.0844
 125   2.0000      -1.111991       -30.2588
 126   2.0000      -1.057585       -28.7783
 127   2.0000      -1.054020       -28.6814
 128   2.0000      -1.031741       -28.0751
 129   2.0000      -1.030937       -28.0532
 130   2.0000      -1.027548       -27.9610
 131   2.0000      -1.019420       -27.7398
 132   2.0000      -1.015515       -27.6336
 133   2.0000      -1.014907       -27.6170
 134   2.0000      -1.014556       -27.6075
 135   2.0000      -1.011183       -27.5157
 136   2.0000      -1.007160       -27.4062
 137   2.0000      -1.002486       -27.2790
 138   2.0000      -0.999877       -27.2080
 139   2.0000      -0.998263       -27.1641
 140   2.0000      -0.990781       -26.9605
 141   2.0000      -0.978281       -26.6204
 142   2.0000      -0.974523       -26.5181
 143   2.0000      -0.972941       -26.4751
 144   2.0000      -0.968020       -26.3412
 145   2.0000      -0.962745       -26.1976
 146   2.0000      -0.933273       -25.3956
 147   2.0000      -0.928701       -25.2712
 148   2.0000      -0.923901       -25.1406
 149   2.0000      -0.909755       -24.7557
 150   2.0000      -0.906147       -24.6575
 151   2.0000      -0.895035       -24.3551
 152   2.0000      -0.893109       -24.3027
 153   2.0000      -0.887547       -24.1514
 154   2.0000      -0.885479       -24.0951
 155   2.0000      -0.875770       -23.8309
 156   2.0000      -0.871012       -23.7015
 157   2.0000      -0.870588       -23.6899
 158   2.0000      -0.866881       -23.5890
 159   2.0000      -0.863812       -23.5055
 160   2.0000      -0.862233       -23.4625
 161   2.0000      -0.857700       -23.3392
 162   2.0000      -0.842155       -22.9162
 163   2.0000      -0.838484       -22.8163
 164   2.0000      -0.828912       -22.5558
 165   2.0000      -0.814804       -22.1720
 166   2.0000      -0.808358       -21.9965
 167   2.0000      -0.799828       -21.7644
 168   2.0000      -0.787950       -21.4412
 169   2.0000      -0.783324       -21.3153
 170   2.0000      -0.775356       -21.0985
 171   2.0000      -0.769561       -20.9408
 172   2.0000      -0.756035       -20.5727
 173   2.0000      -0.743597       -20.2343
 174   2.0000      -0.737722       -20.0744
 175   2.0000      -0.725038       -19.7293
 176   2.0000      -0.713170       -19.4063
 177   2.0000      -0.709872       -19.3166
 178   2.0000      -0.702050       -19.1038
 179   2.0000      -0.698664       -19.0116
 180   2.0000      -0.694592       -18.9008
 181   2.0000      -0.690432       -18.7876
 182   2.0000      -0.684697       -18.6316
 183   2.0000      -0.680679       -18.5222
 184   2.0000      -0.676575       -18.4105
 185   2.0000      -0.673679       -18.3317
 186   2.0000      -0.670848       -18.2547
 187   2.0000      -0.661553       -18.0018
 188   2.0000      -0.650929       -17.7127
 189   2.0000      -0.647907       -17.6304
 190   2.0000      -0.647288       -17.6136
 191   2.0000      -0.643982       -17.5237
 192   2.0000      -0.638540       -17.3755
 193   2.0000      -0.636292       -17.3144
 194   2.0000      -0.630907       -17.1679
 195   2.0000      -0.628507       -17.1025
 196   2.0000      -0.621462       -16.9108
 197   2.0000      -0.618316       -16.8252
 198   2.0000      -0.615814       -16.7571
 199   2.0000      -0.606930       -16.5154
 200   2.0000      -0.605123       -16.4662
 201   2.0000      -0.601828       -16.3766
 202   2.0000      -0.589860       -16.0509
 203   2.0000      -0.583008       -15.8645
 204   2.0000      -0.581186       -15.8149
 205   2.0000      -0.574010       -15.6196
 206   2.0000      -0.567069       -15.4307
 207   2.0000      -0.564746       -15.3675
 208   2.0000      -0.560534       -15.2529
 209   2.0000      -0.556489       -15.1428
 210   2.0000      -0.555323       -15.1111
 211   2.0000      -0.548682       -14.9304
 212   2.0000      -0.547528       -14.8990
 213   2.0000      -0.540805       -14.7160
 214   2.0000      -0.538228       -14.6459
 215   2.0000      -0.536309       -14.5937
 216   2.0000      -0.533887       -14.5278
 217   2.0000      -0.529493       -14.4082
 218   2.0000      -0.526287       -14.3210
 219   2.0000      -0.525337       -14.2951
 220   2.0000      -0.522138       -14.2081
 221   2.0000      -0.518700       -14.1145
 222   2.0000      -0.517068       -14.0701
 223   2.0000      -0.516048       -14.0424
 224   2.0000      -0.515018       -14.0144
 225   2.0000      -0.511445       -13.9171
 226   2.0000      -0.509788       -13.8720
 227   2.0000      -0.509360       -13.8604
 228   2.0000      -0.507534       -13.8107
 229   2.0000      -0.506282       -13.7766
 230   2.0000      -0.503797       -13.7090
 231   2.0000      -0.501537       -13.6475
 232   2.0000      -0.500730       -13.6256
 233   2.0000      -0.496423       -13.5084
 234   2.0000      -0.494003       -13.4425
 235   2.0000      -0.492106       -13.3909
 236   2.0000      -0.488575       -13.2948
 237   2.0000      -0.487528       -13.2663
 238   2.0000      -0.486295       -13.2328
 239   2.0000      -0.483596       -13.1593
 240   2.0000      -0.482415       -13.1272
 241   2.0000      -0.477855       -13.0031
 242   2.0000      -0.476595       -12.9688
 243   2.0000      -0.473743       -12.8912
 244   2.0000      -0.472872       -12.8675
 245   2.0000      -0.470459       -12.8018
 246   2.0000      -0.468206       -12.7405
 247   2.0000      -0.467083       -12.7100
 248   2.0000      -0.465199       -12.6587
 249   2.0000      -0.464946       -12.6518
 250   2.0000      -0.459920       -12.5150
 251   2.0000      -0.459302       -12.4983
 252   2.0000      -0.457323       -12.4444
 253   2.0000      -0.457186       -12.4407
 254   2.0000      -0.454720       -12.3736
 255   2.0000      -0.452403       -12.3105
 256   2.0000      -0.450513       -12.2591
 257   2.0000      -0.447151       -12.1676
 258   2.0000      -0.446512       -12.1502
 259   2.0000      -0.446173       -12.1410
 260   2.0000      -0.445740       -12.1292
 261   2.0000      -0.444085       -12.0842
 262   2.0000      -0.443817       -12.0769
 263   2.0000      -0.443092       -12.0572
 264   2.0000      -0.442812       -12.0495
 265   2.0000      -0.439809       -11.9678
 266   2.0000      -0.436053       -11.8656
 267   2.0000      -0.433915       -11.8074
 268   2.0000      -0.433831       -11.8051
 269   2.0000      -0.432878       -11.7792
 270   2.0000      -0.429420       -11.6851
 271   2.0000      -0.429128       -11.6772
 272   2.0000      -0.428006       -11.6466
 273   2.0000      -0.425295       -11.5729
 274   2.0000      -0.423543       -11.5252
 275   2.0000      -0.417550       -11.3621
 276   2.0000      -0.416087       -11.3223
 277   2.0000      -0.414533       -11.2800
 278   2.0000      -0.411432       -11.1956
 279   2.0000      -0.407464       -11.0876
 280   2.0000      -0.403274       -10.9736
 281   2.0000      -0.402038       -10.9400
 282   2.0000      -0.395180       -10.7534
 283   2.0000      -0.391950       -10.6655
 284   2.0000      -0.386354       -10.5132
 285   2.0000      -0.373409       -10.1610
 286   2.0000      -0.367581       -10.0024
 287   2.0000      -0.364589        -9.9210
 288   2.0000      -0.364035        -9.9059
 289   2.0000      -0.359751        -9.7893
 290   2.0000      -0.357310        -9.7229
 291   2.0000      -0.351584        -9.5671
 292   2.0000      -0.349078        -9.4989
 293   2.0000      -0.345074        -9.3900
 294   2.0000      -0.338964        -9.2237
 295   2.0000      -0.334006        -9.0888
 296   2.0000      -0.333358        -9.0711
 297   2.0000      -0.329911        -8.9773
 298   2.0000      -0.319604        -8.6969
 299   2.0000      -0.315337        -8.5808
 300   2.0000      -0.307283        -8.3616
 301   2.0000      -0.295123        -8.0307
 302   2.0000      -0.289169        -7.8687
 303   2.0000      -0.278829        -7.5873
 304   2.0000      -0.262435        -7.1412
 305   2.0000      -0.230060        -6.2602
 306   0.0000      -0.127275        -3.4633
 307   0.0000      -0.112167        -3.0522
 308   0.0000      -0.105445        -2.8693
 309   0.0000      -0.087707        -2.3866
 310   0.0000      -0.073543        -2.0012

MULLIKEN ATOMIC CHARGES
-----------------------
   0 C :    0.139598
   1 O :   -0.143095
   2 C :   -0.166950
   3 C :   -0.000752
   4 C :    0.027373
   5 C :   -0.058386
   6 S :    0.219033
   7 C :    0.306380
   8 C :   -0.345147
   9 C :   -0.190107
  10 N :    0.153458
  11 C :   -0.176862
  12 N :    0.148619
  13 C :   -0.101384
  14 C :    0.032067
  15 C :   -0.113663
  16 C :   -0.003713
  17 C :   -0.010793
  18 C :   -0.081576
  19 S :    0.201951
  20 C :   -0.106710
  21 C :    0.028121
  22 C :    0.308487
  23 C :   -0.289113
  24 C :   -0.190655
  25 N :    0.196236
  26 C :   -0.193125
  27 N :    0.180406
  28 C :   -0.058689
  29 C :   -0.045151
  30 S :    0.187860
  31 C :   -0.056598
  32 C :   -0.045727
  33 C :    0.012285
  34 C :   -0.100606
  35 S :    0.182376
  36 C :   -0.094546
  37 C :   -0.007908
  38 C :    0.315827
  39 C :   -0.307265
  40 C :   -0.181340
  41 N :    0.184167
  42 C :   -0.167502
  43 N :    0.180809
  44 C :   -0.041918
  45 C :   -0.097467
  46 S :    0.187148
  47 C :    0.046348
  48 C :   -0.033471
  49 C :    0.042869
  50 C :    0.031486
  51 C :   -0.007949
  52 S :    0.062106
  53 C :   -0.055830
  54 C :    0.040947
  55 C :    0.032567
  56 C :    0.001063
  57 S :    0.158067
  58 C :    0.002514
  59 C :   -0.012905
  60 C :   -0.096824
  61 C :    0.306418
  62 C :   -0.352705
  63 C :   -0.186212
  64 N :    0.143325
  65 C :   -0.202983
  66 N :    0.146878
  67 C :    0.026548
  68 C :    0.022392
  69 C :    0.110918
  70 O :   -0.172455
  71 C :   -0.083997
  72 C :    0.121630
  73 C :   -0.095323
  74 C :   -0.030073
  75 S :    0.197946
  76 C :   -0.127983
  77 C :    0.014089
  78 Br:    0.018329
  79 H :    0.018708
  80 H :    0.043573
  81 H :    0.004006
  82 H :    0.037990
  83 H :    0.016078
  84 H :    0.017959
  85 H :    0.033837
  86 H :   -0.009943
  87 H :   -0.003010
  88 H :   -0.003743
  89 H :   -0.009043
  90 H :   -0.004251
  91 H :   -0.005204
  92 H :    0.025518
  93 H :   -0.023826
  94 H :   -0.009360
  95 H :   -0.012472
Sum of atomic charges:   -0.0000000

LOEWDIN ATOMIC CHARGES
----------------------
   0 C :    0.070016
   1 O :   -0.134518
   2 C :   -0.207724
   3 C :   -0.041188
   4 C :   -0.044173
   5 C :   -0.148658
   6 S :    0.508949
   7 C :    0.077453
   8 C :   -0.139653
   9 C :   -0.016793
  10 N :   -0.051495
  11 C :   -0.023691
  12 N :   -0.050105
  13 C :   -0.092516
  14 C :    0.034310
  15 C :   -0.178226
  16 C :    0.016186
  17 C :   -0.075712
  18 C :   -0.160920
  19 S :    0.492277
  20 C :   -0.192886
  21 C :   -0.049460
  22 C :    0.074277
  23 C :   -0.089201
  24 C :   -0.022461
  25 N :   -0.012142
  26 C :   -0.017596
  27 N :   -0.023705
  28 C :   -0.027932
  29 C :   -0.170599
  30 S :    0.467451
  31 C :   -0.183193
  32 C :   -0.018577
  33 C :   -0.065653
  34 C :   -0.175608
  35 S :    0.463259
  36 C :   -0.185723
  37 C :   -0.060291
  38 C :    0.074718
  39 C :   -0.090660
  40 C :   -0.019461
  41 N :   -0.023025
  42 C :   -0.013545
  43 N :   -0.019965
  44 C :   -0.034574
  45 C :   -0.164268
  46 S :    0.469816
  47 C :   -0.059792
  48 C :   -0.150388
  49 C :   -0.014203
  50 C :   -0.036448
  51 C :   -0.149605
  52 S :    0.416971
  53 C :   -0.185844
  54 C :   -0.026696
  55 C :   -0.028595
  56 C :   -0.113190
  57 S :    0.491919
  58 C :   -0.068520
  59 C :    0.039909
  60 C :   -0.110556
  61 C :    0.079239
  62 C :   -0.147525
  63 C :   -0.018127
  64 N :   -0.062383
  65 C :   -0.022401
  66 N :   -0.061138
  67 C :   -0.017752
  68 C :   -0.038424
  69 C :    0.051236
  70 O :   -0.175395
  71 C :    0.016333
  72 C :   -0.039279
  73 C :   -0.149953
  74 C :   -0.010917
  75 S :    0.443204
  76 C :   -0.274436
  77 C :   -0.084814
  78 Br:    0.135757
  79 H :    0.043774
  80 H :    0.031642
  81 H :    0.042349
  82 H :    0.043673
  83 H :    0.043618
  84 H :    0.044719
  85 H :    0.023925
  86 H :    0.037174
  87 H :    0.037143
  88 H :    0.036570
  89 H :    0.033761
  90 H :    0.036326
  91 H :    0.039100
  92 H :    0.046367
  93 H :    0.035202
  94 H :    0.039819
  95 H :    0.033837

  Mayer bond orders larger than 0.100000
B(  0-C ,  1-O ) :   2.1620 B(  0-C ,  2-C ) :   1.0655 B(  0-C , 13-C ) :   0.9295
B(  2-C ,  3-C ) :   1.4592 B(  2-C ,  6-S ) :   1.1314 B(  3-C ,  4-C ) :   1.2680
B(  3-C ,  7-C ) :   1.0003 B(  4-C ,  5-C ) :   1.5424 B(  4-C , 79-H ) :   0.9953
B(  5-C ,  6-S ) :   1.1872 B(  5-C , 80-H ) :   0.9624 B(  7-C ,  8-C ) :   1.6395
B(  7-C , 13-C ) :   1.0738 B(  8-C ,  9-C ) :   1.1492 B(  8-C , 11-C ) :   1.1320
B(  9-C , 10-N ) :   2.9866 B( 11-C , 12-N ) :   2.9658 B( 13-C , 14-C ) :   1.6388
B( 14-C , 15-C ) :   1.1990 B( 14-C , 81-H ) :   0.9095 B( 15-C , 16-C ) :   1.4093
B( 15-C , 19-S ) :   1.0761 B( 16-C , 17-C ) :   1.3141 B( 16-C , 82-H ) :   0.9718
B( 17-C , 18-C ) :   1.3809 B( 17-C , 22-C ) :   0.9973 B( 18-C , 19-S ) :   1.1626
B( 18-C , 20-C ) :   1.2111 B( 20-C , 21-C ) :   1.4338 B( 20-C , 30-S ) :   1.1065
B( 21-C , 22-C ) :   0.9879 B( 21-C , 28-C ) :   1.3012 B( 22-C , 23-C ) :   1.7201
B( 23-C , 24-C ) :   1.1339 B( 23-C , 26-C ) :   1.1352 B( 24-C , 25-N ) :   2.9968
B( 26-C , 27-N ) :   2.9888 B( 28-C , 29-C ) :   1.4699 B( 28-C , 83-H ) :   0.9930
B( 29-C , 30-S ) :   1.1083 B( 29-C , 31-C ) :   1.1342 B( 31-C , 32-C ) :   1.4804
B( 31-C , 35-S ) :   1.0886 B( 32-C , 33-C ) :   1.2958 B( 32-C , 84-H ) :   0.9920
B( 33-C , 34-C ) :   1.4161 B( 33-C , 38-C ) :   0.9981 B( 34-C , 35-S ) :   1.1202
B( 34-C , 36-C ) :   1.2263 B( 36-C , 37-C ) :   1.4065 B( 36-C , 46-S ) :   1.1143
B( 37-C , 38-C ) :   0.9923 B( 37-C , 44-C ) :   1.3694 B( 38-C , 39-C ) :   1.7057
B( 39-C , 40-C ) :   1.1542 B( 39-C , 42-C ) :   1.1469 B( 40-C , 41-N ) :   2.9359
B( 42-C , 43-N ) :   2.9330 B( 44-C , 45-C ) :   1.3799 B( 44-C , 85-H ) :   0.9635
B( 45-C , 46-S ) :   1.0909 B( 45-C , 47-C ) :   1.1996 B( 47-C , 48-C ) :   1.5647
B( 47-C , 86-H ) :   0.9544 B( 48-C , 49-C ) :   1.1611 B( 48-C , 52-S ) :   1.0445
B( 49-C , 50-C ) :   1.5702 B( 49-C , 87-H ) :   0.9996 B( 50-C , 51-C ) :   1.2029
B( 50-C , 88-H ) :   0.9946 B( 51-C , 52-S ) :   1.0698 B( 51-C , 53-C ) :   1.4611
B( 53-C , 54-C ) :   1.1903 B( 53-C , 57-S ) :   1.0805 B( 54-C , 55-C ) :   1.5726
B( 54-C , 89-H ) :   0.9938 B( 55-C , 56-C ) :   1.1696 B( 55-C , 90-H ) :   0.9970
B( 56-C , 57-S ) :   1.1271 B( 56-C , 58-C ) :   1.4556 B( 58-C , 59-C ) :   1.3460
B( 58-C , 91-H ) :   0.9507 B( 59-C , 60-C ) :   1.4364 B( 59-C , 92-H ) :   0.9356
B( 60-C , 61-C ) :   1.1088 B( 60-C , 69-C ) :   1.0031 B( 61-C , 62-C ) :   1.6086
B( 61-C , 67-C ) :   0.9940 B( 62-C , 63-C ) :   1.1441 B( 62-C , 65-C ) :   1.1448
B( 63-C , 64-N ) :   2.9684 B( 65-C , 66-N ) :   2.9827 B( 67-C , 68-C ) :   1.2792
B( 67-C , 74-C ) :   1.4155 B( 68-C , 69-C ) :   0.9297 B( 68-C , 71-C ) :   1.4248
B( 69-C , 70-O ) :   2.1659 B( 71-C , 72-C ) :   1.2293 B( 71-C , 93-H ) :   1.0203
B( 72-C , 73-C ) :   1.3159 B( 72-C , 77-C ) :   1.1585 B( 73-C , 74-C ) :   1.3186
B( 73-C , 75-S ) :   1.0855 B( 74-C , 94-H ) :   0.9798 B( 75-S , 76-C ) :   1.0983
B( 76-C , 77-C ) :   1.5975 B( 76-C , 78-Br) :   1.0166 B( 77-C , 95-H ) :   1.0050

-----------------------------------------------------------------------------
         ABSORPTION SPECTRUM VIA TRANSITION ELECTRIC DIPOLE MOMENTS
-----------------------------------------------------------------------------
State   Energy  Wavelength   fosc         T2         TX        TY        TZ
        (cm-1)    (nm)                  (au**2)     (au)      (au)      (au)
-----------------------------------------------------------------------------
   0    8068.7   1239.4   0.415024223  16.93343  -3.19074   2.27386  -1.25784
   1   11770.0    849.6   0.573650428  16.04519   2.18451  -2.61622   2.10440
   2   12913.1    774.4   0.157545414   4.01651  -1.42931  -0.48136   1.31980
   3   15608.6    640.7   0.088601624   1.86876  -1.19254  -0.02428   0.66784
   4   18339.6    545.3   0.105531598   1.89439   1.29659  -0.17633  -0.42680
   5   18857.9    530.3   0.095357708   1.66470   0.32142  -0.86039   0.90616
   6   20654.8    484.1   1.586779243  25.29132   4.70600  -1.73807  -0.35216
   7   20881.8    478.9   0.050312780   0.79321   0.77018  -0.43194   0.11600
   8   21268.6    470.2   0.007598534   0.11762   0.18878   0.28575   0.01800
   9   21957.0    455.4   0.129565679   1.94265  -0.36571  -0.62031   1.19336
  10   22232.7    449.8   0.030698746   0.45457   0.61225  -0.08391  -0.26961
  11   22841.1    437.8   0.028368762   0.40888  -0.44932  -0.22783  -0.39381
  12   23537.7    424.9   0.012571105   0.17583   0.36269   0.19027  -0.08989
  13   24079.7    415.3   0.274128599   3.74782  -1.84953   0.44571   0.35831
  14   25232.6    396.3   0.006775397   0.08840  -0.04625   0.15511  -0.24940
  15   25599.3    390.6   0.050222040   0.64587   0.17495   0.29330  -0.72749
  16   26083.3    383.4   0.222089571   2.80312   0.21068   1.20095  -1.14737
  17   26220.4    381.4   0.134662828   1.69077  -1.29771   0.08112   0.01196
  18   26258.2    380.8   0.082631804   1.03600  -0.91481   0.43533  -0.09800
  19   26938.8    371.2   0.044930702   0.54909   0.69027   0.11775  -0.24237
  20   27325.2    366.0   0.282147113   3.39928  -1.79818   0.35420   0.20096
  21   28529.3    350.5   0.026281721   0.30328   0.51011   0.08917  -0.18739
  22   28792.5    347.3   0.072122414   0.82464   0.80006  -0.29065   0.31634
  23   29163.7    342.9   0.067220346   0.75881  -0.79362   0.29272   0.20807
  24   29460.9    339.4   0.050535838   0.56472  -0.61649   0.42891  -0.02622
  25   29905.2    334.4   0.017709490   0.19496   0.10400  -0.11342   0.41385
  26   30101.7    332.2   0.164204192   1.79585  -1.19052   0.37206  -0.48997
  27   30222.2    330.9   0.099924820   1.08849  -0.70330  -0.34185   0.69065
  28   30341.8    329.6   0.133736886   1.45106   0.50811  -0.61139   0.90504
  29   30495.6    327.9   0.136645011   1.47514  -0.46571  -0.44670   1.02894
  30   30734.7    325.4   0.221011810   2.36735   0.07494   0.82475  -1.29674
  31   30791.6    324.8   0.115795384   1.23804  -0.51515  -0.28842  -0.94312
  32   31195.9    320.6   0.395277524   4.17138   1.91983  -0.47261   0.51213
  33   31595.9    316.5   0.258190155   2.69020   1.10937   0.50686  -1.09663
  34   31637.9    316.1   0.051994201   0.54103  -0.47620   0.37439  -0.41725
  35   31847.4    314.0   0.000029497   0.00030  -0.01655   0.00342  -0.00438
  36   32402.8    308.6   0.314787557   3.19824   0.76815  -0.75843   1.42582
  37   32613.9    306.6   0.107033680   1.08042   0.51663  -0.80236   0.41199
  38   33114.9    302.0   0.152030709   1.51142  -1.04926   0.35273   0.53484
  39   33221.9    301.0   0.019791326   0.19612  -0.20736  -0.09445   0.37974
  40   33392.5    299.5   0.163021907   1.60721  -0.06368  -0.30088   1.22989
  41   33561.1    298.0   0.158203924   1.55187  -1.08835   0.22825  -0.56149
  42   33743.6    296.4   0.111101770   1.08394   0.66785   0.01689  -0.79852
  43   33865.1    295.3   0.011942608   0.11610   0.25507  -0.22587  -0.00429
  44   33980.3    294.3   0.124007882   1.20143   0.11709  -0.67014   0.85943
  45   34152.3    292.8   0.258235061   2.48927  -0.07523   0.54663  -1.47811
  46   34495.3    289.9   0.037692797   0.35973   0.01102  -0.22873   0.55434
  47   34637.1    288.7   0.093533348   0.88900   0.28204   0.77275  -0.46077
  48   34720.1    288.0   0.062202417   0.58980   0.58346  -0.20484  -0.45542
  49   35006.3    285.7   0.014034896   0.13199   0.30008   0.00834   0.20463
  50   35094.4    284.9   0.050822604   0.47675   0.33991  -0.55193   0.23790
  51   35185.5    284.2   0.019197305   0.17962   0.11511  -0.20781   0.35098
  52   35258.4    283.6   0.067648968   0.63165   0.12802   0.13356  -0.77293
  53   35432.9    282.2   0.008701272   0.08084  -0.25468   0.10194  -0.07477
  54   35611.7    280.8   0.044881383   0.41490  -0.50534   0.21924  -0.33386
  55   36089.0    277.1   0.192753659   1.75834  -0.59047   0.06479   1.18553
  56   36324.4    275.3   0.186587974   1.69106   0.50872   0.12154  -1.19059
  57   36428.5    274.5   0.048263272   0.43617  -0.01288  -0.32658   0.57389
  58   36590.3    273.3   0.027587661   0.24821  -0.02514   0.00171  -0.49757
  59   36674.9    272.7   0.072782683   0.65333  -0.16991   0.07516  -0.78665
  60   36771.9    271.9   0.000925489   0.00829   0.05134   0.07303   0.01777
  61   36963.7    270.5   0.406708490   3.62229   0.06652   0.78280  -1.73352
  62   37034.5    270.0   0.001217511   0.01082  -0.06052  -0.07407   0.04091
  63   37204.6    268.8   0.077719198   0.68771   0.45407  -0.48670   0.49462
  64   37413.8    267.3   0.007827653   0.06888   0.11647   0.08065  -0.22092
  65   37707.2    265.2   0.136252044   1.18958   0.39756  -0.34836   0.95403
  66   37995.6    263.2   0.017062280   0.14784   0.24735  -0.01839   0.29379
  67   38178.7    261.9   0.006317355   0.05447   0.16303  -0.11944   0.11674
  68   38238.1    261.5   0.015544286   0.13383  -0.32465  -0.06582  -0.15523
  69   38381.6    260.5   0.020383991   0.17484   0.14891   0.02558  -0.38989
  70   38576.7    259.2   0.049891626   0.42577  -0.50832   0.21177  -0.35005
  71   38701.0    258.4   0.015226170   0.12952  -0.26535   0.23583   0.05910
  72   38957.9    256.7   0.010224628   0.08640  -0.21146   0.10574   0.17466
  73   39197.0    255.1   0.012294928   0.10326  -0.05548   0.17332   0.26485
  74   39234.3    254.9   0.048333969   0.40557  -0.23582   0.08173   0.58590
  75   39704.3    251.9   0.048918079   0.40561   0.44383  -0.38127   0.25151
  76   39732.7    251.7   0.003624649   0.03003  -0.15486   0.06981   0.03430
  77   39855.0    250.9   0.041992679   0.34687  -0.49460   0.16883   0.27155
  78   40005.7    250.0   0.032320809   0.26597  -0.50704  -0.07366   0.05884
  79   40196.9    248.8   0.035169191   0.28804   0.49285  -0.16020   0.13954
  80   40269.4    248.3   0.020087824   0.16422   0.34658  -0.06412   0.19998

FINAL SINGLE POINT ENERGY     -8639.674252263174

DIPOLE MOMENT
-------------
                                X             Y             Z
Electronic contribution:    -44.14793     -25.47093      10.55485
Nuclear contribution   :     46.16341      27.57887     -15.33630
                        -----------------------------------------
Total Dipole Moment    :      2.01548       2.10794      -4.78144
                        -----------------------------------------
Magnitude (a.u.)       :      5.60069
Magnitude (Debye)      :     14.23583

Rotational constants in cm-1:     0.001429     0.000206     0.000186
Rotational constants in MHz :    42.850732     6.170287     5.561541

                             ****ORCA TERMINATED NORMALLY****
TOTAL RUN TIME: 0 days 0 hours 17 minutes 28 seconds 331 msec
