                         Program Version 4.2.0 -  RELEASE  -
|  1> # ORCA input file
|  2> # SCF done       -205.221220154110          0.000783663221
|  3> ! CAM-B3LYP def2-SVP def2/J RIJCOSX Grid4 TightSCF
|  4> %maxcore 5000
|  5> %tddft
|  6>     Mode sTDDFT
|  7>     Ethresh 5.0
|  8>     maxcore 5000
|  9> end
| 10>
| 11> %pal
| 12>   nprocs 6
| 13>   end
| 14> * xyz 0 1
| 15>    C       -0.41977        -0.95106         2.89733
| 16>    O        0.61046        -0.35561         2.66792
| 17>    C       -1.75320        -0.38223         3.04925
| 18>    C       -2.70624        -1.36632         3.27526
| 19>    C       -4.00372        -0.83790         3.42151
| 20>    C       -3.99122         0.52056         3.30110
| 21>    S       -2.42723         1.18604         3.01037
| 22>    C       -2.05090        -2.65790         3.29445
| 23>    C       -2.69549        -3.84297         3.53429
| 24>    C       -4.08849        -3.89146         3.75970
| 25>    N       -5.21895        -3.95987         3.94327
| 26>    C       -2.11134        -5.12358         3.60261
| 27>    N       -1.71300        -6.19814         3.68214
| 28>    C       -0.63133        -2.42193         3.04936
| 29>    C        0.28491        -3.42675         2.92419
| 30>    C        1.68372        -3.40187         2.74520
| 31>    C        2.62283        -2.37943         2.77552
| 32>    C        3.91460        -2.84767         2.57827
| 33>    C        3.97671        -4.24759         2.38433
| 34>    S        2.44589        -4.97857         2.46836
| 35>    C        5.32596        -4.61254         2.17103
| 36>    C        6.12049        -3.45312         2.23399
| 37>    C        5.26086        -2.30800         2.50181
| 38>    C        5.65537        -1.01335         2.66288
| 39>    C        4.76381         0.03972         2.96496
| 40>    N        4.07610         0.91773         3.22787
| 41>    C        7.01081        -0.63267         2.55762
| 42>    N        8.11050        -0.32076         2.46978
| 43>    C        7.47303        -3.71092         2.03454
| 44>    C        7.71750        -5.05767         1.81621
| 45>    S        6.24947        -6.01998         1.86273
| 46>    C        8.97408        -5.66228         1.57376
| 47>    C        9.24973        -6.99693         1.32988
| 48>    C       10.61054        -7.22067         1.12913
| 49>    C       11.37755        -6.03910         1.22454
| 50>    S       10.42387        -4.66278         1.55775
| 51>    C       12.73064        -6.35596         1.00715
| 52>    C       12.83726        -7.74640         0.76933
| 53>    C       11.50112        -8.32842         0.83989
| 54>    C       11.16456        -9.63927         0.66461
| 55>    C        9.82934       -10.08611         0.75205
| 56>    N        8.74336       -10.44717         0.82272
| 57>    C       12.13007       -10.62804         0.38342
| 58>    N       12.91505       -11.43169         0.15285
| 59>    C       14.13811        -8.15337         0.53819
| 60>    C       15.04768        -7.08891         0.59262
| 61>    S       14.24000        -5.56158         0.94526
| 62>    C       16.42715        -7.18361         0.38985
| 63>    C       17.34632        -6.15868         0.42706
| 64>    C       18.73895        -6.27095         0.19992
| 65>    C       19.41866        -5.09077         0.28493
| 66>    C       18.59702        -3.98608         0.58969
| 67>    S       16.93556        -4.48992         0.76341
| 68>    C       18.94375        -2.65275         0.75149
| 69>    C       20.20684        -2.04274         0.61822
| 70>    C       20.18896        -0.69482         0.84116
| 71>    C       18.91387        -0.18065         1.16402
| 72>    S       17.73339        -1.46741         1.17827
| 73>    C       18.59106         1.13162         1.46041
| 74>    C       17.29619         1.52665         1.77550
| 75>    C       16.81370         2.76429         2.14285
| 76>    C       15.35305         2.99786         2.03954
| 77>    O       14.49910         2.16321         1.83365
| 78>    C       15.17437         4.45547         2.19351
| 79>    C       14.03083         5.19330         2.10191
| 80>    C       14.10462         6.59568         2.26114
| 81>    C       15.36976         7.20341         2.50472
| 82>    C       15.43875         8.60251         2.65621
| 83>    C       14.30486         9.36130         2.57352
| 84>    C       13.05430         8.75872         2.33461
| 85>    C       12.95455         7.40420         2.18118
| 86>    F       11.95867         9.52805         2.25770
| 87>    F       14.37337        10.69228         2.71967
| 88>    C       16.53717         6.40947         2.60020
| 89>    C       16.44027         5.05215         2.45512
| 90>    C       17.44608         3.98937         2.54510
| 91>    C       18.69284         4.14366         3.10722
| 92>    C       19.54798         3.08540         3.46957
| 93>    N       20.27034         2.26930         3.83268
| 94>    C       19.23110         5.38638         3.49461
| 95>    N       19.73454         6.37036         3.80728
| 96>    H       -4.89268        -1.41261         3.60262
| 97>    H       -4.83167         1.18348         3.36842
| 98>    H       -0.11387        -4.43408         2.96362
| 99>    H        2.35130        -1.35008         2.92614
|100>    H        8.25434        -2.97226         2.04118
|101>    H        8.48508        -7.75263         1.30200
|102>    H       14.44762        -9.16264         0.33506
|103>    H       16.80753        -8.17402         0.17530
|104>    H       19.19481        -7.21969        -0.02152
|105>    H       20.47914        -4.99080         0.14078
|106>    H       21.08768        -2.60261         0.36011
|107>    H       21.05348        -0.05725         0.79339
|108>    H       19.39309         1.85272         1.42041
|109>    H       16.51658         0.77848         1.65044
|110>    H       13.08246         4.71400         1.91253
|111>    H       16.38776         9.08028         2.84330
|112>    H       11.98992         6.95690         1.99909
|113>    H       17.47966         6.90078         2.78082
|114> *
|115>
|116>                          ****END OF INPUT****

CARTESIAN COORDINATES (ANGSTROEM)
---------------------------------
  C     -0.419770   -0.951060    2.897330
  O      0.610460   -0.355610    2.667920
  C     -1.753200   -0.382230    3.049250
  C     -2.706240   -1.366320    3.275260
  C     -4.003720   -0.837900    3.421510
  C     -3.991220    0.520560    3.301100
  S     -2.427230    1.186040    3.010370
  C     -2.050900   -2.657900    3.294450
  C     -2.695490   -3.842970    3.534290
  C     -4.088490   -3.891460    3.759700
  N     -5.218950   -3.959870    3.943270
  C     -2.111340   -5.123580    3.602610
  N     -1.713000   -6.198140    3.682140
  C     -0.631330   -2.421930    3.049360
  C      0.284910   -3.426750    2.924190
  C      1.683720   -3.401870    2.745200
  C      2.622830   -2.379430    2.775520
  C      3.914600   -2.847670    2.578270
  C      3.976710   -4.247590    2.384330
  S      2.445890   -4.978570    2.468360
  C      5.325960   -4.612540    2.171030
  C      6.120490   -3.453120    2.233990
  C      5.260860   -2.308000    2.501810
  C      5.655370   -1.013350    2.662880
  C      4.763810    0.039720    2.964960
  N      4.076100    0.917730    3.227870
  C      7.010810   -0.632670    2.557620
  N      8.110500   -0.320760    2.469780
  C      7.473030   -3.710920    2.034540
  C      7.717500   -5.057670    1.816210
  S      6.249470   -6.019980    1.862730
  C      8.974080   -5.662280    1.573760
  C      9.249730   -6.996930    1.329880
  C     10.610540   -7.220670    1.129130
  C     11.377550   -6.039100    1.224540
  S     10.423870   -4.662780    1.557750
  C     12.730640   -6.355960    1.007150
  C     12.837260   -7.746400    0.769330
  C     11.501120   -8.328420    0.839890
  C     11.164560   -9.639270    0.664610
  C      9.829340  -10.086110    0.752050
  N      8.743360  -10.447170    0.822720
  C     12.130070  -10.628040    0.383420
  N     12.915050  -11.431690    0.152850
  C     14.138110   -8.153370    0.538190
  C     15.047680   -7.088910    0.592620
  S     14.240000   -5.561580    0.945260
  C     16.427150   -7.183610    0.389850
  C     17.346320   -6.158680    0.427060
  C     18.738950   -6.270950    0.199920
  C     19.418660   -5.090770    0.284930
  C     18.597020   -3.986080    0.589690
  S     16.935560   -4.489920    0.763410
  C     18.943750   -2.652750    0.751490
  C     20.206840   -2.042740    0.618220
  C     20.188960   -0.694820    0.841160
  C     18.913870   -0.180650    1.164020
  S     17.733390   -1.467410    1.178270
  C     18.591060    1.131620    1.460410
  C     17.296190    1.526650    1.775500
  C     16.813700    2.764290    2.142850
  C     15.353050    2.997860    2.039540
  O     14.499100    2.163210    1.833650
  C     15.174370    4.455470    2.193510
  C     14.030830    5.193300    2.101910
  C     14.104620    6.595680    2.261140
  C     15.369760    7.203410    2.504720
  C     15.438750    8.602510    2.656210
  C     14.304860    9.361300    2.573520
  C     13.054300    8.758720    2.334610
  C     12.954550    7.404200    2.181180
  F     11.958670    9.528050    2.257700
  F     14.373370   10.692280    2.719670
  C     16.537170    6.409470    2.600200
  C     16.440270    5.052150    2.455120
  C     17.446080    3.989370    2.545100
  C     18.692840    4.143660    3.107220
  C     19.547980    3.085400    3.469570
  N     20.270340    2.269300    3.832680
  C     19.231100    5.386380    3.494610
  N     19.734540    6.370360    3.807280
  H     -4.892680   -1.412610    3.602620
  H     -4.831670    1.183480    3.368420
  H     -0.113870   -4.434080    2.963620
  H      2.351300   -1.350080    2.926140
  H      8.254340   -2.972260    2.041180
  H      8.485080   -7.752630    1.302000
  H     14.447620   -9.162640    0.335060
  H     16.807530   -8.174020    0.175300
  H     19.194810   -7.219690   -0.021520
  H     20.479140   -4.990800    0.140780
  H     21.087680   -2.602610    0.360110
  H     21.053480   -0.057250    0.793390
  H     19.393090    1.852720    1.420410
  H     16.516580    0.778480    1.650440
  H     13.082460    4.714000    1.912530
  H     16.387760    9.080280    2.843300
  H     11.989920    6.956900    1.999090
  H     17.479660    6.900780    2.780820

 Total Charge           Charge          ....    0
 Multiplicity           Mult            ....    1
 Number of Electrons    NEL             ....  592
 Basis Dimension        Dim             .... 1252

ORBITAL ENERGIES
----------------

  NO   OCC          E(Eh)            E(eV)
   0   2.0000     -89.003443     -2421.9068
   1   2.0000     -89.003011     -2421.8950
   2   2.0000     -89.002015     -2421.8680
   3   2.0000     -88.999207     -2421.7915
   4   2.0000     -88.990400     -2421.5519
   5   2.0000     -88.976517     -2421.1741
   6   2.0000     -88.968583     -2420.9582
   7   2.0000     -24.790337      -674.5794
   8   2.0000     -24.789846      -674.5660
   9   2.0000     -19.225034      -523.1398
  10   2.0000     -19.203242      -522.5468
  11   2.0000     -14.441237      -392.9660
  12   2.0000     -14.441172      -392.9643
  13   2.0000     -14.437665      -392.8688
  14   2.0000     -14.433332      -392.7509
  15   2.0000     -14.424297      -392.5051
  16   2.0000     -14.418388      -392.3443
  17   2.0000     -14.406124      -392.0106
  18   2.0000     -14.405197      -391.9853
  19   2.0000     -10.383782      -282.5571
  20   2.0000     -10.376400      -282.3562
  21   2.0000     -10.373587      -282.2796
  22   2.0000     -10.372711      -282.2558
  23   2.0000     -10.372217      -282.2424
  24   2.0000     -10.364001      -282.0188
  25   2.0000     -10.359477      -281.8957
  26   2.0000     -10.353820      -281.7418
  27   2.0000     -10.350142      -281.6417
  28   2.0000     -10.349875      -281.6344
  29   2.0000     -10.349132      -281.6142
  30   2.0000     -10.345866      -281.5253
  31   2.0000     -10.345592      -281.5179
  32   2.0000     -10.343758      -281.4680
  33   2.0000     -10.342859      -281.4435
  34   2.0000     -10.342785      -281.4415
  35   2.0000     -10.342419      -281.4315
  36   2.0000     -10.341293      -281.4009
  37   2.0000     -10.341216      -281.3988
  38   2.0000     -10.338403      -281.3222
  39   2.0000     -10.337564      -281.2994
  40   2.0000     -10.336118      -281.2601
  41   2.0000     -10.335340      -281.2389
  42   2.0000     -10.333327      -281.1841
  43   2.0000     -10.332194      -281.1533
  44   2.0000     -10.331901      -281.1453
  45   2.0000     -10.331586      -281.1368
  46   2.0000     -10.331315      -281.1294
  47   2.0000     -10.330346      -281.1030
  48   2.0000     -10.326756      -281.0053
  49   2.0000     -10.323845      -280.9261
  50   2.0000     -10.321329      -280.8576
  51   2.0000     -10.321093      -280.8512
  52   2.0000     -10.319206      -280.7999
  53   2.0000     -10.317956      -280.7659
  54   2.0000     -10.317219      -280.7458
  55   2.0000     -10.317136      -280.7435
  56   2.0000     -10.316636      -280.7299
  57   2.0000     -10.316616      -280.7294
  58   2.0000     -10.315195      -280.6907
  59   2.0000     -10.314207      -280.6638
  60   2.0000     -10.313737      -280.6511
  61   2.0000     -10.313653      -280.6488
  62   2.0000     -10.311787      -280.5980
  63   2.0000     -10.311611      -280.5932
  64   2.0000     -10.309597      -280.5384
  65   2.0000     -10.308876      -280.5188
  66   2.0000     -10.308756      -280.5155
  67   2.0000     -10.308581      -280.5108
  68   2.0000     -10.306166      -280.4450
  69   2.0000     -10.302372      -280.3418
  70   2.0000     -10.301095      -280.3071
  71   2.0000     -10.300864      -280.3008
  72   2.0000     -10.300726      -280.2970
  73   2.0000     -10.297814      -280.2178
  74   2.0000     -10.292655      -280.0774
  75   2.0000     -10.292306      -280.0679
  76   2.0000     -10.291927      -280.0576
  77   2.0000     -10.291796      -280.0540
  78   2.0000     -10.290148      -280.0092
  79   2.0000     -10.284502      -279.8555
  80   2.0000     -10.282950      -279.8133
  81   2.0000      -8.097820      -220.3529
  82   2.0000      -8.097455      -220.3430
  83   2.0000      -8.096282      -220.3110
  84   2.0000      -8.093953      -220.2477
  85   2.0000      -8.085454      -220.0164
  86   2.0000      -8.072838      -219.6731
  87   2.0000      -8.064979      -219.4592
  88   2.0000      -6.067134      -165.0951
  89   2.0000      -6.066736      -165.0843
  90   2.0000      -6.065538      -165.0517
  91   2.0000      -6.063038      -164.9837
  92   2.0000      -6.062982      -164.9821
  93   2.0000      -6.062585      -164.9713
  94   2.0000      -6.061279      -164.9358
  95   2.0000      -6.060025      -164.9017
  96   2.0000      -6.059692      -164.8926
  97   2.0000      -6.058921      -164.8716
  98   2.0000      -6.058655      -164.8644
  99   2.0000      -6.056504      -164.8059
 100   2.0000      -6.054599      -164.7540
 101   2.0000      -6.050155      -164.6331
 102   2.0000      -6.048194      -164.5797
 103   2.0000      -6.042519      -164.4253
 104   2.0000      -6.038363      -164.3122
 105   2.0000      -6.034570      -164.2090
 106   2.0000      -6.033878      -164.1902
 107   2.0000      -6.030557      -164.0998
 108   2.0000      -6.026094      -163.9783
 109   2.0000      -1.312625       -35.7183
 110   2.0000      -1.297819       -35.3154
 111   2.0000      -1.142360       -31.0852
 112   2.0000      -1.118172       -30.4270
 113   2.0000      -1.058155       -28.7939
 114   2.0000      -1.054561       -28.6961
 115   2.0000      -1.033204       -28.1149
 116   2.0000      -1.031361       -28.0648
 117   2.0000      -1.028533       -27.9878
 118   2.0000      -1.024681       -27.8830
 119   2.0000      -1.018815       -27.7234
 120   2.0000      -1.016449       -27.6590
 121   2.0000      -1.014163       -27.5968
 122   2.0000      -1.012007       -27.5381
 123   2.0000      -1.009494       -27.4697
 124   2.0000      -1.004724       -27.3399
 125   2.0000      -0.999394       -27.1949
 126   2.0000      -0.997856       -27.1530
 127   2.0000      -0.994591       -27.0642
 128   2.0000      -0.984529       -26.7904
 129   2.0000      -0.975168       -26.5357
 130   2.0000      -0.971275       -26.4297
 131   2.0000      -0.968547       -26.3555
 132   2.0000      -0.963482       -26.2177
 133   2.0000      -0.935291       -25.4506
 134   2.0000      -0.927682       -25.2435
 135   2.0000      -0.923517       -25.1302
 136   2.0000      -0.913493       -24.8574
 137   2.0000      -0.906777       -24.6747
 138   2.0000      -0.899303       -24.4713
 139   2.0000      -0.889045       -24.1921
 140   2.0000      -0.886979       -24.1359
 141   2.0000      -0.882930       -24.0257
 142   2.0000      -0.881562       -23.9885
 143   2.0000      -0.877461       -23.8769
 144   2.0000      -0.872856       -23.7516
 145   2.0000      -0.870615       -23.6906
 146   2.0000      -0.862857       -23.4795
 147   2.0000      -0.857826       -23.3426
 148   2.0000      -0.853438       -23.2232
 149   2.0000      -0.847670       -23.0663
 150   2.0000      -0.834913       -22.7191
 151   2.0000      -0.831027       -22.6134
 152   2.0000      -0.819084       -22.2884
 153   2.0000      -0.802184       -21.8285
 154   2.0000      -0.792254       -21.5583
 155   2.0000      -0.790340       -21.5062
 156   2.0000      -0.780991       -21.2518
 157   2.0000      -0.770818       -20.9750
 158   2.0000      -0.765396       -20.8275
 159   2.0000      -0.756390       -20.5824
 160   2.0000      -0.748988       -20.3810
 161   2.0000      -0.732680       -19.9372
 162   2.0000      -0.723987       -19.7007
 163   2.0000      -0.715403       -19.4671
 164   2.0000      -0.712761       -19.3952
 165   2.0000      -0.708471       -19.2785
 166   2.0000      -0.705146       -19.1880
 167   2.0000      -0.699534       -19.0353
 168   2.0000      -0.694722       -18.9044
 169   2.0000      -0.692548       -18.8452
 170   2.0000      -0.682956       -18.5842
 171   2.0000      -0.682560       -18.5734
 172   2.0000      -0.675352       -18.3773
 173   2.0000      -0.672782       -18.3073
 174   2.0000      -0.670180       -18.2365
 175   2.0000      -0.654708       -17.8155
 176   2.0000      -0.653617       -17.7858
 177   2.0000      -0.649393       -17.6709
 178   2.0000      -0.646928       -17.6038
 179   2.0000      -0.640968       -17.4416
 180   2.0000      -0.638217       -17.3668
 181   2.0000      -0.634303       -17.2603
 182   2.0000      -0.632154       -17.2018
 183   2.0000      -0.630648       -17.1608
 184   2.0000      -0.627405       -17.0726
 185   2.0000      -0.625068       -17.0090
 186   2.0000      -0.620744       -16.8913
 187   2.0000      -0.618092       -16.8191
 188   2.0000      -0.612249       -16.6601
 189   2.0000      -0.603996       -16.4356
 190   2.0000      -0.601582       -16.3699
 191   2.0000      -0.589046       -16.0288
 192   2.0000      -0.582789       -15.8585
 193   2.0000      -0.581378       -15.8201
 194   2.0000      -0.577300       -15.7091
 195   2.0000      -0.574900       -15.6438
 196   2.0000      -0.568617       -15.4729
 197   2.0000      -0.565551       -15.3894
 198   2.0000      -0.561119       -15.2688
 199   2.0000      -0.558905       -15.2086
 200   2.0000      -0.556638       -15.1469
 201   2.0000      -0.550404       -14.9772
 202   2.0000      -0.548463       -14.9244
 203   2.0000      -0.545086       -14.8326
 204   2.0000      -0.540730       -14.7140
 205   2.0000      -0.539134       -14.6706
 206   2.0000      -0.539003       -14.6670
 207   2.0000      -0.534372       -14.5410
 208   2.0000      -0.528529       -14.3820
 209   2.0000      -0.527600       -14.3567
 210   2.0000      -0.526173       -14.3179
 211   2.0000      -0.526031       -14.3140
 212   2.0000      -0.524592       -14.2749
 213   2.0000      -0.522559       -14.2196
 214   2.0000      -0.519401       -14.1336
 215   2.0000      -0.519022       -14.1233
 216   2.0000      -0.517026       -14.0690
 217   2.0000      -0.512673       -13.9505
 218   2.0000      -0.510406       -13.8888
 219   2.0000      -0.509474       -13.8635
 220   2.0000      -0.508065       -13.8252
 221   2.0000      -0.507609       -13.8127
 222   2.0000      -0.505898       -13.7662
 223   2.0000      -0.503223       -13.6934
 224   2.0000      -0.500077       -13.6078
 225   2.0000      -0.496692       -13.5157
 226   2.0000      -0.495887       -13.4938
 227   2.0000      -0.494104       -13.4453
 228   2.0000      -0.493433       -13.4270
 229   2.0000      -0.490675       -13.3520
 230   2.0000      -0.488845       -13.3021
 231   2.0000      -0.488336       -13.2883
 232   2.0000      -0.485913       -13.2224
 233   2.0000      -0.482717       -13.1354
 234   2.0000      -0.477836       -13.0026
 235   2.0000      -0.477164       -12.9843
 236   2.0000      -0.474454       -12.9105
 237   2.0000      -0.473194       -12.8763
 238   2.0000      -0.471792       -12.8381
 239   2.0000      -0.468376       -12.7452
 240   2.0000      -0.466819       -12.7028
 241   2.0000      -0.464891       -12.6503
 242   2.0000      -0.462580       -12.5874
 243   2.0000      -0.459773       -12.5111
 244   2.0000      -0.458658       -12.4807
 245   2.0000      -0.456616       -12.4252
 246   2.0000      -0.455767       -12.4020
 247   2.0000      -0.454262       -12.3611
 248   2.0000      -0.452602       -12.3159
 249   2.0000      -0.451071       -12.2743
 250   2.0000      -0.450998       -12.2723
 251   2.0000      -0.449969       -12.2443
 252   2.0000      -0.448229       -12.1969
 253   2.0000      -0.446912       -12.1611
 254   2.0000      -0.445437       -12.1210
 255   2.0000      -0.444811       -12.1039
 256   2.0000      -0.443762       -12.0754
 257   2.0000      -0.442150       -12.0315
 258   2.0000      -0.440110       -11.9760
 259   2.0000      -0.438054       -11.9201
 260   2.0000      -0.436627       -11.8812
 261   2.0000      -0.433302       -11.7907
 262   2.0000      -0.432665       -11.7734
 263   2.0000      -0.432426       -11.7669
 264   2.0000      -0.431659       -11.7460
 265   2.0000      -0.429805       -11.6956
 266   2.0000      -0.423598       -11.5267
 267   2.0000      -0.419404       -11.4126
 268   2.0000      -0.416982       -11.3466
 269   2.0000      -0.416738       -11.3400
 270   2.0000      -0.415440       -11.3047
 271   2.0000      -0.414945       -11.2912
 272   2.0000      -0.411026       -11.1846
 273   2.0000      -0.405958       -11.0467
 274   2.0000      -0.399788       -10.8788
 275   2.0000      -0.394945       -10.7470
 276   2.0000      -0.383764       -10.4427
 277   2.0000      -0.376173       -10.2362
 278   2.0000      -0.368303       -10.0220
 279   2.0000      -0.364228        -9.9112
 280   2.0000      -0.361240        -9.8299
 281   2.0000      -0.358055        -9.7432
 282   2.0000      -0.351470        -9.5640
 283   2.0000      -0.348657        -9.4874
 284   2.0000      -0.344866        -9.3843
 285   2.0000      -0.340521        -9.2661
 286   2.0000      -0.333071        -9.0633
 287   2.0000      -0.331028        -9.0077
 288   2.0000      -0.327901        -8.9226
 289   2.0000      -0.320619        -8.7245
 290   2.0000      -0.314549        -8.5593
 291   2.0000      -0.307783        -8.3752
 292   2.0000      -0.295275        -8.0349
 293   2.0000      -0.289055        -7.8656
 294   2.0000      -0.263848        -7.1797
 295   2.0000      -0.230733        -6.2786
 296   0.0000      -0.130346        -3.5469
 297   0.0000      -0.115156        -3.1336
 298   0.0000      -0.107171        -2.9163
 299   0.0000      -0.087483        -2.3805
 300   0.0000      -0.073654        -2.0042

MULLIKEN ATOMIC CHARGES
-----------------------
   0 C :    0.140647
   1 O :   -0.143407
   2 C :   -0.166231
   3 C :    0.000012
   4 C :    0.029173
   5 C :   -0.058872
   6 S :    0.217868
   7 C :    0.304934
   8 C :   -0.345461
   9 C :   -0.190616
  10 N :    0.156026
  11 C :   -0.176077
  12 N :    0.149925
  13 C :   -0.100056
  14 C :    0.032086
  15 C :   -0.117092
  16 C :   -0.006568
  17 C :   -0.009840
  18 C :   -0.080037
  19 S :    0.205870
  20 C :   -0.105386
  21 C :    0.025957
  22 C :    0.309906
  23 C :   -0.294816
  24 C :   -0.192214
  25 N :    0.199612
  26 C :   -0.190680
  27 N :    0.174512
  28 C :   -0.072956
  29 C :   -0.041774
  30 S :    0.207177
  31 C :   -0.055899
  32 C :   -0.061366
  33 C :    0.012793
  34 C :   -0.088158
  35 S :    0.204215
  36 C :   -0.083825
  37 C :    0.036660
  38 C :    0.295652
  39 C :   -0.290087
  40 C :   -0.186931
  41 N :    0.175187
  42 C :   -0.186540
  43 N :    0.175431
  44 C :   -0.044336
  45 C :   -0.058418
  46 S :    0.170666
  47 C :    0.013682
  48 C :   -0.043984
  49 C :    0.046909
  50 C :    0.027004
  51 C :   -0.013709
  52 S :    0.068579
  53 C :   -0.051948
  54 C :    0.040282
  55 C :    0.040560
  56 C :   -0.021637
  57 S :    0.103453
  58 C :    0.010540
  59 C :    0.004627
  60 C :   -0.118252
  61 C :    0.135155
  62 O :   -0.153772
  63 C :    0.009744
  64 C :   -0.083752
  65 C :    0.112233
  66 C :    0.111850
  67 C :   -0.107511
  68 C :    0.239394
  69 C :    0.236814
  70 C :   -0.104160
  71 F :   -0.175177
  72 F :   -0.174832
  73 C :   -0.085623
  74 C :    0.037045
  75 C :    0.300736
  76 C :   -0.350293
  77 C :   -0.217802
  78 N :    0.156584
  79 C :   -0.172833
  80 N :    0.134917
  81 H :    0.018254
  82 H :    0.044462
  83 H :    0.002707
  84 H :    0.038571
  85 H :    0.018294
  86 H :    0.014330
  87 H :    0.010516
  88 H :    0.005895
  89 H :    0.000312
  90 H :   -0.002350
  91 H :   -0.002228
  92 H :    0.007636
  93 H :    0.011010
  94 H :    0.018564
  95 H :   -0.011870
  96 H :    0.003428
  97 H :   -0.001817
  98 H :   -0.007205
Sum of atomic charges:   -0.0000000

LOEWDIN ATOMIC CHARGES
----------------------
   0 C :    0.070494
   1 O :   -0.134567
   2 C :   -0.207666
   3 C :   -0.040971
   4 C :   -0.043957
   5 C :   -0.148731
   6 S :    0.508502
   7 C :    0.077398
   8 C :   -0.139009
   9 C :   -0.016687
  10 N :   -0.051121
  11 C :   -0.023932
  12 N :   -0.048627
  13 C :   -0.092377
  14 C :    0.034535
  15 C :   -0.178489
  16 C :    0.015058
  17 C :   -0.076131
  18 C :   -0.160363
  19 S :    0.496555
  20 C :   -0.190271
  21 C :   -0.050882
  22 C :    0.075210
  23 C :   -0.091196
  24 C :   -0.023440
  25 N :   -0.011674
  26 C :   -0.015665
  27 N :   -0.028820
  28 C :   -0.041234
  29 C :   -0.170783
  30 S :    0.488424
  31 C :   -0.179139
  32 C :   -0.032661
  33 C :   -0.066949
  34 C :   -0.174115
  35 S :    0.492056
  36 C :   -0.184160
  37 C :   -0.064946
  38 C :    0.080795
  39 C :   -0.098618
  40 C :   -0.016636
  41 N :   -0.029034
  42 C :   -0.016429
  43 N :   -0.029744
  44 C :   -0.015160
  45 C :   -0.168053
  46 S :    0.478244
  47 C :   -0.046005
  48 C :   -0.162763
  49 C :   -0.012148
  50 C :   -0.038387
  51 C :   -0.152854
  52 S :    0.385529
  53 C :   -0.185065
  54 C :   -0.008105
  55 C :   -0.030500
  56 C :   -0.101560
  57 S :    0.405945
  58 C :   -0.062296
  59 C :    0.048785
  60 C :   -0.102821
  61 C :    0.077834
  62 O :   -0.153954
  63 C :   -0.051626
  64 C :    0.026655
  65 C :   -0.010643
  66 C :   -0.007072
  67 C :   -0.030943
  68 C :    0.064721
  69 C :    0.064957
  70 C :   -0.033890
  71 F :   -0.052427
  72 F :   -0.052101
  73 C :    0.010146
  74 C :   -0.018040
  75 C :    0.068084
  76 C :   -0.150084
  77 C :   -0.023277
  78 N :   -0.061854
  79 C :   -0.018829
  80 N :   -0.062725
  81 H :    0.043695
  82 H :    0.031754
  83 H :    0.042552
  84 H :    0.043153
  85 H :    0.036310
  86 H :    0.037612
  87 H :    0.042883
  88 H :    0.048483
  89 H :    0.039061
  90 H :    0.036676
  91 H :    0.037013
  92 H :    0.042211
  93 H :    0.038877
  94 H :    0.033206
  95 H :    0.039664
  96 H :    0.046332
  97 H :    0.044149
  98 H :    0.038647

  Mayer bond orders larger than 0.100000
B(  0-C ,  1-O ) :   2.1550 B(  0-C ,  2-C ) :   1.0673 B(  0-C , 13-C ) :   0.9290
B(  2-C ,  3-C ) :   1.4590 B(  2-C ,  6-S ) :   1.1309 B(  3-C ,  4-C ) :   1.2686
B(  3-C ,  7-C ) :   1.0017 B(  4-C ,  5-C ) :   1.5419 B(  4-C , 81-H ) :   0.9951
B(  5-C ,  6-S ) :   1.1866 B(  5-C , 82-H ) :   0.9625 B(  7-C ,  8-C ) :   1.6381
B(  7-C , 13-C ) :   1.0758 B(  8-C ,  9-C ) :   1.1503 B(  8-C , 11-C ) :   1.1327
B(  9-C , 10-N ) :   2.9861 B( 11-C , 12-N ) :   2.9621 B( 13-C , 14-C ) :   1.6389
B( 14-C , 15-C ) :   1.2014 B( 14-C , 83-H ) :   0.9084 B( 15-C , 16-C ) :   1.4078
B( 15-C , 19-S ) :   1.0778 B( 16-C , 17-C ) :   1.3107 B( 16-C , 84-H ) :   0.9706
B( 17-C , 18-C ) :   1.3801 B( 17-C , 22-C ) :   0.9999 B( 18-C , 19-S ) :   1.1644
B( 18-C , 20-C ) :   1.2062 B( 20-C , 21-C ) :   1.4366 B( 20-C , 30-S ) :   1.1060
B( 21-C , 22-C ) :   0.9899 B( 21-C , 28-C ) :   1.3157 B( 22-C , 23-C ) :   1.7184
B( 23-C , 24-C ) :   1.1355 B( 23-C , 26-C ) :   1.1350 B( 24-C , 25-N ) :   2.9985
B( 26-C , 27-N ) :   2.9866 B( 28-C , 29-C ) :   1.4374 B( 28-C , 85-H ) :   0.9847
B( 29-C , 30-S ) :   1.1193 B( 29-C , 31-C ) :   1.1801 B( 31-C , 32-C ) :   1.4496
B( 31-C , 35-S ) :   1.1039 B( 32-C , 33-C ) :   1.3073 B( 32-C , 86-H ) :   0.9883
B( 33-C , 34-C ) :   1.4111 B( 33-C , 38-C ) :   1.0055 B( 34-C , 35-S ) :   1.1238
B( 34-C , 36-C ) :   1.2195 B( 36-C , 37-C ) :   1.3827 B( 36-C , 46-S ) :   1.1336
B( 37-C , 38-C ) :   0.9827 B( 37-C , 44-C ) :   1.3411 B( 38-C , 39-C ) :   1.7174
B( 39-C , 40-C ) :   1.1318 B( 39-C , 42-C ) :   1.1329 B( 40-C , 41-N ) :   2.9922
B( 42-C , 43-N ) :   2.9914 B( 44-C , 45-C ) :   1.3532 B( 44-C , 87-H ) :   1.0047
B( 45-C , 46-S ) :   1.0810 B( 45-C , 47-C ) :   1.2266 B( 47-C , 48-C ) :   1.5225
B( 47-C , 88-H ) :   0.9720 B( 48-C , 49-C ) :   1.1626 B( 48-C , 52-S ) :   1.0336
B( 49-C , 50-C ) :   1.5702 B( 49-C , 89-H ) :   1.0007 B( 50-C , 51-C ) :   1.2045
B( 50-C , 90-H ) :   0.9938 B( 51-C , 52-S ) :   1.0679 B( 51-C , 53-C ) :   1.4634
B( 53-C , 54-C ) :   1.2192 B( 53-C , 57-S ) :   1.0482 B( 54-C , 55-C ) :   1.5428
B( 54-C , 91-H ) :   0.9951 B( 55-C , 56-C ) :   1.1820 B( 55-C , 92-H ) :   1.0008
B( 56-C , 57-S ) :   1.0833 B( 56-C , 58-C ) :   1.4957 B( 58-C , 59-C ) :   1.2176
B( 58-C , 93-H ) :   0.9647 B( 59-C , 60-C ) :   1.5330 B( 59-C , 94-H ) :   0.9313
B( 60-C , 61-C ) :   0.9631 B( 60-C , 75-C ) :   1.0804 B( 61-C , 62-O ) :   2.2398
B( 61-C , 63-C ) :   0.9211 B( 63-C , 64-C ) :   1.4812 B( 63-C , 74-C ) :   1.2190
B( 64-C , 65-C ) :   1.1861 B( 64-C , 95-H ) :   1.0169 B( 65-C , 66-C ) :   1.2610
B( 65-C , 70-C ) :   1.1936 B( 66-C , 67-C ) :   1.1929 B( 66-C , 73-C ) :   1.2078
B( 67-C , 68-C ) :   1.4383 B( 67-C , 70-C ) :   0.1089 B( 67-C , 96-H ) :   1.0072
B( 68-C , 69-C ) :   1.1951 B( 68-C , 72-F ) :   1.1306 B( 69-C , 70-C ) :   1.4407
B( 69-C , 71-F ) :   1.1299 B( 70-C , 97-H ) :   1.0076 B( 73-C , 74-C ) :   1.4638
B( 73-C , 98-H ) :   0.9910 B( 74-C , 75-C ) :   0.9901 B( 75-C , 76-C ) :   1.6003
B( 76-C , 77-C ) :   1.1731 B( 76-C , 79-C ) :   1.1330 B( 77-C , 78-N ) :   3.0018
B( 79-C , 80-N ) :   2.9683

-----------------------------------------------------------------------------
         ABSORPTION SPECTRUM VIA TRANSITION ELECTRIC DIPOLE MOMENTS
-----------------------------------------------------------------------------
State   Energy  Wavelength   fosc         T2         TX        TY        TZ
        (cm-1)    (nm)                  (au**2)     (au)      (au)      (au)
-----------------------------------------------------------------------------
   0    8218.0   1216.8   0.631532842  25.29902   3.91660   3.15295   0.13477
   1   12003.9    833.1   0.294105518   8.06599  -2.09881  -1.90608  -0.16682
   2   12871.8    776.9   0.666283244  17.04105  -0.77085   3.96065   0.87184
   3   15795.9    633.1   0.173229288   3.61038   1.27261  -1.34814  -0.41637
   4   17994.0    555.7   0.111351359   2.03725  -1.03275   0.92335   0.34366
   5   20668.0    483.8   1.461488714  23.27946   4.45720  -1.58024  -0.95688
   6   21555.5    463.9   0.203076626   3.10155   1.44237  -0.89378  -0.47145
   7   22161.1    451.2   0.037767683   0.56105  -0.19096   0.62036   0.37383
   8   23305.7    429.1   0.004688992   0.06624  -0.12989   0.01911  -0.22136
   9   23487.0    425.8   0.010492093   0.14706  -0.05532  -0.32705   0.19247
  10   24200.5    413.2   0.288123234   3.91949  -1.44928   1.34730   0.06232
  11   25311.7    395.1   0.020944160   0.27241  -0.51090   0.10664  -0.00342
  12   25625.9    390.2   0.005654481   0.07264  -0.25067   0.05783   0.08039
  13   25705.2    389.0   0.028912130   0.37028  -0.41800   0.42979  -0.10411
  14   26377.0    379.1   0.334133694   4.17033  -2.02608   0.12244   0.22437
  15   26913.9    371.6   0.009469525   0.11583  -0.04711  -0.26055   0.21384
  16   27677.6    361.3   0.231579745   2.75453  -1.58720   0.43463   0.21543
  17   28313.6    353.2   0.002062474   0.02398   0.03434   0.10959  -0.10388
  18   28531.0    350.5   0.060188343   0.69450  -0.53540  -0.63859   0.00697
  19   29026.8    344.5   0.079635985   0.90320  -0.08400  -0.92267  -0.21171
  20   29542.5    338.5   0.403952949   4.50153  -1.11466   1.79409   0.20077
  21   29879.9    334.7   0.109800784   1.20977  -0.23579   1.06449   0.14502
  22   29965.3    333.7   0.042035825   0.46182  -0.33245  -0.55022  -0.22035
  23   30210.7    331.0   0.044430481   0.48417  -0.33802   0.60803   0.01473
  24   30528.1    327.6   0.087278596   0.94120  -0.06960  -0.96324  -0.09239
  25   30724.2    325.5   0.237608695   2.54599   0.99165   1.24506   0.11151
  26   31101.9    321.5   0.083862932   0.88768   0.89911   0.26885   0.08373
  27   31336.8    319.1   0.012857006   0.13507   0.29733   0.01844   0.21524
  28   31474.7    317.7   0.000826813   0.00865  -0.00163   0.09232  -0.01108
  29   31675.1    315.7   0.150065219   1.55969   0.43419   1.16191   0.14535
  30   31940.4    313.1   0.161131736   1.66080   0.06312   1.26396   0.24336
  31   32131.7    311.2   0.104720983   1.07294  -0.85534   0.57748  -0.08857
  32   32363.0    309.0   0.001222654   0.01244  -0.06954  -0.06799  -0.05458
  33   32463.6    308.0   0.339988270   3.44780   0.22140  -1.82770  -0.24148
  34   32721.0    305.6   0.003836186   0.03860   0.11637  -0.13498  -0.08267
  35   33033.8    302.7   0.308234049   3.07183  -1.71494   0.24889   0.26240
  36   33259.9    300.7   0.110072353   1.08951   0.19268  -0.99985  -0.22953
  37   33477.8    298.7   0.145726817   1.43304   1.04400  -0.57330   0.12009
  38   33683.7    296.9   0.023043497   0.22522   0.36277   0.20849  -0.22395
  39   33812.0    295.8   0.028661406   0.27906  -0.40556  -0.31940  -0.11211
  40   34004.4    294.1   0.155745433   1.50784  -0.17222   1.21318  -0.07977
  41   34207.8    292.3   0.088020665   0.84710   0.90885   0.04941   0.13660
  42   34533.8    289.6   0.053318545   0.50829  -0.59211   0.33305  -0.21627
  43   34596.2    289.0   0.047904434   0.45585  -0.54135  -0.39694   0.07226
  44   34927.1    286.3   0.151911375   1.43187   0.61758  -1.02371   0.04984
  45   35078.5    285.1   0.122439418   1.14909  -0.78409  -0.73057   0.02375
  46   35145.6    284.5   0.028817145   0.26993  -0.35529  -0.37605  -0.04783
  47   35226.7    283.9   0.059301808   0.55421  -0.68403   0.22901  -0.18403
  48   35332.3    283.0   0.160471930   1.49521   1.02579  -0.66429   0.04099
  49   35485.7    281.8   0.025758148   0.23897  -0.13657  -0.46644   0.05244
  50   35820.2    279.2   0.401818263   3.69298  -0.22516  -1.89525   0.22428
  51   35886.6    278.7   0.150114276   1.37710  -0.84045  -0.80340   0.15899
  52   36283.8    275.6   0.106083849   0.96253  -0.20237  -0.92356   0.26192
  53   36615.3    273.1   0.060656435   0.54537  -0.44163  -0.57936   0.12113
  54   36694.2    272.5   0.088487621   0.79389   0.83905   0.29644   0.04491
  55   36840.3    271.4   0.024917611   0.22267   0.33936  -0.31587   0.08794
  56   37203.6    268.8   0.075864347   0.67132   0.34215   0.73949   0.08606
  57   37828.1    264.4   0.004871663   0.04240  -0.11705   0.16914   0.00932
  58   37888.7    263.9   0.003039083   0.02641  -0.09806  -0.12018   0.04845
  59   38059.3    262.7   0.010379904   0.08979  -0.04109   0.26784   0.12791
  60   38249.5    261.4   0.013319180   0.11464   0.33720   0.02432  -0.01851
  61   38372.9    260.6   0.046521034   0.39912   0.55746   0.25765   0.14824
  62   38451.7    260.1   0.035363244   0.30277  -0.36820   0.40359  -0.06567
  63   38736.6    258.2   0.005703680   0.04847   0.17777  -0.12798  -0.02218
  64   38807.3    257.7   0.045585830   0.38672  -0.53005   0.29310   0.14091
  65   38943.9    256.8   0.287660677   2.43174  -1.50899   0.00590  -0.39327
  66   39165.3    255.3   0.076711100   0.64481  -0.77605   0.20133  -0.04489
  67   39531.1    253.0   0.008014717   0.06675   0.25819  -0.00080  -0.00925
  68   39729.6    251.7   0.013600405   0.11270  -0.33064   0.00520   0.05784
  69   40043.5    249.7   0.000851980   0.00700   0.04396  -0.07103  -0.00526

FINAL SINGLE POINT ENERGY     -5943.854991689346

DIPOLE MOMENT
-------------
                                X             Y             Z
Electronic contribution:    -28.34370       9.80405       4.31771
Nuclear contribution   :     29.64318     -11.81208      -6.52868
                        -----------------------------------------
Total Dipole Moment    :      1.29948      -2.00803      -2.21098
                        -----------------------------------------
Magnitude (a.u.)       :      3.25719
Magnitude (Debye)      :      8.27911

Rotational constants in cm-1:     0.000561     0.000245     0.000172
Rotational constants in MHz :    16.808625     7.351764     5.148316

                             ****ORCA TERMINATED NORMALLY****
TOTAL RUN TIME: 0 days 0 hours 12 minutes 26 seconds 239 msec
