                         Program Version 4.2.0 -  RELEASE  -
|  1> # ORCA input file
|  2> # SCF done       -191.737245332572          0.000611871469
|  3> ! CAM-B3LYP def2-SVP def2/J RIJCOSX Grid4 TightSCF
|  4> %maxcore 5000
|  5> %tddft
|  6>     Mode sTDDFT
|  7>     Ethresh 5.0
|  8>     maxcore 5000
|  9> end
| 10>
| 11> %pal
| 12>   nprocs 6
| 13>   end
| 14> * xyz 0 1
| 15>    C        5.65807         3.85462        -1.58335
| 16>    O        6.70249         3.42060        -2.03745
| 17>    C        5.04993         5.15822        -1.81918
| 18>    C        3.85918         5.28604        -1.11692
| 19>    C        3.24098         6.53386        -1.32188
| 20>    C        3.97756         7.30911        -2.16889
| 21>    S        5.42251         6.55460        -2.73114
| 22>    C        3.61940         4.06154        -0.37268
| 23>    C        2.53651         3.84907         0.44248
| 24>    C        1.54059         4.83224         0.61623
| 25>    N        0.71989         5.61924         0.77286
| 26>    C        2.27610         2.68436         1.19006
| 27>    N        1.99819         1.76908         1.82622
| 28>    C        4.72452         3.17168        -0.66768
| 29>    C        4.87091         1.89247        -0.18965
| 30>    C        5.87960         0.95551        -0.42214
| 31>    S        7.32090         1.12476        -1.39695
| 32>    C        7.85781        -0.50511        -1.05826
| 33>    C        6.94439        -1.16938        -0.20944
| 34>    C        5.86051        -0.33131         0.13182
| 35>    S        4.72492        -1.08931         1.18373
| 36>    C        5.69804        -2.53681         1.16905
| 37>    C        5.25568        -3.68493         1.96691
| 38>    O        5.81944        -4.75396         2.00714
| 39>    O        4.15285        -3.36807         2.64132
| 40>    C        3.59283        -4.32908         3.53870
| 41>    C        3.08781        -3.61256         4.77673
| 42>    C        6.82449        -2.43852         0.40299
| 43>    C        9.05717        -0.92665        -1.63691
| 44>    C        9.60224        -2.18545        -1.53330
| 45>    C       10.80025        -2.57757        -2.11949
| 46>    C       11.29416        -3.86704        -2.01932
| 47>    C       12.48160        -4.39218        -2.56526
| 48>    C       12.67816        -5.72207        -2.30403
| 49>    C       11.65136        -6.30444        -1.54074
| 50>    S       10.43279        -5.12044        -1.15006
| 51>    C       11.50477        -7.62043        -1.11762
| 52>    C       12.34233        -8.72763        -1.33872
| 53>    C       11.86408        -9.88991        -0.79884
| 54>    C       10.62915        -9.75083        -0.12981
| 55>    S       10.09863        -8.08851        -0.19166
| 56>    C        9.90250       -10.75817         0.47496
| 57>    C        8.67538       -10.62863         1.11585
| 58>    S        7.81112        -9.12335         1.33713
| 59>    C        6.47874        -9.87965         2.18746
| 60>    C        6.69547       -11.27080         2.26695
| 61>    C        7.91730       -11.66350         1.67824
| 62>    S        8.18211       -13.36824         1.75209
| 63>    C        6.64549       -13.55979         2.55230
| 64>    C        6.17569       -14.90964         2.88690
| 65>    O        6.74503       -15.92461         2.56852
| 66>    O        5.04178       -14.84997         3.59211
| 67>    C        4.39129       -16.08608         3.89181
| 68>    C        3.48155       -16.50806         2.74747
| 69>    C        5.97979       -12.38635         2.75449
| 70>    C        5.44269        -9.06806         2.65709
| 71>    C        4.39667        -9.47796         3.44738
| 72>    C        3.41095        -8.59083         3.89355
| 73>    C        2.34372        -8.84839         4.71865
| 74>    C        1.66014        -7.69639         5.37121
| 75>    O        1.78331        -6.52332         5.08806
| 76>    C        0.86334        -8.30791         6.42973
| 77>    C        0.96429        -9.69181         6.38937
| 78>    C        1.79106       -10.07184         5.25308
| 79>    C        1.83007       -11.34721         4.74417
| 80>    C        1.23313       -12.43559         5.41235
| 81>    N        0.78357       -13.35184         5.93816
| 82>    C        2.35221       -11.72647         3.49522
| 83>    N        2.71549       -12.11284         2.47575
| 84>    C        0.21451       -10.32006         7.40124
| 85>    C       -0.42255        -9.39795         8.17899
| 86>    S       -0.14317        -7.76542         7.70024
| 87>    H        2.31419         6.84788        -0.87907
| 88>    H        3.74942         8.30256        -2.50237
| 89>    H        4.09258         1.52038         0.46728
| 90>    H        4.36272        -5.06678         3.78703
| 91>    H        2.76706        -4.83253         3.02693
| 92>    H        2.39969        -2.82231         4.48963
| 93>    H        3.91374        -3.17466         5.33169
| 94>    H        2.56743        -4.32963         5.40285
| 95>    H        7.51072        -3.25994         0.31614
| 96>    H        9.58232        -0.18381        -2.22407
| 97>    H        9.06993        -2.93756        -0.97054
| 98>    H       11.37734        -1.85803        -2.68427
| 99>    H       13.15726        -3.78095        -3.13709
|100>    H       13.52735        -6.28679        -2.64457
|101>    H       13.26385        -8.64900        -1.88682
|102>    H       12.36061       -10.84144        -0.86770
|103>    H       10.31440       -11.75870         0.44056
|104>    H        3.81579       -15.88996         4.79888
|105>    H        5.15052       -16.85122         4.08438
|106>    H        2.78026       -15.70932         2.51762
|107>    H        2.92850       -17.39882         3.03036
|108>    H        4.07302       -16.72511         1.86104
|109>    H        4.99977       -12.37048         3.18836
|110>    H        5.49583        -8.02309         2.37474
|111>    H        4.36038       -10.50136         3.77829
|112>    H        3.53543        -7.54427         3.63475
|113>    H        0.14889       -11.38052         7.55896
|114>    H       -1.05741        -9.58846         9.02212
|115> *
|116>
|117>                          ****END OF INPUT****

CARTESIAN COORDINATES (ANGSTROEM)
---------------------------------
  C      5.658070    3.854620   -1.583350
  O      6.702490    3.420600   -2.037450
  C      5.049930    5.158220   -1.819180
  C      3.859180    5.286040   -1.116920
  C      3.240980    6.533860   -1.321880
  C      3.977560    7.309110   -2.168890
  S      5.422510    6.554600   -2.731140
  C      3.619400    4.061540   -0.372680
  C      2.536510    3.849070    0.442480
  C      1.540590    4.832240    0.616230
  N      0.719890    5.619240    0.772860
  C      2.276100    2.684360    1.190060
  N      1.998190    1.769080    1.826220
  C      4.724520    3.171680   -0.667680
  C      4.870910    1.892470   -0.189650
  C      5.879600    0.955510   -0.422140
  S      7.320900    1.124760   -1.396950
  C      7.857810   -0.505110   -1.058260
  C      6.944390   -1.169380   -0.209440
  C      5.860510   -0.331310    0.131820
  S      4.724920   -1.089310    1.183730
  C      5.698040   -2.536810    1.169050
  C      5.255680   -3.684930    1.966910
  O      5.819440   -4.753960    2.007140
  O      4.152850   -3.368070    2.641320
  C      3.592830   -4.329080    3.538700
  C      3.087810   -3.612560    4.776730
  C      6.824490   -2.438520    0.402990
  C      9.057170   -0.926650   -1.636910
  C      9.602240   -2.185450   -1.533300
  C     10.800250   -2.577570   -2.119490
  C     11.294160   -3.867040   -2.019320
  C     12.481600   -4.392180   -2.565260
  C     12.678160   -5.722070   -2.304030
  C     11.651360   -6.304440   -1.540740
  S     10.432790   -5.120440   -1.150060
  C     11.504770   -7.620430   -1.117620
  C     12.342330   -8.727630   -1.338720
  C     11.864080   -9.889910   -0.798840
  C     10.629150   -9.750830   -0.129810
  S     10.098630   -8.088510   -0.191660
  C      9.902500  -10.758170    0.474960
  C      8.675380  -10.628630    1.115850
  S      7.811120   -9.123350    1.337130
  C      6.478740   -9.879650    2.187460
  C      6.695470  -11.270800    2.266950
  C      7.917300  -11.663500    1.678240
  S      8.182110  -13.368240    1.752090
  C      6.645490  -13.559790    2.552300
  C      6.175690  -14.909640    2.886900
  O      6.745030  -15.924610    2.568520
  O      5.041780  -14.849970    3.592110
  C      4.391290  -16.086080    3.891810
  C      3.481550  -16.508060    2.747470
  C      5.979790  -12.386350    2.754490
  C      5.442690   -9.068060    2.657090
  C      4.396670   -9.477960    3.447380
  C      3.410950   -8.590830    3.893550
  C      2.343720   -8.848390    4.718650
  C      1.660140   -7.696390    5.371210
  O      1.783310   -6.523320    5.088060
  C      0.863340   -8.307910    6.429730
  C      0.964290   -9.691810    6.389370
  C      1.791060  -10.071840    5.253080
  C      1.830070  -11.347210    4.744170
  C      1.233130  -12.435590    5.412350
  N      0.783570  -13.351840    5.938160
  C      2.352210  -11.726470    3.495220
  N      2.715490  -12.112840    2.475750
  C      0.214510  -10.320060    7.401240
  C     -0.422550   -9.397950    8.178990
  S     -0.143170   -7.765420    7.700240
  H      2.314190    6.847880   -0.879070
  H      3.749420    8.302560   -2.502370
  H      4.092580    1.520380    0.467280
  H      4.362720   -5.066780    3.787030
  H      2.767060   -4.832530    3.026930
  H      2.399690   -2.822310    4.489630
  H      3.913740   -3.174660    5.331690
  H      2.567430   -4.329630    5.402850
  H      7.510720   -3.259940    0.316140
  H      9.582320   -0.183810   -2.224070
  H      9.069930   -2.937560   -0.970540
  H     11.377340   -1.858030   -2.684270
  H     13.157260   -3.780950   -3.137090
  H     13.527350   -6.286790   -2.644570
  H     13.263850   -8.649000   -1.886820
  H     12.360610  -10.841440   -0.867700
  H     10.314400  -11.758700    0.440560
  H      3.815790  -15.889960    4.798880
  H      5.150520  -16.851220    4.084380
  H      2.780260  -15.709320    2.517620
  H      2.928500  -17.398820    3.030360
  H      4.073020  -16.725110    1.861040
  H      4.999770  -12.370480    3.188360
  H      5.495830   -8.023090    2.374740
  H      4.360380  -10.501360    3.778290
  H      3.535430   -7.544270    3.634750
  H      0.148890  -11.380520    7.558960
  H     -1.057410   -9.588460    9.022120

 Total Charge           Charge          ....    0
 Multiplicity           Mult            ....    1
 Number of Electrons    NEL             ....  556
 Basis Dimension        Dim             .... 1180

ORBITAL ENERGIES
----------------

  NO   OCC          E(Eh)            E(eV)
   0   2.0000     -88.983687     -2421.3692
   1   2.0000     -88.981567     -2421.3115
   2   2.0000     -88.973733     -2421.0984
   3   2.0000     -88.967438     -2420.9271
   4   2.0000     -88.965088     -2420.8631
   5   2.0000     -88.963480     -2420.8194
   6   2.0000     -88.963350     -2420.8158
   7   2.0000     -88.962646     -2420.7967
   8   2.0000     -19.256514      -523.9964
   9   2.0000     -19.253041      -523.9019
  10   2.0000     -19.218866      -522.9719
  11   2.0000     -19.212553      -522.8001
  12   2.0000     -19.203015      -522.5406
  13   2.0000     -19.201500      -522.4994
  14   2.0000     -14.413391      -392.2083
  15   2.0000     -14.412642      -392.1879
  16   2.0000     -14.410521      -392.1302
  17   2.0000     -14.409194      -392.0941
  18   2.0000     -10.404682      -283.1258
  19   2.0000     -10.402314      -283.0614
  20   2.0000     -10.374321      -282.2996
  21   2.0000     -10.368841      -282.1505
  22   2.0000     -10.338991      -281.3382
  23   2.0000     -10.338957      -281.3373
  24   2.0000     -10.337984      -281.3108
  25   2.0000     -10.337252      -281.2909
  26   2.0000     -10.330597      -281.1098
  27   2.0000     -10.328595      -281.0554
  28   2.0000     -10.327603      -281.0284
  29   2.0000     -10.326281      -280.9924
  30   2.0000     -10.326023      -280.9854
  31   2.0000     -10.320989      -280.8484
  32   2.0000     -10.317030      -280.7407
  33   2.0000     -10.316789      -280.7341
  34   2.0000     -10.316142      -280.7165
  35   2.0000     -10.316112      -280.7157
  36   2.0000     -10.316073      -280.7146
  37   2.0000     -10.315831      -280.7080
  38   2.0000     -10.315424      -280.6970
  39   2.0000     -10.315184      -280.6904
  40   2.0000     -10.314804      -280.6801
  41   2.0000     -10.313905      -280.6556
  42   2.0000     -10.312429      -280.6155
  43   2.0000     -10.312314      -280.6123
  44   2.0000     -10.311283      -280.5843
  45   2.0000     -10.310587      -280.5653
  46   2.0000     -10.309815      -280.5443
  47   2.0000     -10.309579      -280.5379
  48   2.0000     -10.307661      -280.4857
  49   2.0000     -10.305840      -280.4362
  50   2.0000     -10.305696      -280.4323
  51   2.0000     -10.305170      -280.4179
  52   2.0000     -10.304067      -280.3879
  53   2.0000     -10.303936      -280.3844
  54   2.0000     -10.303162      -280.3633
  55   2.0000     -10.302879      -280.3556
  56   2.0000     -10.302760      -280.3523
  57   2.0000     -10.300167      -280.2818
  58   2.0000     -10.298396      -280.2336
  59   2.0000     -10.297906      -280.2203
  60   2.0000     -10.297697      -280.2146
  61   2.0000     -10.297259      -280.2027
  62   2.0000     -10.295628      -280.1583
  63   2.0000     -10.293974      -280.1133
  64   2.0000     -10.293697      -280.1057
  65   2.0000     -10.292494      -280.0730
  66   2.0000     -10.292208      -280.0652
  67   2.0000     -10.287799      -279.9452
  68   2.0000     -10.285732      -279.8890
  69   2.0000     -10.281156      -279.7645
  70   2.0000     -10.250390      -278.9273
  71   2.0000     -10.242609      -278.7155
  72   2.0000      -8.078721      -219.8332
  73   2.0000      -8.076618      -219.7760
  74   2.0000      -8.068460      -219.5539
  75   2.0000      -8.061300      -219.3591
  76   2.0000      -8.060509      -219.3376
  77   2.0000      -8.059658      -219.3145
  78   2.0000      -8.058809      -219.2913
  79   2.0000      -8.057716      -219.2616
  80   2.0000      -6.047867      -164.5708
  81   2.0000      -6.045785      -164.5142
  82   2.0000      -6.043470      -164.4512
  83   2.0000      -6.041452      -164.3963
  84   2.0000      -6.041340      -164.3932
  85   2.0000      -6.039358      -164.3393
  86   2.0000      -6.037769      -164.2960
  87   2.0000      -6.033592      -164.1824
  88   2.0000      -6.030970      -164.1110
  89   2.0000      -6.030575      -164.1003
  90   2.0000      -6.029975      -164.0840
  91   2.0000      -6.029283      -164.0651
  92   2.0000      -6.028424      -164.0418
  93   2.0000      -6.027274      -164.0105
  94   2.0000      -6.026764      -163.9966
  95   2.0000      -6.025427      -163.9602
  96   2.0000      -6.025291      -163.9565
  97   2.0000      -6.024214      -163.9272
  98   2.0000      -6.022990      -163.8939
  99   2.0000      -6.022681      -163.8855
 100   2.0000      -6.022428      -163.8786
 101   2.0000      -6.020731      -163.8324
 102   2.0000      -6.020268      -163.8198
 103   2.0000      -6.019333      -163.7944
 104   2.0000      -1.189349       -32.3638
 105   2.0000      -1.186367       -32.2827
 106   2.0000      -1.135040       -30.8860
 107   2.0000      -1.127839       -30.6901
 108   2.0000      -1.095754       -29.8170
 109   2.0000      -1.095267       -29.8037
 110   2.0000      -1.022377       -27.8203
 111   2.0000      -1.020553       -27.7707
 112   2.0000      -1.019748       -27.7487
 113   2.0000      -1.016103       -27.6496
 114   2.0000      -1.013302       -27.5733
 115   2.0000      -1.004423       -27.3317
 116   2.0000      -1.004400       -27.3311
 117   2.0000      -0.992530       -27.0081
 118   2.0000      -0.990373       -26.9494
 119   2.0000      -0.989675       -26.9304
 120   2.0000      -0.961503       -26.1638
 121   2.0000      -0.959160       -26.1001
 122   2.0000      -0.956265       -26.0213
 123   2.0000      -0.954844       -25.9826
 124   2.0000      -0.930231       -25.3129
 125   2.0000      -0.923951       -25.1420
 126   2.0000      -0.907009       -24.6810
 127   2.0000      -0.900228       -24.4964
 128   2.0000      -0.894353       -24.3366
 129   2.0000      -0.889668       -24.2091
 130   2.0000      -0.875265       -23.8172
 131   2.0000      -0.865636       -23.5551
 132   2.0000      -0.864485       -23.5238
 133   2.0000      -0.858068       -23.3492
 134   2.0000      -0.853631       -23.2285
 135   2.0000      -0.849842       -23.1254
 136   2.0000      -0.847818       -23.0703
 137   2.0000      -0.842868       -22.9356
 138   2.0000      -0.838902       -22.8277
 139   2.0000      -0.836941       -22.7743
 140   2.0000      -0.823551       -22.4100
 141   2.0000      -0.821748       -22.3609
 142   2.0000      -0.815993       -22.2043
 143   2.0000      -0.798347       -21.7241
 144   2.0000      -0.785521       -21.3751
 145   2.0000      -0.771646       -20.9976
 146   2.0000      -0.761853       -20.7311
 147   2.0000      -0.759880       -20.6774
 148   2.0000      -0.751983       -20.4625
 149   2.0000      -0.748609       -20.3707
 150   2.0000      -0.742110       -20.1939
 151   2.0000      -0.728315       -19.8185
 152   2.0000      -0.713029       -19.4025
 153   2.0000      -0.698031       -18.9944
 154   2.0000      -0.694872       -18.9084
 155   2.0000      -0.692820       -18.8526
 156   2.0000      -0.685762       -18.6605
 157   2.0000      -0.683230       -18.5916
 158   2.0000      -0.678780       -18.4706
 159   2.0000      -0.669471       -18.2172
 160   2.0000      -0.664529       -18.0827
 161   2.0000      -0.662142       -18.0178
 162   2.0000      -0.659572       -17.9479
 163   2.0000      -0.647637       -17.6231
 164   2.0000      -0.645343       -17.5607
 165   2.0000      -0.640613       -17.4320
 166   2.0000      -0.638267       -17.3681
 167   2.0000      -0.633967       -17.2511
 168   2.0000      -0.625565       -17.0225
 169   2.0000      -0.624933       -17.0053
 170   2.0000      -0.619766       -16.8647
 171   2.0000      -0.616398       -16.7730
 172   2.0000      -0.613607       -16.6971
 173   2.0000      -0.607828       -16.5398
 174   2.0000      -0.606854       -16.5133
 175   2.0000      -0.595999       -16.2180
 176   2.0000      -0.594145       -16.1675
 177   2.0000      -0.586349       -15.9554
 178   2.0000      -0.578916       -15.7531
 179   2.0000      -0.575081       -15.6487
 180   2.0000      -0.572900       -15.5894
 181   2.0000      -0.569713       -15.5027
 182   2.0000      -0.566613       -15.4183
 183   2.0000      -0.561001       -15.2656
 184   2.0000      -0.555916       -15.1273
 185   2.0000      -0.551738       -15.0136
 186   2.0000      -0.551182       -14.9984
 187   2.0000      -0.546406       -14.8685
 188   2.0000      -0.542006       -14.7487
 189   2.0000      -0.541613       -14.7380
 190   2.0000      -0.536713       -14.6047
 191   2.0000      -0.535217       -14.5640
 192   2.0000      -0.532128       -14.4799
 193   2.0000      -0.528573       -14.3832
 194   2.0000      -0.524212       -14.2645
 195   2.0000      -0.521105       -14.1800
 196   2.0000      -0.520403       -14.1609
 197   2.0000      -0.517905       -14.0929
 198   2.0000      -0.515812       -14.0360
 199   2.0000      -0.514600       -14.0030
 200   2.0000      -0.513304       -13.9677
 201   2.0000      -0.512932       -13.9576
 202   2.0000      -0.511244       -13.9117
 203   2.0000      -0.508859       -13.8468
 204   2.0000      -0.502470       -13.6729
 205   2.0000      -0.499958       -13.6046
 206   2.0000      -0.497311       -13.5325
 207   2.0000      -0.494822       -13.4648
 208   2.0000      -0.493715       -13.4347
 209   2.0000      -0.489902       -13.3309
 210   2.0000      -0.484784       -13.1916
 211   2.0000      -0.483793       -13.1647
 212   2.0000      -0.480692       -13.0803
 213   2.0000      -0.479147       -13.0383
 214   2.0000      -0.478664       -13.0251
 215   2.0000      -0.476190       -12.9578
 216   2.0000      -0.471991       -12.8435
 217   2.0000      -0.471074       -12.8186
 218   2.0000      -0.469091       -12.7646
 219   2.0000      -0.468171       -12.7396
 220   2.0000      -0.466416       -12.6918
 221   2.0000      -0.465045       -12.6545
 222   2.0000      -0.458494       -12.4763
 223   2.0000      -0.457204       -12.4411
 224   2.0000      -0.454566       -12.3694
 225   2.0000      -0.452780       -12.3208
 226   2.0000      -0.450535       -12.2597
 227   2.0000      -0.447693       -12.1824
 228   2.0000      -0.447232       -12.1698
 229   2.0000      -0.445453       -12.1214
 230   2.0000      -0.443577       -12.0703
 231   2.0000      -0.443217       -12.0605
 232   2.0000      -0.440972       -11.9994
 233   2.0000      -0.439619       -11.9626
 234   2.0000      -0.438090       -11.9210
 235   2.0000      -0.437522       -11.9056
 236   2.0000      -0.436836       -11.8869
 237   2.0000      -0.435216       -11.8428
 238   2.0000      -0.431349       -11.7376
 239   2.0000      -0.430448       -11.7131
 240   2.0000      -0.426825       -11.6145
 241   2.0000      -0.426130       -11.5956
 242   2.0000      -0.424976       -11.5642
 243   2.0000      -0.423361       -11.5202
 244   2.0000      -0.422620       -11.5001
 245   2.0000      -0.422263       -11.4904
 246   2.0000      -0.419462       -11.4141
 247   2.0000      -0.412600       -11.2274
 248   2.0000      -0.410841       -11.1796
 249   2.0000      -0.407043       -11.0762
 250   2.0000      -0.405759       -11.0413
 251   2.0000      -0.405025       -11.0213
 252   2.0000      -0.404044       -10.9946
 253   2.0000      -0.401584       -10.9277
 254   2.0000      -0.400998       -10.9117
 255   2.0000      -0.392041       -10.6680
 256   2.0000      -0.376193       -10.2367
 257   2.0000      -0.369981       -10.0677
 258   2.0000      -0.369051       -10.0424
 259   2.0000      -0.359527        -9.7832
 260   2.0000      -0.355291        -9.6680
 261   2.0000      -0.354836        -9.6556
 262   2.0000      -0.351685        -9.5698
 263   2.0000      -0.343252        -9.3404
 264   2.0000      -0.340727        -9.2716
 265   2.0000      -0.340172        -9.2566
 266   2.0000      -0.336849        -9.1661
 267   2.0000      -0.335553        -9.1309
 268   2.0000      -0.329497        -8.9661
 269   2.0000      -0.325914        -8.8686
 270   2.0000      -0.315328        -8.5805
 271   2.0000      -0.314451        -8.5566
 272   2.0000      -0.312402        -8.5009
 273   2.0000      -0.306105        -8.3296
 274   2.0000      -0.303340        -8.2543
 275   2.0000      -0.278445        -7.5769
 276   2.0000      -0.250633        -6.8201
 277   2.0000      -0.212625        -5.7858
 278   0.0000      -0.121916        -3.3175
 279   0.0000      -0.087069        -2.3693
 280   0.0000      -0.072146        -1.9632
 281   0.0000      -0.067158        -1.8275
 282   0.0000      -0.054960        -1.4955

MULLIKEN ATOMIC CHARGES
-----------------------
   0 C :    0.147096
   1 O :   -0.178716
   2 C :   -0.168380
   3 C :   -0.002654
   4 C :    0.026546
   5 C :   -0.060674
   6 S :    0.204121
   7 C :    0.318269
   8 C :   -0.345102
   9 C :   -0.190544
  10 N :    0.149456
  11 C :   -0.182145
  12 N :    0.148035
  13 C :   -0.120956
  14 C :   -0.059073
  15 C :   -0.094224
  16 S :    0.206553
  17 C :   -0.087122
  18 C :    0.139748
  19 C :   -0.055462
  20 S :    0.196460
  21 C :   -0.128636
  22 C :    0.220594
  23 O :   -0.211693
  24 O :   -0.306799
  25 C :    0.147451
  26 C :   -0.009721
  27 C :   -0.026167
  28 C :    0.038273
  29 C :    0.008355
  30 C :    0.009416
  31 C :   -0.024206
  32 C :    0.040541
  33 C :    0.026556
  34 C :   -0.032391
  35 S :    0.073726
  36 C :   -0.030260
  37 C :    0.031587
  38 C :    0.031085
  39 C :   -0.026454
  40 S :    0.081056
  41 C :   -0.024814
  42 C :   -0.096719
  43 S :    0.143960
  44 C :   -0.108999
  45 C :    0.150559
  46 C :   -0.050933
  47 S :    0.176720
  48 C :   -0.154627
  49 C :    0.219221
  50 O :   -0.203071
  51 O :   -0.298762
  52 C :    0.168750
  53 C :   -0.021334
  54 C :    0.034536
  55 C :    0.060271
  56 C :    0.011422
  57 C :    0.021778
  58 C :   -0.127466
  59 C :    0.124776
  60 O :   -0.156904
  61 C :   -0.161923
  62 C :   -0.014261
  63 C :    0.301802
  64 C :   -0.353327
  65 C :   -0.186288
  66 N :    0.142846
  67 C :   -0.182194
  68 N :    0.151070
  69 C :    0.028438
  70 C :   -0.063635
  71 S :    0.204076
  72 H :    0.015982
  73 H :    0.040343
  74 H :    0.009695
  75 H :    0.038891
  76 H :    0.038274
  77 H :    0.026714
  78 H :    0.011711
  79 H :    0.034142
  80 H :    0.010431
  81 H :   -0.015212
  82 H :   -0.002298
  83 H :   -0.008384
  84 H :   -0.004342
  85 H :   -0.006683
  86 H :   -0.008289
  87 H :   -0.004364
  88 H :   -0.001879
  89 H :    0.030033
  90 H :    0.028267
  91 H :    0.038002
  92 H :    0.021710
  93 H :    0.029025
  94 H :   -0.003825
  95 H :    0.008687
  96 H :   -0.022810
  97 H :    0.000425
  98 H :    0.016389
  99 H :    0.040851
Sum of atomic charges:   -0.0000000

LOEWDIN ATOMIC CHARGES
----------------------
   0 C :    0.068131
   1 O :   -0.170198
   2 C :   -0.211194
   3 C :   -0.039046
   4 C :   -0.044305
   5 C :   -0.153263
   6 S :    0.497644
   7 C :    0.075503
   8 C :   -0.142855
   9 C :   -0.016979
  10 N :   -0.058044
  11 C :   -0.023575
  12 N :   -0.050598
  13 C :   -0.112954
  14 C :    0.040293
  15 C :   -0.214519
  16 S :    0.517874
  17 C :   -0.144053
  18 C :   -0.086122
  19 C :   -0.158559
  20 S :    0.463726
  21 C :   -0.199954
  22 C :    0.069127
  23 O :   -0.191497
  24 O :   -0.090212
  25 C :    0.087843
  26 C :   -0.065045
  27 C :   -0.015161
  28 C :   -0.042375
  29 C :   -0.013581
  30 C :   -0.045732
  31 C :   -0.138491
  32 C :   -0.028701
  33 C :   -0.027498
  34 C :   -0.169350
  35 S :    0.392554
  36 C :   -0.176777
  37 C :   -0.031312
  38 C :   -0.029938
  39 C :   -0.145255
  40 S :    0.394278
  41 C :   -0.072282
  42 C :   -0.173320
  43 S :    0.461504
  44 C :   -0.178970
  45 C :   -0.056489
  46 C :   -0.186099
  47 S :    0.444798
  48 C :   -0.190386
  49 C :    0.068167
  50 O :   -0.180070
  51 O :   -0.081825
  52 C :    0.086158
  53 C :   -0.066164
  54 C :   -0.011076
  55 C :    0.016033
  56 C :   -0.047739
  57 C :    0.060220
  58 C :   -0.111517
  59 C :    0.072747
  60 O :   -0.155223
  61 C :   -0.213634
  62 C :   -0.037263
  63 C :    0.074655
  64 C :   -0.150385
  65 C :   -0.017789
  66 N :   -0.063129
  67 C :   -0.018595
  68 N :   -0.055205
  69 C :   -0.047500
  70 C :   -0.153170
  71 S :    0.497611
  72 H :    0.043141
  73 H :    0.030002
  74 H :    0.045126
  75 H :    0.016652
  76 H :    0.023265
  77 H :    0.029819
  78 H :    0.023198
  79 H :    0.033320
  80 H :    0.036789
  81 H :    0.031181
  82 H :    0.022036
  83 H :    0.036427
  84 H :    0.036870
  85 H :    0.034946
  86 H :    0.034538
  87 H :    0.036836
  88 H :    0.041250
  89 H :    0.026266
  90 H :    0.020727
  91 H :    0.032861
  92 H :    0.032556
  93 H :    0.029916
  94 H :    0.034400
  95 H :    0.041184
  96 H :    0.026897
  97 H :    0.043338
  98 H :    0.042620
  99 H :    0.029943

  Mayer bond orders larger than 0.100000
B(  0-C ,  1-O ) :   2.1128 B(  0-C ,  2-C ) :   1.0707 B(  0-C , 13-C ) :   0.9753
B(  2-C ,  3-C ) :   1.4720 B(  2-C ,  6-S ) :   1.1229 B(  3-C ,  4-C ) :   1.2733
B(  3-C ,  7-C ) :   0.9901 B(  4-C ,  5-C ) :   1.5378 B(  4-C , 72-H ) :   0.9956
B(  5-C ,  6-S ) :   1.1867 B(  5-C , 73-H ) :   0.9623 B(  7-C ,  8-C ) :   1.6299
B(  7-C , 13-C ) :   1.0936 B(  8-C ,  9-C ) :   1.1486 B(  8-C , 11-C ) :   1.1398
B(  9-C , 10-N ) :   2.9849 B( 11-C , 12-N ) :   2.9621 B( 13-C , 14-C ) :   1.5146
B( 14-C , 15-C ) :   1.2944 B( 14-C , 74-H ) :   0.9414 B( 15-C , 16-S ) :   1.0837
B( 15-C , 19-C ) :   1.3499 B( 16-S , 17-C ) :   1.1222 B( 17-C , 18-C ) :   1.2507
B( 17-C , 28-C ) :   1.2219 B( 18-C , 19-C ) :   1.3071 B( 18-C , 27-C ) :   1.1478
B( 19-C , 20-S ) :   1.1041 B( 20-S , 21-C ) :   1.0737 B( 21-C , 22-C ) :   0.9451
B( 21-C , 27-C ) :   1.6282 B( 22-C , 23-O ) :   2.1069 B( 22-C , 24-O ) :   1.2473
B( 24-O , 25-C ) :   0.8738 B( 25-C , 26-C ) :   1.1125 B( 25-C , 75-H ) :   0.9419
B( 25-C , 76-H ) :   0.9584 B( 26-C , 77-H ) :   0.9656 B( 26-C , 78-H ) :   0.9693
B( 26-C , 79-H ) :   0.9545 B( 27-C , 80-H ) :   0.9977 B( 28-C , 29-C ) :   1.5396
B( 28-C , 81-H ) :   0.9627 B( 29-C , 30-C ) :   1.2344 B( 29-C , 82-H ) :   0.9664
B( 30-C , 31-C ) :   1.4770 B( 30-C , 83-H ) :   0.9881 B( 31-C , 32-C ) :   1.1820
B( 31-C , 35-S ) :   1.0523 B( 32-C , 33-C ) :   1.5397 B( 32-C , 84-H ) :   1.0004
B( 33-C , 34-C ) :   1.2276 B( 33-C , 85-H ) :   0.9951 B( 34-C , 35-S ) :   1.0684
B( 34-C , 36-C ) :   1.4430 B( 36-C , 37-C ) :   1.2247 B( 36-C , 40-S ) :   1.0557
B( 37-C , 38-C ) :   1.5437 B( 37-C , 86-H ) :   0.9939 B( 38-C , 39-C ) :   1.1816
B( 38-C , 87-H ) :   1.0013 B( 39-C , 40-S ) :   1.0598 B( 39-C , 41-C ) :   1.4929
B( 41-C , 42-C ) :   1.2569 B( 41-C , 88-H ) :   0.9702 B( 42-C , 43-S ) :   1.1195
B( 42-C , 46-C ) :   1.3734 B( 43-S , 44-C ) :   1.0972 B( 44-C , 45-C ) :   1.2643
B( 44-C , 55-C ) :   1.2404 B( 45-C , 46-C ) :   1.3134 B( 45-C , 54-C ) :   1.1561
B( 46-C , 47-S ) :   1.0716 B( 47-S , 48-C ) :   1.0861 B( 48-C , 49-C ) :   0.9523
B( 48-C , 54-C ) :   1.6100 B( 49-C , 50-O ) :   2.1286 B( 49-C , 51-O ) :   1.2418
B( 51-O , 52-C ) :   0.8962 B( 52-C , 53-C ) :   1.1226 B( 52-C , 89-H ) :   0.9608
B( 52-C , 90-H ) :   0.9434 B( 53-C , 91-H ) :   0.9668 B( 53-C , 92-H ) :   0.9648
B( 53-C , 93-H ) :   0.9665 B( 54-C , 94-H ) :   0.9826 B( 55-C , 56-C ) :   1.5244
B( 55-C , 95-H ) :   0.9616 B( 56-C , 57-C ) :   1.2370 B( 56-C , 96-H ) :   0.9603
B( 57-C , 58-C ) :   1.5273 B( 57-C , 97-H ) :   0.9575 B( 58-C , 59-C ) :   0.9724
B( 58-C , 63-C ) :   1.0651 B( 59-C , 60-O ) :   2.1603 B( 59-C , 61-C ) :   1.0334
B( 61-C , 62-C ) :   1.4646 B( 61-C , 71-S ) :   1.1256 B( 62-C , 63-C ) :   1.0131
B( 62-C , 69-C ) :   1.2768 B( 63-C , 64-C ) :   1.6139 B( 64-C , 65-C ) :   1.1341
B( 64-C , 67-C ) :   1.1775 B( 65-C , 66-N ) :   2.9883 B( 67-C , 68-N ) :   2.9349
B( 69-C , 70-C ) :   1.5349 B( 69-C , 98-H ) :   0.9946 B( 70-C , 71-S ) :   1.1903
B( 70-C , 99-H ) :   0.9627

-----------------------------------------------------------------------------
         ABSORPTION SPECTRUM VIA TRANSITION ELECTRIC DIPOLE MOMENTS
-----------------------------------------------------------------------------
State   Energy  Wavelength   fosc         T2         TX        TY        TZ
        (cm-1)    (nm)                  (au**2)     (au)      (au)      (au)
-----------------------------------------------------------------------------
   0    7332.3   1363.8   0.785254616  35.25682  -0.88086  -5.47915   2.11182
   1   13967.4    716.0   0.103715468   2.44457   1.30212  -0.68906  -0.52368
   2   15945.2    627.1   1.861305381  38.42935   5.18350  -2.67690  -2.09639
   3   18206.5    549.3   0.041165399   0.74436  -0.72353   0.10344   0.45844
   4   19058.2    524.7   0.317059149   5.47689   1.75522  -1.34921  -0.75876
   5   20221.9    494.5   0.016601645   0.27027  -0.34499   0.38560   0.05070
   6   22213.1    450.2   0.022219960   0.32931  -0.12664   0.42628   0.36271
   7   23418.8    427.0   0.003566343   0.05013  -0.19937  -0.02828   0.09792
   8   24443.8    409.1   0.219221386   2.95250  -0.25221  -1.59353   0.59122
   9   26283.2    380.5   0.024548221   0.30748  -0.38784  -0.21224   0.33469
  10   26506.5    377.3   0.022774122   0.28286  -0.02226  -0.51323  -0.13768
  11   26699.6    374.5   0.073720368   0.90899  -0.35846  -0.80237   0.36973
  12   27063.8    369.5   0.091753292   1.11611   0.19034  -0.99078   0.31344
  13   27327.5    365.9   0.028478959   0.34308  -0.07697   0.57607   0.07279
  14   28158.0    355.1   0.090402653   1.05695  -0.75051  -0.54482   0.44368
  15   28756.3    347.8   0.116761423   1.33673   0.76683   0.54721  -0.67026
  16   28957.9    345.3   0.079688475   0.90595   0.54200   0.47666  -0.62047
  17   29280.1    341.5   0.013241600   0.14888  -0.07886  -0.31080   0.21463
  18   29671.1    337.0   0.104666830   1.16132   0.67198  -0.59338  -0.59805
  19   29922.2    334.2   0.049232925   0.54167   0.13226   0.64355  -0.33169
  20   29953.3    333.9   0.053383601   0.58673  -0.21831  -0.70225   0.21430
  21   30294.8    330.1   0.000521647   0.00567   0.07186   0.00458   0.02200
  22   30324.7    329.8   0.007360038   0.07990   0.09717   0.21321  -0.15812
  23   31226.5    320.2   0.038338631   0.40419  -0.18948   0.51051   0.32813
  24   31279.7    319.7   0.067652316   0.71202  -0.47923   0.68983   0.08063
  25   31329.7    319.2   0.078219307   0.82193   0.60057  -0.67883   0.02104
  26   32325.4    309.4   0.077750479   0.79184  -0.14427  -0.77002   0.42201
  27   32365.3    309.0   0.012847192   0.13068   0.21944  -0.20084  -0.20540
  28   32629.9    306.5   0.084775131   0.85532  -0.71606  -0.35225   0.46745
  29   32816.4    304.7   0.050458000   0.50619  -0.27226  -0.61139   0.24139
  30   33589.2    297.7   0.059464012   0.58281  -0.31512   0.61972   0.31536
  31   33911.3    294.9   0.095713080   0.92919  -0.69471   0.59867   0.29693
  32   34354.4    291.1   0.017189400   0.16472  -0.12413  -0.38550   0.02656
  33   34538.8    289.5   0.003736869   0.03562   0.18584  -0.01380  -0.02986
  34   34579.7    289.2   0.040062762   0.38141  -0.09635   0.55398   0.25541
  35   35015.1    285.6   0.070646383   0.66422  -0.11894   0.76424   0.25693
  36   35041.7    285.4   0.067398310   0.63320  -0.02194  -0.79217  -0.07200
  37   35353.3    282.9   0.340472216   3.17049  -1.27668  -0.38546   1.17983
  38   35631.2    280.7   0.205227171   1.89618  -1.03560   0.37118   0.82821
  39   35739.0    279.8   0.466616817   4.29826  -0.02524  -2.02645  -0.43717
  40   36014.7    277.7   0.064733990   0.59174   0.08411   0.75613   0.11370
  41   36239.6    275.9   0.284432838   2.58387   0.98575   0.60984  -1.11367
  42   36350.1    275.1   0.019894420   0.18018  -0.18218  -0.16395   0.34657
  43   36528.8    273.8   0.042446302   0.38254  -0.04561  -0.50184   0.35864
  44   36949.0    270.6   0.048442429   0.43162  -0.46996  -0.17385   0.42489
  45   37182.0    268.9   0.048697856   0.43117   0.23128   0.45357  -0.41468
  46   37663.4    265.5   0.000637464   0.00557   0.06797  -0.02371   0.01973
  47   37952.8    263.5   0.020312359   0.17619  -0.32777   0.25230   0.07147
  48   38038.1    262.9   0.067156614   0.58123   0.33966   0.51395  -0.44913
  49   38506.2    259.7   0.016923030   0.14468   0.22529   0.03908  -0.30398
  50   38945.8    256.8   0.129829324   1.09746   0.53288  -0.74747  -0.50477
  51   39185.6    255.2   0.287376139   2.41435  -0.04184  -1.49174   0.43280
  52   39241.6    254.8   0.009736892   0.08169   0.11068  -0.22651  -0.13465
  53   39540.2    252.9   0.027653175   0.23024   0.03192  -0.47375   0.06913
  54   39908.5    250.6   0.077826601   0.64201   0.20747   0.51740  -0.57555
  55   39951.7    250.3   0.124218581   1.02359  -0.14160  -0.73960   0.67567
  56   40093.4    249.4   0.048398769   0.39741  -0.40075   0.37097   0.31495
  57   40217.0    248.7   0.076206798   0.62382  -0.14706   0.74693  -0.21044

FINAL SINGLE POINT ENERGY     -5925.941485064339

DIPOLE MOMENT
-------------
                                X             Y             Z
Electronic contribution:      0.99507      45.15079     -12.10733
Nuclear contribution   :      2.81067     -44.52576      10.85598
                        -----------------------------------------
Total Dipole Moment    :      3.80574       0.62503      -1.25135
                        -----------------------------------------
Magnitude (a.u.)       :      4.05465
Magnitude (Debye)      :     10.30610

Rotational constants in cm-1:     0.000926     0.000342     0.000255
Rotational constants in MHz :    27.756504    10.261936     7.629808

                             ****ORCA TERMINATED NORMALLY****
TOTAL RUN TIME: 0 days 0 hours 10 minutes 55 seconds 563 msec
