                         Program Version 4.2.0 -  RELEASE  -
|  1> # ORCA input file
|  2> # SCF done        -96.335126061206          0.000820423099
|  3> ! CAM-B3LYP def2-SVP def2/J RIJCOSX Grid4 TightSCF
|  4> %maxcore 5000
|  5> %tddft
|  6>     Mode sTDDFT
|  7>     Ethresh 5.0
|  8>     maxcore 5000
|  9> end
| 10>
| 11> %pal
| 12>   nprocs 6
| 13>   end
| 14> * xyz 0 1
| 15>    C        1.90964        -0.63845        -0.12126
| 16>    C        2.17112         0.69387         0.21293
| 17>    C        1.95142         0.96596         1.53953
| 18>    S        2.17704         2.51911         2.29546
| 19>    C        1.80024         2.12357         4.02545
| 20>    S        1.40618        -0.43854         2.39279
| 21>    C        1.48486        -1.40588         0.93937
| 22>    C        1.12813        -2.78248         1.00929
| 23>    C        1.19358        -3.64853        -0.02243
| 24>    C        0.84036        -5.04062         0.03229
| 25>    C        0.25128        -5.69087         1.12875
| 26>    N       -0.05187        -6.96879         1.12336
| 27>    C        0.21831        -7.66757         0.01996
| 28>    N        0.77095        -7.15707        -1.08184
| 29>    C        1.06898        -5.87893        -1.07181
| 30>    C       -0.12261        -9.08154         0.00972
| 31>    C       -0.82088        -9.69316         1.05613
| 32>    N       -1.14944       -10.96625         1.03268
| 33>    C       -0.78905       -11.67533        -0.03878
| 34>    N       -0.10442       -11.19503        -1.07918
| 35>    C        0.22202        -9.92192        -1.05434
| 36>    C       -1.18020       -13.07534        -0.08466
| 37>    C       -2.02656       -13.65190         0.86966
| 38>    N       -2.40694       -14.90621         0.80639
| 39>    C       -1.95783       -15.64583        -0.21529
| 40>    N       -1.12883       -15.19491        -1.16116
| 41>    C       -0.74886       -13.93852        -1.09611
| 42>    C       -2.43452       -17.01424        -0.26680
| 43>    C       -3.39385       -17.47808         0.67016
| 44>    C       -3.75138       -18.77550         0.47578
| 45>    S       -4.90881       -19.66701         1.43310
| 46>    C       -4.90853       -21.26985         0.58113
| 47>    S       -2.90495       -19.47445        -0.87407
| 48>    C       -2.05922       -17.98540        -1.18298
| 49>    C       -1.11801       -17.89636        -2.25933
| 50>    C       -0.83042       -18.89331        -3.09529
| 51>    H        2.02819        -1.02632        -1.11631
| 52>    H        2.51096         1.43985        -0.48151
| 53>    H        1.93831         3.04294         4.58520
| 54>    H        2.48556         1.35865         4.38055
| 55>    H        0.77125         1.78414         4.10527
| 56>    H        0.79423        -3.12394         1.97959
| 57>    H        1.55106        -3.30292        -0.98317
| 58>    H        0.00680        -5.16254         2.04134
| 59>    H        1.51399        -5.49022        -1.98063
| 60>    H       -1.12044        -9.12596         1.92721
| 61>    H        0.77536        -9.54106        -1.90222
| 62>    H       -2.40355       -13.06670         1.69791
| 63>    H       -0.07740       -13.59091        -1.86999
| 64>    H       -3.79269       -16.85473         1.44748
| 65>    H       -5.62429       -21.89409         1.10585
| 66>    H       -3.91640       -21.70863         0.63069
| 67>    H       -5.21353       -21.13164        -0.45149
| 68>    H       -0.64345       -16.93016        -2.35121
| 69>    H       -1.30313       -19.85959        -3.01236
| 70>    H       -0.11275       -18.77361        -3.88703
| 71> *
| 72>
| 73>                          ****END OF INPUT****

CARTESIAN COORDINATES (ANGSTROEM)
---------------------------------
  C      1.909640   -0.638450   -0.121260
  C      2.171120    0.693870    0.212930
  C      1.951420    0.965960    1.539530
  S      2.177040    2.519110    2.295460
  C      1.800240    2.123570    4.025450
  S      1.406180   -0.438540    2.392790
  C      1.484860   -1.405880    0.939370
  C      1.128130   -2.782480    1.009290
  C      1.193580   -3.648530   -0.022430
  C      0.840360   -5.040620    0.032290
  C      0.251280   -5.690870    1.128750
  N     -0.051870   -6.968790    1.123360
  C      0.218310   -7.667570    0.019960
  N      0.770950   -7.157070   -1.081840
  C      1.068980   -5.878930   -1.071810
  C     -0.122610   -9.081540    0.009720
  C     -0.820880   -9.693160    1.056130
  N     -1.149440  -10.966250    1.032680
  C     -0.789050  -11.675330   -0.038780
  N     -0.104420  -11.195030   -1.079180
  C      0.222020   -9.921920   -1.054340
  C     -1.180200  -13.075340   -0.084660
  C     -2.026560  -13.651900    0.869660
  N     -2.406940  -14.906210    0.806390
  C     -1.957830  -15.645830   -0.215290
  N     -1.128830  -15.194910   -1.161160
  C     -0.748860  -13.938520   -1.096110
  C     -2.434520  -17.014240   -0.266800
  C     -3.393850  -17.478080    0.670160
  C     -3.751380  -18.775500    0.475780
  S     -4.908810  -19.667010    1.433100
  C     -4.908530  -21.269850    0.581130
  S     -2.904950  -19.474450   -0.874070
  C     -2.059220  -17.985400   -1.182980
  C     -1.118010  -17.896360   -2.259330
  C     -0.830420  -18.893310   -3.095290
  H      2.028190   -1.026320   -1.116310
  H      2.510960    1.439850   -0.481510
  H      1.938310    3.042940    4.585200
  H      2.485560    1.358650    4.380550
  H      0.771250    1.784140    4.105270
  H      0.794230   -3.123940    1.979590
  H      1.551060   -3.302920   -0.983170
  H      0.006800   -5.162540    2.041340
  H      1.513990   -5.490220   -1.980630
  H     -1.120440   -9.125960    1.927210
  H      0.775360   -9.541060   -1.902220
  H     -2.403550  -13.066700    1.697910
  H     -0.077400  -13.590910   -1.869990
  H     -3.792690  -16.854730    1.447480
  H     -5.624290  -21.894090    1.105850
  H     -3.916400  -21.708630    0.630690
  H     -5.213530  -21.131640   -0.451490
  H     -0.643450  -16.930160   -2.351210
  H     -1.303130  -19.859590   -3.012360
  H     -0.112750  -18.773610   -3.887030

 Total Charge           Charge          ....    0
 Multiplicity           Mult            ....    1
 Number of Electrons    NEL             ....  282
 Basis Dimension        Dim             ....  620

ORBITAL ENERGIES
----------------

  NO   OCC          E(Eh)            E(eV)
   0   2.0000     -88.964502     -2420.8472
   1   2.0000     -88.942997     -2420.2620
   2   2.0000     -88.940847     -2420.2035
   3   2.0000     -88.921748     -2419.6838
   4   2.0000     -14.417041      -392.3076
   5   2.0000     -14.416199      -392.2847
   6   2.0000     -14.407870      -392.0581
   7   2.0000     -14.407820      -392.0567
   8   2.0000     -14.399348      -391.8262
   9   2.0000     -14.397231      -391.7686
  10   2.0000     -10.347616      -281.5729
  11   2.0000     -10.344148      -281.4786
  12   2.0000     -10.336299      -281.2650
  13   2.0000     -10.325741      -280.9777
  14   2.0000     -10.324426      -280.9419
  15   2.0000     -10.324004      -280.9304
  16   2.0000     -10.317082      -280.7421
  17   2.0000     -10.316870      -280.7363
  18   2.0000     -10.309967      -280.5485
  19   2.0000     -10.308976      -280.5215
  20   2.0000     -10.304997      -280.4132
  21   2.0000     -10.301955      -280.3304
  22   2.0000     -10.301310      -280.3129
  23   2.0000     -10.297667      -280.2138
  24   2.0000     -10.294793      -280.1356
  25   2.0000     -10.288664      -279.9688
  26   2.0000     -10.286271      -279.9037
  27   2.0000     -10.284409      -279.8530
  28   2.0000     -10.284398      -279.8527
  29   2.0000     -10.280172      -279.7377
  30   2.0000     -10.275356      -279.6067
  31   2.0000     -10.274662      -279.5878
  32   2.0000     -10.263503      -279.2841
  33   2.0000     -10.253219      -279.0043
  34   2.0000     -10.249218      -278.8954
  35   2.0000     -10.247631      -278.8522
  36   2.0000      -8.059884      -219.3206
  37   2.0000      -8.038525      -218.7394
  38   2.0000      -8.036550      -218.6856
  39   2.0000      -8.017357      -218.1634
  40   2.0000      -6.029346      -164.0668
  41   2.0000      -6.025066      -163.9504
  42   2.0000      -6.021884      -163.8638
  43   2.0000      -6.008013      -163.4863
  44   2.0000      -6.006969      -163.4579
  45   2.0000      -6.003679      -163.3684
  46   2.0000      -6.002899      -163.3472
  47   2.0000      -6.000434      -163.2801
  48   2.0000      -5.996167      -163.1640
  49   2.0000      -5.987841      -162.9374
  50   2.0000      -5.983767      -162.8266
  51   2.0000      -5.976890      -162.6394
  52   2.0000      -1.090918       -29.6854
  53   2.0000      -1.081342       -29.4248
  54   2.0000      -1.070925       -29.1413
  55   2.0000      -0.991991       -26.9934
  56   2.0000      -0.984225       -26.7821
  57   2.0000      -0.975747       -26.5514
  58   2.0000      -0.971997       -26.4494
  59   2.0000      -0.966616       -26.3030
  60   2.0000      -0.934003       -25.4155
  61   2.0000      -0.914567       -24.8866
  62   2.0000      -0.903190       -24.5770
  63   2.0000      -0.892212       -24.2783
  64   2.0000      -0.876690       -23.8559
  65   2.0000      -0.855939       -23.2913
  66   2.0000      -0.849711       -23.1218
  67   2.0000      -0.833309       -22.6755
  68   2.0000      -0.819940       -22.3117
  69   2.0000      -0.800494       -21.7826
  70   2.0000      -0.788336       -21.4517
  71   2.0000      -0.771652       -20.9977
  72   2.0000      -0.763378       -20.7726
  73   2.0000      -0.745323       -20.2813
  74   2.0000      -0.743418       -20.2294
  75   2.0000      -0.728718       -19.8294
  76   2.0000      -0.722554       -19.6617
  77   2.0000      -0.713272       -19.4091
  78   2.0000      -0.702990       -19.1293
  79   2.0000      -0.688053       -18.7229
  80   2.0000      -0.657159       -17.8822
  81   2.0000      -0.639603       -17.4045
  82   2.0000      -0.633045       -17.2260
  83   2.0000      -0.627923       -17.0866
  84   2.0000      -0.623776       -16.9738
  85   2.0000      -0.616696       -16.7811
  86   2.0000      -0.611057       -16.6277
  87   2.0000      -0.599613       -16.3163
  88   2.0000      -0.597374       -16.2554
  89   2.0000      -0.580459       -15.7951
  90   2.0000      -0.571011       -15.5380
  91   2.0000      -0.559396       -15.2219
  92   2.0000      -0.553818       -15.0701
  93   2.0000      -0.537612       -14.6292
  94   2.0000      -0.536221       -14.5913
  95   2.0000      -0.525709       -14.3053
  96   2.0000      -0.522880       -14.2283
  97   2.0000      -0.522607       -14.2209
  98   2.0000      -0.516100       -14.0438
  99   2.0000      -0.513379       -13.9697
 100   2.0000      -0.510442       -13.8898
 101   2.0000      -0.509613       -13.8673
 102   2.0000      -0.503404       -13.6983
 103   2.0000      -0.500341       -13.6150
 104   2.0000      -0.497733       -13.5440
 105   2.0000      -0.491340       -13.3700
 106   2.0000      -0.489264       -13.3136
 107   2.0000      -0.484797       -13.1920
 108   2.0000      -0.484541       -13.1850
 109   2.0000      -0.482822       -13.1383
 110   2.0000      -0.479145       -13.0382
 111   2.0000      -0.461557       -12.5596
 112   2.0000      -0.459588       -12.5060
 113   2.0000      -0.454188       -12.3591
 114   2.0000      -0.452138       -12.3033
 115   2.0000      -0.439450       -11.9580
 116   2.0000      -0.434715       -11.8292
 117   2.0000      -0.428779       -11.6677
 118   2.0000      -0.426913       -11.6169
 119   2.0000      -0.411028       -11.1846
 120   2.0000      -0.401196       -10.9171
 121   2.0000      -0.399229       -10.8636
 122   2.0000      -0.396861       -10.7991
 123   2.0000      -0.394617       -10.7381
 124   2.0000      -0.389969       -10.6116
 125   2.0000      -0.382998       -10.4219
 126   2.0000      -0.382031       -10.3956
 127   2.0000      -0.376707       -10.2507
 128   2.0000      -0.373766       -10.1707
 129   2.0000      -0.367803       -10.0084
 130   2.0000      -0.353973        -9.6321
 131   2.0000      -0.336858        -9.1664
 132   2.0000      -0.330276        -8.9873
 133   2.0000      -0.329848        -8.9756
 134   2.0000      -0.318629        -8.6703
 135   2.0000      -0.312308        -8.4983
 136   2.0000      -0.309118        -8.4115
 137   2.0000      -0.305168        -8.3040
 138   2.0000      -0.284028        -7.7288
 139   2.0000      -0.248059        -6.7500
 140   2.0000      -0.237203        -6.4546
 141   0.0000      -0.060350        -1.6422
 142   0.0000      -0.029853        -0.8123
 143   0.0000      -0.009335        -0.2540
 144   0.0000       0.002295         0.0624
 145   0.0000       0.006573         0.1789

MULLIKEN ATOMIC CHARGES
-----------------------
   0 C :    0.018555
   1 C :    0.036858
   2 C :   -0.138996
   3 S :    0.010025
   4 C :   -0.099354
   5 S :    0.101827
   6 C :   -0.100636
   7 C :    0.092851
   8 C :   -0.015477
   9 C :    0.033998
  10 C :    0.032889
  11 N :   -0.048679
  12 C :   -0.078614
  13 N :   -0.046018
  14 C :    0.023849
  15 C :    0.015563
  16 C :    0.055291
  17 N :   -0.052364
  18 C :   -0.068508
  19 N :   -0.053005
  20 C :    0.052463
  21 C :    0.010293
  22 C :    0.055460
  23 N :   -0.053522
  24 C :   -0.098885
  25 N :   -0.060279
  26 C :    0.059932
  27 C :    0.144672
  28 C :    0.008222
  29 C :   -0.116368
  30 S :   -0.002718
  31 C :   -0.095328
  32 S :    0.080787
  33 C :   -0.145660
  34 C :    0.024568
  35 C :   -0.029189
  36 H :   -0.014682
  37 H :   -0.012921
  38 H :    0.070314
  39 H :    0.072985
  40 H :    0.072730
  41 H :   -0.017458
  42 H :   -0.019348
  43 H :    0.002826
  44 H :    0.001954
  45 H :    0.015378
  46 H :    0.015361
  47 H :    0.014165
  48 H :    0.012369
  49 H :   -0.008275
  50 H :    0.064518
  51 H :    0.069771
  52 H :    0.068881
  53 H :    0.006227
  54 H :    0.011758
  55 H :    0.018943
Sum of atomic charges:   -0.0000000

LOEWDIN ATOMIC CHARGES
----------------------
   0 C :   -0.040309
   1 C :   -0.093296
   2 C :   -0.316230
   3 S :    0.300401
   4 C :   -0.160799
   5 S :    0.420740
   6 C :   -0.190558
   7 C :   -0.022409
   8 C :   -0.037483
   9 C :   -0.065582
  10 C :    0.052707
  11 N :   -0.076595
  12 C :    0.024156
  13 N :   -0.076879
  14 C :    0.046189
  15 C :   -0.090991
  16 C :    0.072461
  17 N :   -0.083876
  18 C :    0.038009
  19 N :   -0.083648
  20 C :    0.072650
  21 C :   -0.098005
  22 C :    0.073556
  23 N :   -0.082509
  24 C :    0.051707
  25 N :   -0.077704
  26 C :    0.074220
  27 C :   -0.074281
  28 C :   -0.078256
  29 C :   -0.315768
  30 S :    0.289564
  31 C :   -0.163050
  32 S :    0.422644
  33 C :   -0.153985
  34 C :   -0.038915
  35 C :   -0.058129
  36 H :    0.029639
  37 H :    0.030453
  38 H :    0.036751
  39 H :    0.025479
  40 H :    0.024682
  41 H :    0.026238
  42 H :    0.027946
  43 H :    0.023157
  44 H :    0.024627
  45 H :    0.028404
  46 H :    0.028378
  47 H :    0.027943
  48 H :    0.027493
  49 H :    0.030908
  50 H :    0.034113
  51 H :    0.023421
  52 H :    0.023474
  53 H :    0.032596
  54 H :    0.010838
  55 H :    0.023717

  Mayer bond orders larger than 0.100000
B(  0-C ,  1-C ) :   1.2942 B(  0-C ,  6-C ) :   1.5188 B(  0-C , 36-H ) :   0.9930
B(  1-C ,  2-C ) :   1.5374 B(  1-C , 37-H ) :   0.9927 B(  2-C ,  3-S ) :   1.0282
B(  2-C ,  5-S ) :   1.1301 B(  3-S ,  4-C ) :   1.0146 B(  4-C , 38-H ) :   0.9727
B(  4-C , 39-H ) :   0.9649 B(  4-C , 40-H ) :   0.9648 B(  5-S ,  6-C ) :   1.0950
B(  6-C ,  7-C ) :   1.1224 B(  7-C ,  8-C ) :   1.7218 B(  7-C , 41-H ) :   0.9532
B(  8-C ,  9-C ) :   1.0839 B(  8-C , 42-H ) :   0.9799 B(  9-C , 10-C ) :   1.3039
B(  9-C , 14-C ) :   1.3013 B( 10-C , 11-N ) :   1.5776 B( 10-C , 43-H ) :   0.9832
B( 11-N , 12-C ) :   1.5694 B( 12-C , 13-N ) :   1.5748 B( 12-C , 15-C ) :   0.9672
B( 13-N , 14-C ) :   1.5679 B( 14-C , 44-H ) :   0.9885 B( 15-C , 16-C ) :   1.3409
B( 15-C , 20-C ) :   1.3379 B( 16-C , 17-N ) :   1.5485 B( 16-C , 45-H ) :   0.9768
B( 17-N , 18-C ) :   1.5743 B( 18-C , 19-N ) :   1.5722 B( 18-C , 21-C ) :   0.9687
B( 19-N , 20-C ) :   1.5518 B( 20-C , 46-H ) :   0.9771 B( 21-C , 22-C ) :   1.3307
B( 21-C , 26-C ) :   1.3412 B( 22-C , 23-N ) :   1.5592 B( 22-C , 47-H ) :   0.9767
B( 23-N , 24-C ) :   1.5809 B( 23-N , 27-C ) :  -0.1062 B( 24-C , 25-N ) :   1.5272
B( 24-C , 27-C ) :   0.9940 B( 25-N , 26-C ) :   1.5416 B( 26-C , 48-H ) :   0.9750
B( 27-C , 28-C ) :   1.2518 B( 27-C , 33-C ) :   1.4822 B( 28-C , 29-C ) :   1.5576
B( 28-C , 49-H ) :   0.9935 B( 29-C , 30-S ) :   1.0150 B( 29-C , 32-S ) :   1.0995
B( 30-S , 31-C ) :   1.0149 B( 31-C , 50-H ) :   0.9731 B( 31-C , 51-H ) :   0.9655
B( 31-C , 52-H ) :   0.9656 B( 32-S , 33-C ) :   1.0981 B( 33-C , 34-C ) :   1.1501
B( 34-C , 35-C ) :   1.8943 B( 34-C , 53-H ) :   0.9345 B( 35-C , 54-H ) :   0.9520
B( 35-C , 55-H ) :   0.9503

-----------------------------------------------------------------------------
         ABSORPTION SPECTRUM VIA TRANSITION ELECTRIC DIPOLE MOMENTS
-----------------------------------------------------------------------------
State   Energy  Wavelength   fosc         T2         TX        TY        TZ
        (cm-1)    (nm)                  (au**2)     (au)      (au)      (au)
-----------------------------------------------------------------------------
   0   25344.5    394.6   1.539867958  20.00210  -0.58352  -4.30495  -1.06253
   1   26672.2    374.9   0.610285103   7.53269   0.90577   2.59070  -0.02363
   2   30915.5    323.5   0.000625777   0.00666   0.01836   0.07280  -0.03204
   3   32693.3    305.9   0.000386481   0.00389   0.01738  -0.03195  -0.05069
   4   32949.2    303.5   0.323473862   3.23199   1.01676   1.25929  -0.78255
   5   34087.2    293.4   0.355490941   3.43331  -0.32580  -1.80431  -0.26767
   6   34243.7    292.0   0.015648888   0.15045   0.04229   0.38490   0.02247
   7   34861.7    286.8   0.020539324   0.19396   0.09115   0.42281  -0.08298
   8   35546.2    281.3   0.082586701   0.76488   0.14912   0.85311   0.12184
   9   36280.0    275.6   0.217851815   1.97683   0.01516   1.21257   0.71154
  10   38407.8    260.4   0.000392029   0.00336  -0.00893   0.00123   0.05726
  11   38971.3    256.6   0.030280579   0.25580  -0.43720   0.13760  -0.21381
  12   39639.3    252.3   0.098204905   0.81561  -0.68982  -0.26725   0.51801
  13   39838.8    251.0   0.038948479   0.32185   0.36032   0.41571  -0.13860

FINAL SINGLE POINT ENERGY     -2921.889825637508

DIPOLE MOMENT
-------------
                                X             Y             Z
Electronic contribution:     -2.06434      -1.26923       1.72446
Nuclear contribution   :      2.72491       4.00721      -1.29939
                        -----------------------------------------
Total Dipole Moment    :      0.66056       2.73798       0.42507
                        -----------------------------------------
Magnitude (a.u.)       :      2.84844
Magnitude (Debye)      :      7.24015

Rotational constants in cm-1:     0.014903     0.000492     0.000478
Rotational constants in MHz :   446.767644    14.751854    14.316891

                             ****ORCA TERMINATED NORMALLY****
TOTAL RUN TIME: 0 days 0 hours 2 minutes 34 seconds 239 msec
