                         Program Version 4.2.0 -  RELEASE  -
|  1> # ORCA input file
|  2> # SCF done       -158.892306566087          0.000682529094
|  3> ! CAM-B3LYP def2-SVP def2/J RIJCOSX Grid4 TightSCF
|  4> %maxcore 5000
|  5> %tddft
|  6>     Mode sTDDFT
|  7>     Ethresh 5.0
|  8>     maxcore 5000
|  9> end
| 10>
| 11> %pal
| 12>   nprocs 6
| 13>   end
| 14> * xyz 0 1
| 15>    C        1.15327        -0.60911        -4.11412
| 16>    C        1.31954         0.49211        -4.96223
| 17>    C        1.60964         0.12945        -6.25236
| 18>    S        1.90289         1.12012        -7.65748
| 19>    C        1.79691         2.79056        -6.95346
| 20>    S        1.68062        -1.59055        -6.43502
| 21>    C        1.31223        -1.82570        -4.73972
| 22>    C        1.23242        -3.14756        -4.22809
| 23>    C        0.96537        -3.46696        -2.93786
| 24>    C        0.90664        -4.79137        -2.43479
| 25>    C        1.09411        -5.99451        -3.09329
| 26>    C        0.97228        -7.09117        -2.24254
| 27>    C        0.68358        -6.72834        -0.90774
| 28>    S        0.56434        -5.03246        -0.72057
| 29>    C        0.59366        -7.89665        -0.12949
| 30>    C        0.82975        -9.01149        -0.96571
| 31>    C        1.06563        -8.53299        -2.32260
| 32>    C        1.31596        -9.29266        -3.43020
| 33>    C        1.52700        -8.71704        -4.69954
| 34>    N        1.69347        -8.25371        -5.73585
| 35>    C        1.37771       -10.70031        -3.38439
| 36>    N        1.43218       -11.84599        -3.36038
| 37>    C        0.78447       -10.22251        -0.30083
| 38>    C        0.50904       -10.07315         1.06142
| 39>    S        0.29981        -8.36796         1.48988
| 40>    C        0.38720       -11.03333         2.06870
| 41>    C        0.59224       -12.39453         1.97144
| 42>    C        0.44408       -13.31920         3.03001
| 43>    C        0.73011       -14.61286         2.69556
| 44>    C        1.12449       -14.77642         1.35514
| 45>    S        1.10799       -13.23964         0.52585
| 46>    C        1.50508       -15.93728         0.69494
| 47>    C        1.57238       -17.24929         1.20177
| 48>    C        2.00569       -18.17657         0.29621
| 49>    C        2.30764       -17.64395        -0.97595
| 50>    S        2.00766       -15.91043        -0.97361
| 51>    C        2.79125       -18.20678        -2.13915
| 52>    C        3.10327       -19.53800        -2.43054
| 53>    C        2.95245       -20.71728        -1.69612
| 54>    C        3.40610       -21.82934        -2.38259
| 55>    C        3.91778       -21.53068        -3.66333
| 56>    S        3.82438       -19.86075        -4.01506
| 57>    C        4.35410       -22.73101        -4.25973
| 58>    C        4.11775       -23.79560        -3.36694
| 59>    C        3.52127       -23.26982        -2.16300
| 60>    C        3.15399       -23.95727        -1.03856
| 61>    C        2.58670       -23.31103         0.07633
| 62>    N        2.12947       -22.77908         0.98483
| 63>    C        3.33234       -25.34970        -0.92086
| 64>    N        3.48496       -26.48250        -0.81988
| 65>    C        4.51586       -25.03598        -3.88432
| 66>    C        5.05991       -24.92650        -5.14205
| 67>    S        5.06381       -23.26004        -5.71993
| 68>    C        5.56939       -25.95138        -6.01161
| 69>    C        5.54051       -25.81401        -7.42353
| 70>    C        6.02641       -26.90172        -8.08228
| 71>    S        6.10692       -27.07628        -9.81698
| 72>    C        6.90565       -28.69841        -9.96826
| 73>    S        6.54833       -28.13676        -6.97821
| 74>    C        6.11178       -27.16016        -5.60266
| 75>    C        6.41095       -27.61746        -4.27694
| 76>    C        6.76173       -28.86405        -3.96584
| 77>    H        0.92267        -0.50798        -3.06931
| 78>    H        1.22781         1.50946        -4.62928
| 79>    H        1.99673         3.47100        -7.77504
| 80>    H        2.54930         2.91005        -6.17992
| 81>    H        0.79865         2.96282        -6.56288
| 82>    H        1.40831        -3.93635        -4.94544
| 83>    H        0.78781        -2.68029        -2.21823
| 84>    H        1.31203        -6.06289        -4.14277
| 85>    H        0.93231       -11.17615        -0.77046
| 86>    H        0.11112       -10.66579         3.04896
| 87>    H        0.13168       -13.00221         4.00943
| 88>    H        0.67219       -15.44042         3.37932
| 89>    H        1.30443       -17.48307         2.21654
| 90>    H        2.12023       -19.21653         0.53663
| 91>    H        2.96887       -17.51100        -2.95015
| 92>    H        2.51539       -20.75136        -0.71737
| 93>    H        4.37081       -25.97425        -3.38162
| 94>    H        5.15856       -24.94570        -7.92942
| 95>    H        6.99763       -28.89442       -11.03165
| 96>    H        6.28372       -29.45481        -9.49792
| 97>    H        7.88720       -28.66567        -9.50407
| 98>    H        6.35843       -26.86271        -3.50431
| 99>    H        6.81605       -29.63874        -4.71344
|100>    H        6.99547       -29.14648        -2.95546
|101> *
|102>
|103>                          ****END OF INPUT****

CARTESIAN COORDINATES (ANGSTROEM)
---------------------------------
  C      1.153270   -0.609110   -4.114120
  C      1.319540    0.492110   -4.962230
  C      1.609640    0.129450   -6.252360
  S      1.902890    1.120120   -7.657480
  C      1.796910    2.790560   -6.953460
  S      1.680620   -1.590550   -6.435020
  C      1.312230   -1.825700   -4.739720
  C      1.232420   -3.147560   -4.228090
  C      0.965370   -3.466960   -2.937860
  C      0.906640   -4.791370   -2.434790
  C      1.094110   -5.994510   -3.093290
  C      0.972280   -7.091170   -2.242540
  C      0.683580   -6.728340   -0.907740
  S      0.564340   -5.032460   -0.720570
  C      0.593660   -7.896650   -0.129490
  C      0.829750   -9.011490   -0.965710
  C      1.065630   -8.532990   -2.322600
  C      1.315960   -9.292660   -3.430200
  C      1.527000   -8.717040   -4.699540
  N      1.693470   -8.253710   -5.735850
  C      1.377710  -10.700310   -3.384390
  N      1.432180  -11.845990   -3.360380
  C      0.784470  -10.222510   -0.300830
  C      0.509040  -10.073150    1.061420
  S      0.299810   -8.367960    1.489880
  C      0.387200  -11.033330    2.068700
  C      0.592240  -12.394530    1.971440
  C      0.444080  -13.319200    3.030010
  C      0.730110  -14.612860    2.695560
  C      1.124490  -14.776420    1.355140
  S      1.107990  -13.239640    0.525850
  C      1.505080  -15.937280    0.694940
  C      1.572380  -17.249290    1.201770
  C      2.005690  -18.176570    0.296210
  C      2.307640  -17.643950   -0.975950
  S      2.007660  -15.910430   -0.973610
  C      2.791250  -18.206780   -2.139150
  C      3.103270  -19.538000   -2.430540
  C      2.952450  -20.717280   -1.696120
  C      3.406100  -21.829340   -2.382590
  C      3.917780  -21.530680   -3.663330
  S      3.824380  -19.860750   -4.015060
  C      4.354100  -22.731010   -4.259730
  C      4.117750  -23.795600   -3.366940
  C      3.521270  -23.269820   -2.163000
  C      3.153990  -23.957270   -1.038560
  C      2.586700  -23.311030    0.076330
  N      2.129470  -22.779080    0.984830
  C      3.332340  -25.349700   -0.920860
  N      3.484960  -26.482500   -0.819880
  C      4.515860  -25.035980   -3.884320
  C      5.059910  -24.926500   -5.142050
  S      5.063810  -23.260040   -5.719930
  C      5.569390  -25.951380   -6.011610
  C      5.540510  -25.814010   -7.423530
  C      6.026410  -26.901720   -8.082280
  S      6.106920  -27.076280   -9.816980
  C      6.905650  -28.698410   -9.968260
  S      6.548330  -28.136760   -6.978210
  C      6.111780  -27.160160   -5.602660
  C      6.410950  -27.617460   -4.276940
  C      6.761730  -28.864050   -3.965840
  H      0.922670   -0.507980   -3.069310
  H      1.227810    1.509460   -4.629280
  H      1.996730    3.471000   -7.775040
  H      2.549300    2.910050   -6.179920
  H      0.798650    2.962820   -6.562880
  H      1.408310   -3.936350   -4.945440
  H      0.787810   -2.680290   -2.218230
  H      1.312030   -6.062890   -4.142770
  H      0.932310  -11.176150   -0.770460
  H      0.111120  -10.665790    3.048960
  H      0.131680  -13.002210    4.009430
  H      0.672190  -15.440420    3.379320
  H      1.304430  -17.483070    2.216540
  H      2.120230  -19.216530    0.536630
  H      2.968870  -17.511000   -2.950150
  H      2.515390  -20.751360   -0.717370
  H      4.370810  -25.974250   -3.381620
  H      5.158560  -24.945700   -7.929420
  H      6.997630  -28.894420  -11.031650
  H      6.283720  -29.454810   -9.497920
  H      7.887200  -28.665670   -9.504070
  H      6.358430  -26.862710   -3.504310
  H      6.816050  -29.638740   -4.713440
  H      6.995470  -29.146480   -2.955460

 Total Charge           Charge          ....    0
 Multiplicity           Mult            ....    1
 Number of Electrons    NEL             ....  500
 Basis Dimension        Dim             .... 1028

ORBITAL ENERGIES
----------------

  NO   OCC          E(Eh)            E(eV)
   0   2.0000     -88.977055     -2421.1888
   1   2.0000     -88.976857     -2421.1834
   2   2.0000     -88.976400     -2421.1709
   3   2.0000     -88.976263     -2421.1672
   4   2.0000     -88.956043     -2420.6170
   5   2.0000     -88.953184     -2420.5392
   6   2.0000     -88.947748     -2420.3913
   7   2.0000     -88.941920     -2420.2327
   8   2.0000     -88.935414     -2420.0556
   9   2.0000     -88.933893     -2420.0143
  10   2.0000     -14.424201      -392.5025
  11   2.0000     -14.422362      -392.4524
  12   2.0000     -14.422214      -392.4484
  13   2.0000     -14.421360      -392.4252
  14   2.0000     -10.354784      -281.7680
  15   2.0000     -10.354784      -281.7680
  16   2.0000     -10.343201      -281.4528
  17   2.0000     -10.341932      -281.4183
  18   2.0000     -10.325311      -280.9660
  19   2.0000     -10.323038      -280.9041
  20   2.0000     -10.322884      -280.9000
  21   2.0000     -10.321808      -280.8707
  22   2.0000     -10.321577      -280.8644
  23   2.0000     -10.319490      -280.8076
  24   2.0000     -10.319235      -280.8006
  25   2.0000     -10.318940      -280.7926
  26   2.0000     -10.317344      -280.7492
  27   2.0000     -10.316835      -280.7353
  28   2.0000     -10.315438      -280.6973
  29   2.0000     -10.313290      -280.6389
  30   2.0000     -10.311691      -280.5954
  31   2.0000     -10.311479      -280.5896
  32   2.0000     -10.310943      -280.5750
  33   2.0000     -10.310524      -280.5636
  34   2.0000     -10.310489      -280.5627
  35   2.0000     -10.309659      -280.5401
  36   2.0000     -10.300416      -280.2886
  37   2.0000     -10.299590      -280.2661
  38   2.0000     -10.295850      -280.1643
  39   2.0000     -10.295500      -280.1548
  40   2.0000     -10.293553      -280.1018
  41   2.0000     -10.291903      -280.0569
  42   2.0000     -10.291473      -280.0452
  43   2.0000     -10.290394      -280.0158
  44   2.0000     -10.289520      -279.9921
  45   2.0000     -10.289476      -279.9909
  46   2.0000     -10.289228      -279.9841
  47   2.0000     -10.288803      -279.9726
  48   2.0000     -10.288400      -279.9616
  49   2.0000     -10.287848      -279.9466
  50   2.0000     -10.287363      -279.9334
  51   2.0000     -10.286525      -279.9106
  52   2.0000     -10.286516      -279.9103
  53   2.0000     -10.285300      -279.8772
  54   2.0000     -10.285051      -279.8705
  55   2.0000     -10.284779      -279.8631
  56   2.0000     -10.282889      -279.8116
  57   2.0000     -10.275328      -279.6059
  58   2.0000     -10.272419      -279.5267
  59   2.0000     -10.270670      -279.4791
  60   2.0000     -10.269640      -279.4511
  61   2.0000     -10.260401      -279.1997
  62   2.0000      -8.071665      -219.6412
  63   2.0000      -8.071553      -219.6381
  64   2.0000      -8.071000      -219.6231
  65   2.0000      -8.070896      -219.6202
  66   2.0000      -8.051518      -219.0930
  67   2.0000      -8.049259      -219.0315
  68   2.0000      -8.043501      -218.8748
  69   2.0000      -8.038642      -218.7426
  70   2.0000      -8.031072      -218.5366
  71   2.0000      -8.029609      -218.4968
  72   2.0000      -6.040906      -164.3814
  73   2.0000      -6.040768      -164.3776
  74   2.0000      -6.040264      -164.3639
  75   2.0000      -6.040122      -164.3601
  76   2.0000      -6.036715      -164.2674
  77   2.0000      -6.036675      -164.2663
  78   2.0000      -6.036244      -164.2545
  79   2.0000      -6.036028      -164.2487
  80   2.0000      -6.034071      -164.1954
  81   2.0000      -6.033941      -164.1919
  82   2.0000      -6.033245      -164.1729
  83   2.0000      -6.033231      -164.1726
  84   2.0000      -6.021078      -163.8418
  85   2.0000      -6.018672      -163.7764
  86   2.0000      -6.016704      -163.7228
  87   2.0000      -6.014513      -163.6632
  88   2.0000      -6.013315      -163.6306
  89   2.0000      -6.013221      -163.6281
  90   2.0000      -6.011058      -163.5692
  91   2.0000      -6.009105      -163.5161
  92   2.0000      -6.008374      -163.4962
  93   2.0000      -6.004574      -163.3928
  94   2.0000      -6.004319      -163.3858
  95   2.0000      -6.001533      -163.3100
  96   2.0000      -6.000170      -163.2729
  97   2.0000      -5.999451      -163.2534
  98   2.0000      -5.997439      -163.1986
  99   2.0000      -5.995883      -163.1563
 100   2.0000      -5.990654      -163.0140
 101   2.0000      -5.989156      -162.9732
 102   2.0000      -1.033064       -28.1111
 103   2.0000      -1.032161       -28.0865
 104   2.0000      -1.013842       -27.5880
 105   2.0000      -1.012445       -27.5500
 106   2.0000      -1.000743       -27.2316
 107   2.0000      -0.999200       -27.1896
 108   2.0000      -0.997086       -27.1321
 109   2.0000      -0.993095       -27.0235
 110   2.0000      -0.985298       -26.8113
 111   2.0000      -0.982766       -26.7424
 112   2.0000      -0.979134       -26.6436
 113   2.0000      -0.971881       -26.4462
 114   2.0000      -0.948640       -25.8138
 115   2.0000      -0.947659       -25.7871
 116   2.0000      -0.914803       -24.8930
 117   2.0000      -0.911897       -24.8140
 118   2.0000      -0.904195       -24.6044
 119   2.0000      -0.901498       -24.5310
 120   2.0000      -0.887381       -24.1469
 121   2.0000      -0.876761       -23.8579
 122   2.0000      -0.869956       -23.6727
 123   2.0000      -0.865785       -23.5592
 124   2.0000      -0.857956       -23.3462
 125   2.0000      -0.852563       -23.1994
 126   2.0000      -0.844536       -22.9810
 127   2.0000      -0.843449       -22.9514
 128   2.0000      -0.842043       -22.9131
 129   2.0000      -0.835984       -22.7483
 130   2.0000      -0.829401       -22.5692
 131   2.0000      -0.821671       -22.3588
 132   2.0000      -0.816745       -22.2247
 133   2.0000      -0.806504       -21.9461
 134   2.0000      -0.800850       -21.7922
 135   2.0000      -0.777789       -21.1647
 136   2.0000      -0.768507       -20.9121
 137   2.0000      -0.766298       -20.8520
 138   2.0000      -0.756627       -20.5889
 139   2.0000      -0.745199       -20.2779
 140   2.0000      -0.736131       -20.0311
 141   2.0000      -0.726751       -19.7759
 142   2.0000      -0.712231       -19.3808
 143   2.0000      -0.702817       -19.1246
 144   2.0000      -0.697077       -18.9684
 145   2.0000      -0.689519       -18.7628
 146   2.0000      -0.682512       -18.5721
 147   2.0000      -0.673167       -18.3178
 148   2.0000      -0.669565       -18.2198
 149   2.0000      -0.667767       -18.1709
 150   2.0000      -0.656092       -17.8532
 151   2.0000      -0.644179       -17.5290
 152   2.0000      -0.637347       -17.3431
 153   2.0000      -0.631531       -17.1848
 154   2.0000      -0.629378       -17.1263
 155   2.0000      -0.626090       -17.0368
 156   2.0000      -0.622522       -16.9397
 157   2.0000      -0.620281       -16.8787
 158   2.0000      -0.616961       -16.7884
 159   2.0000      -0.608945       -16.5702
 160   2.0000      -0.604527       -16.4500
 161   2.0000      -0.603802       -16.4303
 162   2.0000      -0.595693       -16.2096
 163   2.0000      -0.588885       -16.0244
 164   2.0000      -0.583721       -15.8839
 165   2.0000      -0.576042       -15.6749
 166   2.0000      -0.571757       -15.5583
 167   2.0000      -0.559727       -15.2310
 168   2.0000      -0.551939       -15.0190
 169   2.0000      -0.541261       -14.7284
 170   2.0000      -0.537179       -14.6174
 171   2.0000      -0.536228       -14.5915
 172   2.0000      -0.535785       -14.5795
 173   2.0000      -0.532229       -14.4827
 174   2.0000      -0.526531       -14.3276
 175   2.0000      -0.523810       -14.2536
 176   2.0000      -0.520347       -14.1594
 177   2.0000      -0.520159       -14.1543
 178   2.0000      -0.518071       -14.0974
 179   2.0000      -0.512725       -13.9520
 180   2.0000      -0.502890       -13.6843
 181   2.0000      -0.500962       -13.6319
 182   2.0000      -0.499970       -13.6049
 183   2.0000      -0.498559       -13.5665
 184   2.0000      -0.496451       -13.5091
 185   2.0000      -0.494482       -13.4555
 186   2.0000      -0.492063       -13.3897
 187   2.0000      -0.491473       -13.3737
 188   2.0000      -0.490738       -13.3537
 189   2.0000      -0.487515       -13.2660
 190   2.0000      -0.485365       -13.2075
 191   2.0000      -0.484561       -13.1856
 192   2.0000      -0.481902       -13.1132
 193   2.0000      -0.480043       -13.0626
 194   2.0000      -0.478313       -13.0156
 195   2.0000      -0.474479       -12.9112
 196   2.0000      -0.472226       -12.8499
 197   2.0000      -0.466833       -12.7032
 198   2.0000      -0.462038       -12.5727
 199   2.0000      -0.458946       -12.4886
 200   2.0000      -0.456039       -12.4095
 201   2.0000      -0.455758       -12.4018
 202   2.0000      -0.455012       -12.3815
 203   2.0000      -0.453894       -12.3511
 204   2.0000      -0.452685       -12.3182
 205   2.0000      -0.451627       -12.2894
 206   2.0000      -0.450430       -12.2568
 207   2.0000      -0.448463       -12.2033
 208   2.0000      -0.447721       -12.1831
 209   2.0000      -0.439883       -11.9698
 210   2.0000      -0.435896       -11.8613
 211   2.0000      -0.433770       -11.8035
 212   2.0000      -0.433288       -11.7904
 213   2.0000      -0.432059       -11.7569
 214   2.0000      -0.431548       -11.7430
 215   2.0000      -0.429985       -11.7005
 216   2.0000      -0.429616       -11.6904
 217   2.0000      -0.429302       -11.6819
 218   2.0000      -0.427394       -11.6300
 219   2.0000      -0.423438       -11.5223
 220   2.0000      -0.422601       -11.4996
 221   2.0000      -0.417481       -11.3602
 222   2.0000      -0.416967       -11.3463
 223   2.0000      -0.414906       -11.2902
 224   2.0000      -0.410246       -11.1634
 225   2.0000      -0.409426       -11.1411
 226   2.0000      -0.398869       -10.8538
 227   2.0000      -0.398183       -10.8351
 228   2.0000      -0.395030       -10.7493
 229   2.0000      -0.394629       -10.7384
 230   2.0000      -0.391647       -10.6573
 231   2.0000      -0.389991       -10.6122
 232   2.0000      -0.377623       -10.2756
 233   2.0000      -0.363276        -9.8853
 234   2.0000      -0.346771        -9.4361
 235   2.0000      -0.339494        -9.2381
 236   2.0000      -0.337648        -9.1879
 237   2.0000      -0.335761        -9.1365
 238   2.0000      -0.327185        -8.9032
 239   2.0000      -0.325104        -8.8465
 240   2.0000      -0.323905        -8.8139
 241   2.0000      -0.321139        -8.7386
 242   2.0000      -0.314296        -8.5524
 243   2.0000      -0.312798        -8.5117
 244   2.0000      -0.303406        -8.2561
 245   2.0000      -0.282327        -7.6825
 246   2.0000      -0.263460        -7.1691
 247   2.0000      -0.248020        -6.7490
 248   2.0000      -0.232467        -6.3257
 249   2.0000      -0.198550        -5.4028
 250   0.0000      -0.103322        -2.8115
 251   0.0000      -0.094302        -2.5661
 252   0.0000      -0.076757        -2.0887
 253   0.0000      -0.037937        -1.0323
 254   0.0000      -0.023635        -0.6432

MULLIKEN ATOMIC CHARGES
-----------------------
   0 C :    0.019880
   1 C :    0.010439
   2 C :   -0.138320
   3 S :    0.005015
   4 C :   -0.093146
   5 S :    0.137475
   6 C :   -0.107000
   7 C :    0.071354
   8 C :    0.035188
   9 C :   -0.075549
  10 C :   -0.034993
  11 C :   -0.006895
  12 C :   -0.105063
  13 S :    0.173162
  14 C :   -0.100462
  15 C :   -0.006535
  16 C :    0.314769
  17 C :   -0.301642
  18 C :   -0.187001
  19 N :    0.166129
  20 C :   -0.184780
  21 N :    0.166720
  22 C :   -0.044075
  23 C :   -0.092721
  24 S :    0.169738
  25 C :    0.027591
  26 C :   -0.030121
  27 C :    0.029144
  28 C :    0.025509
  29 C :   -0.025646
  30 S :    0.063520
  31 C :   -0.045835
  32 C :    0.020160
  33 C :    0.020584
  34 C :   -0.069388
  35 S :    0.103975
  36 C :    0.084085
  37 C :   -0.089033
  38 C :   -0.030903
  39 C :   -0.001355
  40 C :   -0.105439
  41 S :    0.177574
  42 C :   -0.091529
  43 C :   -0.013700
  44 C :    0.307577
  45 C :   -0.303549
  46 C :   -0.185020
  47 N :    0.161074
  48 C :   -0.190398
  49 N :    0.169425
  50 C :   -0.033663
  51 C :   -0.111336
  52 S :    0.176186
  53 C :    0.138661
  54 C :   -0.013171
  55 C :   -0.127050
  56 S :    0.003061
  57 C :   -0.096319
  58 S :    0.092506
  59 C :   -0.132180
  60 C :   -0.003873
  61 C :   -0.032029
  62 H :   -0.018530
  63 H :   -0.023749
  64 H :    0.066880
  65 H :    0.070734
  66 H :    0.070049
  67 H :   -0.011817
  68 H :   -0.025134
  69 H :    0.004190
  70 H :    0.023671
  71 H :   -0.018553
  72 H :   -0.013366
  73 H :   -0.010714
  74 H :   -0.010209
  75 H :   -0.007931
  76 H :   -0.010214
  77 H :   -0.008192
  78 H :    0.010832
  79 H :   -0.014099
  80 H :    0.068673
  81 H :    0.072602
  82 H :    0.072004
  83 H :    0.004665
  84 H :    0.018719
  85 H :    0.028705
Sum of atomic charges:   -0.0000000

LOEWDIN ATOMIC CHARGES
----------------------
   0 C :   -0.049259
   1 C :   -0.105851
   2 C :   -0.319731
   3 S :    0.288590
   4 C :   -0.149047
   5 S :    0.421842
   6 C :   -0.180559
   7 C :   -0.027388
   8 C :   -0.054911
   9 C :   -0.158330
  10 C :   -0.034181
  11 C :   -0.070197
  12 C :   -0.186547
  13 S :    0.461592
  14 C :   -0.186475
  15 C :   -0.067466
  16 C :    0.085075
  17 C :   -0.105207
  18 C :   -0.015148
  19 N :   -0.038494
  20 C :   -0.017128
  21 N :   -0.034380
  22 C :   -0.041424
  23 C :   -0.163584
  24 S :    0.457611
  25 C :   -0.081213
  26 C :   -0.147316
  27 C :   -0.033781
  28 C :   -0.037287
  29 C :   -0.177892
  30 S :    0.400854
  31 C :   -0.179492
  32 C :   -0.018731
  33 C :   -0.041070
  34 C :   -0.140181
  35 S :    0.390345
  36 C :   -0.084437
  37 C :   -0.153018
  38 C :   -0.036941
  39 C :   -0.063073
  40 C :   -0.195962
  41 S :    0.468568
  42 C :   -0.174815
  43 C :   -0.080984
  44 C :    0.086863
  45 C :   -0.109846
  46 C :   -0.012981
  47 N :   -0.044812
  48 C :   -0.016839
  49 N :   -0.037157
  50 C :   -0.034199
  51 C :   -0.153666
  52 S :    0.472929
  53 C :   -0.071841
  54 C :   -0.106484
  55 C :   -0.308231
  56 S :    0.296194
  57 C :   -0.160981
  58 S :    0.427178
  59 C :   -0.177493
  60 C :   -0.041944
  61 C :   -0.052155
  62 H :    0.027352
  63 H :    0.025606
  64 H :    0.035869
  65 H :    0.028112
  66 H :    0.027331
  67 H :    0.030204
  68 H :    0.025411
  69 H :    0.037645
  70 H :    0.024119
  71 H :    0.033040
  72 H :    0.032889
  73 H :    0.032721
  74 H :    0.034350
  75 H :    0.034754
  76 H :    0.029983
  77 H :    0.034252
  78 H :    0.040439
  79 H :    0.022230
  80 H :    0.036125
  81 H :    0.024549
  82 H :    0.025460
  83 H :    0.036433
  84 H :    0.015343
  85 H :    0.028265

  Mayer bond orders larger than 0.100000
B(  0-C ,  1-C ) :   1.2666 B(  0-C ,  6-C ) :   1.5203 B(  0-C , 62-H ) :   0.9893
B(  1-C ,  2-C ) :   1.5286 B(  1-C , 63-H ) :   0.9955 B(  2-C ,  3-S ) :   1.0159
B(  2-C ,  5-S ) :   1.1287 B(  3-S ,  4-C ) :   1.0262 B(  4-C , 64-H ) :   0.9714
B(  4-C , 65-H ) :   0.9662 B(  4-C , 66-H ) :   0.9663 B(  5-S ,  6-C ) :   1.1097
B(  6-C ,  7-C ) :   1.1322 B(  7-C ,  8-C ) :   1.7115 B(  7-C , 67-H ) :   0.9581
B(  8-C ,  9-C ) :   1.1283 B(  8-C , 68-H ) :   0.9585 B(  9-C , 10-C ) :   1.4581
B(  9-C , 13-S ) :   1.0974 B( 10-C , 11-C ) :   1.3034 B( 10-C , 69-H ) :   0.9884
B( 11-C , 12-C ) :   1.4174 B( 11-C , 16-C ) :   1.0092 B( 12-C , 13-S ) :   1.1119
B( 12-C , 14-C ) :   1.2228 B( 14-C , 15-C ) :   1.4154 B( 14-C , 24-S ) :   1.1107
B( 15-C , 16-C ) :   0.9937 B( 15-C , 22-C ) :   1.3553 B( 16-C , 17-C ) :   1.6996
B( 17-C , 18-C ) :   1.1356 B( 17-C , 20-C ) :   1.1355 B( 18-C , 19-N ) :   2.9884
B( 20-C , 21-N ) :   2.9821 B( 22-C , 23-C ) :   1.3883 B( 22-C , 70-H ) :   0.9682
B( 23-C , 24-S ) :   1.0854 B( 23-C , 25-C ) :   1.1981 B( 25-C , 26-C ) :   1.5626
B( 25-C , 71-H ) :   0.9516 B( 26-C , 27-C ) :   1.1672 B( 26-C , 30-S ) :   1.0461
B( 27-C , 28-C ) :   1.5633 B( 27-C , 72-H ) :   0.9994 B( 28-C , 29-C ) :   1.2102
B( 28-C , 73-H ) :   0.9938 B( 29-C , 30-S ) :   1.0516 B( 29-C , 31-C ) :   1.4568
B( 31-C , 32-C ) :   1.2110 B( 31-C , 35-S ) :   1.0652 B( 32-C , 33-C ) :   1.5841
B( 32-C , 74-H ) :   0.9927 B( 33-C , 34-C ) :   1.1591 B( 33-C , 75-H ) :   0.9970
B( 34-C , 35-S ) :   1.0456 B( 34-C , 36-C ) :   1.5621 B( 36-C , 37-C ) :   1.2186
B( 36-C , 76-H ) :   0.9267 B( 37-C , 38-C ) :   1.3870 B( 37-C , 41-S ) :   1.1035
B( 38-C , 39-C ) :   1.3489 B( 38-C , 77-H ) :   0.9874 B( 39-C , 40-C ) :   1.4200
B( 39-C , 44-C ) :   0.9859 B( 40-C , 41-S ) :   1.1094 B( 40-C , 42-C ) :   1.2049
B( 42-C , 43-C ) :   1.4317 B( 42-C , 52-S ) :   1.1229 B( 43-C , 44-C ) :   1.0134
B( 43-C , 50-C ) :   1.2586 B( 44-C , 45-C ) :   1.6966 B( 45-C , 46-C ) :   1.1367
B( 45-C , 48-C ) :   1.1363 B( 46-C , 47-N ) :   2.9955 B( 48-C , 49-N ) :   2.9908
B( 50-C , 51-C ) :   1.5016 B( 50-C , 78-H ) :   0.9942 B( 51-C , 52-S ) :   1.0965
B( 51-C , 53-C ) :   1.0652 B( 53-C , 54-C ) :   1.2299 B( 53-C , 59-C ) :   1.5084
B( 54-C , 55-C ) :   1.5805 B( 54-C , 79-H ) :   0.9864 B( 55-C , 56-S ) :   1.0252
B( 55-C , 58-S ) :   1.1189 B( 56-S , 57-C ) :   1.0136 B( 57-C , 80-H ) :   0.9726
B( 57-C , 81-H ) :   0.9645 B( 57-C , 82-H ) :   0.9662 B( 58-S , 59-C ) :   1.0802
B( 59-C , 60-C ) :   1.1318 B( 60-C , 61-C ) :   1.9178 B( 60-C , 83-H ) :   0.9559
B( 61-C , 84-H ) :   0.9576 B( 61-C , 85-H ) :   0.9492

-----------------------------------------------------------------------------
         ABSORPTION SPECTRUM VIA TRANSITION ELECTRIC DIPOLE MOMENTS
-----------------------------------------------------------------------------
State   Energy  Wavelength   fosc         T2         TX        TY        TZ
        (cm-1)    (nm)                  (au**2)     (au)      (au)      (au)
-----------------------------------------------------------------------------
   0    6622.8   1509.9   0.413553322  20.55719  -0.71435   4.47735  -0.01463
   1    7878.9   1269.2   0.101963890   4.26048  -0.66219   1.61925   1.09545
   2   12931.4    773.3   1.483111413  37.75758  -1.23016   5.96488   0.81516
   3   14728.4    679.0   0.057962451   1.29558   0.35087   0.18100  -1.06757
   4   16494.5    606.3   0.010661343   0.21279   0.11598  -0.44616  -0.01683
   5   20022.8    499.4   0.036524667   0.60053   0.12840   0.28659  -0.70846
   6   21479.3    465.6   0.221950070   3.40181   0.63392   0.23805  -1.71560
   7   21752.0    459.7   0.157760265   2.38767  -0.32872  -0.91659   1.19978
   8   22929.4    436.1   0.577974848   8.29834  -0.75064  -1.26406   2.47731
   9   23963.0    417.3   0.008180302   0.11238  -0.04625   0.32997  -0.03693
  10   25674.8    389.5   0.042930001   0.55047  -0.06053  -0.44315   0.59196
  11   26217.1    381.4   0.400853584   5.03359   0.38198  -2.20714  -0.12739
  12   27016.5    370.1   0.167452299   2.04050  -0.31783   1.37745   0.20520
  13   27985.2    357.3   0.046754375   0.55001  -0.33832   0.33146   0.57068
  14   28389.8    352.2   0.035542039   0.41215   0.09530   0.63483   0.00763
  15   29134.3    343.2   0.015297460   0.17286  -0.35804   0.19236  -0.08756
  16   29822.5    335.3   0.187458392   2.06936   0.01346   1.43178  -0.13852
  17   30514.3    327.7   0.120849356   1.30382  -0.13956   1.11934  -0.17722
  18   31018.4    322.4   0.081293344   0.86280   0.08372  -0.53506  -0.75465
  19   31348.3    319.0   0.689505258   7.24101   0.75333  -0.12970  -2.58005
  20   31595.5    316.5   0.181273712   1.88880   0.67224   0.70326  -0.97073
  21   31863.8    313.8   0.272051984   2.81080  -0.42784  -0.42922   1.56318
  22   32102.3    311.5   0.069776439   0.71556  -0.20042  -0.34004   0.74818
  23   32896.5    304.0   0.298611496   2.98836  -0.20117   1.71671   0.02830
  24   32921.3    303.8   0.152434452   1.52434   0.41469  -1.13363  -0.25934
  25   33433.3    299.1   0.000406188   0.00400   0.03182  -0.05465   0.00051
  26   33849.0    295.4   0.062498468   0.60785   0.17439   0.10418  -0.75272
  27   34027.8    293.9   0.290437380   2.80992   0.27511  -1.03660   1.28829
  28   34236.1    292.1   0.040879897   0.39310   0.20178  -0.57558  -0.14520
  29   35082.4    285.0   0.081058956   0.76065  -0.14669   0.25634   0.82062
  30   35348.8    282.9   0.055455836   0.51647   0.23137   0.29404  -0.61358
  31   35737.6    279.8   0.151865324   1.39897  -0.25854  -0.03962   1.15350
  32   35994.7    277.8   0.084538136   0.77320   0.19511  -0.81413  -0.26893
  33   36210.5    276.2   0.001039812   0.00945  -0.06987   0.05877   0.03343
  34   36249.2    275.9   0.043400938   0.39416   0.09061  -0.56585  -0.25645
  35   36380.1    274.9   0.088346743   0.79947   0.10354  -0.17096  -0.87151
  36   36503.7    273.9   0.002506960   0.02261  -0.01488   0.07186  -0.13124
  37   36753.3    272.1   0.032934894   0.29501   0.13807  -0.52280  -0.05128
  38   37216.6    268.7   0.000425042   0.00376  -0.03684   0.02726   0.04074
  39   37425.1    267.2   0.040491565   0.35619   0.07217   0.20356  -0.55636
  40   37510.9    266.6   0.062370322   0.54739  -0.17791  -0.12208   0.70770
  41   37731.5    265.0   0.004270493   0.03726   0.06155   0.00621  -0.18285
  42   37867.7    264.1   0.044316662   0.38528   0.20226  -0.57664  -0.10889
  43   38314.6    261.0   0.001091278   0.00938  -0.01820   0.03037   0.09013
  44   38544.5    259.4   0.104349304   0.89126  -0.23111   0.67793   0.61502
  45   38923.2    256.9   0.030891637   0.26128  -0.00024   0.12675  -0.49519
  46   39286.2    254.5   0.062249987   0.52165  -0.18832   0.07135   0.69361
  47   39814.2    251.2   0.083449019   0.69002  -0.09986   0.33944   0.75155
  48   39957.6    250.3   0.001100884   0.00907   0.02276  -0.01294  -0.09157
  49   40241.9    248.5   0.019110505   0.15634  -0.14669   0.23317   0.28364
  50   40318.6    248.0   0.022231160   0.18152   0.11943  -0.03808  -0.40720

FINAL SINGLE POINT ENERGY     -6040.405629323686

DIPOLE MOMENT
-------------
                                X             Y             Z
Electronic contribution:     -8.06765      -3.43688       9.75634
Nuclear contribution   :      8.32784       5.83881      -9.20682
                        -----------------------------------------
Total Dipole Moment    :      0.26019       2.40193       0.54952
                        -----------------------------------------
Magnitude (a.u.)       :      2.47769
Magnitude (Debye)      :      6.29779

Rotational constants in cm-1:     0.001482     0.000189     0.000168
Rotational constants in MHz :    44.418354     5.663986     5.037907

                             ****ORCA TERMINATED NORMALLY****
TOTAL RUN TIME: 0 days 0 hours 8 minutes 3 seconds 322 msec
