                         Program Version 4.2.0 -  RELEASE  -
|  1> # ORCA input file
|  2> # SCF done       -193.171269124860          0.002688922485
|  3> ! CAM-B3LYP def2-SVP def2/J RIJCOSX Grid4 TightSCF
|  4> %maxcore 5000
|  5> %tddft
|  6>     Mode sTDDFT
|  7>     Ethresh 5.0
|  8>     maxcore 5000
|  9> end
| 10>
| 11> %pal
| 12>   nprocs 6
| 13>   end
| 14> * xyz 0 1
| 15>    C       -0.69580        -4.64634        -6.30690
| 16>    C       -0.88174        -3.64750        -7.26430
| 17>    C       -2.13563        -3.08791        -7.21896
| 18>    S       -2.70040        -1.81823        -8.26680
| 19>    C       -4.38173        -1.56199        -7.63389
| 20>    S       -3.10664        -3.80497        -5.97737
| 21>    C       -1.80119        -4.87127        -5.51256
| 22>    C       -2.00129        -5.77697        -4.43964
| 23>    C       -1.05605        -6.62520        -3.96377
| 24>    C       -1.23780        -7.51367        -2.87413
| 25>    C       -2.36562        -7.76219        -2.10599
| 26>    C       -2.11949        -8.68519        -1.09280
| 27>    C       -0.79305        -9.15732        -1.08406
| 28>    S        0.14149        -8.46307        -2.33285
| 29>    C       -0.63863       -10.06463        -0.00904
| 30>    C       -1.86644       -10.15240         0.67509
| 31>    C       -2.84734        -9.33432        -0.01189
| 32>    C       -4.18378        -9.26267         0.26008
| 33>    C       -5.05542        -8.43552        -0.47678
| 34>    N       -5.75290        -7.74354        -1.06750
| 35>    C       -4.77312       -10.04853         1.27011
| 36>    N       -5.25410       -10.71481         2.07150
| 37>    C       -1.80923       -10.98388         1.78621
| 38>    C       -0.56432       -11.57084         1.93370
| 39>    S        0.56532       -11.05060         0.69342
| 40>    C       -0.21241       -12.53174         2.90676
| 41>    C        0.97905       -13.22300         3.06662
| 42>    C        0.91232       -14.13757         4.11584
| 43>    C       -0.33874       -14.12861         4.75832
| 44>    S       -1.43039       -13.01162         4.07221
| 45>    C       -0.34420       -15.12882         5.74634
| 46>    C        0.90283       -15.78566         5.75232
| 47>    C        1.73834       -15.16774         4.73247
| 48>    C        3.02388       -15.49398         4.41569
| 49>    C        3.74263       -14.82001         3.40598
| 50>    N        4.33481       -14.27062         2.59225
| 51>    C        3.72343       -16.51471         5.09306
| 52>    N        4.29545       -17.33698         5.65153
| 53>    C        0.94953       -16.84484         6.65450
| 54>    C       -0.24860       -17.01343         7.33205
| 55>    S       -1.44498       -15.79639         6.85323
| 56>    C       -0.66794       -18.05725         8.19374
| 57>    C       -1.99875       -18.15836         8.56116
| 58>    C       -2.57521       -19.25855         9.16396
| 59>    C       -1.75000       -20.28377         9.79480
| 60>    C       -0.40505       -20.33987         9.65029
| 61>    S        0.50219       -19.26095         8.66625
| 62>    C       -2.66983       -21.13152        10.47935
| 63>    C       -3.97898       -20.72309        10.21957
| 64>    C       -4.93034       -21.56387        10.83336
| 65>    C       -4.33289       -22.56369        11.53558
| 66>    S       -2.60495       -22.53453        11.46844
| 67>    C       -3.95187       -19.57987         9.33685
| 68>    C       -5.03848       -19.08190         8.61284
| 69>    C       -4.90568       -18.30781         7.47628
| 70>    C       -5.92482       -17.85744         6.65449
| 71>    C       -5.75578       -17.14076         5.47549
| 72>    C       -6.93460       -16.46955         4.89858
| 73>    O       -8.09219       -16.58834         5.23970
| 74>    C       -6.40918       -15.59191         3.82144
| 75>    C       -5.01820       -15.77173         3.72808
| 76>    C       -4.30260       -15.03773         2.80087
| 77>    C       -4.96528       -14.14998         1.94798
| 78>    C       -6.35704       -13.98968         2.04980
| 79>    C       -7.08340       -14.71396         3.00664
| 80>    C       -7.10088       -13.12745         1.21266
| 81>    N       -7.74473       -12.47036         0.52495
| 82>    C       -4.08767       -13.42816         0.97266
| 83>    O       -2.89388       -13.38779         1.12376
| 84>    O       -4.63960       -12.84633        -0.09482
| 85>    C       -4.60319       -16.80276         4.69319
| 86>    C       -3.34195       -17.36685         4.66048
| 87>    C       -2.85642       -18.49746         5.34394
| 88>    N       -2.31270       -19.39410         5.81915
| 89>    C       -2.27597       -16.90557         3.86300
| 90>    N       -1.31138       -16.58774         3.32256
| 91>    H        0.22415        -5.19105        -6.19924
| 92>    H       -0.13509        -3.33397        -7.97064
| 93>    H       -4.81904        -0.77352        -8.23791
| 94>    H       -4.33447        -1.25692        -6.59194
| 95>    H       -4.95406        -2.47985        -7.73987
| 96>    H       -2.98057        -5.76067        -3.98230
| 97>    H       -0.07486        -6.63425        -4.41669
| 98>    H       -3.31364        -7.28805        -2.27993
| 99>    H       -2.61963       -11.17016         2.46636
|100>    H        1.83052       -13.06535         2.42896
|101>    H        1.79315       -17.49551         6.80216
|102>    H       -2.62314       -17.31058         8.32224
|103>    H        0.19782       -21.11097        10.10302
|104>    H       -5.99592       -21.43938        10.76990
|105>    H       -4.80723       -23.33941        12.10428
|106>    H       -6.02611       -19.42184         8.89827
|107>    H       -3.90948       -18.06968         7.15729
|108>    H       -6.95647       -17.99555         6.95837
|109>    H       -3.23323       -15.12046         2.69264
|110>    H       -8.15220       -14.58786         3.09324
|111>    H       -5.60845       -12.88164        -0.11963
|112> *
|113>
|114>                          ****END OF INPUT****

CARTESIAN COORDINATES (ANGSTROEM)
---------------------------------
  C     -0.695800   -4.646340   -6.306900
  C     -0.881740   -3.647500   -7.264300
  C     -2.135630   -3.087910   -7.218960
  S     -2.700400   -1.818230   -8.266800
  C     -4.381730   -1.561990   -7.633890
  S     -3.106640   -3.804970   -5.977370
  C     -1.801190   -4.871270   -5.512560
  C     -2.001290   -5.776970   -4.439640
  C     -1.056050   -6.625200   -3.963770
  C     -1.237800   -7.513670   -2.874130
  C     -2.365620   -7.762190   -2.105990
  C     -2.119490   -8.685190   -1.092800
  C     -0.793050   -9.157320   -1.084060
  S      0.141490   -8.463070   -2.332850
  C     -0.638630  -10.064630   -0.009040
  C     -1.866440  -10.152400    0.675090
  C     -2.847340   -9.334320   -0.011890
  C     -4.183780   -9.262670    0.260080
  C     -5.055420   -8.435520   -0.476780
  N     -5.752900   -7.743540   -1.067500
  C     -4.773120  -10.048530    1.270110
  N     -5.254100  -10.714810    2.071500
  C     -1.809230  -10.983880    1.786210
  C     -0.564320  -11.570840    1.933700
  S      0.565320  -11.050600    0.693420
  C     -0.212410  -12.531740    2.906760
  C      0.979050  -13.223000    3.066620
  C      0.912320  -14.137570    4.115840
  C     -0.338740  -14.128610    4.758320
  S     -1.430390  -13.011620    4.072210
  C     -0.344200  -15.128820    5.746340
  C      0.902830  -15.785660    5.752320
  C      1.738340  -15.167740    4.732470
  C      3.023880  -15.493980    4.415690
  C      3.742630  -14.820010    3.405980
  N      4.334810  -14.270620    2.592250
  C      3.723430  -16.514710    5.093060
  N      4.295450  -17.336980    5.651530
  C      0.949530  -16.844840    6.654500
  C     -0.248600  -17.013430    7.332050
  S     -1.444980  -15.796390    6.853230
  C     -0.667940  -18.057250    8.193740
  C     -1.998750  -18.158360    8.561160
  C     -2.575210  -19.258550    9.163960
  C     -1.750000  -20.283770    9.794800
  C     -0.405050  -20.339870    9.650290
  S      0.502190  -19.260950    8.666250
  C     -2.669830  -21.131520   10.479350
  C     -3.978980  -20.723090   10.219570
  C     -4.930340  -21.563870   10.833360
  C     -4.332890  -22.563690   11.535580
  S     -2.604950  -22.534530   11.468440
  C     -3.951870  -19.579870    9.336850
  C     -5.038480  -19.081900    8.612840
  C     -4.905680  -18.307810    7.476280
  C     -5.924820  -17.857440    6.654490
  C     -5.755780  -17.140760    5.475490
  C     -6.934600  -16.469550    4.898580
  O     -8.092190  -16.588340    5.239700
  C     -6.409180  -15.591910    3.821440
  C     -5.018200  -15.771730    3.728080
  C     -4.302600  -15.037730    2.800870
  C     -4.965280  -14.149980    1.947980
  C     -6.357040  -13.989680    2.049800
  C     -7.083400  -14.713960    3.006640
  C     -7.100880  -13.127450    1.212660
  N     -7.744730  -12.470360    0.524950
  C     -4.087670  -13.428160    0.972660
  O     -2.893880  -13.387790    1.123760
  O     -4.639600  -12.846330   -0.094820
  C     -4.603190  -16.802760    4.693190
  C     -3.341950  -17.366850    4.660480
  C     -2.856420  -18.497460    5.343940
  N     -2.312700  -19.394100    5.819150
  C     -2.275970  -16.905570    3.863000
  N     -1.311380  -16.587740    3.322560
  H      0.224150   -5.191050   -6.199240
  H     -0.135090   -3.333970   -7.970640
  H     -4.819040   -0.773520   -8.237910
  H     -4.334470   -1.256920   -6.591940
  H     -4.954060   -2.479850   -7.739870
  H     -2.980570   -5.760670   -3.982300
  H     -0.074860   -6.634250   -4.416690
  H     -3.313640   -7.288050   -2.279930
  H     -2.619630  -11.170160    2.466360
  H      1.830520  -13.065350    2.428960
  H      1.793150  -17.495510    6.802160
  H     -2.623140  -17.310580    8.322240
  H      0.197820  -21.110970   10.103020
  H     -5.995920  -21.439380   10.769900
  H     -4.807230  -23.339410   12.104280
  H     -6.026110  -19.421840    8.898270
  H     -3.909480  -18.069680    7.157290
  H     -6.956470  -17.995550    6.958370
  H     -3.233230  -15.120460    2.692640
  H     -8.152200  -14.587860    3.093240
  H     -5.608450  -12.881640   -0.119630

 Total Charge           Charge          ....    0
 Multiplicity           Mult            ....    1
 Number of Electrons    NEL             ....  570
 Basis Dimension        Dim             .... 1201

ORBITAL ENERGIES
----------------

  NO   OCC          E(Eh)            E(eV)
   0   2.0000     -88.999692     -2421.8047
   1   2.0000     -88.995661     -2421.6951
   2   2.0000     -88.983780     -2421.3717
   3   2.0000     -88.982227     -2421.3295
   4   2.0000     -88.978087     -2421.2168
   5   2.0000     -88.968855     -2420.9656
   6   2.0000     -88.958217     -2420.6761
   7   2.0000     -88.935576     -2420.0601
   8   2.0000     -19.266923      -524.2796
   9   2.0000     -19.211552      -522.7729
  10   2.0000     -19.209688      -522.7222
  11   2.0000     -14.432348      -392.7242
  12   2.0000     -14.428850      -392.6290
  13   2.0000     -14.428653      -392.6236
  14   2.0000     -14.427153      -392.5828
  15   2.0000     -14.422415      -392.4539
  16   2.0000     -14.414366      -392.2348
  17   2.0000     -14.413859      -392.2210
  18   2.0000     -10.416689      -283.4525
  19   2.0000     -10.361921      -281.9622
  20   2.0000     -10.361766      -281.9580
  21   2.0000     -10.355778      -281.7950
  22   2.0000     -10.355583      -281.7897
  23   2.0000     -10.350378      -281.6481
  24   2.0000     -10.345014      -281.5021
  25   2.0000     -10.343432      -281.4591
  26   2.0000     -10.342157      -281.4244
  27   2.0000     -10.338436      -281.3231
  28   2.0000     -10.338182      -281.3162
  29   2.0000     -10.337491      -281.2974
  30   2.0000     -10.332080      -281.1502
  31   2.0000     -10.331457      -281.1332
  32   2.0000     -10.330011      -281.0939
  33   2.0000     -10.329319      -281.0751
  34   2.0000     -10.327469      -281.0247
  35   2.0000     -10.325652      -280.9753
  36   2.0000     -10.325107      -280.9605
  37   2.0000     -10.324378      -280.9406
  38   2.0000     -10.323288      -280.9109
  39   2.0000     -10.321864      -280.8722
  40   2.0000     -10.319246      -280.8010
  41   2.0000     -10.318864      -280.7906
  42   2.0000     -10.318517      -280.7811
  43   2.0000     -10.318417      -280.7784
  44   2.0000     -10.318388      -280.7776
  45   2.0000     -10.317728      -280.7596
  46   2.0000     -10.315513      -280.6994
  47   2.0000     -10.314988      -280.6851
  48   2.0000     -10.314670      -280.6764
  49   2.0000     -10.313473      -280.6439
  50   2.0000     -10.312323      -280.6126
  51   2.0000     -10.312132      -280.6074
  52   2.0000     -10.310490      -280.5627
  53   2.0000     -10.308333      -280.5040
  54   2.0000     -10.305972      -280.4398
  55   2.0000     -10.305640      -280.4307
  56   2.0000     -10.304505      -280.3998
  57   2.0000     -10.302564      -280.3470
  58   2.0000     -10.301426      -280.3161
  59   2.0000     -10.300977      -280.3038
  60   2.0000     -10.299867      -280.2736
  61   2.0000     -10.295659      -280.1591
  62   2.0000     -10.295377      -280.1514
  63   2.0000     -10.294306      -280.1223
  64   2.0000     -10.293072      -280.0887
  65   2.0000     -10.291829      -280.0549
  66   2.0000     -10.290844      -280.0281
  67   2.0000     -10.288968      -279.9770
  68   2.0000     -10.288089      -279.9531
  69   2.0000     -10.287302      -279.9317
  70   2.0000     -10.286296      -279.9043
  71   2.0000     -10.284209      -279.8475
  72   2.0000     -10.282816      -279.8096
  73   2.0000     -10.278378      -279.6889
  74   2.0000     -10.273891      -279.5668
  75   2.0000     -10.269285      -279.4415
  76   2.0000      -8.094622      -220.2659
  77   2.0000      -8.089368      -220.1229
  78   2.0000      -8.077946      -219.8121
  79   2.0000      -8.076568      -219.7746
  80   2.0000      -8.072909      -219.6750
  81   2.0000      -8.064206      -219.4382
  82   2.0000      -8.053683      -219.1518
  83   2.0000      -8.031299      -218.5427
  84   2.0000      -6.064058      -165.0114
  85   2.0000      -6.059480      -164.8868
  86   2.0000      -6.058691      -164.8654
  87   2.0000      -6.056834      -164.8148
  88   2.0000      -6.054538      -164.7524
  89   2.0000      -6.051699      -164.6751
  90   2.0000      -6.047300      -164.5554
  91   2.0000      -6.045869      -164.5165
  92   2.0000      -6.043103      -164.4412
  93   2.0000      -6.042079      -164.4133
  94   2.0000      -6.041689      -164.4027
  95   2.0000      -6.040168      -164.3613
  96   2.0000      -6.038880      -164.3263
  97   2.0000      -6.037989      -164.3020
  98   2.0000      -6.035341      -164.2300
  99   2.0000      -6.033653      -164.1841
 100   2.0000      -6.029356      -164.0671
 101   2.0000      -6.026281      -163.9834
 102   2.0000      -6.023121      -163.8975
 103   2.0000      -6.018891      -163.7824
 104   2.0000      -6.015635      -163.6937
 105   2.0000      -6.001735      -163.3155
 106   2.0000      -5.997620      -163.2035
 107   2.0000      -5.990933      -163.0216
 108   2.0000      -1.193721       -32.4828
 109   2.0000      -1.125664       -30.6309
 110   2.0000      -1.106764       -30.1166
 111   2.0000      -1.045152       -28.4400
 112   2.0000      -1.035368       -28.1738
 113   2.0000      -1.025628       -27.9088
 114   2.0000      -1.023792       -27.8588
 115   2.0000      -1.020024       -27.7563
 116   2.0000      -1.017145       -27.6779
 117   2.0000      -1.016778       -27.6679
 118   2.0000      -1.006169       -27.3793
 119   2.0000      -1.004314       -27.3288
 120   2.0000      -1.003010       -27.2933
 121   2.0000      -1.001233       -27.2449
 122   2.0000      -0.993201       -27.0264
 123   2.0000      -0.990077       -26.9414
 124   2.0000      -0.985692       -26.8220
 125   2.0000      -0.980273       -26.6746
 126   2.0000      -0.961617       -26.1669
 127   2.0000      -0.958825       -26.0910
 128   2.0000      -0.948741       -25.8166
 129   2.0000      -0.946034       -25.7429
 130   2.0000      -0.923431       -25.1278
 131   2.0000      -0.915619       -24.9153
 132   2.0000      -0.910574       -24.7780
 133   2.0000      -0.904360       -24.6089
 134   2.0000      -0.902603       -24.5611
 135   2.0000      -0.892960       -24.2987
 136   2.0000      -0.883215       -24.0335
 137   2.0000      -0.877960       -23.8905
 138   2.0000      -0.875168       -23.8145
 139   2.0000      -0.870052       -23.6753
 140   2.0000      -0.860119       -23.4050
 141   2.0000      -0.854477       -23.2515
 142   2.0000      -0.850592       -23.1458
 143   2.0000      -0.843402       -22.9501
 144   2.0000      -0.836753       -22.7692
 145   2.0000      -0.830013       -22.5858
 146   2.0000      -0.819131       -22.2897
 147   2.0000      -0.817292       -22.2397
 148   2.0000      -0.802772       -21.8445
 149   2.0000      -0.792014       -21.5518
 150   2.0000      -0.787136       -21.4191
 151   2.0000      -0.773639       -21.0518
 152   2.0000      -0.771668       -20.9981
 153   2.0000      -0.764138       -20.7932
 154   2.0000      -0.751649       -20.4534
 155   2.0000      -0.743746       -20.2384
 156   2.0000      -0.739057       -20.1108
 157   2.0000      -0.730986       -19.8911
 158   2.0000      -0.715528       -19.4705
 159   2.0000      -0.712541       -19.3892
 160   2.0000      -0.704572       -19.1724
 161   2.0000      -0.703110       -19.1326
 162   2.0000      -0.693681       -18.8760
 163   2.0000      -0.690710       -18.7952
 164   2.0000      -0.685264       -18.6470
 165   2.0000      -0.683800       -18.6072
 166   2.0000      -0.678019       -18.4498
 167   2.0000      -0.670805       -18.2535
 168   2.0000      -0.664409       -18.0795
 169   2.0000      -0.660569       -17.9750
 170   2.0000      -0.645548       -17.5663
 171   2.0000      -0.642558       -17.4849
 172   2.0000      -0.637302       -17.3419
 173   2.0000      -0.633818       -17.2471
 174   2.0000      -0.628403       -17.0997
 175   2.0000      -0.624802       -17.0017
 176   2.0000      -0.620768       -16.8920
 177   2.0000      -0.618089       -16.8191
 178   2.0000      -0.615683       -16.7536
 179   2.0000      -0.613804       -16.7025
 180   2.0000      -0.606986       -16.5169
 181   2.0000      -0.602150       -16.3853
 182   2.0000      -0.594309       -16.1720
 183   2.0000      -0.591798       -16.1036
 184   2.0000      -0.588909       -16.0250
 185   2.0000      -0.586471       -15.9587
 186   2.0000      -0.580388       -15.7932
 187   2.0000      -0.573007       -15.5923
 188   2.0000      -0.568247       -15.4628
 189   2.0000      -0.556715       -15.1490
 190   2.0000      -0.554893       -15.0994
 191   2.0000      -0.552595       -15.0369
 192   2.0000      -0.552080       -15.0229
 193   2.0000      -0.546131       -14.8610
 194   2.0000      -0.544096       -14.8056
 195   2.0000      -0.539654       -14.6847
 196   2.0000      -0.535533       -14.5726
 197   2.0000      -0.532006       -14.4766
 198   2.0000      -0.530555       -14.4371
 199   2.0000      -0.529552       -14.4098
 200   2.0000      -0.527992       -14.3674
 201   2.0000      -0.527163       -14.3448
 202   2.0000      -0.520335       -14.1590
 203   2.0000      -0.517599       -14.0846
 204   2.0000      -0.515044       -14.0150
 205   2.0000      -0.513240       -13.9660
 206   2.0000      -0.510507       -13.8916
 207   2.0000      -0.509613       -13.8673
 208   2.0000      -0.507379       -13.8065
 209   2.0000      -0.503149       -13.6914
 210   2.0000      -0.500591       -13.6218
 211   2.0000      -0.500074       -13.6077
 212   2.0000      -0.497544       -13.5389
 213   2.0000      -0.495163       -13.4741
 214   2.0000      -0.494305       -13.4507
 215   2.0000      -0.489483       -13.3195
 216   2.0000      -0.487861       -13.2754
 217   2.0000      -0.482788       -13.1373
 218   2.0000      -0.481782       -13.1100
 219   2.0000      -0.479509       -13.0481
 220   2.0000      -0.476230       -12.9589
 221   2.0000      -0.474622       -12.9151
 222   2.0000      -0.473088       -12.8734
 223   2.0000      -0.472955       -12.8698
 224   2.0000      -0.470442       -12.8014
 225   2.0000      -0.467780       -12.7289
 226   2.0000      -0.464122       -12.6294
 227   2.0000      -0.463050       -12.6002
 228   2.0000      -0.461939       -12.5700
 229   2.0000      -0.460977       -12.5438
 230   2.0000      -0.459524       -12.5043
 231   2.0000      -0.457078       -12.4377
 232   2.0000      -0.456410       -12.4195
 233   2.0000      -0.455722       -12.4008
 234   2.0000      -0.454434       -12.3658
 235   2.0000      -0.452788       -12.3210
 236   2.0000      -0.452136       -12.3032
 237   2.0000      -0.448630       -12.2079
 238   2.0000      -0.447435       -12.1753
 239   2.0000      -0.446119       -12.1395
 240   2.0000      -0.442954       -12.0534
 241   2.0000      -0.442386       -12.0379
 242   2.0000      -0.440761       -11.9937
 243   2.0000      -0.438115       -11.9217
 244   2.0000      -0.437282       -11.8991
 245   2.0000      -0.437082       -11.8936
 246   2.0000      -0.435497       -11.8505
 247   2.0000      -0.434831       -11.8324
 248   2.0000      -0.433014       -11.7829
 249   2.0000      -0.432016       -11.7558
 250   2.0000      -0.430303       -11.7091
 251   2.0000      -0.427840       -11.6421
 252   2.0000      -0.425972       -11.5913
 253   2.0000      -0.423889       -11.5346
 254   2.0000      -0.422881       -11.5072
 255   2.0000      -0.420784       -11.4501
 256   2.0000      -0.418000       -11.3743
 257   2.0000      -0.417079       -11.3493
 258   2.0000      -0.413739       -11.2584
 259   2.0000      -0.408428       -11.1139
 260   2.0000      -0.403739       -10.9863
 261   2.0000      -0.400220       -10.8906
 262   2.0000      -0.395758       -10.7691
 263   2.0000      -0.395492       -10.7619
 264   2.0000      -0.393881       -10.7181
 265   2.0000      -0.387056       -10.5323
 266   2.0000      -0.377191       -10.2639
 267   2.0000      -0.369642       -10.0585
 268   2.0000      -0.357122        -9.7178
 269   2.0000      -0.352974        -9.6049
 270   2.0000      -0.351709        -9.5705
 271   2.0000      -0.349262        -9.5039
 272   2.0000      -0.337247        -9.1770
 273   2.0000      -0.336424        -9.1546
 274   2.0000      -0.330864        -9.0033
 275   2.0000      -0.328133        -8.9289
 276   2.0000      -0.324477        -8.8295
 277   2.0000      -0.320073        -8.7096
 278   2.0000      -0.313864        -8.5407
 279   2.0000      -0.306193        -8.3319
 280   2.0000      -0.300826        -8.1859
 281   2.0000      -0.283314        -7.7094
 282   2.0000      -0.260906        -7.0996
 283   2.0000      -0.241726        -6.5777
 284   2.0000      -0.221534        -6.0283
 285   0.0000      -0.106815        -2.9066
 286   0.0000      -0.100611        -2.7378
 287   0.0000      -0.095356        -2.5948
 288   0.0000      -0.080763        -2.1977
 289   0.0000      -0.055631        -1.5138

MULLIKEN ATOMIC CHARGES
-----------------------
   0 C :    0.015994
   1 C :    0.036660
   2 C :   -0.140006
   3 S :    0.006827
   4 C :   -0.099122
   5 S :    0.106799
   6 C :   -0.098166
   7 C :    0.071561
   8 C :    0.031488
   9 C :   -0.072433
  10 C :   -0.036268
  11 C :    0.002346
  12 C :   -0.112455
  13 S :    0.181538
  14 C :   -0.086098
  15 C :    0.002648
  16 C :    0.308391
  17 C :   -0.310025
  18 C :   -0.183978
  19 N :    0.168588
  20 C :   -0.152129
  21 N :    0.129578
  22 C :   -0.011350
  23 C :   -0.058540
  24 S :    0.197214
  25 C :   -0.026089
  26 C :   -0.069138
  27 C :    0.042797
  28 C :   -0.079065
  29 S :    0.182162
  30 C :   -0.087876
  31 C :    0.027122
  32 C :    0.296740
  33 C :   -0.292479
  34 C :   -0.188652
  35 N :    0.175926
  36 C :   -0.188734
  37 N :    0.170639
  38 C :   -0.030070
  39 C :   -0.073558
  40 S :    0.147649
  41 C :    0.010419
  42 C :   -0.099282
  43 C :    0.072937
  44 C :    0.083857
  45 C :   -0.127718
  46 S :    0.188850
  47 C :   -0.116627
  48 C :    0.064452
  49 C :    0.007887
  50 C :   -0.067155
  51 S :    0.142323
  52 C :    0.068737
  53 C :    0.028124
  54 C :   -0.000677
  55 C :    0.041970
  56 C :   -0.151316
  57 C :    0.136669
  58 O :   -0.145749
  59 C :    0.009751
  60 C :    0.058898
  61 C :   -0.117259
  62 C :    0.046319
  63 C :   -0.046146
  64 C :   -0.042107
  65 C :   -0.206189
  66 N :    0.117209
  67 C :    0.163514
  68 O :   -0.181710
  69 O :   -0.138657
  70 C :    0.337167
  71 C :   -0.365742
  72 C :   -0.224884
  73 N :    0.168074
  74 C :   -0.187024
  75 N :    0.127311
  76 H :   -0.015607
  77 H :   -0.014930
  78 H :    0.068978
  79 H :    0.072651
  80 H :    0.074466
  81 H :   -0.011915
  82 H :   -0.024165
  83 H :    0.002294
  84 H :    0.006781
  85 H :    0.006584
  86 H :    0.016373
  87 H :    0.027874
  88 H :    0.046166
  89 H :   -0.011852
  90 H :    0.033039
  91 H :   -0.011666
  92 H :   -0.049349
  93 H :    0.004209
  94 H :    0.028734
  95 H :    0.011809
  96 H :    0.176865
Sum of atomic charges:   -0.0000000

LOEWDIN ATOMIC CHARGES
----------------------
   0 C :   -0.043942
   1 C :   -0.093466
   2 C :   -0.318641
   3 S :    0.299228
   4 C :   -0.160756
   5 S :    0.422898
   6 C :   -0.188015
   7 C :   -0.025001
   8 C :   -0.058471
   9 C :   -0.155056
  10 C :   -0.035101
  11 C :   -0.064476
  12 C :   -0.192101
  13 S :    0.471773
  14 C :   -0.169781
  15 C :   -0.072644
  16 C :    0.093667
  17 C :   -0.109711
  18 C :   -0.015898
  19 N :   -0.037329
  20 C :    0.001980
  21 N :   -0.060414
  22 C :   -0.017982
  23 C :   -0.188247
  24 S :    0.484936
  25 C :   -0.151484
  26 C :   -0.040282
  27 C :   -0.047261
  28 C :   -0.191763
  29 S :    0.498103
  30 C :   -0.151743
  31 C :   -0.067509
  32 C :    0.088808
  33 C :   -0.099623
  34 C :   -0.015696
  35 N :   -0.032035
  36 C :   -0.015124
  37 N :   -0.035794
  38 C :   -0.012091
  39 C :   -0.190968
  40 S :    0.494181
  41 C :   -0.140499
  42 C :   -0.036996
  43 C :    0.034909
  44 C :   -0.037427
  45 C :   -0.140285
  46 S :    0.508017
  47 C :   -0.207444
  48 C :   -0.032508
  49 C :   -0.062270
  50 C :   -0.159140
  51 S :    0.433739
  52 C :   -0.064808
  53 C :    0.053591
  54 C :   -0.063705
  55 C :    0.062554
  56 C :   -0.125405
  57 C :    0.076320
  58 O :   -0.148744
  59 C :   -0.029065
  60 C :    0.007130
  61 C :    0.019605
  62 C :   -0.036644
  63 C :   -0.051149
  64 C :    0.042415
  65 C :   -0.032982
  66 N :   -0.037676
  67 C :    0.090131
  68 O :   -0.150831
  69 O :   -0.011557
  70 C :    0.054362
  71 C :   -0.165527
  72 C :   -0.027718
  73 N :   -0.066436
  74 C :   -0.024317
  75 N :   -0.067469
  76 H :    0.028709
  77 H :    0.029695
  78 H :    0.036223
  79 H :    0.025397
  80 H :    0.025502
  81 H :    0.029950
  82 H :    0.025641
  83 H :    0.037503
  84 H :    0.027394
  85 H :    0.036419
  86 H :    0.039380
  87 H :    0.028244
  88 H :    0.040696
  89 H :    0.032511
  90 H :    0.026171
  91 H :    0.036191
  92 H :    0.021759
  93 H :    0.040706
  94 H :    0.040231
  95 H :    0.050441
  96 H :    0.081896

  Mayer bond orders larger than 0.100000
B(  0-C ,  1-C ) :   1.2979 B(  0-C ,  6-C ) :   1.5085 B(  0-C , 76-H ) :   0.9915
B(  1-C ,  2-C ) :   1.5328 B(  1-C , 77-H ) :   0.9928 B(  2-C ,  3-S ) :   1.0282
B(  2-C ,  5-S ) :   1.1293 B(  3-S ,  4-C ) :   1.0145 B(  4-C , 78-H ) :   0.9728
B(  4-C , 79-H ) :   0.9654 B(  4-C , 80-H ) :   0.9645 B(  5-S ,  6-C ) :   1.0944
B(  6-C ,  7-C ) :   1.1352 B(  7-C ,  8-C ) :   1.7117 B(  7-C , 81-H ) :   0.9586
B(  8-C ,  9-C ) :   1.1268 B(  8-C , 82-H ) :   0.9575 B(  9-C , 10-C ) :   1.4513
B(  9-C , 13-S ) :   1.1095 B( 10-C , 11-C ) :   1.3065 B( 10-C , 83-H ) :   0.9902
B( 11-C , 12-C ) :   1.4348 B( 11-C , 16-C ) :   0.9967 B( 12-C , 13-S ) :   1.1132
B( 12-C , 14-C ) :   1.1951 B( 14-C , 15-C ) :   1.4333 B( 14-C , 24-S ) :   1.1313
B( 15-C , 16-C ) :   1.0022 B( 15-C , 22-C ) :   1.3313 B( 16-C , 17-C ) :   1.7018
B( 17-C , 18-C ) :   1.1316 B( 17-C , 20-C ) :   1.1525 B( 18-C , 19-N ) :   2.9922
B( 20-C , 21-N ) :   2.9078 B( 22-C , 23-C ) :   1.4441 B( 22-C , 84-H ) :   0.9696
B( 23-C , 24-S ) :   1.0944 B( 23-C , 25-C ) :   1.1895 B( 25-C , 26-C ) :   1.4460
B( 25-C , 29-S ) :   1.1217 B( 26-C , 27-C ) :   1.3090 B( 26-C , 85-H ) :   0.9885
B( 27-C , 28-C ) :   1.4292 B( 27-C , 32-C ) :   0.9972 B( 28-C , 29-S ) :   1.1116
B( 28-C , 30-C ) :   1.2045 B( 30-C , 31-C ) :   1.3966 B( 30-C , 40-S ) :   1.1510
B( 31-C , 32-C ) :   0.9963 B( 31-C , 38-C ) :   1.3419 B( 32-C , 33-C ) :   1.7120
B( 33-C , 34-C ) :   1.1350 B( 33-C , 36-C ) :   1.1319 B( 34-C , 35-N ) :   2.9963
B( 36-C , 37-N ) :   2.9946 B( 38-C , 39-C ) :   1.4210 B( 38-C , 86-H ) :   0.9802
B( 39-C , 40-S ) :   1.0743 B( 39-C , 41-C ) :   1.2049 B( 41-C , 42-C ) :   1.4104
B( 41-C , 46-S ) :   1.1216 B( 42-C , 43-C ) :   1.3481 B( 42-C , 87-H ) :   0.9423
B( 43-C , 44-C ) :   1.1132 B( 43-C , 52-C ) :   1.2358 B( 44-C , 45-C ) :   1.5887
B( 44-C , 47-C ) :   1.1496 B( 45-C , 46-S ) :   1.1497 B( 45-C , 88-H ) :   0.9388
B( 47-C , 48-C ) :   1.4642 B( 47-C , 51-S ) :   1.0819 B( 48-C , 49-C ) :   1.2351
B( 48-C , 52-C ) :   1.0646 B( 49-C , 50-C ) :   1.5747 B( 49-C , 89-H ) :   0.9995
B( 50-C , 51-S ) :   1.1651 B( 50-C , 90-H ) :   0.9667 B( 52-C , 53-C ) :   1.3130
B( 53-C , 54-C ) :   1.4120 B( 53-C , 91-H ) :   0.9778 B( 54-C , 55-C ) :   1.3191
B( 54-C , 92-H ) :   0.9525 B( 55-C , 56-C ) :   1.3955 B( 55-C , 93-H ) :   0.9648
B( 56-C , 57-C ) :   0.9776 B( 56-C , 70-C ) :   1.1432 B( 57-C , 58-O ) :   2.2549
B( 57-C , 59-C ) :   0.8940 B( 59-C , 60-C ) :   1.3324 B( 59-C , 64-C ) :   1.3851
B( 60-C , 61-C ) :   1.3307 B( 60-C , 70-C ) :   0.9823 B( 61-C , 62-C ) :   1.3675
B( 61-C , 94-H ) :   0.9807 B( 62-C , 63-C ) :   1.3535 B( 62-C , 67-C ) :   0.8644
B( 63-C , 64-C ) :   1.3432 B( 63-C , 65-C ) :   1.0648 B( 64-C , 95-H ) :   1.0109
B( 65-C , 66-N ) :   2.9560 B( 67-C , 68-O ) :   2.1048 B( 67-C , 69-O ) :   1.2752
B( 69-O , 96-H ) :   0.9347 B( 70-C , 71-C ) :   1.5127 B( 71-C , 72-C ) :   1.1796
B( 71-C , 74-C ) :   1.1489 B( 72-C , 73-N ) :   2.9612 B( 74-C , 75-N ) :   2.8982

-----------------------------------------------------------------------------
         ABSORPTION SPECTRUM VIA TRANSITION ELECTRIC DIPOLE MOMENTS
-----------------------------------------------------------------------------
State   Energy  Wavelength   fosc         T2         TX        TY        TZ
        (cm-1)    (nm)                  (au**2)     (au)      (au)      (au)
-----------------------------------------------------------------------------
   0    9474.8   1055.4   0.342296625  11.89352  -0.33342  -2.51819   2.33261
   1   10384.5    963.0   0.042299662   1.34100   0.50829   0.85155  -0.59792
   2   12064.7    828.9   0.113887862   3.10768   1.54182   0.53426   0.66711
   3   16358.5    611.3   0.198356366   3.99189   1.44933  -0.65262   1.21054
   4   16876.0    592.6   0.036867438   0.71920  -0.64415  -0.43645   0.33732
   5   17870.8    559.6   0.550635947  10.14368   0.03199  -1.93470   2.52974
   6   19153.0    522.1   0.010492808   0.18036  -0.26918   0.03902  -0.32615
   7   20181.4    495.5   0.121631224   1.98413   0.10202   0.98777  -0.99901
   8   21136.9    473.1   0.018619028   0.28999  -0.37928   0.35131  -0.15076
   9   22384.0    446.7   0.252897766   3.71949  -0.42148  -1.21170   1.44001
  10   22718.0    440.2   1.738948926  25.19957  -0.80980   3.32889  -3.66910
  11   22953.2    435.7   0.185998106   2.66772   0.01871  -1.17611   1.13320
  12   23681.2    422.3   0.161180418   2.24070   0.08673   1.07478  -1.03828
  13   24841.1    402.6   0.041365124   0.54820   0.41777  -0.40572   0.45723
  14   25448.6    392.9   0.156715943   2.02734  -0.35622   0.99349  -0.95573
  15   25938.7    385.5   0.014275056   0.18118  -0.16151  -0.29612   0.25962
  16   26641.5    375.4   0.010261780   0.12681   0.31451   0.09012  -0.14059
  17   27334.8    365.8   0.163602308   1.97038  -0.42882   0.96885  -0.92077
  18   27771.6    360.1   0.090477644   1.07255  -0.42042   0.59205  -0.73842
  19   28114.8    355.7   0.116049596   1.35889  -0.31891  -0.62667   0.92977
  20   28928.3    345.7   0.044703178   0.50873  -0.68330  -0.06878   0.19264
  21   29195.6    342.5   0.142155144   1.60295  -1.22440  -0.17226   0.27225
  22   29253.8    341.8   0.109618491   1.23361  -1.06297   0.32113   0.02413
  23   29783.8    335.8   0.014146134   0.15636  -0.02457  -0.22121   0.32684
  24   30220.5    330.9   0.030283760   0.32990   0.39654  -0.12555  -0.39610
  25   30484.6    328.0   0.115266407   1.24479  -0.81339   0.74985  -0.14462
  26   30950.4    323.1   0.838748583   8.92158   2.88345   0.01853  -0.77906
  27   31121.5    321.3   0.131128670   1.38712  -0.82576  -0.52022   0.65926
  28   31359.4    318.9   0.296685482   3.11462   1.21203  -1.13542   0.59699
  29   31590.8    316.5   0.024976615   0.26028  -0.25054   0.29339  -0.33383
  30   31792.0    314.5   0.000461875   0.00478   0.06290  -0.00845   0.02749
  31   32003.2    312.5   0.035997267   0.37030  -0.11982   0.32885  -0.49779
  32   32453.3    308.1   0.068547502   0.69536   0.78817   0.02850  -0.27081
  33   32593.7    306.8   0.145588999   1.47052  -0.01330   0.81592  -0.89700
  34   32783.9    305.0   0.043659621   0.43842   0.56558  -0.28589   0.19187
  35   33032.7    302.7   0.122946839   1.22532  -1.08491   0.21951   0.01035
  36   33153.1    301.6   0.014241298   0.14142  -0.26555   0.18053   0.19572
  37   33557.8    298.0   0.109647390   1.07567   0.40055  -0.72183   0.62785
  38   33879.8    295.2   0.010391955   0.10098   0.31137  -0.06342   0.00172
  39   34059.5    293.6   0.316521008   3.05943   1.68311  -0.47336  -0.05012
  40   34623.1    288.8   0.377566227   3.59006  -0.19610   1.20063  -1.45262
  41   34994.6    285.8   0.053803364   0.50616   0.34109   0.41901  -0.46286
  42   35116.7    284.8   0.030021386   0.28144  -0.35252   0.26742  -0.29268
  43   35165.1    284.4   0.000240150   0.00225   0.04022  -0.02372  -0.00826
  44   35285.5    283.4   0.151134815   1.41008  -0.66690  -0.75897   0.62393
  45   35509.2    281.6   0.008489038   0.07870   0.26104  -0.02524   0.09962
  46   35668.1    280.4   0.039405262   0.36371  -0.42655   0.27671  -0.32433
  47   35721.7    279.9   0.195843732   1.80490   0.06874   0.96397  -0.93324
  48   36101.4    277.0   0.037267380   0.33984   0.54077   0.01130  -0.21745
  49   36124.1    276.8   0.009163387   0.08351   0.15203   0.19958  -0.14341
  50   36551.6    273.6   0.002318134   0.02088  -0.12477   0.06886  -0.02386
  51   36765.2    272.0   0.035868288   0.32118   0.01193   0.46794  -0.31948
  52   36852.5    271.4   0.012388340   0.11067   0.31025   0.00026  -0.12004
  53   36976.1    270.4   0.007398132   0.06587  -0.03179  -0.23224   0.10451
  54   37002.0    270.3   0.021135112   0.18804  -0.27356  -0.04832   0.33297
  55   37597.8    266.0   0.029813010   0.26105  -0.12407   0.26347  -0.41980
  56   37739.7    265.0   0.038278369   0.33391   0.27181   0.31925  -0.39763
  57   37754.5    264.9   0.009377769   0.08177   0.26235   0.01687  -0.11252
  58   37863.5    264.1   0.139112477   1.20954  -0.97155   0.50669  -0.09429
  59   37913.9    263.8   0.030283297   0.26295  -0.13900  -0.29804   0.39345
  60   37964.9    263.4   0.023954228   0.20772   0.05728   0.31959  -0.31984
  61   38189.8    261.9   0.424441926   3.65887  -1.16850   1.27159  -0.82251
  62   38422.7    260.3   0.028896742   0.24759  -0.49663   0.01707   0.02561
  63   38742.0    258.1   0.074733557   0.63505   0.77801   0.12877  -0.11477
  64   38913.0    257.0   0.009770114   0.08266  -0.10332   0.25347  -0.08796
  65   38984.3    256.5   0.148621328   1.25507   0.56872   0.68116  -0.68385
  66   39216.6    255.0   0.007868443   0.06605   0.20823  -0.06640   0.13522
  67   39227.1    254.9   0.065376803   0.54867   0.40465  -0.56284   0.26106
  68   39482.4    253.3   0.018712170   0.15603  -0.23768   0.30350  -0.08616
  69   39951.1    250.3   0.002698719   0.02224   0.14041   0.02885  -0.04114
  70   40031.4    249.8   0.125348797   1.03085  -0.96282   0.31965  -0.04053

FINAL SINGLE POINT ENERGY     -6012.500129153812

DIPOLE MOMENT
-------------
                                X             Y             Z
Electronic contribution:     18.30663     -23.63576      23.93552
Nuclear contribution   :    -18.39548      23.46562     -21.91089
                        -----------------------------------------
Total Dipole Moment    :     -0.08885      -0.17015       2.02462
                        -----------------------------------------
Magnitude (a.u.)       :      2.03370
Magnitude (Debye)      :      5.16926

Rotational constants in cm-1:     0.001844     0.000269     0.000240
Rotational constants in MHz :    55.281178     8.066698     7.183158

                             ****ORCA TERMINATED NORMALLY****
TOTAL RUN TIME: 0 days 0 hours 12 minutes 9 seconds 620 msec
