                         Program Version 4.2.0 -  RELEASE  -
|  1> # ORCA input file
|  2> # SCF done       -152.384850512824          0.000918142747
|  3> ! CAM-B3LYP def2-SVP def2/J RIJCOSX Grid4 TightSCF
|  4> %maxcore 5000
|  5> %tddft
|  6>     Mode sTDDFT
|  7>     Ethresh 5.0
|  8>     maxcore 5000
|  9> end
| 10>
| 11> %pal
| 12>   nprocs 6
| 13>   end
| 14> * xyz 0 1
| 15>    C        1.77666        -4.50534        -1.94442
| 16>    S        1.49367        -2.79944        -2.05624
| 17>    C       -0.18929        -3.05506        -1.89019
| 18>    C       -0.49904        -4.40255        -1.75574
| 19>    C        0.63372        -5.23250        -1.78740
| 20>    C       -1.95856        -4.50473        -1.61883
| 21>    O       -2.65053        -5.48355        -1.47922
| 22>    C       -2.44911        -3.06575        -1.69072
| 23>    C       -1.36702        -2.24336        -1.85172
| 24>    C       -3.83013        -2.78328        -1.59259
| 25>    C       -4.37649        -1.53806        -1.64534
| 26>    C       -5.75465        -1.24605        -1.54974
| 27>    S       -6.26768         0.43550        -1.65259
| 28>    C       -7.90190        -0.02198        -1.47151
| 29>    C       -8.04511        -1.40575        -1.33727
| 30>    C       -6.84365        -2.09730        -1.38025
| 31>    C       -9.49089        -1.67696        -1.18742
| 32>    O      -10.05569        -2.73249        -1.04265
| 33>    C      -10.14215        -0.31138        -1.25445
| 34>    C       -9.16348         0.63412        -1.42125
| 35>    C      -11.55018        -0.17500        -1.15262
| 36>    C      -12.21502         1.00453        -1.19307
| 37>    C      -13.62957         1.16290        -1.09808
| 38>    C      -14.25981         2.34901        -1.07946
| 39>    C      -15.73939         2.19930        -0.93689
| 40>    C      -15.98546         0.69872        -1.22099
| 41>    C      -14.61568         0.03230        -0.97946
| 42>    C      -17.13256         0.27354        -0.28973
| 43>    C      -17.02613         1.22362         0.92019
| 44>    C      -16.35234         0.37052         1.96522
| 45>    C      -16.34236        -0.90602         1.62068
| 46>    C      -17.00663        -1.14092         0.29538
| 47>    C      -16.24310         2.42232         0.47141
| 48>    C      -16.04579         3.50026         1.24643
| 49>    C      -15.30339         4.66490         0.88477
| 50>    C      -14.95368         5.62606         1.76952
| 51>    C      -14.11701         6.73522         1.47068
| 52>    S      -13.67488         7.84317         2.76102
| 53>    C      -12.65030         8.71556         1.70391
| 54>    C      -12.66555         8.18187         0.41446
| 55>    C      -13.49112         7.07275         0.27819
| 56>    C      -11.72314         8.97520        -0.39688
| 57>    O      -11.43515         8.85553        -1.56269
| 58>    C      -11.16011         9.99759         0.56869
| 59>    C      -11.74994         9.81218         1.79624
| 60>    C      -10.15990        10.89582         0.14146
| 61>    C       -9.54039        11.81851         0.92912
| 62>    C       -8.49301        12.66598         0.50775
| 63>    S       -7.79337        13.79458         1.66243
| 64>    C       -6.68026        14.34844         0.49168
| 65>    C       -6.84390        13.69606        -0.72993
| 66>    C       -7.85906        12.75233        -0.73002
| 67>    C       -5.82387        14.24658        -1.65450
| 68>    O       -5.61473        13.95898        -2.80656
| 69>    C       -5.07848        15.26838        -0.82908
| 70>    C       -5.61420        15.29761         0.42579
| 71>    C       -3.99748        16.01572        -1.40199
| 72>    C       -3.26858        16.93920        -0.77297
| 73>    H        2.78585        -4.86161        -2.00321
| 74>    H        0.61113        -6.30325        -1.70001
| 75>    H       -1.37038        -1.17257        -1.93728
| 76>    H       -4.46483        -3.65012        -1.46761
| 77>    H       -3.72303        -0.68530        -1.77219
| 78>    H       -6.74938        -3.16383        -1.29415
| 79>    H       -9.29920         1.69655        -1.50519
| 80>    H      -12.09194        -1.10354        -1.03073
| 81>    H      -11.65159         1.92193        -1.30387
| 82>    H      -13.76733         3.30313        -1.13809
| 83>    H      -16.28606         2.85686        -1.62207
| 84>    H      -16.26726         0.54729        -2.26576
| 85>    H      -14.41553        -0.75864        -1.70206
| 86>    H      -14.54620        -0.39140         0.02393
| 87>    H      -18.08010         0.40421        -0.81604
| 88>    H      -18.00509         1.54007         1.30050
| 89>    H      -15.95835         0.79984         2.86928
| 90>    H      -15.94005        -1.71806         2.20222
| 91>    H      -17.99432        -1.58367         0.45257
| 92>    H      -16.44407        -1.81615        -0.34876
| 93>    H      -16.45570         3.48990         2.24955
| 94>    H      -14.99661         4.75752        -0.14463
| 95>    H      -15.27685         5.54012         2.79906
| 96>    H      -13.62546         6.52809        -0.63777
| 97>    H      -11.56690        10.37784         2.69128
| 98>    H       -9.87399        10.79418        -0.89711
| 99>    H       -9.84417        11.91711         1.96282
|100>    H       -8.13101        12.14853        -1.57547
|101>    H       -5.30338        15.91908         1.24536
|102>    H       -3.79215        15.77178        -2.43691
|103>    H       -3.44527        17.20342         0.25592
|104>    H       -2.46865        17.45778        -1.27164
|105> *
|106>
|107>                          ****END OF INPUT****

CARTESIAN COORDINATES (ANGSTROEM)
---------------------------------
  C      1.776660   -4.505340   -1.944420
  S      1.493670   -2.799440   -2.056240
  C     -0.189290   -3.055060   -1.890190
  C     -0.499040   -4.402550   -1.755740
  C      0.633720   -5.232500   -1.787400
  C     -1.958560   -4.504730   -1.618830
  O     -2.650530   -5.483550   -1.479220
  C     -2.449110   -3.065750   -1.690720
  C     -1.367020   -2.243360   -1.851720
  C     -3.830130   -2.783280   -1.592590
  C     -4.376490   -1.538060   -1.645340
  C     -5.754650   -1.246050   -1.549740
  S     -6.267680    0.435500   -1.652590
  C     -7.901900   -0.021980   -1.471510
  C     -8.045110   -1.405750   -1.337270
  C     -6.843650   -2.097300   -1.380250
  C     -9.490890   -1.676960   -1.187420
  O    -10.055690   -2.732490   -1.042650
  C    -10.142150   -0.311380   -1.254450
  C     -9.163480    0.634120   -1.421250
  C    -11.550180   -0.175000   -1.152620
  C    -12.215020    1.004530   -1.193070
  C    -13.629570    1.162900   -1.098080
  C    -14.259810    2.349010   -1.079460
  C    -15.739390    2.199300   -0.936890
  C    -15.985460    0.698720   -1.220990
  C    -14.615680    0.032300   -0.979460
  C    -17.132560    0.273540   -0.289730
  C    -17.026130    1.223620    0.920190
  C    -16.352340    0.370520    1.965220
  C    -16.342360   -0.906020    1.620680
  C    -17.006630   -1.140920    0.295380
  C    -16.243100    2.422320    0.471410
  C    -16.045790    3.500260    1.246430
  C    -15.303390    4.664900    0.884770
  C    -14.953680    5.626060    1.769520
  C    -14.117010    6.735220    1.470680
  S    -13.674880    7.843170    2.761020
  C    -12.650300    8.715560    1.703910
  C    -12.665550    8.181870    0.414460
  C    -13.491120    7.072750    0.278190
  C    -11.723140    8.975200   -0.396880
  O    -11.435150    8.855530   -1.562690
  C    -11.160110    9.997590    0.568690
  C    -11.749940    9.812180    1.796240
  C    -10.159900   10.895820    0.141460
  C     -9.540390   11.818510    0.929120
  C     -8.493010   12.665980    0.507750
  S     -7.793370   13.794580    1.662430
  C     -6.680260   14.348440    0.491680
  C     -6.843900   13.696060   -0.729930
  C     -7.859060   12.752330   -0.730020
  C     -5.823870   14.246580   -1.654500
  O     -5.614730   13.958980   -2.806560
  C     -5.078480   15.268380   -0.829080
  C     -5.614200   15.297610    0.425790
  C     -3.997480   16.015720   -1.401990
  C     -3.268580   16.939200   -0.772970
  H      2.785850   -4.861610   -2.003210
  H      0.611130   -6.303250   -1.700010
  H     -1.370380   -1.172570   -1.937280
  H     -4.464830   -3.650120   -1.467610
  H     -3.723030   -0.685300   -1.772190
  H     -6.749380   -3.163830   -1.294150
  H     -9.299200    1.696550   -1.505190
  H    -12.091940   -1.103540   -1.030730
  H    -11.651590    1.921930   -1.303870
  H    -13.767330    3.303130   -1.138090
  H    -16.286060    2.856860   -1.622070
  H    -16.267260    0.547290   -2.265760
  H    -14.415530   -0.758640   -1.702060
  H    -14.546200   -0.391400    0.023930
  H    -18.080100    0.404210   -0.816040
  H    -18.005090    1.540070    1.300500
  H    -15.958350    0.799840    2.869280
  H    -15.940050   -1.718060    2.202220
  H    -17.994320   -1.583670    0.452570
  H    -16.444070   -1.816150   -0.348760
  H    -16.455700    3.489900    2.249550
  H    -14.996610    4.757520   -0.144630
  H    -15.276850    5.540120    2.799060
  H    -13.625460    6.528090   -0.637770
  H    -11.566900   10.377840    2.691280
  H     -9.873990   10.794180   -0.897110
  H     -9.844170   11.917110    1.962820
  H     -8.131010   12.148530   -1.575470
  H     -5.303380   15.919080    1.245360
  H     -3.792150   15.771780   -2.436910
  H     -3.445270   17.203420    0.255920
  H     -2.468650   17.457780   -1.271640

 Total Charge           Charge          ....    0
 Multiplicity           Mult            ....    1
 Number of Electrons    NEL             ....  428
 Basis Dimension        Dim             ....  988

ORBITAL ENERGIES
----------------

  NO   OCC          E(Eh)            E(eV)
   0   2.0000     -88.971840     -2421.0468
   1   2.0000     -88.968387     -2420.9529
   2   2.0000     -88.968177     -2420.9472
   3   2.0000     -88.965496     -2420.8742
   4   2.0000     -19.222506      -523.0710
   5   2.0000     -19.222002      -523.0573
   6   2.0000     -19.219874      -522.9993
   7   2.0000     -19.216447      -522.9061
   8   2.0000     -10.363425      -282.0031
   9   2.0000     -10.362659      -281.9823
  10   2.0000     -10.361041      -281.9382
  11   2.0000     -10.357804      -281.8502
  12   2.0000     -10.307271      -280.4751
  13   2.0000     -10.306876      -280.4643
  14   2.0000     -10.305352      -280.4229
  15   2.0000     -10.303867      -280.3825
  16   2.0000     -10.303595      -280.3751
  17   2.0000     -10.303049      -280.3602
  18   2.0000     -10.301712      -280.3238
  19   2.0000     -10.298540      -280.2375
  20   2.0000     -10.295050      -280.1425
  21   2.0000     -10.291902      -280.0569
  22   2.0000     -10.291579      -280.0481
  23   2.0000     -10.288541      -279.9654
  24   2.0000     -10.286305      -279.9046
  25   2.0000     -10.284798      -279.8636
  26   2.0000     -10.284156      -279.8461
  27   2.0000     -10.282708      -279.8067
  28   2.0000     -10.281166      -279.7647
  29   2.0000     -10.280470      -279.7458
  30   2.0000     -10.280441      -279.7450
  31   2.0000     -10.278972      -279.7050
  32   2.0000     -10.278694      -279.6975
  33   2.0000     -10.277792      -279.6730
  34   2.0000     -10.276787      -279.6456
  35   2.0000     -10.275811      -279.6190
  36   2.0000     -10.271994      -279.5152
  37   2.0000     -10.271904      -279.5127
  38   2.0000     -10.271733      -279.5081
  39   2.0000     -10.271720      -279.5077
  40   2.0000     -10.271668      -279.5063
  41   2.0000     -10.269462      -279.4463
  42   2.0000     -10.269247      -279.4404
  43   2.0000     -10.268789      -279.4279
  44   2.0000     -10.268574      -279.4221
  45   2.0000     -10.268073      -279.4085
  46   2.0000     -10.265972      -279.3513
  47   2.0000     -10.264965      -279.3239
  48   2.0000     -10.264904      -279.3223
  49   2.0000     -10.263329      -279.2794
  50   2.0000     -10.262632      -279.2604
  51   2.0000     -10.262043      -279.2444
  52   2.0000     -10.261964      -279.2422
  53   2.0000     -10.259340      -279.1708
  54   2.0000     -10.258725      -279.1541
  55   2.0000     -10.258334      -279.1435
  56   2.0000     -10.257467      -279.1199
  57   2.0000     -10.255287      -279.0606
  58   2.0000      -8.066908      -219.5117
  59   2.0000      -8.063552      -219.4204
  60   2.0000      -8.063185      -219.4104
  61   2.0000      -8.060838      -219.3466
  62   2.0000      -6.035951      -164.2466
  63   2.0000      -6.032571      -164.1546
  64   2.0000      -6.032268      -164.1464
  65   2.0000      -6.031987      -164.1387
  66   2.0000      -6.029987      -164.0843
  67   2.0000      -6.029479      -164.0705
  68   2.0000      -6.028634      -164.0475
  69   2.0000      -6.028277      -164.0378
  70   2.0000      -6.026115      -163.9789
  71   2.0000      -6.025738      -163.9687
  72   2.0000      -6.025703      -163.9677
  73   2.0000      -6.023495      -163.9076
  74   2.0000      -1.132625       -30.8203
  75   2.0000      -1.131814       -30.7982
  76   2.0000      -1.130084       -30.7512
  77   2.0000      -1.126505       -30.6538
  78   2.0000      -1.002537       -27.2804
  79   2.0000      -0.999370       -27.1943
  80   2.0000      -0.999365       -27.1941
  81   2.0000      -0.994847       -27.0712
  82   2.0000      -0.973220       -26.4827
  83   2.0000      -0.942871       -25.6568
  84   2.0000      -0.939194       -25.5568
  85   2.0000      -0.935033       -25.4436
  86   2.0000      -0.927975       -25.2515
  87   2.0000      -0.923906       -25.1408
  88   2.0000      -0.901432       -24.5292
  89   2.0000      -0.887224       -24.1426
  90   2.0000      -0.882129       -24.0040
  91   2.0000      -0.869631       -23.6638
  92   2.0000      -0.860467       -23.4145
  93   2.0000      -0.851891       -23.1811
  94   2.0000      -0.843042       -22.9403
  95   2.0000      -0.841337       -22.8939
  96   2.0000      -0.838947       -22.8289
  97   2.0000      -0.836035       -22.7497
  98   2.0000      -0.827241       -22.5104
  99   2.0000      -0.807630       -21.9767
 100   2.0000      -0.804126       -21.8814
 101   2.0000      -0.785238       -21.3674
 102   2.0000      -0.784317       -21.3424
 103   2.0000      -0.772213       -21.0130
 104   2.0000      -0.753392       -20.5008
 105   2.0000      -0.752359       -20.4727
 106   2.0000      -0.748948       -20.3799
 107   2.0000      -0.748128       -20.3576
 108   2.0000      -0.745652       -20.2902
 109   2.0000      -0.737283       -20.0625
 110   2.0000      -0.724853       -19.7243
 111   2.0000      -0.712340       -19.3837
 112   2.0000      -0.693054       -18.8590
 113   2.0000      -0.676215       -18.4007
 114   2.0000      -0.668206       -18.1828
 115   2.0000      -0.656240       -17.8572
 116   2.0000      -0.646045       -17.5798
 117   2.0000      -0.644872       -17.5479
 118   2.0000      -0.640058       -17.4169
 119   2.0000      -0.634904       -17.2766
 120   2.0000      -0.633361       -17.2346
 121   2.0000      -0.628882       -17.1128
 122   2.0000      -0.624486       -16.9931
 123   2.0000      -0.622295       -16.9335
 124   2.0000      -0.616692       -16.7810
 125   2.0000      -0.614013       -16.7082
 126   2.0000      -0.610798       -16.6206
 127   2.0000      -0.606398       -16.5009
 128   2.0000      -0.601295       -16.3621
 129   2.0000      -0.594532       -16.1780
 130   2.0000      -0.591035       -16.0829
 131   2.0000      -0.585972       -15.9451
 132   2.0000      -0.583502       -15.8779
 133   2.0000      -0.568802       -15.4779
 134   2.0000      -0.565963       -15.4006
 135   2.0000      -0.565466       -15.3871
 136   2.0000      -0.564134       -15.3509
 137   2.0000      -0.562514       -15.3068
 138   2.0000      -0.558105       -15.1868
 139   2.0000      -0.553082       -15.0501
 140   2.0000      -0.546393       -14.8681
 141   2.0000      -0.542895       -14.7729
 142   2.0000      -0.535967       -14.5844
 143   2.0000      -0.528089       -14.3700
 144   2.0000      -0.526009       -14.3134
 145   2.0000      -0.520955       -14.1759
 146   2.0000      -0.518882       -14.1195
 147   2.0000      -0.518126       -14.0989
 148   2.0000      -0.515786       -14.0352
 149   2.0000      -0.513853       -13.9826
 150   2.0000      -0.512762       -13.9530
 151   2.0000      -0.509470       -13.8634
 152   2.0000      -0.507707       -13.8154
 153   2.0000      -0.499336       -13.5876
 154   2.0000      -0.497530       -13.5385
 155   2.0000      -0.494476       -13.4554
 156   2.0000      -0.493534       -13.4298
 157   2.0000      -0.488883       -13.3032
 158   2.0000      -0.485734       -13.2175
 159   2.0000      -0.484027       -13.1710
 160   2.0000      -0.478585       -13.0230
 161   2.0000      -0.476113       -12.9557
 162   2.0000      -0.473817       -12.8932
 163   2.0000      -0.470143       -12.7932
 164   2.0000      -0.468448       -12.7471
 165   2.0000      -0.466358       -12.6903
 166   2.0000      -0.465406       -12.6643
 167   2.0000      -0.464196       -12.6314
 168   2.0000      -0.463363       -12.6087
 169   2.0000      -0.461946       -12.5702
 170   2.0000      -0.458655       -12.4806
 171   2.0000      -0.454261       -12.3611
 172   2.0000      -0.454130       -12.3575
 173   2.0000      -0.453820       -12.3491
 174   2.0000      -0.448252       -12.1976
 175   2.0000      -0.445621       -12.1260
 176   2.0000      -0.441970       -12.0266
 177   2.0000      -0.439202       -11.9513
 178   2.0000      -0.430656       -11.7187
 179   2.0000      -0.429620       -11.6905
 180   2.0000      -0.427250       -11.6261
 181   2.0000      -0.427189       -11.6244
 182   2.0000      -0.427096       -11.6219
 183   2.0000      -0.425365       -11.5748
 184   2.0000      -0.423721       -11.5300
 185   2.0000      -0.421936       -11.4815
 186   2.0000      -0.418170       -11.3790
 187   2.0000      -0.416184       -11.3249
 188   2.0000      -0.410876       -11.1805
 189   2.0000      -0.407705       -11.0942
 190   2.0000      -0.405048       -11.0219
 191   2.0000      -0.396576       -10.7914
 192   2.0000      -0.392610       -10.6835
 193   2.0000      -0.389604       -10.6017
 194   2.0000      -0.384941       -10.4748
 195   2.0000      -0.373536       -10.1644
 196   2.0000      -0.367594       -10.0027
 197   2.0000      -0.343960        -9.3596
 198   2.0000      -0.335854        -9.1391
 199   2.0000      -0.334376        -9.0988
 200   2.0000      -0.334159        -9.0929
 201   2.0000      -0.333165        -9.0659
 202   2.0000      -0.331554        -9.0221
 203   2.0000      -0.331403        -9.0179
 204   2.0000      -0.331265        -9.0142
 205   2.0000      -0.328762        -8.9461
 206   2.0000      -0.325983        -8.8704
 207   2.0000      -0.309629        -8.4254
 208   2.0000      -0.305960        -8.3256
 209   2.0000      -0.299652        -8.1539
 210   2.0000      -0.266429        -7.2499
 211   2.0000      -0.259390        -7.0584
 212   2.0000      -0.223418        -6.0795
 213   2.0000      -0.220539        -6.0012
 214   0.0000      -0.085724        -2.3327
 215   0.0000      -0.081899        -2.2286
 216   0.0000      -0.064295        -1.7496
 217   0.0000      -0.061360        -1.6697
 218   0.0000      -0.018806        -0.5117

MULLIKEN ATOMIC CHARGES
-----------------------
   0 C :   -0.098098
   1 S :    0.152329
   2 C :   -0.082394
   3 C :   -0.031617
   4 C :    0.043356
   5 C :    0.153098
   6 O :   -0.120261
   7 C :   -0.031134
   8 C :   -0.039572
   9 C :    0.001473
  10 C :    0.065197
  11 C :   -0.098983
  12 S :    0.160564
  13 C :   -0.053426
  14 C :   -0.008140
  15 C :   -0.008242
  16 C :    0.158135
  17 O :   -0.113446
  18 C :   -0.028294
  19 C :   -0.036502
  20 C :   -0.005328
  21 C :    0.036776
  22 C :   -0.065664
  23 C :   -0.055552
  24 C :    0.062926
  25 C :   -0.055175
  26 C :    0.201424
  27 C :   -0.061932
  28 C :    0.046286
  29 C :    0.008386
  30 C :   -0.078200
  31 C :    0.161867
  32 C :   -0.046661
  33 C :   -0.006065
  34 C :    0.003224
  35 C :    0.046495
  36 C :   -0.093359
  37 S :    0.159081
  38 C :   -0.058597
  39 C :   -0.007142
  40 C :   -0.012887
  41 C :    0.154946
  42 O :   -0.118671
  43 C :   -0.033970
  44 C :   -0.036712
  45 C :    0.001198
  46 C :    0.059218
  47 C :   -0.096525
  48 S :    0.161572
  49 C :   -0.069887
  50 C :   -0.002007
  51 C :   -0.006175
  52 C :    0.152329
  53 O :   -0.111743
  54 C :   -0.051738
  55 C :   -0.020652
  56 C :    0.012471
  57 C :   -0.007258
  58 H :    0.028321
  59 H :   -0.002405
  60 H :   -0.012435
  61 H :   -0.004748
  62 H :   -0.025108
  63 H :    0.000849
  64 H :   -0.008399
  65 H :   -0.003854
  66 H :   -0.034064
  67 H :   -0.028431
  68 H :    0.015699
  69 H :   -0.008244
  70 H :    0.011408
  71 H :    0.018506
  72 H :   -0.014603
  73 H :    0.015544
  74 H :   -0.013933
  75 H :   -0.009802
  76 H :    0.013759
  77 H :    0.008760
  78 H :   -0.036745
  79 H :   -0.007506
  80 H :   -0.023560
  81 H :   -0.014878
  82 H :   -0.012723
  83 H :   -0.004151
  84 H :   -0.025935
  85 H :   -0.000773
  86 H :   -0.010826
  87 H :    0.002849
  88 H :    0.009460
  89 H :    0.027628
Sum of atomic charges:   -0.0000000

LOEWDIN ATOMIC CHARGES
----------------------
   0 C :   -0.191684
   1 S :    0.457183
   2 C :   -0.169953
   3 C :   -0.120517
   4 C :   -0.029669
   5 C :    0.099401
   6 O :   -0.110079
   7 C :   -0.054896
   8 C :   -0.016286
   9 C :   -0.025479
  10 C :   -0.028793
  11 C :   -0.172467
  12 S :    0.460046
  13 C :   -0.171567
  14 C :   -0.107721
  15 C :   -0.013467
  16 C :    0.099716
  17 O :   -0.105001
  18 C :   -0.054621
  19 C :   -0.007575
  20 C :   -0.032741
  21 C :   -0.000215
  22 C :   -0.027103
  23 C :   -0.010583
  24 C :   -0.024660
  25 C :   -0.004470
  26 C :   -0.021588
  27 C :   -0.012582
  28 C :   -0.022418
  29 C :   -0.020501
  30 C :   -0.030020
  31 C :   -0.027795
  32 C :    0.002434
  33 C :   -0.053389
  34 C :   -0.013495
  35 C :   -0.054640
  36 C :   -0.167315
  37 S :    0.456824
  38 C :   -0.178562
  39 C :   -0.107217
  40 C :   -0.027370
  41 C :    0.100466
  42 O :   -0.108718
  43 C :   -0.063802
  44 C :   -0.006274
  45 C :   -0.021687
  46 C :   -0.033957
  47 C :   -0.168590
  48 S :    0.460047
  49 C :   -0.179555
  50 C :   -0.102670
  51 C :   -0.016292
  52 C :    0.098547
  53 O :   -0.102501
  54 C :   -0.062103
  55 C :    0.006664
  56 C :   -0.024838
  57 C :   -0.029847
  58 H :    0.022229
  59 H :    0.038258
  60 H :    0.026787
  61 H :    0.032187
  62 H :    0.024682
  63 H :    0.039748
  64 H :    0.029478
  65 H :    0.031741
  66 H :    0.025211
  67 H :    0.015328
  68 H :    0.033150
  69 H :    0.024402
  70 H :    0.025906
  71 H :    0.034211
  72 H :    0.020747
  73 H :    0.034596
  74 H :    0.019629
  75 H :    0.021215
  76 H :    0.030555
  77 H :    0.024169
  78 H :    0.024288
  79 H :    0.023028
  80 H :    0.025483
  81 H :    0.033804
  82 H :    0.027777
  83 H :    0.032547
  84 H :    0.024305
  85 H :    0.039289
  86 H :    0.030384
  87 H :    0.035157
  88 H :    0.018679
  89 H :    0.026972

  Mayer bond orders larger than 0.100000
B(  0-C ,  1-S ) :   1.1468 B(  0-C ,  4-C ) :   1.5496 B(  0-C , 58-H ) :   0.9693
B(  1-S ,  2-C ) :   1.1495 B(  2-C ,  3-C ) :   1.4800 B(  2-C ,  8-C ) :   1.0536
B(  3-C ,  4-C ) :   1.2775 B(  3-C ,  5-C ) :   0.9463 B(  4-C , 59-H ) :   1.0054
B(  5-C ,  6-O ) :   2.2584 B(  5-C ,  7-C ) :   0.9076 B(  7-C ,  8-C ) :   1.6324
B(  7-C ,  9-C ) :   1.1585 B(  8-C , 60-H ) :   1.0137 B(  9-C , 10-C ) :   1.6341
B(  9-C , 61-H ) :   0.9694 B( 10-C , 11-C ) :   1.1442 B( 10-C , 62-H ) :   0.9593
B( 11-C , 12-S ) :   1.1019 B( 11-C , 15-C ) :   1.4354 B( 12-S , 13-C ) :   1.1403
B( 13-C , 14-C ) :   1.4443 B( 13-C , 19-C ) :   1.0620 B( 14-C , 15-C ) :   1.3218
B( 14-C , 16-C ) :   0.9175 B( 15-C , 63-H ) :   1.0020 B( 16-C , 17-O ) :   2.2742
B( 16-C , 18-C ) :   0.9135 B( 18-C , 19-C ) :   1.6273 B( 18-C , 20-C ) :   1.1207
B( 19-C , 64-H ) :   1.0149 B( 20-C , 21-C ) :   1.6202 B( 20-C , 65-H ) :   0.9755
B( 21-C , 22-C ) :   1.1231 B( 21-C , 66-H ) :   0.9805 B( 22-C , 23-C ) :   1.7585
B( 22-C , 26-C ) :   1.0203 B( 23-C , 24-C ) :   0.9724 B( 23-C , 67-H ) :   0.9924
B( 24-C , 25-C ) :   1.0580 B( 24-C , 32-C ) :   0.9880 B( 24-C , 68-H ) :   0.8844
B( 25-C , 26-C ) :   1.0541 B( 25-C , 27-C ) :   1.0259 B( 25-C , 69-H ) :   0.9010
B( 26-C , 70-H ) :   0.9137 B( 26-C , 71-H ) :   0.8828 B( 27-C , 28-C ) :   1.0373
B( 27-C , 31-C ) :   1.0832 B( 27-C , 72-H ) :   0.9022 B( 28-C , 29-C ) :   0.9872
B( 28-C , 32-C ) :   1.0115 B( 28-C , 73-H ) :   0.8864 B( 29-C , 30-C ) :   1.8752
B( 29-C , 74-H ) :   0.9922 B( 30-C , 31-C ) :   1.0226 B( 30-C , 75-H ) :   0.9877
B( 31-C , 76-H ) :   0.9141 B( 31-C , 77-H ) :   0.9290 B( 32-C , 33-C ) :   1.7720
B( 33-C , 34-C ) :   1.0954 B( 33-C , 78-H ) :   0.9738 B( 34-C , 35-C ) :   1.7109
B( 34-C , 79-H ) :   0.9697 B( 35-C , 36-C ) :   1.0979 B( 35-C , 80-H ) :   0.9681
B( 36-C , 37-S ) :   1.1110 B( 36-C , 40-C ) :   1.4599 B( 37-S , 38-C ) :   1.1275
B( 38-C , 39-C ) :   1.4527 B( 38-C , 44-C ) :   1.0690 B( 39-C , 40-C ) :   1.3115
B( 39-C , 41-C ) :   0.9236 B( 40-C , 81-H ) :   0.9996 B( 41-C , 42-O ) :   2.2642
B( 41-C , 43-C ) :   0.9147 B( 43-C , 44-C ) :   1.6050 B( 43-C , 45-C ) :   1.1636
B( 44-C , 82-H ) :   1.0131 B( 45-C , 46-C ) :   1.6281 B( 45-C , 83-H ) :   0.9683
B( 46-C , 47-C ) :   1.1438 B( 46-C , 84-H ) :   0.9607 B( 47-C , 48-S ) :   1.1091
B( 47-C , 51-C ) :   1.4351 B( 48-S , 49-C ) :   1.1356 B( 49-C , 50-C ) :   1.4546
B( 49-C , 55-C ) :   1.0571 B( 50-C , 51-C ) :   1.3227 B( 50-C , 52-C ) :   0.9112
B( 51-C , 85-H ) :   1.0016 B( 52-C , 53-O ) :   2.2779 B( 52-C , 54-C ) :   0.9275
B( 54-C , 55-C ) :   1.6591 B( 54-C , 56-C ) :   1.1172 B( 55-C , 86-H ) :   1.0143
B( 56-C , 57-C ) :   1.9068 B( 56-C , 87-H ) :   0.9587 B( 57-C , 88-H ) :   0.9529
B( 57-C , 89-H ) :   0.9508

-----------------------------------------------------------------------------
         ABSORPTION SPECTRUM VIA TRANSITION ELECTRIC DIPOLE MOMENTS
-----------------------------------------------------------------------------
State   Energy  Wavelength   fosc         T2         TX        TY        TZ
        (cm-1)    (nm)                  (au**2)     (au)      (au)      (au)
-----------------------------------------------------------------------------
   0   13226.4    756.1   0.611378609  15.21749   1.75814   3.47386  -0.24233
   1   14500.0    689.7   0.812650314  18.45057   4.18162  -0.93514  -0.30021
   2   16881.8    592.4   0.027503277   0.53634  -0.57626  -0.41736   0.17343
   3   17375.9    575.5   0.084317410   1.59752   1.18070  -0.44687  -0.06150
   4   20461.0    488.7   0.001987341   0.03198   0.05793  -0.15014  -0.07797
   5   21111.7    473.7   0.003426739   0.05344  -0.20850  -0.04189   0.09060
   6   22743.6    439.7   0.077890484   1.12746  -0.85073  -0.47246   0.42486
   7   24264.0    412.1   0.051190359   0.69455   0.71549  -0.42018  -0.07793
   8   26580.8    376.2   0.000225432   0.00279  -0.01873  -0.04874   0.00810
   9   26650.3    375.2   0.002268760   0.02803   0.10501   0.13038  -0.00067
  10   26687.1    374.7   0.013729142   0.16936   0.27327   0.30672  -0.02469
  11   26722.4    374.2   0.279436836   3.44258  -1.15143  -1.44840   0.13759
  12   26741.4    374.0   0.166944933   2.05525   0.88638   1.12318  -0.08963
  13   26863.6    372.3   0.001456652   0.01785  -0.01606  -0.12148   0.05326
  14   27114.6    368.8   0.199976195   2.42801   0.87219   1.28938  -0.06932
  15   28176.1    354.9   0.166632314   1.94695   1.35011  -0.34512  -0.07107
  16   28630.9    349.3   0.634939829   7.30086   1.24102   2.39950   0.05606
  17   29687.8    336.8   0.039805153   0.44140   0.65240  -0.05903  -0.11088
  18   30446.3    328.4   0.015680748   0.16955  -0.22937   0.32448   0.10795
  19   30537.5    327.5   0.709360906   7.64732   2.67963  -0.62955  -0.26568
  20   30851.6    324.1   0.022614465   0.24132  -0.35949   0.17806  -0.28350
  21   32636.3    306.4   0.003873467   0.03907  -0.19229  -0.03254   0.03221
  22   32969.6    303.3   0.029780368   0.29737  -0.25725   0.37023   0.30679
  23   33564.1    297.9   0.049201342   0.48259   0.55756  -0.41385  -0.02109
  24   34812.2    287.3   0.195763370   1.85129   0.89775   0.83710  -0.58702
  25   35469.0    281.9   0.131511535   1.22065  -1.09434   0.06478   0.13738
  26   35988.1    277.9   0.441304117   4.03696   2.00283  -0.02685  -0.15778
  27   36474.8    274.2   0.049206757   0.44413  -0.45226  -0.33891   0.35317
  28   36735.8    272.2   0.017657009   0.15824  -0.12649  -0.37693   0.01264
  29   36905.3    271.0   0.007427872   0.06626  -0.21185  -0.10216   0.10461
  30   37113.8    269.4   0.038804345   0.34421   0.30807  -0.47065   0.16669
  31   37133.5    269.3   0.012836387   0.11380   0.07284  -0.32933   0.00606
  32   37381.6    267.5   0.226999801   1.99914   0.86788   0.21423  -1.09546
  33   37814.3    264.5   0.001695775   0.01476   0.04230  -0.09551   0.06207
  34   38600.2    259.1   0.004614053   0.03935   0.03127  -0.19361  -0.02985
  35   38629.1    258.9   0.003015069   0.02570   0.10223   0.12347  -0.00019
  36   38920.6    256.9   0.067718944   0.57280  -0.36455  -0.59813  -0.28661
  37   39266.9    254.7   0.024484709   0.20528  -0.14174  -0.36362  -0.23014
  38   40157.4    249.0   0.011006157   0.09023   0.13684   0.24515   0.10679
  39   40283.2    248.2   0.027064868   0.22119   0.01642  -0.34823  -0.31567

FINAL SINGLE POINT ENERGY     -3814.702797555981

DIPOLE MOMENT
-------------
                                X             Y             Z
Electronic contribution:     49.63525      13.46404      -1.25080
Nuclear contribution   :    -49.78306     -12.02692       2.86855
                        -----------------------------------------
Total Dipole Moment    :     -0.14781       1.43712       1.61775
                        -----------------------------------------
Magnitude (a.u.)       :      2.16894
Magnitude (Debye)      :      5.51300

Rotational constants in cm-1:     0.000706     0.000429     0.000274
Rotational constants in MHz :    21.170547    12.855059     8.218741

                             ****ORCA TERMINATED NORMALLY****
TOTAL RUN TIME: 0 days 0 hours 6 minutes 5 seconds 473 msec
