                         Program Version 4.2.0 -  RELEASE  -
|  1> # ORCA input file
|  2> # SCF done       -144.776544913898          0.000473738969
|  3> ! CAM-B3LYP def2-SVP def2/J RIJCOSX Grid4 TightSCF
|  4> %maxcore 5000
|  5> %tddft
|  6>     Mode sTDDFT
|  7>     Ethresh 5.0
|  8>     maxcore 5000
|  9> end
| 10>
| 11> %pal
| 12>   nprocs 6
| 13>   end
| 14> * xyz 0 1
| 15>    C      -10.75830        -7.01939         3.04897
| 16>    S      -11.84483        -6.30829         1.89997
| 17>    C      -10.68053        -5.11140         1.52257
| 18>    C       -9.51275        -5.27181         2.26112
| 19>    C       -9.56386        -6.36791         3.13797
| 20>    C       -8.59015        -4.19574         1.87869
| 21>    O       -7.48653        -3.96098         2.31485
| 22>    C       -9.34797        -3.41067         0.82044
| 23>    C      -10.58448        -3.98762         0.65216
| 24>    C       -8.86287        -2.27652         0.13753
| 25>    C       -7.59735        -1.78666         0.24835
| 26>    C       -7.06147        -0.66192        -0.43919
| 27>    C       -7.74435         0.43329        -0.93940
| 28>    O       -7.15225         1.31701        -1.82979
| 29>    C       -5.82083         1.14671        -2.04779
| 30>    C       -5.08526         0.10978        -1.40437
| 31>    C       -3.76580         0.12766        -1.71661
| 32>    S       -3.40120         1.41307        -2.80685
| 33>    C       -5.04622         1.93016        -2.83796
| 34>    O       -5.69278        -0.79940        -0.59765
| 35>    C       -9.05623         0.86710        -0.61351
| 36>    C       -9.75630         0.56721         0.51926
| 37>    C      -11.03621         1.06210         0.81255
| 38>    S      -11.84673         2.04411        -0.37617
| 39>    C      -13.25313         2.26132         0.60509
| 40>    C      -13.09671         1.59549         1.83845
| 41>    C      -11.85343         0.89299         1.95520
| 42>    C      -11.59662         0.13627         3.12857
| 43>    C      -10.33806        -0.64348         3.35305
| 44>    C      -12.56299         0.11074         4.10698
| 45>    C      -13.78074         0.79044         3.98370
| 46>    C      -14.05518         1.52462         2.86550
| 47>    C      -14.32807         3.09914         0.19223
| 48>    C      -14.69599         3.34532        -1.11812
| 49>    O      -15.66148         4.27837        -1.45162
| 50>    C      -16.29959         4.87497        -0.41009
| 51>    C      -15.97570         4.56674         0.94125
| 52>    C      -16.73343         5.24857         1.83553
| 53>    S      -17.85586         6.28526         1.03662
| 54>    C      -17.29706         5.78748        -0.51693
| 55>    O      -14.98928         3.68481         1.26018
| 56>    C      -14.19872         2.62540        -2.23440
| 57>    C      -14.50807         2.92408        -3.52577
| 58>    C      -14.06293         2.17296        -4.63610
| 59>    S      -14.58690         2.62775        -6.25122
| 60>    C      -13.70344         1.33331        -6.93431
| 61>    C      -13.03412         0.59246        -5.96130
| 62>    C      -13.23030         1.05642        -4.67049
| 63>    C      -12.31258        -0.49569        -6.66297
| 64>    O      -11.61063        -1.35820        -6.19440
| 65>    C      -12.64904        -0.29327        -8.11876
| 66>    C      -13.46701         0.79390        -8.23594
| 67>    C      -12.12679        -1.18139        -9.11571
| 68>    C      -12.35991        -1.10680       -10.42700
| 69>    H      -11.08110        -7.88727         3.58872
| 70>    H       -8.76680        -6.66400         3.79505
| 71>    H      -11.34983        -3.65951        -0.02706
| 72>    H       -9.56619        -1.78845        -0.52659
| 73>    H       -6.86568        -2.35353         0.80792
| 74>    H       -2.99759        -0.53313        -1.37431
| 75>    H       -5.34325         2.77066        -3.42902
| 76>    H       -9.45218         1.60635        -1.29894
| 77>    H       -9.29183        -0.07884         1.24085
| 78>    H       -9.46472         0.00678         3.33605
| 79>    H      -10.21561        -1.41823         2.59600
| 80>    H      -10.37439        -1.13005         4.32520
| 81>    H      -12.38125        -0.46076         5.00555
| 82>    H      -14.50520         0.72451         4.78118
| 83>    H      -14.99277         2.04257         2.76204
| 84>    H      -16.69341         5.20600         2.90365
| 85>    H      -17.72943         6.19224        -1.40759
| 86>    H      -13.58035         1.76986        -2.02631
| 87>    H      -15.13002         3.78306        -3.73271
| 88>    H      -12.79197         0.61847        -3.79330
| 89>    H      -13.87896         1.19465        -9.14384
| 90>    H      -11.49408        -1.96560        -8.71918
| 91>    H      -12.98494        -0.34087       -10.85346
| 92>    H      -11.93086        -1.81440       -11.11429
| 93> *
| 94>
| 95>                          ****END OF INPUT****

CARTESIAN COORDINATES (ANGSTROEM)
---------------------------------
  C    -10.758300   -7.019390    3.048970
  S    -11.844830   -6.308290    1.899970
  C    -10.680530   -5.111400    1.522570
  C     -9.512750   -5.271810    2.261120
  C     -9.563860   -6.367910    3.137970
  C     -8.590150   -4.195740    1.878690
  O     -7.486530   -3.960980    2.314850
  C     -9.347970   -3.410670    0.820440
  C    -10.584480   -3.987620    0.652160
  C     -8.862870   -2.276520    0.137530
  C     -7.597350   -1.786660    0.248350
  C     -7.061470   -0.661920   -0.439190
  C     -7.744350    0.433290   -0.939400
  O     -7.152250    1.317010   -1.829790
  C     -5.820830    1.146710   -2.047790
  C     -5.085260    0.109780   -1.404370
  C     -3.765800    0.127660   -1.716610
  S     -3.401200    1.413070   -2.806850
  C     -5.046220    1.930160   -2.837960
  O     -5.692780   -0.799400   -0.597650
  C     -9.056230    0.867100   -0.613510
  C     -9.756300    0.567210    0.519260
  C    -11.036210    1.062100    0.812550
  S    -11.846730    2.044110   -0.376170
  C    -13.253130    2.261320    0.605090
  C    -13.096710    1.595490    1.838450
  C    -11.853430    0.892990    1.955200
  C    -11.596620    0.136270    3.128570
  C    -10.338060   -0.643480    3.353050
  C    -12.562990    0.110740    4.106980
  C    -13.780740    0.790440    3.983700
  C    -14.055180    1.524620    2.865500
  C    -14.328070    3.099140    0.192230
  C    -14.695990    3.345320   -1.118120
  O    -15.661480    4.278370   -1.451620
  C    -16.299590    4.874970   -0.410090
  C    -15.975700    4.566740    0.941250
  C    -16.733430    5.248570    1.835530
  S    -17.855860    6.285260    1.036620
  C    -17.297060    5.787480   -0.516930
  O    -14.989280    3.684810    1.260180
  C    -14.198720    2.625400   -2.234400
  C    -14.508070    2.924080   -3.525770
  C    -14.062930    2.172960   -4.636100
  S    -14.586900    2.627750   -6.251220
  C    -13.703440    1.333310   -6.934310
  C    -13.034120    0.592460   -5.961300
  C    -13.230300    1.056420   -4.670490
  C    -12.312580   -0.495690   -6.662970
  O    -11.610630   -1.358200   -6.194400
  C    -12.649040   -0.293270   -8.118760
  C    -13.467010    0.793900   -8.235940
  C    -12.126790   -1.181390   -9.115710
  C    -12.359910   -1.106800  -10.427000
  H    -11.081100   -7.887270    3.588720
  H     -8.766800   -6.664000    3.795050
  H    -11.349830   -3.659510   -0.027060
  H     -9.566190   -1.788450   -0.526590
  H     -6.865680   -2.353530    0.807920
  H     -2.997590   -0.533130   -1.374310
  H     -5.343250    2.770660   -3.429020
  H     -9.452180    1.606350   -1.298940
  H     -9.291830   -0.078840    1.240850
  H     -9.464720    0.006780    3.336050
  H    -10.215610   -1.418230    2.596000
  H    -10.374390   -1.130050    4.325200
  H    -12.381250   -0.460760    5.005550
  H    -14.505200    0.724510    4.781180
  H    -14.992770    2.042570    2.762040
  H    -16.693410    5.206000    2.903650
  H    -17.729430    6.192240   -1.407590
  H    -13.580350    1.769860   -2.026310
  H    -15.130020    3.783060   -3.732710
  H    -12.791970    0.618470   -3.793300
  H    -13.878960    1.194650   -9.143840
  H    -11.494080   -1.965600   -8.719180
  H    -12.984940   -0.340870  -10.853460
  H    -11.930860   -1.814400  -11.114290

 Total Charge           Charge          ....    0
 Multiplicity           Mult            ....    1
 Number of Electrons    NEL             ....  410
 Basis Dimension        Dim             ....  896

ORBITAL ENERGIES
----------------

  NO   OCC          E(Eh)            E(eV)
   0   2.0000     -88.970387     -2421.0073
   1   2.0000     -88.966947     -2420.9137
   2   2.0000     -88.964639     -2420.8509
   3   2.0000     -88.956653     -2420.6336
   4   2.0000     -88.945885     -2420.3406
   5   2.0000     -19.274157      -524.4765
   6   2.0000     -19.272613      -524.4345
   7   2.0000     -19.261106      -524.1213
   8   2.0000     -19.258916      -524.0617
   9   2.0000     -19.221369      -523.0400
  10   2.0000     -19.218304      -522.9566
  11   2.0000     -10.362426      -281.9759
  12   2.0000     -10.362179      -281.9692
  13   2.0000     -10.351229      -281.6713
  14   2.0000     -10.345022      -281.5024
  15   2.0000     -10.339370      -281.3486
  16   2.0000     -10.339112      -281.3415
  17   2.0000     -10.336582      -281.2727
  18   2.0000     -10.332445      -281.1601
  19   2.0000     -10.328441      -281.0512
  20   2.0000     -10.327940      -281.0375
  21   2.0000     -10.308640      -280.5124
  22   2.0000     -10.305605      -280.4298
  23   2.0000     -10.304885      -280.4102
  24   2.0000     -10.303392      -280.3696
  25   2.0000     -10.302871      -280.3554
  26   2.0000     -10.297449      -280.2078
  27   2.0000     -10.293509      -280.1006
  28   2.0000     -10.293084      -280.0891
  29   2.0000     -10.292716      -280.0790
  30   2.0000     -10.289721      -279.9976
  31   2.0000     -10.283558      -279.8298
  32   2.0000     -10.283322      -279.8234
  33   2.0000     -10.282681      -279.8060
  34   2.0000     -10.282223      -279.7935
  35   2.0000     -10.281457      -279.7727
  36   2.0000     -10.281247      -279.7670
  37   2.0000     -10.281123      -279.7636
  38   2.0000     -10.280378      -279.7433
  39   2.0000     -10.279487      -279.7191
  40   2.0000     -10.278817      -279.7008
  41   2.0000     -10.278605      -279.6951
  42   2.0000     -10.276994      -279.6512
  43   2.0000     -10.275550      -279.6119
  44   2.0000     -10.273947      -279.5683
  45   2.0000     -10.272371      -279.5254
  46   2.0000     -10.270499      -279.4745
  47   2.0000     -10.270363      -279.4708
  48   2.0000     -10.264251      -279.3045
  49   2.0000     -10.264044      -279.2988
  50   2.0000     -10.263746      -279.2907
  51   2.0000     -10.262430      -279.2549
  52   2.0000     -10.262329      -279.2522
  53   2.0000     -10.259664      -279.1796
  54   2.0000      -8.065311      -219.4683
  55   2.0000      -8.062224      -219.3843
  56   2.0000      -8.059238      -219.3030
  57   2.0000      -8.052296      -219.1141
  58   2.0000      -8.041755      -218.8273
  59   2.0000      -6.034345      -164.2029
  60   2.0000      -6.031391      -164.1225
  61   2.0000      -6.030394      -164.0954
  62   2.0000      -6.028329      -164.0392
  63   2.0000      -6.027921      -164.0281
  64   2.0000      -6.027104      -164.0058
  65   2.0000      -6.024855      -163.9446
  66   2.0000      -6.024154      -163.9256
  67   2.0000      -6.021913      -163.8646
  68   2.0000      -6.021845      -163.8627
  69   2.0000      -6.017625      -163.7479
  70   2.0000      -6.014008      -163.6495
  71   2.0000      -6.011284      -163.5754
  72   2.0000      -6.007113      -163.4619
  73   2.0000      -6.003381      -163.3603
  74   2.0000      -1.199828       -32.6490
  75   2.0000      -1.187103       -32.3027
  76   2.0000      -1.162953       -31.6456
  77   2.0000      -1.149815       -31.2880
  78   2.0000      -1.131064       -30.7778
  79   2.0000      -1.128210       -30.7001
  80   2.0000      -1.000964       -27.2376
  81   2.0000      -0.996587       -27.1185
  82   2.0000      -0.995947       -27.1011
  83   2.0000      -0.982942       -26.7472
  84   2.0000      -0.974590       -26.5199
  85   2.0000      -0.939692       -25.5703
  86   2.0000      -0.932520       -25.3752
  87   2.0000      -0.930722       -25.3262
  88   2.0000      -0.919633       -25.0245
  89   2.0000      -0.905945       -24.6520
  90   2.0000      -0.890183       -24.2231
  91   2.0000      -0.871260       -23.7082
  92   2.0000      -0.865856       -23.5611
  93   2.0000      -0.854591       -23.2546
  94   2.0000      -0.843167       -22.9437
  95   2.0000      -0.841420       -22.8962
  96   2.0000      -0.836729       -22.7685
  97   2.0000      -0.830778       -22.6066
  98   2.0000      -0.826876       -22.5004
  99   2.0000      -0.826612       -22.4932
 100   2.0000      -0.808515       -22.0008
 101   2.0000      -0.799978       -21.7685
 102   2.0000      -0.793334       -21.5877
 103   2.0000      -0.778864       -21.1940
 104   2.0000      -0.772922       -21.0323
 105   2.0000      -0.757829       -20.6216
 106   2.0000      -0.748417       -20.3655
 107   2.0000      -0.747162       -20.3313
 108   2.0000      -0.736916       -20.0525
 109   2.0000      -0.726201       -19.7609
 110   2.0000      -0.712900       -19.3990
 111   2.0000      -0.702480       -19.1154
 112   2.0000      -0.692321       -18.8390
 113   2.0000      -0.682883       -18.5822
 114   2.0000      -0.680817       -18.5260
 115   2.0000      -0.672783       -18.3074
 116   2.0000      -0.665809       -18.1176
 117   2.0000      -0.658530       -17.9195
 118   2.0000      -0.657566       -17.8933
 119   2.0000      -0.652302       -17.7500
 120   2.0000      -0.634972       -17.2785
 121   2.0000      -0.633967       -17.2511
 122   2.0000      -0.627617       -17.0783
 123   2.0000      -0.620908       -16.8958
 124   2.0000      -0.617429       -16.8011
 125   2.0000      -0.604051       -16.4371
 126   2.0000      -0.597776       -16.2663
 127   2.0000      -0.594290       -16.1714
 128   2.0000      -0.582646       -15.8546
 129   2.0000      -0.579286       -15.7632
 130   2.0000      -0.571537       -15.5523
 131   2.0000      -0.567083       -15.4311
 132   2.0000      -0.564639       -15.3646
 133   2.0000      -0.562898       -15.3172
 134   2.0000      -0.558826       -15.2064
 135   2.0000      -0.554832       -15.0978
 136   2.0000      -0.551938       -15.0190
 137   2.0000      -0.549527       -14.9534
 138   2.0000      -0.543516       -14.7898
 139   2.0000      -0.539293       -14.6749
 140   2.0000      -0.530619       -14.4389
 141   2.0000      -0.528774       -14.3887
 142   2.0000      -0.526466       -14.3259
 143   2.0000      -0.519252       -14.1296
 144   2.0000      -0.518572       -14.1111
 145   2.0000      -0.516512       -14.0550
 146   2.0000      -0.513383       -13.9699
 147   2.0000      -0.510272       -13.8852
 148   2.0000      -0.508963       -13.8496
 149   2.0000      -0.503530       -13.7017
 150   2.0000      -0.501700       -13.6519
 151   2.0000      -0.500205       -13.6113
 152   2.0000      -0.495527       -13.4840
 153   2.0000      -0.491869       -13.3844
 154   2.0000      -0.489543       -13.3211
 155   2.0000      -0.487845       -13.2749
 156   2.0000      -0.485511       -13.2114
 157   2.0000      -0.481419       -13.1001
 158   2.0000      -0.479790       -13.0557
 159   2.0000      -0.478048       -13.0083
 160   2.0000      -0.476287       -12.9604
 161   2.0000      -0.470656       -12.8072
 162   2.0000      -0.468367       -12.7449
 163   2.0000      -0.466661       -12.6985
 164   2.0000      -0.464582       -12.6419
 165   2.0000      -0.463514       -12.6129
 166   2.0000      -0.460726       -12.5370
 167   2.0000      -0.457547       -12.4505
 168   2.0000      -0.455609       -12.3978
 169   2.0000      -0.454964       -12.3802
 170   2.0000      -0.451055       -12.2738
 171   2.0000      -0.448374       -12.2009
 172   2.0000      -0.448168       -12.1953
 173   2.0000      -0.434598       -11.8260
 174   2.0000      -0.431216       -11.7340
 175   2.0000      -0.429254       -11.6806
 176   2.0000      -0.428287       -11.6543
 177   2.0000      -0.425761       -11.5855
 178   2.0000      -0.421633       -11.4732
 179   2.0000      -0.418163       -11.3788
 180   2.0000      -0.416395       -11.3307
 181   2.0000      -0.414932       -11.2909
 182   2.0000      -0.408607       -11.1187
 183   2.0000      -0.406210       -11.0535
 184   2.0000      -0.402172       -10.9437
 185   2.0000      -0.400594       -10.9007
 186   2.0000      -0.390557       -10.6276
 187   2.0000      -0.385261       -10.4835
 188   2.0000      -0.364529        -9.9193
 189   2.0000      -0.352886        -9.6025
 190   2.0000      -0.340271        -9.2592
 191   2.0000      -0.332916        -9.0591
 192   2.0000      -0.332784        -9.0555
 193   2.0000      -0.327933        -8.9235
 194   2.0000      -0.327408        -8.9092
 195   2.0000      -0.314846        -8.5674
 196   2.0000      -0.312530        -8.5044
 197   2.0000      -0.307059        -8.3555
 198   2.0000      -0.302845        -8.2408
 199   2.0000      -0.294697        -8.0191
 200   2.0000      -0.274646        -7.4735
 201   2.0000      -0.266977        -7.2648
 202   2.0000      -0.259323        -7.0565
 203   2.0000      -0.233455        -6.3526
 204   2.0000      -0.204408        -5.5622
 205   0.0000      -0.085351        -2.3225
 206   0.0000      -0.072319        -1.9679
 207   0.0000      -0.055710        -1.5159
 208   0.0000      -0.020285        -0.5520
 209   0.0000      -0.000123        -0.0033

MULLIKEN ATOMIC CHARGES
-----------------------
   0 C :   -0.098056
   1 S :    0.156861
   2 C :   -0.064809
   3 C :   -0.039942
   4 C :    0.050019
   5 C :    0.165144
   6 O :   -0.125688
   7 C :   -0.017316
   8 C :   -0.044764
   9 C :   -0.044242
  10 C :   -0.012686
  11 C :    0.136834
  12 C :    0.149866
  13 O :   -0.254202
  14 C :    0.215324
  15 C :    0.215856
  16 C :   -0.172984
  17 S :    0.099824
  18 C :   -0.174389
  19 O :   -0.248456
  20 C :   -0.044643
  21 C :   -0.002854
  22 C :   -0.140789
  23 S :    0.137064
  24 C :   -0.185024
  25 C :    0.124380
  26 C :    0.127689
  27 C :   -0.114246
  28 C :    0.115851
  29 C :   -0.039163
  30 C :    0.036853
  31 C :   -0.032775
  32 C :    0.177779
  33 C :    0.161816
  34 O :   -0.258366
  35 C :    0.221071
  36 C :    0.226641
  37 C :   -0.175160
  38 S :    0.107435
  39 C :   -0.174785
  40 O :   -0.264653
  41 C :   -0.094451
  42 C :    0.060121
  43 C :   -0.095338
  44 S :    0.166675
  45 C :   -0.070492
  46 C :   -0.000432
  47 C :   -0.012172
  48 C :    0.154833
  49 O :   -0.115500
  50 C :   -0.052877
  51 C :   -0.019736
  52 C :    0.012582
  53 C :   -0.008124
  54 H :    0.028613
  55 H :   -0.003951
  56 H :   -0.008439
  57 H :    0.001996
  58 H :    0.025903
  59 H :    0.023391
  60 H :    0.021828
  61 H :    0.005026
  62 H :   -0.002567
  63 H :    0.038743
  64 H :    0.039509
  65 H :    0.001794
  66 H :   -0.030950
  67 H :   -0.019680
  68 H :   -0.017597
  69 H :    0.025331
  70 H :    0.023041
  71 H :    0.015144
  72 H :   -0.005417
  73 H :   -0.009614
  74 H :   -0.011718
  75 H :    0.002134
  76 H :    0.009128
  77 H :    0.026949
Sum of atomic charges:    0.0000000

LOEWDIN ATOMIC CHARGES
----------------------
   0 C :   -0.189882
   1 S :    0.459544
   2 C :   -0.171180
   3 C :   -0.117522
   4 C :   -0.029441
   5 C :    0.101542
   6 O :   -0.110136
   7 C :   -0.057619
   8 C :   -0.016418
   9 C :   -0.019066
  10 C :   -0.022145
  11 C :    0.014564
  12 C :    0.025355
  13 O :   -0.059078
  14 C :   -0.008493
  15 C :   -0.008232
  16 C :   -0.212274
  17 S :    0.427692
  18 C :   -0.212934
  19 O :   -0.055609
  20 C :   -0.054483
  21 C :   -0.029548
  22 C :   -0.173309
  23 S :    0.497271
  24 C :   -0.187136
  25 C :   -0.032970
  26 C :   -0.040221
  27 C :   -0.014865
  28 C :   -0.046677
  29 C :   -0.031106
  30 C :   -0.027204
  31 C :   -0.018156
  32 C :    0.006557
  33 C :    0.021691
  34 O :   -0.054285
  35 C :   -0.008037
  36 C :   -0.008805
  37 C :   -0.211344
  38 S :    0.435389
  39 C :   -0.211686
  40 O :   -0.049412
  41 C :   -0.053708
  42 C :   -0.036794
  43 C :   -0.169407
  44 S :    0.463214
  45 C :   -0.180924
  46 C :   -0.102940
  47 C :   -0.021158
  48 C :    0.098872
  49 O :   -0.105416
  50 C :   -0.064148
  51 C :    0.008649
  52 C :   -0.024696
  53 C :   -0.031270
  54 H :    0.022470
  55 H :    0.038185
  56 H :    0.031098
  57 H :    0.034326
  58 H :    0.039663
  59 H :    0.028490
  60 H :    0.027720
  61 H :    0.025618
  62 H :    0.036823
  63 H :    0.036162
  64 H :    0.035633
  65 H :    0.032220
  66 H :    0.025334
  67 H :    0.028076
  68 H :    0.026725
  69 H :    0.029362
  70 H :    0.028477
  71 H :    0.017146
  72 H :    0.030010
  73 H :    0.035527
  74 H :    0.030173
  75 H :    0.034934
  76 H :    0.018504
  77 H :    0.026723

  Mayer bond orders larger than 0.100000
B(  0-C ,  1-S ) :   1.1487 B(  0-C ,  4-C ) :   1.5481 B(  0-C , 54-H ) :   0.9687
B(  1-S ,  2-C ) :   1.1464 B(  2-C ,  3-C ) :   1.4771 B(  2-C ,  8-C ) :   1.0482
B(  3-C ,  4-C ) :   1.2799 B(  3-C ,  5-C ) :   0.9595 B(  4-C , 55-H ) :   1.0045
B(  5-C ,  6-O ) :   2.2222 B(  5-C ,  7-C ) :   0.9063 B(  7-C ,  8-C ) :   1.5818
B(  7-C ,  9-C ) :   1.1908 B(  8-C , 56-H ) :   1.0258 B(  9-C , 10-C ) :   1.6310
B(  9-C , 57-H ) :   0.9663 B( 10-C , 11-C ) :   1.1174 B( 10-C , 58-H ) :   0.9469
B( 11-C , 12-C ) :   1.4728 B( 11-C , 19-O ) :   1.0462 B( 12-C , 13-O ) :   1.0475
B( 12-C , 20-C ) :   1.1644 B( 13-O , 14-C ) :   1.0605 B( 14-C , 15-C ) :   1.1990
B( 14-C , 18-C ) :   1.5740 B( 15-C , 16-C ) :   1.5746 B( 15-C , 19-O ) :   1.0662
B( 16-C , 17-S ) :   1.1364 B( 16-C , 59-H ) :   0.9713 B( 17-S , 18-C ) :   1.1374
B( 18-C , 60-H ) :   0.9721 B( 20-C , 21-C ) :   1.6052 B( 20-C , 61-H ) :   0.9443
B( 21-C , 22-C ) :   1.2320 B( 21-C , 62-H ) :   0.9455 B( 22-C , 23-S ) :   1.1237
B( 22-C , 24-C ) :   0.1138 B( 22-C , 26-C ) :   1.3000 B( 23-S , 24-C ) :   1.1572
B( 24-C , 25-C ) :   1.3250 B( 24-C , 32-C ) :   1.1336 B( 25-C , 26-C ) :   1.1992
B( 25-C , 31-C ) :   1.2272 B( 26-C , 27-C ) :   1.2137 B( 27-C , 28-C ) :   1.0976
B( 27-C , 29-C ) :   1.5539 B( 28-C , 63-H ) :   0.9333 B( 28-C , 64-H ) :   0.9365
B( 28-C , 65-H ) :   0.9364 B( 29-C , 30-C ) :   1.2106 B( 29-C , 66-H ) :   0.9846
B( 30-C , 31-C ) :   1.5193 B( 30-C , 67-H ) :   0.9854 B( 31-C , 68-H ) :   0.9897
B( 32-C , 33-C ) :   1.4476 B( 32-C , 40-O ) :   1.0541 B( 33-C , 34-O ) :   1.0549
B( 33-C , 41-C ) :   1.1899 B( 34-O , 35-C ) :   1.0573 B( 35-C , 36-C ) :   1.2071
B( 35-C , 39-C ) :   1.5676 B( 36-C , 37-C ) :   1.5666 B( 36-C , 40-O ) :   1.0398
B( 37-C , 38-S ) :   1.1403 B( 37-C , 69-H ) :   0.9729 B( 38-S , 39-C ) :   1.1414
B( 39-C , 70-H ) :   0.9737 B( 41-C , 42-C ) :   1.6660 B( 41-C , 71-H ) :   0.9369
B( 42-C , 43-C ) :   1.1189 B( 42-C , 72-H ) :   0.9700 B( 43-C , 44-S ) :   1.1122
B( 43-C , 47-C ) :   1.4382 B( 44-S , 45-C ) :   1.1344 B( 45-C , 46-C ) :   1.4556
B( 45-C , 51-C ) :   1.0585 B( 46-C , 47-C ) :   1.3241 B( 46-C , 48-C ) :   0.9119
B( 47-C , 73-H ) :   0.9989 B( 48-C , 49-O ) :   2.2733 B( 48-C , 50-C ) :   0.9288
B( 50-C , 51-C ) :   1.6576 B( 50-C , 52-C ) :   1.1170 B( 51-C , 74-H ) :   1.0150
B( 52-C , 53-C ) :   1.9069 B( 52-C , 75-H ) :   0.9589 B( 53-C , 76-H ) :   0.9529
B( 53-C , 77-H ) :   0.9506

-----------------------------------------------------------------------------
         ABSORPTION SPECTRUM VIA TRANSITION ELECTRIC DIPOLE MOMENTS
-----------------------------------------------------------------------------
State   Energy  Wavelength   fosc         T2         TX        TY        TZ
        (cm-1)    (nm)                  (au**2)     (au)      (au)      (au)
-----------------------------------------------------------------------------
   0   10409.5    960.7   0.371626028  11.75307   1.60687  -2.43155   1.80516
   1   14094.8    709.5   0.194851305   4.55115  -0.52774  -1.18528  -1.69344
   2   16426.6    608.8   0.181782146   3.64316   1.58440  -0.77753  -0.72684
   3   17007.1    588.0   0.148144882   2.86770   1.07557   0.80786   1.02870
   4   19968.2    500.8   0.072241783   1.19104   0.77472  -0.14678  -0.75452
   5   21941.7    455.8   0.157549348   2.36386   0.67051   0.09855  -1.38006
   6   22761.1    439.3   0.046063167   0.66625   0.58917  -0.04505   0.56311
   7   23407.1    427.2   0.112202878   1.57809  -0.30925   0.55111   1.08569
   8   24480.4    408.5   0.335458324   4.51125   0.63370  -0.99304  -1.76736
   9   25783.7    387.8   0.010704259   0.13667   0.28524   0.22277   0.07540
  10   26047.1    383.9   0.006586362   0.08325   0.03619   0.08016  -0.27479
  11   26641.0    375.4   0.000186515   0.00230  -0.02547  -0.03268   0.02426
  12   26757.2    373.7   0.065921586   0.81108  -0.47284   0.04179   0.76535
  13   27620.2    362.1   0.057424155   0.68445   0.47257   0.12195  -0.66803
  14   28433.4    351.7   0.300380149   3.47790   1.39768   0.28320  -1.20175
  15   29499.2    339.0   0.194981352   2.17600   0.60747  -0.75779  -1.11029
  16   30938.3    323.2   0.080541554   0.85704   0.71880   0.20955  -0.54447
  17   31152.6    321.0   0.102545635   1.08368  -0.33158   0.51476   0.84188
  18   31465.2    317.8   0.019213853   0.20103   0.19329   0.29500  -0.27685
  19   31731.9    315.1   0.021190869   0.21985  -0.35322  -0.27816   0.13310
  20   32174.5    310.8   0.024461727   0.25029  -0.37497  -0.26724   0.19563
  21   32908.2    303.9   0.028067746   0.28079   0.07475  -0.12028   0.51062
  22   33297.6    300.3   0.213941748   2.11523   0.43545  -0.32236  -1.34970
  23   34074.8    293.5   0.039230576   0.37902   0.12879  -0.10870   0.59213
  24   34347.9    291.1   0.128936850   1.23581   0.46829   0.77012  -0.65072
  25   34931.8    286.3   0.051267668   0.48317   0.37569  -0.57338   0.11516
  26   35514.7    281.6   0.013518923   0.12532  -0.29754  -0.18778   0.03904
  27   35810.5    279.2   0.109944845   1.01074   0.66930   0.74924  -0.03767
  28   36130.3    276.8   0.065716628   0.59880  -0.56592  -0.49243  -0.18984
  29   36163.9    276.5   0.022797132   0.20753   0.35306   0.27993  -0.06722
  30   36428.1    274.5   0.070772788   0.63959   0.49011  -0.14393  -0.61536
  31   36624.8    273.0   0.010386471   0.09336   0.12208   0.02495   0.27899
  32   37268.3    268.3   0.049998687   0.44167   0.52518   0.28671  -0.28923
  33   37762.1    264.8   0.064211607   0.55980  -0.52023  -0.32209   0.43060
  34   38146.2    262.1   0.127486446   1.10024   0.36131  -0.98470  -0.00824
  35   38209.3    261.7   0.151463909   1.30502  -0.99086   0.31411   0.47386
  36   38492.7    259.8   0.022153876   0.18947  -0.12626   0.41403  -0.04593
  37   38886.5    257.2   0.012761665   0.10804  -0.29499   0.14475   0.00826
  38   39008.2    256.4   0.049935221   0.42143  -0.13906   0.46182  -0.43453
  39   39171.0    255.3   0.082383072   0.69239  -0.43293  -0.57560   0.41670
  40   39502.9    253.1   0.028104579   0.23422  -0.42111   0.05799   0.23135
  41   39523.6    253.0   0.104541330   0.87078  -0.73695   0.23474   0.52209
  42   40118.7    249.3   0.220384481   1.80846   0.92089   0.57723  -0.79197

FINAL SINGLE POINT ENERGY     -4091.881144010378

DIPOLE MOMENT
-------------
                                X             Y             Z
Electronic contribution:     -2.63927      13.85729      -3.16670
Nuclear contribution   :      0.90589     -13.59804       3.06225
                        -----------------------------------------
Total Dipole Moment    :     -1.73338       0.25925      -0.10445
                        -----------------------------------------
Magnitude (a.u.)       :      1.75577
Magnitude (Debye)      :      4.46282

Rotational constants in cm-1:     0.001167     0.000873     0.000690
Rotational constants in MHz :    34.987524    26.168800    20.686294

                             ****ORCA TERMINATED NORMALLY****
TOTAL RUN TIME: 0 days 0 hours 6 minutes 14 seconds 279 msec
