                         Program Version 4.2.0 -  RELEASE  -
|  1> # ORCA input file
|  2> # SCF done       -204.238785893105          0.000456604252
|  3> ! CAM-B3LYP def2-SVP def2/J RIJCOSX Grid4 TightSCF
|  4> %maxcore 5000
|  5> %tddft
|  6>     Mode sTDDFT
|  7>     Ethresh 5.0
|  8>     maxcore 5000
|  9> end
| 10>
| 11> %pal
| 12>   nprocs 6
| 13>   end
| 14> * xyz 0 1
| 15>    C       -0.89620        -0.54608         4.21527
| 16>    S       -0.63010         0.50018         2.86827
| 17>    C       -2.31508         0.58392         2.58599
| 18>    C       -3.03421        -0.17116         3.50615
| 19>    C       -2.21688        -0.81964         4.44141
| 20>    C       -4.46381        -0.03274         3.16905
| 21>    O       -5.42686        -0.51792         3.70490
| 22>    C       -4.47597         0.87965         1.95373
| 23>    C       -3.18495         1.21959         1.64670
| 24>    C       -5.69204         1.22324         1.32206
| 25>    C       -5.80035         1.98269         0.19710
| 26>    C       -7.02825         2.25540        -0.44229
| 27>    O       -8.19452         1.82029         0.05120
| 28>    C       -9.18744         2.18012        -0.80747
| 29>    C       -8.65648         2.87037        -1.87460
| 30>    C       -7.26047         2.94201        -1.65579
| 31>    C       -6.25198         3.56830        -2.46333
| 32>    O       -5.06055         3.59876        -2.25134
| 33>    C       -6.81042         4.27644        -3.73194
| 34>    F       -7.70114         5.23467        -3.41720
| 35>    F       -5.84878         4.85297        -4.44645
| 36>    F       -7.44973         3.41661        -4.54577
| 37>    C      -10.54288         1.83589        -0.54391
| 38>    C      -10.97948         1.32244         0.62712
| 39>    C      -12.34314         0.96363         0.87381
| 40>    C      -12.79384         0.64717         2.15448
| 41>    F      -11.92362         0.69741         3.17769
| 42>    C      -14.11390         0.29024         2.44845
| 43>    F      -14.41588         0.02667         3.72878
| 44>    C      -15.11293         0.17611         1.48208
| 45>    C      -14.68012         0.47887         0.16625
| 46>    C      -13.34174         0.87800        -0.12800
| 47>    N      -13.27625         1.09052        -1.45080
| 48>    N      -14.47805         0.83531        -1.88262
| 49>    C      -14.83962         0.97566        -3.26412
| 50>    C      -15.30863         2.39929        -3.54886
| 51>    N      -15.35325         0.47565        -0.99033
| 52>    C      -16.44610        -0.21439         1.81194
| 53>    C      -17.37742        -0.52054         0.87315
| 54>    C      -18.70522        -0.90056         1.17256
| 55>    O      -19.20820        -0.81625         2.40665
| 56>    C      -20.50161        -1.24013         2.37672
| 57>    C      -20.83863        -1.62078         1.09252
| 58>    C      -19.69503        -1.40018         0.29388
| 59>    C      -19.52428        -1.61864        -1.11809
| 60>    O      -18.53503        -1.40017        -1.77763
| 61>    C      -20.78784        -2.19543        -1.82300
| 62>    F      -21.84461        -1.37188        -1.70268
| 63>    F      -20.58443        -2.38820        -3.12295
| 64>    F      -21.15944        -3.37470        -1.29658
| 65>    C      -21.30275        -1.19621         3.54492
| 66>    C      -20.87786        -0.69473         4.73519
| 67>    C      -21.73014        -0.63620         5.85931
| 68>    C      -21.39146        -0.09285         7.06737
| 69>    C      -22.26058         0.00984         8.23135
| 70>    C      -23.32351        -0.81205         8.48525
| 71>    N      -24.27193        -0.64042         9.53825
| 72>    O      -24.42853         0.47812         9.98550
| 73>    O      -24.85876        -1.63114         9.91581
| 74>    N      -23.54749        -2.03512         7.72046
| 75>    O      -22.61868        -2.80316         7.64196
| 76>    O      -24.63772        -2.17981         7.22571
| 77>    C      -21.69075         1.03118         9.08935
| 78>    C      -21.98281         1.68585        10.25077
| 79>    S      -20.69670         2.72393        10.71942
| 80>    C      -19.74359         2.29273         9.34839
| 81>    C      -20.40055         1.39511         8.57322
| 82>    C      -20.14212         0.68719         7.31312
| 83>    O      -19.15912         0.75805         6.61390
| 84>    H       -0.04840        -0.90163         4.76694
| 85>    H       -2.57169        -1.45166         5.23436
| 86>    H       -2.85891         1.85278         0.84206
| 87>    H       -6.58570         0.81713         1.77956
| 88>    H       -4.92743         2.39440        -0.28484
| 89>    H       -9.21143         3.27206        -2.69666
| 90>    H      -11.24101         2.01684        -1.34698
| 91>    H      -10.28796         1.18436         1.44679
| 92>    H      -15.64306         0.26378        -3.46153
| 93>    H      -13.96007         0.73416        -3.86333
| 94>    H      -16.18074         2.63471        -2.94420
| 95>    H      -15.57533         2.49311        -4.59718
| 96>    H      -14.51833         3.11119        -3.32317
| 97>    H      -16.68820        -0.28658         2.86409
| 98>    H      -17.11635        -0.49849        -0.17434
| 99>    H      -21.79155        -1.99817         0.78327
|100>    H      -22.30867        -1.57807         3.43586
|101>    H      -19.86832        -0.32492         4.83352
|102>    H      -22.73638        -1.00774         5.70493
|103>    H      -22.87657         1.65210        10.84097
|104>    H      -18.77166         2.72068         9.20544
|105> *
|106>
|107>                          ****END OF INPUT****

CARTESIAN COORDINATES (ANGSTROEM)
---------------------------------
  C     -0.896200   -0.546080    4.215270
  S     -0.630100    0.500180    2.868270
  C     -2.315080    0.583920    2.585990
  C     -3.034210   -0.171160    3.506150
  C     -2.216880   -0.819640    4.441410
  C     -4.463810   -0.032740    3.169050
  O     -5.426860   -0.517920    3.704900
  C     -4.475970    0.879650    1.953730
  C     -3.184950    1.219590    1.646700
  C     -5.692040    1.223240    1.322060
  C     -5.800350    1.982690    0.197100
  C     -7.028250    2.255400   -0.442290
  O     -8.194520    1.820290    0.051200
  C     -9.187440    2.180120   -0.807470
  C     -8.656480    2.870370   -1.874600
  C     -7.260470    2.942010   -1.655790
  C     -6.251980    3.568300   -2.463330
  O     -5.060550    3.598760   -2.251340
  C     -6.810420    4.276440   -3.731940
  F     -7.701140    5.234670   -3.417200
  F     -5.848780    4.852970   -4.446450
  F     -7.449730    3.416610   -4.545770
  C    -10.542880    1.835890   -0.543910
  C    -10.979480    1.322440    0.627120
  C    -12.343140    0.963630    0.873810
  C    -12.793840    0.647170    2.154480
  F    -11.923620    0.697410    3.177690
  C    -14.113900    0.290240    2.448450
  F    -14.415880    0.026670    3.728780
  C    -15.112930    0.176110    1.482080
  C    -14.680120    0.478870    0.166250
  C    -13.341740    0.878000   -0.128000
  N    -13.276250    1.090520   -1.450800
  N    -14.478050    0.835310   -1.882620
  C    -14.839620    0.975660   -3.264120
  C    -15.308630    2.399290   -3.548860
  N    -15.353250    0.475650   -0.990330
  C    -16.446100   -0.214390    1.811940
  C    -17.377420   -0.520540    0.873150
  C    -18.705220   -0.900560    1.172560
  O    -19.208200   -0.816250    2.406650
  C    -20.501610   -1.240130    2.376720
  C    -20.838630   -1.620780    1.092520
  C    -19.695030   -1.400180    0.293880
  C    -19.524280   -1.618640   -1.118090
  O    -18.535030   -1.400170   -1.777630
  C    -20.787840   -2.195430   -1.823000
  F    -21.844610   -1.371880   -1.702680
  F    -20.584430   -2.388200   -3.122950
  F    -21.159440   -3.374700   -1.296580
  C    -21.302750   -1.196210    3.544920
  C    -20.877860   -0.694730    4.735190
  C    -21.730140   -0.636200    5.859310
  C    -21.391460   -0.092850    7.067370
  C    -22.260580    0.009840    8.231350
  C    -23.323510   -0.812050    8.485250
  N    -24.271930   -0.640420    9.538250
  O    -24.428530    0.478120    9.985500
  O    -24.858760   -1.631140    9.915810
  N    -23.547490   -2.035120    7.720460
  O    -22.618680   -2.803160    7.641960
  O    -24.637720   -2.179810    7.225710
  C    -21.690750    1.031180    9.089350
  C    -21.982810    1.685850   10.250770
  S    -20.696700    2.723930   10.719420
  C    -19.743590    2.292730    9.348390
  C    -20.400550    1.395110    8.573220
  C    -20.142120    0.687190    7.313120
  O    -19.159120    0.758050    6.613900
  H     -0.048400   -0.901630    4.766940
  H     -2.571690   -1.451660    5.234360
  H     -2.858910    1.852780    0.842060
  H     -6.585700    0.817130    1.779560
  H     -4.927430    2.394400   -0.284840
  H     -9.211430    3.272060   -2.696660
  H    -11.241010    2.016840   -1.346980
  H    -10.287960    1.184360    1.446790
  H    -15.643060    0.263780   -3.461530
  H    -13.960070    0.734160   -3.863330
  H    -16.180740    2.634710   -2.944200
  H    -15.575330    2.493110   -4.597180
  H    -14.518330    3.111190   -3.323170
  H    -16.688200   -0.286580    2.864090
  H    -17.116350   -0.498490   -0.174340
  H    -21.791550   -1.998170    0.783270
  H    -22.308670   -1.578070    3.435860
  H    -19.868320   -0.324920    4.833520
  H    -22.736380   -1.007740    5.704930
  H    -22.876570    1.652100   10.840970
  H    -18.771660    2.720680    9.205440

 Total Charge           Charge          ....    0
 Multiplicity           Mult            ....    1
 Number of Electrons    NEL             ....  504
 Basis Dimension        Dim             .... 1079

ORBITAL ENERGIES
----------------

  NO   OCC          E(Eh)            E(eV)
   0   2.0000     -88.982042     -2421.3245
   1   2.0000     -88.980451     -2421.2812
   2   2.0000     -24.811171      -675.1463
   3   2.0000     -24.810995      -675.1415
   4   2.0000     -24.806474      -675.0185
   5   2.0000     -24.806350      -675.0151
   6   2.0000     -24.806214      -675.0114
   7   2.0000     -24.802137      -674.9005
   8   2.0000     -24.799869      -674.8387
   9   2.0000     -24.795555      -674.7214
  10   2.0000     -19.318290      -525.6774
  11   2.0000     -19.309325      -525.4335
  12   2.0000     -19.255787      -523.9766
  13   2.0000     -19.254833      -523.9507
  14   2.0000     -19.248303      -523.7730
  15   2.0000     -19.247700      -523.7565
  16   2.0000     -19.238591      -523.5087
  17   2.0000     -19.232689      -523.3481
  18   2.0000     -19.230475      -523.2878
  19   2.0000     -19.216304      -522.9022
  20   2.0000     -14.661731      -398.9660
  21   2.0000     -14.660140      -398.9227
  22   2.0000     -14.550171      -395.9303
  23   2.0000     -14.456445      -393.3799
  24   2.0000     -14.453944      -393.3118
  25   2.0000     -10.520518      -286.2778
  26   2.0000     -10.515924      -286.1528
  27   2.0000     -10.392254      -282.7876
  28   2.0000     -10.386250      -282.6242
  29   2.0000     -10.381845      -282.5044
  30   2.0000     -10.376203      -282.3508
  31   2.0000     -10.372141      -282.2403
  32   2.0000     -10.371963      -282.2355
  33   2.0000     -10.371420      -282.2207
  34   2.0000     -10.366520      -282.0874
  35   2.0000     -10.362409      -281.9755
  36   2.0000     -10.353742      -281.7396
  37   2.0000     -10.349980      -281.6373
  38   2.0000     -10.343800      -281.4691
  39   2.0000     -10.329180      -281.0713
  40   2.0000     -10.320459      -280.8340
  41   2.0000     -10.319518      -280.8084
  42   2.0000     -10.319072      -280.7962
  43   2.0000     -10.318961      -280.7932
  44   2.0000     -10.318623      -280.7840
  45   2.0000     -10.315494      -280.6989
  46   2.0000     -10.314693      -280.6771
  47   2.0000     -10.312286      -280.6116
  48   2.0000     -10.311719      -280.5961
  49   2.0000     -10.308700      -280.5140
  50   2.0000     -10.307500      -280.4813
  51   2.0000     -10.306750      -280.4609
  52   2.0000     -10.305711      -280.4326
  53   2.0000     -10.303865      -280.3824
  54   2.0000     -10.302467      -280.3444
  55   2.0000     -10.300529      -280.2916
  56   2.0000     -10.295429      -280.1529
  57   2.0000     -10.294000      -280.1140
  58   2.0000     -10.292394      -280.0703
  59   2.0000     -10.291863      -280.0558
  60   2.0000     -10.291341      -280.0416
  61   2.0000     -10.290859      -280.0285
  62   2.0000     -10.290818      -280.0274
  63   2.0000     -10.289106      -279.9808
  64   2.0000     -10.288934      -279.9761
  65   2.0000     -10.288184      -279.9557
  66   2.0000     -10.286514      -279.9103
  67   2.0000     -10.279743      -279.7260
  68   2.0000     -10.279324      -279.7146
  69   2.0000      -8.078090      -219.8160
  70   2.0000      -8.075712      -219.7513
  71   2.0000      -6.047241      -164.5538
  72   2.0000      -6.044833      -164.4883
  73   2.0000      -6.042549      -164.4261
  74   2.0000      -6.040917      -164.3817
  75   2.0000      -6.040509      -164.3706
  76   2.0000      -6.038458      -164.3148
  77   2.0000      -1.399064       -38.0705
  78   2.0000      -1.394371       -37.9428
  79   2.0000      -1.343766       -36.5657
  80   2.0000      -1.325812       -36.0772
  81   2.0000      -1.321312       -35.9547
  82   2.0000      -1.303613       -35.4731
  83   2.0000      -1.301833       -35.4247
  84   2.0000      -1.301554       -35.4171
  85   2.0000      -1.297113       -35.2963
  86   2.0000      -1.296684       -35.2846
  87   2.0000      -1.239582       -33.7307
  88   2.0000      -1.233045       -33.5529
  89   2.0000      -1.229424       -33.4543
  90   2.0000      -1.158884       -31.5348
  91   2.0000      -1.154214       -31.4078
  92   2.0000      -1.149343       -31.2752
  93   2.0000      -1.148044       -31.2399
  94   2.0000      -1.141612       -31.0648
  95   2.0000      -1.133349       -30.8400
  96   2.0000      -1.019626       -27.7454
  97   2.0000      -1.010528       -27.4979
  98   2.0000      -1.006343       -27.3840
  99   2.0000      -0.999488       -27.1975
 100   2.0000      -0.980881       -26.6911
 101   2.0000      -0.947614       -25.7859
 102   2.0000      -0.947086       -25.7715
 103   2.0000      -0.943556       -25.6755
 104   2.0000      -0.937227       -25.5032
 105   2.0000      -0.934600       -25.4318
 106   2.0000      -0.927686       -25.2436
 107   2.0000      -0.927259       -25.2320
 108   2.0000      -0.915220       -24.9044
 109   2.0000      -0.899215       -24.4689
 110   2.0000      -0.881887       -23.9974
 111   2.0000      -0.862927       -23.4814
 112   2.0000      -0.851041       -23.1580
 113   2.0000      -0.848863       -23.0987
 114   2.0000      -0.847072       -23.0500
 115   2.0000      -0.839554       -22.8454
 116   2.0000      -0.835697       -22.7405
 117   2.0000      -0.829154       -22.5624
 118   2.0000      -0.819196       -22.2914
 119   2.0000      -0.806648       -21.9500
 120   2.0000      -0.796436       -21.6721
 121   2.0000      -0.785656       -21.3788
 122   2.0000      -0.778784       -21.1918
 123   2.0000      -0.768638       -20.9157
 124   2.0000      -0.762669       -20.7533
 125   2.0000      -0.759048       -20.6548
 126   2.0000      -0.749763       -20.4021
 127   2.0000      -0.748034       -20.3550
 128   2.0000      -0.743860       -20.2415
 129   2.0000      -0.728009       -19.8101
 130   2.0000      -0.722664       -19.6647
 131   2.0000      -0.716882       -19.5074
 132   2.0000      -0.713478       -19.4147
 133   2.0000      -0.695960       -18.9380
 134   2.0000      -0.688738       -18.7415
 135   2.0000      -0.686543       -18.6818
 136   2.0000      -0.682328       -18.5671
 137   2.0000      -0.681961       -18.5571
 138   2.0000      -0.681620       -18.5478
 139   2.0000      -0.677557       -18.4373
 140   2.0000      -0.671112       -18.2619
 141   2.0000      -0.661600       -18.0030
 142   2.0000      -0.658572       -17.9207
 143   2.0000      -0.656545       -17.8655
 144   2.0000      -0.653132       -17.7726
 145   2.0000      -0.650917       -17.7123
 146   2.0000      -0.650683       -17.7060
 147   2.0000      -0.650436       -17.6993
 148   2.0000      -0.649340       -17.6694
 149   2.0000      -0.637356       -17.3434
 150   2.0000      -0.632644       -17.2151
 151   2.0000      -0.629519       -17.1301
 152   2.0000      -0.628253       -17.0956
 153   2.0000      -0.627692       -17.0804
 154   2.0000      -0.623060       -16.9543
 155   2.0000      -0.615426       -16.7466
 156   2.0000      -0.609775       -16.5928
 157   2.0000      -0.606128       -16.4936
 158   2.0000      -0.599551       -16.3146
 159   2.0000      -0.593530       -16.1508
 160   2.0000      -0.589412       -16.0387
 161   2.0000      -0.587252       -15.9799
 162   2.0000      -0.586239       -15.9524
 163   2.0000      -0.583385       -15.8747
 164   2.0000      -0.582677       -15.8555
 165   2.0000      -0.577634       -15.7182
 166   2.0000      -0.576371       -15.6838
 167   2.0000      -0.575480       -15.6596
 168   2.0000      -0.572397       -15.5757
 169   2.0000      -0.564174       -15.3520
 170   2.0000      -0.563246       -15.3267
 171   2.0000      -0.558992       -15.2109
 172   2.0000      -0.557614       -15.1734
 173   2.0000      -0.557421       -15.1682
 174   2.0000      -0.555400       -15.1132
 175   2.0000      -0.553823       -15.0703
 176   2.0000      -0.552625       -15.0377
 177   2.0000      -0.545979       -14.8569
 178   2.0000      -0.544619       -14.8198
 179   2.0000      -0.538686       -14.6584
 180   2.0000      -0.538378       -14.6500
 181   2.0000      -0.536293       -14.5933
 182   2.0000      -0.532919       -14.5015
 183   2.0000      -0.529847       -14.4179
 184   2.0000      -0.528581       -14.3834
 185   2.0000      -0.526102       -14.3160
 186   2.0000      -0.523168       -14.2361
 187   2.0000      -0.521646       -14.1947
 188   2.0000      -0.520881       -14.1739
 189   2.0000      -0.520510       -14.1638
 190   2.0000      -0.514933       -14.0120
 191   2.0000      -0.513155       -13.9636
 192   2.0000      -0.511265       -13.9122
 193   2.0000      -0.507401       -13.8071
 194   2.0000      -0.505353       -13.7514
 195   2.0000      -0.504921       -13.7396
 196   2.0000      -0.499322       -13.5873
 197   2.0000      -0.497451       -13.5363
 198   2.0000      -0.495901       -13.4942
 199   2.0000      -0.495808       -13.4916
 200   2.0000      -0.494554       -13.4575
 201   2.0000      -0.493412       -13.4264
 202   2.0000      -0.493149       -13.4193
 203   2.0000      -0.490987       -13.3604
 204   2.0000      -0.489184       -13.3114
 205   2.0000      -0.487993       -13.2790
 206   2.0000      -0.482429       -13.1276
 207   2.0000      -0.480236       -13.0679
 208   2.0000      -0.474491       -12.9116
 209   2.0000      -0.471766       -12.8374
 210   2.0000      -0.471757       -12.8372
 211   2.0000      -0.470551       -12.8043
 212   2.0000      -0.468771       -12.7559
 213   2.0000      -0.468220       -12.7409
 214   2.0000      -0.466210       -12.6862
 215   2.0000      -0.461175       -12.5492
 216   2.0000      -0.457266       -12.4428
 217   2.0000      -0.454104       -12.3568
 218   2.0000      -0.452172       -12.3042
 219   2.0000      -0.450363       -12.2550
 220   2.0000      -0.446699       -12.1553
 221   2.0000      -0.443792       -12.0762
 222   2.0000      -0.442734       -12.0474
 223   2.0000      -0.441405       -12.0112
 224   2.0000      -0.428898       -11.6709
 225   2.0000      -0.425763       -11.5856
 226   2.0000      -0.410225       -11.1628
 227   2.0000      -0.400390       -10.8952
 228   2.0000      -0.399152       -10.8615
 229   2.0000      -0.396126       -10.7791
 230   2.0000      -0.391045       -10.6409
 231   2.0000      -0.388462       -10.5706
 232   2.0000      -0.385607       -10.4929
 233   2.0000      -0.384013       -10.4495
 234   2.0000      -0.383264       -10.4291
 235   2.0000      -0.380027       -10.3410
 236   2.0000      -0.378324       -10.2947
 237   2.0000      -0.371388       -10.1060
 238   2.0000      -0.362068        -9.8524
 239   2.0000      -0.360609        -9.8127
 240   2.0000      -0.355991        -9.6870
 241   2.0000      -0.344598        -9.3770
 242   2.0000      -0.342627        -9.3233
 243   2.0000      -0.339917        -9.2496
 244   2.0000      -0.337081        -9.1724
 245   2.0000      -0.335192        -9.1210
 246   2.0000      -0.327517        -8.9122
 247   2.0000      -0.321646        -8.7524
 248   2.0000      -0.315406        -8.5826
 249   2.0000      -0.291506        -7.9323
 250   2.0000      -0.265846        -7.2340
 251   2.0000      -0.243067        -6.6142
 252   0.0000      -0.105266        -2.8644
 253   0.0000      -0.094640        -2.5753
 254   0.0000      -0.080232        -2.1832
 255   0.0000      -0.055403        -1.5076
 256   0.0000      -0.040296        -1.0965

MULLIKEN ATOMIC CHARGES
-----------------------
   0 C :   -0.090173
   1 S :    0.173440
   2 C :   -0.088958
   3 C :   -0.024872
   4 C :    0.041911
   5 C :    0.161951
   6 O :   -0.106918
   7 C :   -0.058353
   8 C :   -0.006626
   9 C :    0.040379
  10 C :   -0.044984
  11 C :    0.139229
  12 O :   -0.189253
  13 C :    0.200221
  14 C :   -0.023933
  15 C :   -0.033642
  16 C :    0.020980
  17 O :   -0.154636
  18 C :    0.473136
  19 F :   -0.169935
  20 F :   -0.135821
  21 F :   -0.171131
  22 C :    0.003274
  23 C :   -0.050725
  24 C :    0.005879
  25 C :    0.159788
  26 F :   -0.174190
  27 C :    0.176959
  28 F :   -0.167951
  29 C :   -0.015619
  30 C :    0.004387
  31 C :   -0.003976
  32 N :   -0.065960
  33 N :   -0.068563
  34 C :    0.135111
  35 C :   -0.012228
  36 N :   -0.056437
  37 C :   -0.021216
  38 C :   -0.046893
  39 C :    0.157240
  40 O :   -0.180455
  41 C :    0.189547
  42 C :   -0.008941
  43 C :   -0.036919
  44 C :    0.021989
  45 O :   -0.141212
  46 C :    0.472641
  47 F :   -0.170214
  48 F :   -0.135126
  49 F :   -0.167992
  50 C :    0.008594
  51 C :    0.004993
  52 C :   -0.025665
  53 C :   -0.072480
  54 C :    0.223228
  55 C :    0.044179
  56 N :    0.262678
  57 O :   -0.251183
  58 O :   -0.228962
  59 N :    0.194681
  60 O :   -0.204326
  61 O :   -0.207507
  62 C :    0.058441
  63 C :   -0.128219
  64 S :    0.154371
  65 C :   -0.128841
  66 C :    0.009091
  67 C :    0.167214
  68 O :   -0.146178
  69 H :    0.035160
  70 H :    0.002061
  71 H :    0.007860
  72 H :    0.013451
  73 H :    0.014136
  74 H :    0.003106
  75 H :    0.014314
  76 H :    0.002072
  77 H :    0.054448
  78 H :    0.039986
  79 H :    0.036254
  80 H :    0.034698
  81 H :    0.030797
  82 H :    0.011591
  83 H :    0.042105
  84 H :    0.011541
  85 H :    0.013315
  86 H :    0.039908
  87 H :    0.008275
  88 H :    0.057371
  89 H :    0.039230
Sum of atomic charges:   -0.0000000

LOEWDIN ATOMIC CHARGES
----------------------
   0 C :   -0.180843
   1 S :    0.474754
   2 C :   -0.180946
   3 C :   -0.105582
   4 C :   -0.028617
   5 C :    0.098472
   6 O :   -0.099930
   7 C :   -0.071134
   8 C :    0.025610
   9 C :    0.019795
  10 C :   -0.043247
  11 C :    0.090664
  12 O :    0.028634
  13 C :    0.032373
  14 C :   -0.032630
  15 C :   -0.125185
  16 C :    0.034107
  17 O :   -0.122854
  18 C :    0.143470
  19 F :   -0.063157
  20 F :   -0.036212
  21 F :   -0.063530
  22 C :   -0.015136
  23 C :   -0.020442
  24 C :   -0.040096
  25 C :    0.059639
  26 F :   -0.051238
  27 C :    0.076479
  28 F :   -0.045194
  29 C :   -0.065320
  30 C :   -0.041233
  31 C :   -0.046102
  32 N :   -0.085191
  33 N :    0.164666
  34 C :    0.038339
  35 C :   -0.054473
  36 N :   -0.075232
  37 C :    0.028906
  38 C :   -0.046030
  39 C :    0.100575
  40 O :    0.035690
  41 C :    0.022733
  42 C :   -0.011884
  43 C :   -0.124973
  44 C :    0.035485
  45 O :   -0.111675
  46 C :    0.142121
  47 F :   -0.062824
  48 F :   -0.035922
  49 F :   -0.060636
  50 C :    0.015901
  51 C :   -0.027344
  52 C :    0.066199
  53 C :   -0.091724
  54 C :    0.056215
  55 C :   -0.066401
  56 N :    0.279602
  57 O :   -0.204415
  58 O :   -0.193633
  59 N :    0.267663
  60 O :   -0.179894
  61 O :   -0.180313
  62 C :   -0.063753
  63 C :   -0.147284
  64 S :    0.487820
  65 C :   -0.142436
  66 C :   -0.089171
  67 C :    0.083896
  68 O :   -0.138658
  69 H :    0.025608
  70 H :    0.040377
  71 H :    0.036296
  72 H :    0.038702
  73 H :    0.037238
  74 H :    0.034054
  75 H :    0.037657
  76 H :    0.035031
  77 H :    0.044051
  78 H :    0.037778
  79 H :    0.032966
  80 H :    0.035567
  81 H :    0.030251
  82 H :    0.039063
  83 H :    0.038528
  84 H :    0.037358
  85 H :    0.045042
  86 H :    0.037911
  87 H :    0.032880
  88 H :    0.030550
  89 H :    0.035776

  Mayer bond orders larger than 0.100000
B(  0-C ,  1-S ) :   1.1675 B(  0-C ,  4-C ) :   1.5328 B(  0-C , 69-H ) :   0.9685
B(  1-S ,  2-C ) :   1.1461 B(  2-C ,  3-C ) :   1.4714 B(  2-C ,  8-C ) :   1.0604
B(  3-C ,  4-C ) :   1.2949 B(  3-C ,  5-C ) :   0.9344 B(  4-C , 70-H ) :   1.0054
B(  5-C ,  6-O ) :   2.2784 B(  5-C ,  7-C ) :   0.9108 B(  7-C ,  8-C ) :   1.6315
B(  7-C ,  9-C ) :   1.1282 B(  8-C , 71-H ) :   1.0129 B(  9-C , 10-C ) :   1.5537
B(  9-C , 72-H ) :   0.9865 B( 10-C , 11-C ) :   1.2195 B( 10-C , 73-H ) :   0.9460
B( 11-C , 12-O ) :   1.2062 B( 11-C , 15-C ) :   1.3350 B( 12-O , 13-C ) :   1.1047
B( 13-C , 14-C ) :   1.4536 B( 13-C , 22-C ) :   1.1277 B( 14-C , 15-C ) :   1.2023
B( 14-C , 74-H ) :   0.9950 B( 15-C , 16-C ) :   0.9826 B( 16-C , 17-O ) :   2.1516
B( 16-C , 18-C ) :   0.8897 B( 18-C , 19-F ) :   1.1297 B( 18-C , 20-F ) :   1.1897
B( 18-C , 21-F ) :   1.1250 B( 22-C , 23-C ) :   1.6331 B( 22-C , 75-H ) :   0.9445
B( 23-C , 24-C ) :   1.1186 B( 23-C , 76-H ) :   0.9866 B( 24-C , 25-C ) :   1.3593
B( 24-C , 29-C ) :   0.1277 B( 24-C , 31-C ) :   1.1575 B( 25-C , 26-F ) :   1.1598
B( 25-C , 27-C ) :   1.1755 B( 27-C , 28-F ) :   1.1712 B( 27-C , 29-C ) :   1.3471
B( 29-C , 30-C ) :   1.1553 B( 29-C , 37-C ) :   1.1202 B( 30-C , 31-C ) :   1.2297
B( 30-C , 36-N ) :   1.4639 B( 31-C , 32-N ) :   1.4545 B( 32-N , 33-N ) :   1.2300
B( 32-N , 36-N ) :   0.1566 B( 33-N , 34-C ) :   0.9278 B( 33-N , 36-N ) :   1.2343
B( 34-C , 35-C ) :   1.1150 B( 34-C , 77-H ) :   0.9435 B( 34-C , 78-H ) :   0.9452
B( 35-C , 79-H ) :   0.9681 B( 35-C , 80-H ) :   0.9689 B( 35-C , 81-H ) :   0.9687
B( 37-C , 38-C ) :   1.5762 B( 37-C , 82-H ) :   0.9929 B( 38-C , 39-C ) :   1.1924
B( 38-C , 83-H ) :   0.9221 B( 39-C , 40-O ) :   1.2182 B( 39-C , 43-C ) :   1.3344
B( 40-O , 41-C ) :   1.1011 B( 41-C , 42-C ) :   1.4209 B( 41-C , 50-C ) :   1.1443
B( 42-C , 43-C ) :   1.2253 B( 42-C , 84-H ) :   0.9937 B( 43-C , 44-C ) :   0.9701
B( 44-C , 45-O ) :   2.1677 B( 44-C , 46-C ) :   0.8892 B( 46-C , 47-F ) :   1.1262
B( 46-C , 48-F ) :   1.1905 B( 46-C , 49-F ) :   1.1296 B( 50-C , 51-C ) :   1.5499
B( 50-C , 85-H ) :   0.9712 B( 51-C , 52-C ) :   1.1789 B( 51-C , 86-H ) :   0.9813
B( 52-C , 53-C ) :   1.5441 B( 52-C , 87-H ) :   0.9746 B( 53-C , 54-C ) :   1.0752
B( 53-C , 67-C ) :   0.9503 B( 54-C , 55-C ) :   1.6027 B( 54-C , 62-C ) :   1.0179
B( 55-C , 56-N ) :   0.9544 B( 55-C , 59-N ) :   0.8717 B( 56-N , 57-O ) :   1.4920
B( 56-N , 58-O ) :   1.5298 B( 57-O , 58-O ) :   0.2598 B( 59-N , 60-O ) :   1.5466
B( 59-N , 61-O ) :   1.5209 B( 60-O , 61-O ) :   0.2880 B( 62-C , 63-C ) :   1.5454
B( 62-C , 66-C ) :   1.2196 B( 63-C , 64-S ) :   1.1878 B( 63-C , 88-H ) :   0.9479
B( 64-S , 65-C ) :   1.1823 B( 65-C , 66-C ) :   1.5535 B( 65-C , 89-H ) :   0.9711
B( 66-C , 67-C ) :   0.9585 B( 67-C , 68-O ) :   2.2000

-----------------------------------------------------------------------------
         ABSORPTION SPECTRUM VIA TRANSITION ELECTRIC DIPOLE MOMENTS
-----------------------------------------------------------------------------
State   Energy  Wavelength   fosc         T2         TX        TY        TZ
        (cm-1)    (nm)                  (au**2)     (au)      (au)      (au)
-----------------------------------------------------------------------------
   0   15886.0    629.5   1.248223155  25.86749   5.06608  -0.19216  -0.40671
   1   17942.9    557.3   0.890794366  16.34409  -1.79789  -0.80194   3.53109
   2   21924.2    456.1   0.453798815   6.81422  -1.70733  -1.15691  -1.60026
   3   23312.6    429.0   0.091706544   1.29505  -0.96375  -0.46693   0.38497
   4   24731.5    404.3   0.023355497   0.31090  -0.41140   0.03460   0.37477
   5   26072.8    383.5   0.000119429   0.00151  -0.02517   0.02873  -0.00702
   6   26433.9    378.3   0.067721322   0.84341  -0.76711   0.50312  -0.04268
   7   27138.0    368.5   0.044865710   0.54427   0.04789  -0.57449   0.46037
   8   27295.2    366.4   0.134090650   1.61729  -0.15634   0.60855  -1.10567
   9   28166.4    355.0   0.079652100   0.93098  -0.02827   0.27568   0.92422
  10   28713.1    348.3   0.027684355   0.31742  -0.12614  -0.32351   0.44368
  11   29446.6    339.6   0.255766016   2.85946  -0.51260  -0.85964  -1.36298
  12   30696.8    325.8   0.166838417   1.78928   0.73854   1.04948   0.37738
  13   31125.9    321.3   0.102823894   1.08755   0.99761   0.30354   0.01388
  14   31369.3    318.8   0.028458088   0.29866  -0.11755   0.29519   0.44464
  15   31924.1    313.2   0.056304896   0.58064   0.52945   0.54286  -0.07500
  16   32333.0    309.3   0.185913933   1.89296  -0.43334  -0.04536  -1.30503
  17   32867.4    304.3   0.009724904   0.09741   0.22986   0.13175  -0.16497
  18   33394.0    299.5   0.095565582   0.94213  -0.24925  -0.05186   0.93665
  19   34002.6    294.1   0.022910948   0.22182   0.32016   0.09629  -0.33174
  20   34238.3    292.1   0.000211746   0.00204   0.03217  -0.01192   0.02931
  21   34532.0    289.6   0.007166881   0.06833  -0.08759   0.08254  -0.23204
  22   34797.2    287.4   0.178001410   1.68405   0.87232   0.64900   0.70845
  23   35091.9    285.0   0.065331726   0.61290   0.76629   0.07998  -0.13896
  24   35640.0    280.6   0.135286399   1.24966   1.04968  -0.37567   0.08190
  25   35853.1    278.9   0.228815640   2.10104   0.76611   0.19852   1.21437
  26   36343.6    275.2   0.120123726   1.08812   0.74109   0.73122  -0.06494
  27   36867.9    271.2   0.019607466   0.17508   0.38155  -0.01445  -0.17115
  28   37099.1    269.5   0.024033318   0.21327  -0.43523  -0.13994   0.06527
  29   37499.0    266.7   0.096993997   0.85153   0.70438  -0.05896  -0.59322
  30   38201.1    261.8   0.032162853   0.27717  -0.19862  -0.16887  -0.45739
  31   38479.8    259.9   0.139437848   1.19295   0.75763   0.43465  -0.65576
  32   39025.0    256.2   0.075857522   0.63993   0.73492   0.31186  -0.05066
  33   39416.7    253.7   0.042207580   0.35252   0.10214   0.09561   0.57702
  34   39917.8    250.5   0.005400883   0.04454  -0.01292  -0.02235   0.20947
  35   40086.9    249.5   0.068584098   0.56324   0.06608   0.29585   0.68655
  36   40120.3    249.3   0.036554307   0.29995   0.16041   0.15403   0.50049

FINAL SINGLE POINT ENERGY     -4305.785337840194

DIPOLE MOMENT
-------------
                                X             Y             Z
Electronic contribution:     -7.96457      -1.43017     -10.33798
Nuclear contribution   :     10.59338       2.79712       9.47831
                        -----------------------------------------
Total Dipole Moment    :      2.62881       1.36695      -0.85967
                        -----------------------------------------
Magnitude (a.u.)       :      3.08516
Magnitude (Debye)      :      7.84185

Rotational constants in cm-1:     0.001060     0.000271     0.000231
Rotational constants in MHz :    31.789281     8.127487     6.930302

                             ****ORCA TERMINATED NORMALLY****
TOTAL RUN TIME: 0 days 0 hours 7 minutes 44 seconds 498 msec
