                         Program Version 4.2.0 -  RELEASE  -
|  1> # ORCA input file
|  2> # SCF done       -169.261263785156          0.000708157604
|  3> ! CAM-B3LYP def2-SVP def2/J RIJCOSX Grid4 TightSCF
|  4> %maxcore 5000
|  5> %tddft
|  6>     Mode sTDDFT
|  7>     Ethresh 5.0
|  8>     maxcore 5000
|  9> end
| 10>
| 11> %pal
| 12>   nprocs 6
| 13>   end
| 14> * xyz 0 1
| 15>    C       -5.30856        -1.54841         9.40993
| 16>    S       -6.61527        -2.62167         9.81140
| 17>    C       -7.70074        -1.66342         8.89876
| 18>    C       -7.06564        -0.57129         8.31870
| 19>    C       -5.69217        -0.51095         8.61645
| 20>    C       -8.07134         0.18077         7.56676
| 21>    O       -7.91988         1.20156         6.92916
| 22>    C       -9.36215        -0.60135         7.77219
| 23>    C       -9.08850        -1.68421         8.57032
| 24>    C      -10.61665        -0.25745         7.22683
| 25>    C      -10.82324         0.83194         6.43233
| 26>    C      -12.07494         1.18970         5.87885
| 27>    C      -12.27976         2.30015         5.08207
| 28>    O      -13.51939         2.61428         4.55626
| 29>    C      -14.53534         1.77044         4.88415
| 30>    C      -14.32783         0.62694         5.70963
| 31>    C      -15.46591        -0.08053         5.91904
| 32>    S      -16.80993         0.63956         5.11008
| 33>    C      -15.82366         1.90792         4.48401
| 34>    O      -13.10827         0.31604         6.21083
| 35>    C      -11.25859         3.22626         4.72785
| 36>    C      -11.49979         4.31215         3.94889
| 37>    N      -10.61659         5.28970         3.64062
| 38>    C       -9.24009         5.23320         4.09548
| 39>    C       -8.39414         4.32611         3.20265
| 40>    C      -10.94510         6.24621         2.66662
| 41>    C      -10.65191         7.59411         2.87022
| 42>    C      -10.91632         8.51967         1.88320
| 43>    C      -11.47521         8.12909         0.66844
| 44>    C      -11.85071         6.78521         0.48139
| 45>    C      -11.57212         5.86702         1.48333
| 46>    C      -12.51884         6.35890        -0.74890
| 47>    C      -12.30511         5.19963        -1.35324
| 48>    N      -11.61684         9.05703        -0.37208
| 49>    C      -12.22698        10.34751        -0.12590
| 50>    C      -11.23484        11.50039        -0.25625
| 51>    C      -11.18714         8.74675        -1.63115
| 52>    S      -11.92057         9.47604        -3.02673
| 53>    C      -10.92789         8.56014        -4.13749
| 54>    C      -10.07910         7.71116        -3.42803
| 55>    C      -10.20162         7.83614        -2.00482
| 56>    C       -9.33368         7.08660        -1.18089
| 57>    C       -8.46022         6.20540        -1.73745
| 58>    S       -7.44370         5.22012        -0.65849
| 59>    C       -5.86449         6.15015        -0.79066
| 60>    C       -4.80025         5.46228         0.03904
| 61>    C       -8.37635         6.03048        -3.14877
| 62>    S       -7.21681         4.81817        -3.68816
| 63>    C       -7.48233         4.68592        -5.48689
| 64>    C       -8.76057         3.94351        -5.82774
| 65>    C       -9.15182         6.79756        -3.97242
| 66>    C      -11.02381         8.74677        -5.53284
| 67>    C      -11.86734         9.60885        -6.15041
| 68>    C      -11.95960         9.77404        -7.55674
| 69>    S      -11.13125         8.68539        -8.64960
| 70>    C      -11.84305         9.43979       -10.01910
| 71>    C      -12.64402        10.47727        -9.67290
| 72>    C      -12.70927        10.69595        -8.27273
| 73>    N      -13.48902        11.69746        -7.69964
| 74>    C      -12.85843        12.70045        -6.85754
| 75>    C      -12.11489        13.76721        -7.66303
| 76>    H       -4.33254        -1.76623         9.79536
| 77>    H       -5.02332         0.25305         8.26386
| 78>    H       -9.79198        -2.42782         8.89652
| 79>    H      -11.44748        -0.90967         7.46367
| 80>    H       -9.97907         1.45997         6.21044
| 81>    H      -15.59268        -0.97315         6.49430
| 82>    H      -16.24610         2.67124         3.86502
| 83>    H      -10.27655         3.03257         5.11595
| 84>    H      -12.49728         4.47097         3.56399
| 85>    H       -9.22254         4.87872         5.12832
| 86>    H       -8.82763         6.24301         4.07375
| 87>    H       -8.79848         3.31791         3.18813
| 88>    H       -7.37671         4.28337         3.58061
| 89>    H       -8.37273         4.70369         2.18226
| 90>    H      -10.21442         7.92002         3.80146
| 91>    H      -10.65779         9.55530         2.04222
| 92>    H      -11.83943         4.83267         1.33231
| 93>    H      -13.22559         7.06514        -1.16678
| 94>    H      -11.57599         4.49492        -0.98995
| 95>    H      -12.82834         4.92719        -2.25346
| 96>    H      -12.65777        10.32579         0.87687
| 97>    H      -13.04211        10.48968        -0.84686
| 98>    H      -10.82482        11.53373        -1.26236
| 99>    H      -10.41310        11.38525         0.44631
|100>    H      -11.73757        12.44250        -0.05614
|101>    H       -9.35058         7.20025        -0.11000
|102>    H       -6.05965         7.16243        -0.43420
|103>    H       -5.58988         6.17604        -1.84444
|104>    H       -3.86384         6.01237        -0.02842
|105>    H       -4.63995         4.44942        -0.32197
|106>    H       -5.10501         5.41176         1.08190
|107>    H       -6.60891         4.13365        -5.83484
|108>    H       -7.45262         5.68692        -5.91629
|109>    H       -8.73329         2.94020        -5.40867
|110>    H       -8.86814         3.86872        -6.90831
|111>    H       -9.63131         4.45803        -5.42658
|112>    H       -9.08373         6.71894        -5.04451
|113>    H      -10.35449         8.15323        -6.14175
|114>    H      -12.55096        10.19773        -5.55320
|115>    H      -11.60996         9.07522       -10.99950
|116>    H      -13.17621        11.08268       -10.38715
|117>    H      -14.06668        12.14394        -8.40409
|118>    H      -12.15933        12.20323        -6.18575
|119>    H      -13.64515        13.16826        -6.25760
|120>    H      -11.33568        13.30468        -8.26624
|121>    H      -11.65398        14.49024        -6.99532
|122>    H      -12.79890        14.29542        -8.32547
|123> *
|124>
|125>                          ****END OF INPUT****

CARTESIAN COORDINATES (ANGSTROEM)
---------------------------------
  C     -5.308560   -1.548410    9.409930
  S     -6.615270   -2.621670    9.811400
  C     -7.700740   -1.663420    8.898760
  C     -7.065640   -0.571290    8.318700
  C     -5.692170   -0.510950    8.616450
  C     -8.071340    0.180770    7.566760
  O     -7.919880    1.201560    6.929160
  C     -9.362150   -0.601350    7.772190
  C     -9.088500   -1.684210    8.570320
  C    -10.616650   -0.257450    7.226830
  C    -10.823240    0.831940    6.432330
  C    -12.074940    1.189700    5.878850
  C    -12.279760    2.300150    5.082070
  O    -13.519390    2.614280    4.556260
  C    -14.535340    1.770440    4.884150
  C    -14.327830    0.626940    5.709630
  C    -15.465910   -0.080530    5.919040
  S    -16.809930    0.639560    5.110080
  C    -15.823660    1.907920    4.484010
  O    -13.108270    0.316040    6.210830
  C    -11.258590    3.226260    4.727850
  C    -11.499790    4.312150    3.948890
  N    -10.616590    5.289700    3.640620
  C     -9.240090    5.233200    4.095480
  C     -8.394140    4.326110    3.202650
  C    -10.945100    6.246210    2.666620
  C    -10.651910    7.594110    2.870220
  C    -10.916320    8.519670    1.883200
  C    -11.475210    8.129090    0.668440
  C    -11.850710    6.785210    0.481390
  C    -11.572120    5.867020    1.483330
  C    -12.518840    6.358900   -0.748900
  C    -12.305110    5.199630   -1.353240
  N    -11.616840    9.057030   -0.372080
  C    -12.226980   10.347510   -0.125900
  C    -11.234840   11.500390   -0.256250
  C    -11.187140    8.746750   -1.631150
  S    -11.920570    9.476040   -3.026730
  C    -10.927890    8.560140   -4.137490
  C    -10.079100    7.711160   -3.428030
  C    -10.201620    7.836140   -2.004820
  C     -9.333680    7.086600   -1.180890
  C     -8.460220    6.205400   -1.737450
  S     -7.443700    5.220120   -0.658490
  C     -5.864490    6.150150   -0.790660
  C     -4.800250    5.462280    0.039040
  C     -8.376350    6.030480   -3.148770
  S     -7.216810    4.818170   -3.688160
  C     -7.482330    4.685920   -5.486890
  C     -8.760570    3.943510   -5.827740
  C     -9.151820    6.797560   -3.972420
  C    -11.023810    8.746770   -5.532840
  C    -11.867340    9.608850   -6.150410
  C    -11.959600    9.774040   -7.556740
  S    -11.131250    8.685390   -8.649600
  C    -11.843050    9.439790  -10.019100
  C    -12.644020   10.477270   -9.672900
  C    -12.709270   10.695950   -8.272730
  N    -13.489020   11.697460   -7.699640
  C    -12.858430   12.700450   -6.857540
  C    -12.114890   13.767210   -7.663030
  H     -4.332540   -1.766230    9.795360
  H     -5.023320    0.253050    8.263860
  H     -9.791980   -2.427820    8.896520
  H    -11.447480   -0.909670    7.463670
  H     -9.979070    1.459970    6.210440
  H    -15.592680   -0.973150    6.494300
  H    -16.246100    2.671240    3.865020
  H    -10.276550    3.032570    5.115950
  H    -12.497280    4.470970    3.563990
  H     -9.222540    4.878720    5.128320
  H     -8.827630    6.243010    4.073750
  H     -8.798480    3.317910    3.188130
  H     -7.376710    4.283370    3.580610
  H     -8.372730    4.703690    2.182260
  H    -10.214420    7.920020    3.801460
  H    -10.657790    9.555300    2.042220
  H    -11.839430    4.832670    1.332310
  H    -13.225590    7.065140   -1.166780
  H    -11.575990    4.494920   -0.989950
  H    -12.828340    4.927190   -2.253460
  H    -12.657770   10.325790    0.876870
  H    -13.042110   10.489680   -0.846860
  H    -10.824820   11.533730   -1.262360
  H    -10.413100   11.385250    0.446310
  H    -11.737570   12.442500   -0.056140
  H     -9.350580    7.200250   -0.110000
  H     -6.059650    7.162430   -0.434200
  H     -5.589880    6.176040   -1.844440
  H     -3.863840    6.012370   -0.028420
  H     -4.639950    4.449420   -0.321970
  H     -5.105010    5.411760    1.081900
  H     -6.608910    4.133650   -5.834840
  H     -7.452620    5.686920   -5.916290
  H     -8.733290    2.940200   -5.408670
  H     -8.868140    3.868720   -6.908310
  H     -9.631310    4.458030   -5.426580
  H     -9.083730    6.718940   -5.044510
  H    -10.354490    8.153230   -6.141750
  H    -12.550960   10.197730   -5.553200
  H    -11.609960    9.075220  -10.999500
  H    -13.176210   11.082680  -10.387150
  H    -14.066680   12.143940   -8.404090
  H    -12.159330   12.203230   -6.185750
  H    -13.645150   13.168260   -6.257600
  H    -11.335680   13.304680   -8.266240
  H    -11.653980   14.490240   -6.995320
  H    -12.798900   14.295420   -8.325470

 Total Charge           Charge          ....    0
 Multiplicity           Mult            ....    1
 Number of Electrons    NEL             ....  482
 Basis Dimension        Dim             .... 1113

ORBITAL ENERGIES
----------------

  NO   OCC          E(Eh)            E(eV)
   0   2.0000     -88.955527     -2420.6030
   1   2.0000     -88.950809     -2420.4746
   2   2.0000     -88.943577     -2420.2778
   3   2.0000     -88.932594     -2419.9789
   4   2.0000     -88.912436     -2419.4304
   5   2.0000     -88.903171     -2419.1783
   6   2.0000     -19.263223      -524.1790
   7   2.0000     -19.250401      -523.8301
   8   2.0000     -19.208455      -522.6886
   9   2.0000     -14.444564      -393.0566
  10   2.0000     -14.437457      -392.8632
  11   2.0000     -14.398183      -391.7945
  12   2.0000     -10.352147      -281.6962
  13   2.0000     -10.334614      -281.2191
  14   2.0000     -10.331487      -281.1341
  15   2.0000     -10.326730      -281.0046
  16   2.0000     -10.324975      -280.9568
  17   2.0000     -10.314334      -280.6673
  18   2.0000     -10.311670      -280.5948
  19   2.0000     -10.311115      -280.5797
  20   2.0000     -10.309145      -280.5261
  21   2.0000     -10.304114      -280.3892
  22   2.0000     -10.297942      -280.2212
  23   2.0000     -10.292480      -280.0726
  24   2.0000     -10.292061      -280.0612
  25   2.0000     -10.288641      -279.9682
  26   2.0000     -10.287533      -279.9380
  27   2.0000     -10.287213      -279.9293
  28   2.0000     -10.281774      -279.7813
  29   2.0000     -10.281259      -279.7673
  30   2.0000     -10.281051      -279.7616
  31   2.0000     -10.279017      -279.7063
  32   2.0000     -10.278670      -279.6968
  33   2.0000     -10.278020      -279.6791
  34   2.0000     -10.276885      -279.6483
  35   2.0000     -10.276427      -279.6358
  36   2.0000     -10.276200      -279.6296
  37   2.0000     -10.274999      -279.5969
  38   2.0000     -10.271579      -279.5039
  39   2.0000     -10.270664      -279.4790
  40   2.0000     -10.270181      -279.4658
  41   2.0000     -10.269984      -279.4605
  42   2.0000     -10.268315      -279.4151
  43   2.0000     -10.267812      -279.4014
  44   2.0000     -10.267729      -279.3991
  45   2.0000     -10.266677      -279.3705
  46   2.0000     -10.263372      -279.2806
  47   2.0000     -10.262478      -279.2562
  48   2.0000     -10.262103      -279.2460
  49   2.0000     -10.260083      -279.1911
  50   2.0000     -10.258898      -279.1588
  51   2.0000     -10.257685      -279.1258
  52   2.0000     -10.256999      -279.1071
  53   2.0000     -10.256770      -279.1009
  54   2.0000     -10.254103      -279.0283
  55   2.0000     -10.253628      -279.0154
  56   2.0000     -10.252639      -278.9885
  57   2.0000     -10.251480      -278.9570
  58   2.0000     -10.250124      -278.9200
  59   2.0000     -10.249737      -278.9095
  60   2.0000     -10.245304      -278.7889
  61   2.0000      -8.050763      -219.0724
  62   2.0000      -8.045577      -218.9313
  63   2.0000      -8.039374      -218.7625
  64   2.0000      -8.028265      -218.4602
  65   2.0000      -8.007311      -217.8900
  66   2.0000      -7.997568      -217.6249
  67   2.0000      -6.019933      -163.8107
  68   2.0000      -6.015703      -163.6956
  69   2.0000      -6.014804      -163.6711
  70   2.0000      -6.013378      -163.6323
  71   2.0000      -6.010805      -163.5623
  72   2.0000      -6.008899      -163.5105
  73   2.0000      -6.007883      -163.4828
  74   2.0000      -6.004759      -163.3978
  75   2.0000      -6.001007      -163.2957
  76   2.0000      -5.997643      -163.2042
  77   2.0000      -5.993532      -163.0923
  78   2.0000      -5.990274      -163.0036
  79   2.0000      -5.977708      -162.6617
  80   2.0000      -5.973374      -162.5438
  81   2.0000      -5.967955      -162.3963
  82   2.0000      -5.967316      -162.3789
  83   2.0000      -5.964251      -162.2955
  84   2.0000      -5.957193      -162.1035
  85   2.0000      -1.183189       -32.1962
  86   2.0000      -1.144771       -31.1508
  87   2.0000      -1.117187       -30.4002
  88   2.0000      -1.068124       -29.0651
  89   2.0000      -1.055785       -28.7294
  90   2.0000      -1.009061       -27.4580
  91   2.0000      -0.984118       -26.7792
  92   2.0000      -0.976021       -26.5589
  93   2.0000      -0.970961       -26.4212
  94   2.0000      -0.950415       -25.8621
  95   2.0000      -0.947552       -25.7842
  96   2.0000      -0.935688       -25.4614
  97   2.0000      -0.917268       -24.9601
  98   2.0000      -0.898850       -24.4590
  99   2.0000      -0.891714       -24.2648
 100   2.0000      -0.883277       -24.0352
 101   2.0000      -0.879131       -23.9224
 102   2.0000      -0.873659       -23.7735
 103   2.0000      -0.865484       -23.5510
 104   2.0000      -0.860236       -23.4082
 105   2.0000      -0.848400       -23.0861
 106   2.0000      -0.839894       -22.8547
 107   2.0000      -0.832009       -22.6401
 108   2.0000      -0.830248       -22.5922
 109   2.0000      -0.828561       -22.5463
 110   2.0000      -0.825446       -22.4615
 111   2.0000      -0.817537       -22.2463
 112   2.0000      -0.812673       -22.1140
 113   2.0000      -0.806944       -21.9581
 114   2.0000      -0.798232       -21.7210
 115   2.0000      -0.787187       -21.4204
 116   2.0000      -0.782881       -21.3033
 117   2.0000      -0.775323       -21.0976
 118   2.0000      -0.765418       -20.8281
 119   2.0000      -0.762967       -20.7614
 120   2.0000      -0.749144       -20.3852
 121   2.0000      -0.735960       -20.0265
 122   2.0000      -0.726407       -19.7665
 123   2.0000      -0.723178       -19.6787
 124   2.0000      -0.717764       -19.5313
 125   2.0000      -0.705511       -19.1979
 126   2.0000      -0.702971       -19.1288
 127   2.0000      -0.700165       -19.0524
 128   2.0000      -0.696180       -18.9440
 129   2.0000      -0.679189       -18.4817
 130   2.0000      -0.678010       -18.4496
 131   2.0000      -0.668152       -18.1813
 132   2.0000      -0.662925       -18.0391
 133   2.0000      -0.659267       -17.9396
 134   2.0000      -0.657266       -17.8851
 135   2.0000      -0.650765       -17.7082
 136   2.0000      -0.644456       -17.5366
 137   2.0000      -0.640293       -17.4232
 138   2.0000      -0.622636       -16.9428
 139   2.0000      -0.621796       -16.9199
 140   2.0000      -0.616705       -16.7814
 141   2.0000      -0.615094       -16.7376
 142   2.0000      -0.608957       -16.5706
 143   2.0000      -0.600403       -16.3378
 144   2.0000      -0.595085       -16.1931
 145   2.0000      -0.594300       -16.1717
 146   2.0000      -0.591130       -16.0855
 147   2.0000      -0.578344       -15.7375
 148   2.0000      -0.572294       -15.5729
 149   2.0000      -0.563389       -15.3306
 150   2.0000      -0.560351       -15.2479
 151   2.0000      -0.555583       -15.1182
 152   2.0000      -0.551201       -14.9989
 153   2.0000      -0.549718       -14.9586
 154   2.0000      -0.548564       -14.9272
 155   2.0000      -0.546465       -14.8701
 156   2.0000      -0.542896       -14.7729
 157   2.0000      -0.536222       -14.5913
 158   2.0000      -0.535108       -14.5610
 159   2.0000      -0.530835       -14.4447
 160   2.0000      -0.529932       -14.4202
 161   2.0000      -0.525458       -14.2984
 162   2.0000      -0.522317       -14.2130
 163   2.0000      -0.516684       -14.0597
 164   2.0000      -0.514221       -13.9927
 165   2.0000      -0.511469       -13.9178
 166   2.0000      -0.510326       -13.8867
 167   2.0000      -0.507656       -13.8140
 168   2.0000      -0.506635       -13.7862
 169   2.0000      -0.504453       -13.7269
 170   2.0000      -0.504339       -13.7238
 171   2.0000      -0.499978       -13.6051
 172   2.0000      -0.498719       -13.5708
 173   2.0000      -0.496009       -13.4971
 174   2.0000      -0.491861       -13.3842
 175   2.0000      -0.491081       -13.3630
 176   2.0000      -0.487609       -13.2685
 177   2.0000      -0.486266       -13.2320
 178   2.0000      -0.485739       -13.2176
 179   2.0000      -0.481628       -13.1058
 180   2.0000      -0.479491       -13.0476
 181   2.0000      -0.475881       -12.9494
 182   2.0000      -0.475099       -12.9281
 183   2.0000      -0.468081       -12.7371
 184   2.0000      -0.466210       -12.6862
 185   2.0000      -0.464854       -12.6493
 186   2.0000      -0.462155       -12.5759
 187   2.0000      -0.459665       -12.5081
 188   2.0000      -0.458321       -12.4716
 189   2.0000      -0.454620       -12.3708
 190   2.0000      -0.453530       -12.3412
 191   2.0000      -0.452666       -12.3177
 192   2.0000      -0.450355       -12.2548
 193   2.0000      -0.449664       -12.2360
 194   2.0000      -0.446524       -12.1505
 195   2.0000      -0.444096       -12.0845
 196   2.0000      -0.441449       -12.0124
 197   2.0000      -0.439588       -11.9618
 198   2.0000      -0.438079       -11.9207
 199   2.0000      -0.437097       -11.8940
 200   2.0000      -0.435665       -11.8551
 201   2.0000      -0.432480       -11.7684
 202   2.0000      -0.429380       -11.6840
 203   2.0000      -0.427642       -11.6367
 204   2.0000      -0.425411       -11.5760
 205   2.0000      -0.422766       -11.5040
 206   2.0000      -0.419028       -11.4023
 207   2.0000      -0.418857       -11.3977
 208   2.0000      -0.418609       -11.3909
 209   2.0000      -0.417065       -11.3489
 210   2.0000      -0.415527       -11.3071
 211   2.0000      -0.411683       -11.2025
 212   2.0000      -0.407524       -11.0893
 213   2.0000      -0.402389       -10.9496
 214   2.0000      -0.398615       -10.8469
 215   2.0000      -0.397787       -10.8243
 216   2.0000      -0.395013       -10.7489
 217   2.0000      -0.394731       -10.7412
 218   2.0000      -0.387182       -10.5358
 219   2.0000      -0.376234       -10.2379
 220   2.0000      -0.370377       -10.0785
 221   2.0000      -0.363840        -9.9006
 222   2.0000      -0.357720        -9.7341
 223   2.0000      -0.352823        -9.6008
 224   2.0000      -0.346189        -9.4203
 225   2.0000      -0.336456        -9.1554
 226   2.0000      -0.331734        -9.0269
 227   2.0000      -0.319944        -8.7061
 228   2.0000      -0.316958        -8.6249
 229   2.0000      -0.316677        -8.6172
 230   2.0000      -0.309875        -8.4321
 231   2.0000      -0.294478        -8.0132
 232   2.0000      -0.291335        -7.9276
 233   2.0000      -0.284946        -7.7538
 234   2.0000      -0.278103        -7.5676
 235   2.0000      -0.270403        -7.3580
 236   2.0000      -0.262729        -7.1492
 237   2.0000      -0.258111        -7.0236
 238   2.0000      -0.253483        -6.8976
 239   2.0000      -0.204584        -5.5670
 240   2.0000      -0.195490        -5.3196
 241   0.0000      -0.059647        -1.6231
 242   0.0000      -0.033619        -0.9148
 243   0.0000       0.000752         0.0205
 244   0.0000       0.008200         0.2231
 245   0.0000       0.014928         0.4062

MULLIKEN ATOMIC CHARGES
-----------------------
   0 C :   -0.102210
   1 S :    0.142545
   2 C :   -0.057577
   3 C :   -0.037103
   4 C :    0.047492
   5 C :    0.166072
   6 O :   -0.146618
   7 C :    0.015424
   8 C :   -0.062304
   9 C :   -0.033523
  10 C :   -0.067154
  11 C :    0.169832
  12 C :    0.190065
  13 O :   -0.262784
  14 C :    0.217788
  15 C :    0.230737
  16 C :   -0.183453
  17 S :    0.096939
  18 C :   -0.177480
  19 O :   -0.263744
  20 C :   -0.129868
  21 C :    0.114626
  22 N :   -0.205274
  23 C :    0.094842
  24 C :    0.005326
  25 C :    0.182229
  26 C :   -0.031605
  27 C :   -0.020780
  28 C :    0.095284
  29 C :    0.026814
  30 C :   -0.095886
  31 C :    0.008274
  32 C :   -0.004488
  33 N :   -0.215763
  34 C :    0.092377
  35 C :    0.018071
  36 C :   -0.094894
  37 S :    0.077588
  38 C :   -0.107306
  39 C :    0.140361
  40 C :    0.129200
  41 C :    0.022492
  42 C :   -0.135622
  43 S :   -0.032846
  44 C :   -0.092891
  45 C :    0.016947
  46 C :    0.027204
  47 S :    0.002565
  48 C :   -0.119625
  49 C :    0.032486
  50 C :   -0.106783
  51 C :   -0.025871
  52 C :   -0.036910
  53 C :   -0.146495
  54 S :    0.072501
  55 C :   -0.055499
  56 C :    0.011827
  57 C :    0.067146
  58 N :   -0.147811
  59 C :    0.080083
  60 C :   -0.015461
  61 H :    0.022684
  62 H :   -0.009781
  63 H :   -0.019807
  64 H :   -0.021075
  65 H :    0.010970
  66 H :    0.018691
  67 H :    0.018953
  68 H :   -0.004104
  69 H :    0.019720
  70 H :    0.026517
  71 H :    0.014678
  72 H :    0.023348
  73 H :    0.017388
  74 H :    0.023411
  75 H :   -0.020823
  76 H :   -0.036506
  77 H :   -0.022576
  78 H :    0.003213
  79 H :    0.025204
  80 H :    0.025937
  81 H :    0.027289
  82 H :    0.027818
  83 H :    0.027988
  84 H :    0.016644
  85 H :    0.018452
  86 H :   -0.023789
  87 H :    0.036729
  88 H :    0.047976
  89 H :    0.023839
  90 H :    0.027718
  91 H :    0.021402
  92 H :    0.048050
  93 H :    0.051807
  94 H :    0.022619
  95 H :    0.019618
  96 H :    0.029484
  97 H :   -0.048928
  98 H :   -0.017897
  99 H :   -0.004944
 100 H :    0.019023
 101 H :   -0.037558
 102 H :    0.095559
 103 H :    0.021658
 104 H :    0.008582
 105 H :    0.028562
 106 H :    0.011812
 107 H :    0.004937
Sum of atomic charges:   -0.0000000

LOEWDIN ATOMIC CHARGES
----------------------
   0 C :   -0.198245
   1 S :    0.448169
   2 C :   -0.161744
   3 C :   -0.128663
   4 C :   -0.030491
   5 C :    0.107623
   6 O :   -0.127091
   7 C :   -0.042309
   8 C :   -0.040000
   9 C :   -0.043256
  10 C :   -0.016458
  11 C :   -0.009245
  12 C :    0.057729
  13 O :   -0.053892
  14 C :   -0.008780
  15 C :   -0.005212
  16 C :   -0.218398
  17 S :    0.424449
  18 C :   -0.215456
  19 O :   -0.062735
  20 C :   -0.133905
  21 C :    0.054803
  22 N :    0.000412
  23 C :    0.043481
  24 C :   -0.064944
  25 C :    0.015872
  26 C :   -0.032850
  27 C :   -0.036283
  28 C :    0.008392
  29 C :   -0.029611
  30 C :   -0.020953
  31 C :   -0.019523
  32 C :   -0.029256
  33 N :   -0.026356
  34 C :    0.034298
  35 C :   -0.064765
  36 C :   -0.111895
  37 S :    0.428116
  38 C :   -0.204989
  39 C :   -0.029250
  40 C :   -0.092497
  41 C :   -0.006753
  42 C :   -0.194323
  43 S :    0.256294
  44 C :   -0.126032
  45 C :   -0.070896
  46 C :   -0.158977
  47 S :    0.305681
  48 C :   -0.140994
  49 C :   -0.072369
  50 C :   -0.063864
  51 C :   -0.054224
  52 C :   -0.069848
  53 C :   -0.205141
  54 S :    0.405952
  55 C :   -0.181142
  56 C :   -0.090223
  57 C :   -0.025997
  58 N :   -0.056505
  59 C :    0.025778
  60 C :   -0.072497
  61 H :    0.019792
  62 H :    0.035718
  63 H :    0.026571
  64 H :    0.027850
  65 H :    0.031520
  66 H :    0.026413
  67 H :    0.026482
  68 H :    0.031338
  69 H :    0.031266
  70 H :    0.025658
  71 H :    0.024825
  72 H :    0.027187
  73 H :    0.028567
  74 H :    0.017436
  75 H :    0.030518
  76 H :    0.028663
  77 H :    0.033282
  78 H :    0.029348
  79 H :    0.024065
  80 H :    0.027085
  81 H :    0.029819
  82 H :    0.016743
  83 H :    0.023967
  84 H :    0.023267
  85 H :    0.029068
  86 H :    0.031709
  87 H :    0.016186
  88 H :    0.010836
  89 H :    0.030000
  90 H :    0.027347
  91 H :    0.023825
  92 H :    0.028943
  93 H :    0.020043
  94 H :    0.027134
  95 H :    0.026743
  96 H :    0.026495
  97 H :    0.021864
  98 H :    0.022009
  99 H :    0.021582
 100 H :    0.020819
 101 H :    0.023001
 102 H :    0.063615
 103 H :    0.024346
 104 H :    0.017761
 105 H :    0.027603
 106 H :    0.025651
 107 H :    0.017824

  Mayer bond orders larger than 0.100000
B(  0-C ,  1-S ) :   1.1340 B(  0-C ,  4-C ) :   1.5600 B(  0-C , 61-H ) :   0.9685
B(  1-S ,  2-C ) :   1.1504 B(  2-C ,  3-C ) :   1.4770 B(  2-C ,  8-C ) :   1.0438
B(  3-C ,  4-C ) :   1.2696 B(  3-C ,  5-C ) :   0.9766 B(  4-C , 62-H ) :   1.0039
B(  5-C ,  6-O ) :   2.1803 B(  5-C ,  7-C ) :   0.9057 B(  7-C ,  8-C ) :   1.5970
B(  7-C ,  9-C ) :   1.1453 B(  8-C , 63-H ) :   1.0256 B(  9-C , 10-C ) :   1.5922
B(  9-C , 64-H ) :   0.9908 B( 10-C , 11-C ) :   1.1843 B( 10-C , 65-H ) :   0.9433
B( 11-C , 12-C ) :   1.4363 B( 11-C , 19-O ) :   1.0267 B( 12-C , 13-O ) :   1.0609
B( 12-C , 20-C ) :   1.2110 B( 13-O , 14-C ) :   1.0480 B( 14-C , 15-C ) :   1.1987
B( 14-C , 18-C ) :   1.5692 B( 15-C , 16-C ) :   1.5674 B( 15-C , 19-O ) :   1.0804
B( 16-C , 17-S ) :   1.1332 B( 16-C , 66-H ) :   0.9724 B( 17-S , 18-C ) :   1.1395
B( 18-C , 67-H ) :   0.9730 B( 20-C , 21-C ) :   1.5928 B( 20-C , 68-H ) :   0.9418
B( 21-C , 22-N ) :   1.1812 B( 21-C , 69-H ) :   0.9561 B( 22-N , 23-C ) :   0.9694
B( 22-N , 25-C ) :   0.9770 B( 23-C , 24-C ) :   1.1141 B( 23-C , 70-H ) :   0.9406
B( 23-C , 71-H ) :   0.9454 B( 24-C , 72-H ) :   0.9620 B( 24-C , 73-H ) :   0.9633
B( 24-C , 74-H ) :   0.9559 B( 25-C , 26-C ) :   1.3671 B( 25-C , 30-C ) :   1.3375
B( 26-C , 27-C ) :   1.3594 B( 26-C , 75-H ) :   0.9912 B( 27-C , 28-C ) :   1.3720
B( 27-C , 76-H ) :   0.9907 B( 28-C , 29-C ) :   1.3728 B( 28-C , 33-N ) :   1.0066
B( 29-C , 30-C ) :   1.3512 B( 29-C , 31-C ) :   1.0343 B( 30-C , 77-H ) :   1.0021
B( 31-C , 32-C ) :   1.9806 B( 31-C , 78-H ) :   0.9439 B( 32-C , 79-H ) :   0.9530
B( 32-C , 80-H ) :   0.9526 B( 33-N , 34-C ) :   0.9552 B( 33-N , 36-C ) :   1.1435
B( 34-C , 35-C ) :   1.1103 B( 34-C , 81-H ) :   0.9488 B( 34-C , 82-H ) :   0.9390
B( 35-C , 83-H ) :   0.9570 B( 35-C , 84-H ) :   0.9676 B( 35-C , 85-H ) :   0.9639
B( 36-C , 37-S ) :   1.1451 B( 36-C , 40-C ) :   1.3368 B( 37-S , 38-C ) :   1.0505
B( 38-C , 39-C ) :   1.3754 B( 38-C , 51-C ) :   1.1964 B( 39-C , 40-C ) :   1.1991
B( 39-C , 50-C ) :   1.1994 B( 40-C , 41-C ) :   1.1547 B( 41-C , 42-C ) :   1.5871
B( 41-C , 86-H ) :   0.9861 B( 42-C , 43-S ) :   1.0407 B( 42-C , 46-C ) :   1.2192
B( 43-S , 44-C ) :   0.9831 B( 44-C , 45-C ) :   1.0873 B( 44-C , 87-H ) :   0.9534
B( 44-C , 88-H ) :   0.9483 B( 45-C , 89-H ) :   0.9676 B( 45-C , 90-H ) :   0.9708
B( 45-C , 91-H ) :   0.9709 B( 46-C , 47-S ) :   1.0230 B( 46-C , 50-C ) :   1.5292
B( 47-S , 48-C ) :   1.0097 B( 48-C , 49-C ) :   1.0602 B( 48-C , 92-H ) :   0.9537
B( 48-C , 93-H ) :   0.9452 B( 49-C , 94-H ) :   0.9681 B( 49-C , 95-H ) :   0.9629
B( 49-C , 96-H ) :   0.9735 B( 50-C , 97-H ) :   0.9844 B( 51-C , 52-C ) :   1.6365
B( 51-C , 98-H ) :   0.9635 B( 52-C , 53-C ) :   1.1600 B( 52-C , 99-H ) :   0.9660
B( 53-C , 54-S ) :   1.0915 B( 53-C , 57-C ) :   1.4870 B( 54-S , 55-C ) :   1.1611
B( 55-C , 56-C ) :   1.5638 B( 55-C ,100-H ) :   0.9685 B( 56-C , 57-C ) :   1.2319
B( 56-C ,101-H ) :   0.9957 B( 57-C , 58-N ) :   1.1617 B( 58-N , 59-C ) :   1.0195
B( 58-N ,102-H ) :   0.9394 B( 59-C , 60-C ) :   1.0970 B( 59-C ,103-H ) :   0.9516
B( 59-C ,104-H ) :   0.9580 B( 60-C ,105-H ) :   0.9707 B( 60-C ,106-H ) :   0.9621
B( 60-C ,107-H ) :   0.9687

-----------------------------------------------------------------------------
         ABSORPTION SPECTRUM VIA TRANSITION ELECTRIC DIPOLE MOMENTS
-----------------------------------------------------------------------------
State   Energy  Wavelength   fosc         T2         TX        TY        TZ
        (cm-1)    (nm)                  (au**2)     (au)      (au)      (au)
-----------------------------------------------------------------------------
   0   13816.5    723.8   0.445958122  10.62606   1.84503  -1.84005   1.95861
   1   18966.9    527.2   0.765906103  13.29401   0.37279  -1.31194   3.38140
   2   21829.4    458.1   0.013037863   0.19663  -0.35791  -0.21875  -0.14380
   3   24292.1    411.7   0.104936827   1.42213  -0.18744  -0.99163   0.63534
   4   25506.0    392.1   0.064967516   0.83855  -0.55635   0.09521  -0.72108
   5   26127.0    382.7   0.065458693   0.82481   0.19728   0.65338  -0.59915
   6   26504.6    377.3   0.000031027   0.00039   0.00851   0.00106  -0.01766
   7   28055.6    356.4   0.451170040   5.29415  -0.85481   1.19248  -1.77241
   8   29380.7    340.4   0.533915720   5.98254   0.68040  -1.84178   1.45858
   9   29915.2    334.3   0.135408945   1.49015  -0.75022  -0.74265   0.61302
  10   30062.9    332.6   0.012586529   0.13783   0.09214   0.29193   0.21005
  11   31429.3    318.2   0.008136270   0.08522  -0.13023   0.09627   0.24289
  12   31526.3    317.2   0.421361174   4.40004  -1.46179   1.49386  -0.17773
  13   31999.4    312.5   0.020209791   0.20792  -0.30166   0.21812   0.26334
  14   34269.8    291.8   0.052470558   0.50406  -0.32573  -0.54401   0.31938
  15   34276.7    291.7   0.014658626   0.14079   0.23326  -0.23755   0.17306
  16   34674.7    288.4   0.177387767   1.68417   1.06061  -0.45318   0.59491
  17   35211.6    284.0   0.003437789   0.03214   0.16126   0.04686  -0.06277
  18   35301.7    283.3   0.013854806   0.12921  -0.17451  -0.17299   0.26235
  19   35552.5    281.3   0.007770358   0.07195   0.14791  -0.07467  -0.21095
  20   35930.9    278.3   0.009057678   0.08299  -0.02234   0.28720   0.00254
  21   36107.2    277.0   0.052308875   0.47693  -0.22723   0.64726  -0.07974
  22   36506.7    273.9   0.089058864   0.80312   0.07527  -0.78792   0.42027
  23   36859.9    271.3   0.073523925   0.65668  -0.58755   0.31218  -0.46261
  24   37464.5    266.9   0.005743791   0.05047  -0.08170   0.14519  -0.15073
  25   37863.1    264.1   0.006836858   0.05945   0.14476  -0.03464  -0.19310
  26   38203.7    261.8   0.042161878   0.36332   0.21884  -0.01261   0.56149
  27   38373.5    260.6   0.076120049   0.65304   0.30440   0.59746  -0.45102
  28   39164.7    255.3   0.014356775   0.12068  -0.08822   0.29870  -0.15386
  29   39300.7    254.4   0.133488753   1.11820  -0.84420   0.34786  -0.53341
  30   39987.1    250.1   0.047100660   0.38778   0.22228   0.51956   0.26158
  31   40072.3    249.5   0.193923886   1.59317  -0.93209   0.63263   0.56936

FINAL SINGLE POINT ENERGY     -4670.820650988056

DIPOLE MOMENT
-------------
                                X             Y             Z
Electronic contribution:    -19.30754     -59.64680      57.15862
Nuclear contribution   :     19.37096      61.79522     -57.99922
                        -----------------------------------------
Total Dipole Moment    :      0.06341       2.14842      -0.84059
                        -----------------------------------------
Magnitude (a.u.)       :      2.30788
Magnitude (Debye)      :      5.86617

Rotational constants in cm-1:     0.001759     0.000377     0.000346
Rotational constants in MHz :    52.720806    11.314284    10.361644

                             ****ORCA TERMINATED NORMALLY****
TOTAL RUN TIME: 0 days 0 hours 9 minutes 25 seconds 179 msec
