                         Program Version 4.2.0 -  RELEASE  -
|  1> # ORCA input file
|  2> # SCF done       -173.335768095775          0.000272488460
|  3> ! CAM-B3LYP def2-SVP def2/J RIJCOSX Grid4 TightSCF
|  4> %maxcore 5000
|  5> %tddft
|  6>     Mode sTDDFT
|  7>     Ethresh 5.0
|  8>     maxcore 5000
|  9> end
| 10>
| 11> %pal
| 12>   nprocs 6
| 13>   end
| 14> * xyz 0 1
| 15>    C       -0.08471         9.51534        -9.44929
| 16>    S        0.33193        10.93151        -8.53761
| 17>    C       -1.10927        10.78530        -7.62809
| 18>    C       -1.86363         9.68848        -8.02382
| 19>    C       -1.27111         8.96204        -9.07116
| 20>    C       -3.07074         9.65121        -7.18948
| 21>    O       -3.98114         8.85673        -7.22496
| 22>    C       -2.92509        10.85171        -6.26267
| 23>    C       -1.75013        11.49064        -6.56404
| 24>    C       -3.84873        11.23143        -5.26482
| 25>    C       -4.99817        10.55664        -4.97716
| 26>    C       -5.92549        10.91379        -3.98241
| 27>    S       -7.36707         9.94505        -3.74600
| 28>    C       -7.99102        10.93299        -2.45279
| 29>    C       -7.09668        11.97055        -2.19501
| 30>    C       -5.95630        11.95059        -3.05336
| 31>    N       -5.16678        12.97704        -2.65182
| 32>    N       -5.69745        13.61937        -1.59882
| 33>    C       -6.83497        13.04774        -1.30373
| 34>    C       -9.21300        10.56851        -1.82356
| 35>    S       -9.58611         8.88140        -1.61812
| 36>    C      -11.08349         9.24871        -0.80909
| 37>    C      -11.28820        10.61932        -0.75823
| 38>    C      -10.23637        11.35842        -1.32888
| 39>    C      -10.29983        12.84522        -1.50667
| 40>    C      -11.29135        13.48662        -0.53447
| 41>    C      -10.69835        13.55247         0.86759
| 42>    F      -10.23287        12.39239         1.34481
| 43>    F       -9.66029        14.40841         0.90814
| 44>    F      -11.58890        14.00019         1.76961
| 45>    C      -12.62603        12.74103        -0.57202
| 46>    C      -12.48916        11.27779        -0.15150
| 47>    C      -11.83868         8.13920        -0.33802
| 48>    C      -12.89874         8.14275         0.50088
| 49>    C      -13.56714         6.96110         0.92835
| 50>    S      -13.05478         5.37825         0.40818
| 51>    C      -14.29145         4.61651         1.36343
| 52>    C      -15.05329         5.54456         2.03539
| 53>    C      -14.64279         6.87239         1.79095
| 54>    C      -15.26879         8.04540         2.48167
| 55>    C      -16.55033         7.65098         3.20917
| 56>    C      -16.36318         6.34971         3.98905
| 57>    O      -17.51745         6.17571         4.78281
| 58>    C      -17.45936         5.10755         5.69484
| 59>    C      -16.15438         5.20517         2.98829
| 60>    C      -14.34094         3.17832         1.45718
| 61>    S      -12.94476         2.31554         2.02704
| 62>    C      -13.79030         0.79567         1.96465
| 63>    C      -15.07125         0.96564         1.49156
| 64>    C      -15.37463         2.31609         1.19240
| 65>    C      -16.65605         2.72876         0.53379
| 66>    C      -17.75974         1.69437         0.76081
| 67>    C      -18.30328         1.80291         2.17999
| 68>    F      -17.37650         1.81857         3.14719
| 69>    F      -19.00690         2.94055         2.33432
| 70>    F      -19.14370         0.79931         2.48189
| 71>    C      -17.24543         0.29164         0.43031
| 72>    C      -16.08066        -0.12783         1.32615
| 73>    C      -13.05753        -0.37260         2.38115
| 74>    C      -13.54623        -1.56065         2.72786
| 75>    H        0.58826         9.18405       -10.21481
| 76>    H       -1.69303         8.08182        -9.52060
| 77>    H       -1.36223        12.37203        -6.08664
| 78>    H       -3.59336        12.12404        -4.70598
| 79>    H       -5.23343         9.67137        -5.54990
| 80>    H       -4.27261        13.26785        -3.00817
| 81>    H       -7.39879        13.39658        -0.46227
| 82>    H      -10.63552        13.05860        -2.52693
| 83>    H       -9.31423        13.29316        -1.39418
| 84>    H      -11.45288        14.53336        -0.81686
| 85>    H      -12.99741        12.79197        -1.59725
| 86>    H      -13.35091        13.23904         0.07432
| 87>    H      -13.39170        10.74020        -0.45074
| 88>    H      -12.41063        11.21409         0.93832
| 89>    H      -11.47801         7.17626        -0.68137
| 90>    H      -13.27794         9.06018         0.91928
| 91>    H      -15.48615         8.83711         1.76052
| 92>    H      -14.54845         8.44751         3.20206
| 93>    H      -17.36363         7.50541         2.49652
| 94>    H      -16.85043         8.43893         3.89995
| 95>    H      -15.47486         6.42822         4.64095
| 96>    H      -18.32584         5.21749         6.34440
| 97>    H      -16.54405         5.15094         6.29804
| 98>    H      -17.50949         4.13461         5.19502
| 99>    H      -17.10294         5.07246         2.45722
|100>    H      -15.92295         4.26640         3.49623
|101>    H      -16.48165         2.81197        -0.54373
|102>    H      -16.97266         3.71108         0.88385
|103>    H      -18.61639         1.92569         0.11709
|104>    H      -16.91919         0.30275        -0.61136
|105>    H      -18.05517        -0.43430         0.52275
|106>    H      -15.60046        -1.01139         0.90011
|107>    H      -16.46144        -0.40426         2.31440
|108>    H      -11.98639        -0.21646         2.42845
|109>    H      -14.59637        -1.78266         2.75681
|110>    H      -12.88444        -2.35612         3.02397
|111> *
|112>
|113>                          ****END OF INPUT****

CARTESIAN COORDINATES (ANGSTROEM)
---------------------------------
  C     -0.084710    9.515340   -9.449290
  S      0.331930   10.931510   -8.537610
  C     -1.109270   10.785300   -7.628090
  C     -1.863630    9.688480   -8.023820
  C     -1.271110    8.962040   -9.071160
  C     -3.070740    9.651210   -7.189480
  O     -3.981140    8.856730   -7.224960
  C     -2.925090   10.851710   -6.262670
  C     -1.750130   11.490640   -6.564040
  C     -3.848730   11.231430   -5.264820
  C     -4.998170   10.556640   -4.977160
  C     -5.925490   10.913790   -3.982410
  S     -7.367070    9.945050   -3.746000
  C     -7.991020   10.932990   -2.452790
  C     -7.096680   11.970550   -2.195010
  C     -5.956300   11.950590   -3.053360
  N     -5.166780   12.977040   -2.651820
  N     -5.697450   13.619370   -1.598820
  C     -6.834970   13.047740   -1.303730
  C     -9.213000   10.568510   -1.823560
  S     -9.586110    8.881400   -1.618120
  C    -11.083490    9.248710   -0.809090
  C    -11.288200   10.619320   -0.758230
  C    -10.236370   11.358420   -1.328880
  C    -10.299830   12.845220   -1.506670
  C    -11.291350   13.486620   -0.534470
  C    -10.698350   13.552470    0.867590
  F    -10.232870   12.392390    1.344810
  F     -9.660290   14.408410    0.908140
  F    -11.588900   14.000190    1.769610
  C    -12.626030   12.741030   -0.572020
  C    -12.489160   11.277790   -0.151500
  C    -11.838680    8.139200   -0.338020
  C    -12.898740    8.142750    0.500880
  C    -13.567140    6.961100    0.928350
  S    -13.054780    5.378250    0.408180
  C    -14.291450    4.616510    1.363430
  C    -15.053290    5.544560    2.035390
  C    -14.642790    6.872390    1.790950
  C    -15.268790    8.045400    2.481670
  C    -16.550330    7.650980    3.209170
  C    -16.363180    6.349710    3.989050
  O    -17.517450    6.175710    4.782810
  C    -17.459360    5.107550    5.694840
  C    -16.154380    5.205170    2.988290
  C    -14.340940    3.178320    1.457180
  S    -12.944760    2.315540    2.027040
  C    -13.790300    0.795670    1.964650
  C    -15.071250    0.965640    1.491560
  C    -15.374630    2.316090    1.192400
  C    -16.656050    2.728760    0.533790
  C    -17.759740    1.694370    0.760810
  C    -18.303280    1.802910    2.179990
  F    -17.376500    1.818570    3.147190
  F    -19.006900    2.940550    2.334320
  F    -19.143700    0.799310    2.481890
  C    -17.245430    0.291640    0.430310
  C    -16.080660   -0.127830    1.326150
  C    -13.057530   -0.372600    2.381150
  C    -13.546230   -1.560650    2.727860
  H      0.588260    9.184050  -10.214810
  H     -1.693030    8.081820   -9.520600
  H     -1.362230   12.372030   -6.086640
  H     -3.593360   12.124040   -4.705980
  H     -5.233430    9.671370   -5.549900
  H     -4.272610   13.267850   -3.008170
  H     -7.398790   13.396580   -0.462270
  H    -10.635520   13.058600   -2.526930
  H     -9.314230   13.293160   -1.394180
  H    -11.452880   14.533360   -0.816860
  H    -12.997410   12.791970   -1.597250
  H    -13.350910   13.239040    0.074320
  H    -13.391700   10.740200   -0.450740
  H    -12.410630   11.214090    0.938320
  H    -11.478010    7.176260   -0.681370
  H    -13.277940    9.060180    0.919280
  H    -15.486150    8.837110    1.760520
  H    -14.548450    8.447510    3.202060
  H    -17.363630    7.505410    2.496520
  H    -16.850430    8.438930    3.899950
  H    -15.474860    6.428220    4.640950
  H    -18.325840    5.217490    6.344400
  H    -16.544050    5.150940    6.298040
  H    -17.509490    4.134610    5.195020
  H    -17.102940    5.072460    2.457220
  H    -15.922950    4.266400    3.496230
  H    -16.481650    2.811970   -0.543730
  H    -16.972660    3.711080    0.883850
  H    -18.616390    1.925690    0.117090
  H    -16.919190    0.302750   -0.611360
  H    -18.055170   -0.434300    0.522750
  H    -15.600460   -1.011390    0.900110
  H    -16.461440   -0.404260    2.314400
  H    -11.986390   -0.216460    2.428450
  H    -14.596370   -1.782660    2.756810
  H    -12.884440   -2.356120    3.023970

 Total Charge           Charge          ....    0
 Multiplicity           Mult            ....    1
 Number of Electrons    NEL             ....  470
 Basis Dimension        Dim             .... 1040

ORBITAL ENERGIES
----------------

  NO   OCC          E(Eh)            E(eV)
   0   2.0000     -88.963615     -2420.8231
   1   2.0000     -88.958750     -2420.6907
   2   2.0000     -88.947599     -2420.3872
   3   2.0000     -88.942680     -2420.2534
   4   2.0000     -88.942176     -2420.2397
   5   2.0000     -24.800527      -674.8566
   6   2.0000     -24.798596      -674.8041
   7   2.0000     -24.795406      -674.7173
   8   2.0000     -24.795240      -674.7128
   9   2.0000     -24.794785      -674.7004
  10   2.0000     -24.792949      -674.6504
  11   2.0000     -19.216641      -522.9114
  12   2.0000     -19.200189      -522.4637
  13   2.0000     -14.477942      -393.9648
  14   2.0000     -14.432982      -392.7414
  15   2.0000     -10.506999      -285.9100
  16   2.0000     -10.506701      -285.9019
  17   2.0000     -10.360828      -281.9325
  18   2.0000     -10.315193      -280.6907
  19   2.0000     -10.311608      -280.5931
  20   2.0000     -10.307241      -280.4743
  21   2.0000     -10.300170      -280.2819
  22   2.0000     -10.300072      -280.2792
  23   2.0000     -10.298366      -280.2328
  24   2.0000     -10.297415      -280.2069
  25   2.0000     -10.296921      -280.1935
  26   2.0000     -10.296350      -280.1779
  27   2.0000     -10.295220      -280.1472
  28   2.0000     -10.292911      -280.0844
  29   2.0000     -10.292486      -280.0728
  30   2.0000     -10.291436      -280.0442
  31   2.0000     -10.289212      -279.9837
  32   2.0000     -10.287758      -279.9441
  33   2.0000     -10.287153      -279.9277
  34   2.0000     -10.283215      -279.8205
  35   2.0000     -10.282333      -279.7965
  36   2.0000     -10.280097      -279.7357
  37   2.0000     -10.279634      -279.7231
  38   2.0000     -10.279392      -279.7165
  39   2.0000     -10.278652      -279.6964
  40   2.0000     -10.278537      -279.6932
  41   2.0000     -10.278341      -279.6879
  42   2.0000     -10.277295      -279.6594
  43   2.0000     -10.277143      -279.6553
  44   2.0000     -10.277124      -279.6548
  45   2.0000     -10.276949      -279.6500
  46   2.0000     -10.276366      -279.6341
  47   2.0000     -10.275548      -279.6119
  48   2.0000     -10.274128      -279.5732
  49   2.0000     -10.272423      -279.5268
  50   2.0000     -10.272142      -279.5192
  51   2.0000     -10.271624      -279.5051
  52   2.0000     -10.269329      -279.4427
  53   2.0000     -10.269279      -279.4413
  54   2.0000     -10.268078      -279.4086
  55   2.0000     -10.267796      -279.4009
  56   2.0000     -10.260881      -279.2128
  57   2.0000     -10.259502      -279.1753
  58   2.0000     -10.259366      -279.1715
  59   2.0000     -10.254976      -279.0521
  60   2.0000      -8.058923      -219.2945
  61   2.0000      -8.053623      -219.1502
  62   2.0000      -8.043503      -218.8748
  63   2.0000      -8.038225      -218.7312
  64   2.0000      -8.038157      -218.7294
  65   2.0000      -6.028091      -164.0327
  66   2.0000      -6.023818      -163.9164
  67   2.0000      -6.022932      -163.8923
  68   2.0000      -6.021547      -163.8546
  69   2.0000      -6.018658      -163.7760
  70   2.0000      -6.015934      -163.7019
  71   2.0000      -6.012705      -163.6140
  72   2.0000      -6.008746      -163.5063
  73   2.0000      -6.007353      -163.4684
  74   2.0000      -6.007300      -163.4670
  75   2.0000      -6.005516      -163.4184
  76   2.0000      -6.003418      -163.3613
  77   2.0000      -6.003407      -163.3610
  78   2.0000      -6.000378      -163.2786
  79   2.0000      -6.000317      -163.2769
  80   2.0000      -1.386293       -37.7230
  81   2.0000      -1.386147       -37.7190
  82   2.0000      -1.289592       -35.0916
  83   2.0000      -1.289117       -35.0787
  84   2.0000      -1.286139       -34.9976
  85   2.0000      -1.285005       -34.9668
  86   2.0000      -1.138959       -30.9927
  87   2.0000      -1.127149       -30.6713
  88   2.0000      -1.102779       -30.0081
  89   2.0000      -0.994190       -27.0533
  90   2.0000      -0.993081       -27.0231
  91   2.0000      -0.989802       -26.9339
  92   2.0000      -0.974018       -26.5044
  93   2.0000      -0.971828       -26.4448
  94   2.0000      -0.935554       -25.4577
  95   2.0000      -0.932410       -25.3722
  96   2.0000      -0.928034       -25.2531
  97   2.0000      -0.916705       -24.9448
  98   2.0000      -0.905135       -24.6300
  99   2.0000      -0.897777       -24.4297
 100   2.0000      -0.883935       -24.0531
 101   2.0000      -0.876253       -23.8441
 102   2.0000      -0.863349       -23.4929
 103   2.0000      -0.852453       -23.1964
 104   2.0000      -0.849122       -23.1058
 105   2.0000      -0.846401       -23.0317
 106   2.0000      -0.835108       -22.7245
 107   2.0000      -0.833432       -22.6788
 108   2.0000      -0.831193       -22.6179
 109   2.0000      -0.827374       -22.5140
 110   2.0000      -0.816926       -22.2297
 111   2.0000      -0.803730       -21.8706
 112   2.0000      -0.792208       -21.5571
 113   2.0000      -0.778171       -21.1751
 114   2.0000      -0.775597       -21.1051
 115   2.0000      -0.767866       -20.8947
 116   2.0000      -0.755415       -20.5559
 117   2.0000      -0.744156       -20.2495
 118   2.0000      -0.733987       -19.9728
 119   2.0000      -0.726788       -19.7769
 120   2.0000      -0.724040       -19.7021
 121   2.0000      -0.716879       -19.5073
 122   2.0000      -0.710236       -19.3265
 123   2.0000      -0.706053       -19.2127
 124   2.0000      -0.700598       -19.0642
 125   2.0000      -0.697676       -18.9847
 126   2.0000      -0.695758       -18.9325
 127   2.0000      -0.685028       -18.6406
 128   2.0000      -0.675353       -18.3773
 129   2.0000      -0.671395       -18.2696
 130   2.0000      -0.671063       -18.2606
 131   2.0000      -0.667626       -18.1670
 132   2.0000      -0.666901       -18.1473
 133   2.0000      -0.663402       -18.0521
 134   2.0000      -0.658744       -17.9253
 135   2.0000      -0.645067       -17.5532
 136   2.0000      -0.642142       -17.4736
 137   2.0000      -0.632412       -17.2088
 138   2.0000      -0.629473       -17.1288
 139   2.0000      -0.622571       -16.9410
 140   2.0000      -0.616305       -16.7705
 141   2.0000      -0.613023       -16.6812
 142   2.0000      -0.601485       -16.3672
 143   2.0000      -0.599214       -16.3054
 144   2.0000      -0.584196       -15.8968
 145   2.0000      -0.582403       -15.8480
 146   2.0000      -0.572909       -15.5896
 147   2.0000      -0.565603       -15.3908
 148   2.0000      -0.563932       -15.3454
 149   2.0000      -0.557136       -15.1605
 150   2.0000      -0.551925       -15.0187
 151   2.0000      -0.549517       -14.9531
 152   2.0000      -0.548826       -14.9343
 153   2.0000      -0.547974       -14.9111
 154   2.0000      -0.546908       -14.8821
 155   2.0000      -0.545250       -14.8370
 156   2.0000      -0.544163       -14.8074
 157   2.0000      -0.542359       -14.7583
 158   2.0000      -0.541470       -14.7341
 159   2.0000      -0.540372       -14.7043
 160   2.0000      -0.538547       -14.6546
 161   2.0000      -0.533394       -14.5144
 162   2.0000      -0.529580       -14.4106
 163   2.0000      -0.526873       -14.3369
 164   2.0000      -0.526219       -14.3191
 165   2.0000      -0.517780       -14.0895
 166   2.0000      -0.513596       -13.9756
 167   2.0000      -0.513108       -13.9624
 168   2.0000      -0.511249       -13.9118
 169   2.0000      -0.510384       -13.8882
 170   2.0000      -0.506914       -13.7938
 171   2.0000      -0.503702       -13.7064
 172   2.0000      -0.501487       -13.6461
 173   2.0000      -0.500635       -13.6230
 174   2.0000      -0.499142       -13.5824
 175   2.0000      -0.496050       -13.4982
 176   2.0000      -0.495508       -13.4835
 177   2.0000      -0.494514       -13.4564
 178   2.0000      -0.491590       -13.3768
 179   2.0000      -0.488842       -13.3021
 180   2.0000      -0.487010       -13.2522
 181   2.0000      -0.485250       -13.2043
 182   2.0000      -0.484510       -13.1842
 183   2.0000      -0.482642       -13.1333
 184   2.0000      -0.480638       -13.0788
 185   2.0000      -0.478221       -13.0131
 186   2.0000      -0.477408       -12.9909
 187   2.0000      -0.473042       -12.8721
 188   2.0000      -0.468801       -12.7567
 189   2.0000      -0.468247       -12.7417
 190   2.0000      -0.461225       -12.5506
 191   2.0000      -0.460231       -12.5235
 192   2.0000      -0.457553       -12.4506
 193   2.0000      -0.453894       -12.3511
 194   2.0000      -0.450034       -12.2460
 195   2.0000      -0.449590       -12.2340
 196   2.0000      -0.447922       -12.1886
 197   2.0000      -0.442108       -12.0304
 198   2.0000      -0.439383       -11.9562
 199   2.0000      -0.438483       -11.9317
 200   2.0000      -0.433421       -11.7940
 201   2.0000      -0.432385       -11.7658
 202   2.0000      -0.430568       -11.7163
 203   2.0000      -0.427663       -11.6373
 204   2.0000      -0.424816       -11.5598
 205   2.0000      -0.421633       -11.4732
 206   2.0000      -0.418036       -11.3753
 207   2.0000      -0.412768       -11.2320
 208   2.0000      -0.411106       -11.1868
 209   2.0000      -0.408696       -11.1212
 210   2.0000      -0.406325       -11.0567
 211   2.0000      -0.405015       -11.0210
 212   2.0000      -0.401873       -10.9355
 213   2.0000      -0.401141       -10.9156
 214   2.0000      -0.400311       -10.8930
 215   2.0000      -0.393114       -10.6972
 216   2.0000      -0.387981       -10.5575
 217   2.0000      -0.385404       -10.4874
 218   2.0000      -0.370137       -10.0719
 219   2.0000      -0.367545       -10.0014
 220   2.0000      -0.361501        -9.8369
 221   2.0000      -0.359692        -9.7877
 222   2.0000      -0.341062        -9.2808
 223   2.0000      -0.325776        -8.8648
 224   2.0000      -0.324456        -8.8289
 225   2.0000      -0.318656        -8.6711
 226   2.0000      -0.316415        -8.6101
 227   2.0000      -0.311194        -8.4680
 228   2.0000      -0.305594        -8.3156
 229   2.0000      -0.303090        -8.2475
 230   2.0000      -0.297835        -8.1045
 231   2.0000      -0.286794        -7.8041
 232   2.0000      -0.270076        -7.3491
 233   2.0000      -0.243265        -6.6196
 234   2.0000      -0.214263        -5.8304
 235   0.0000      -0.073592        -2.0025
 236   0.0000      -0.042822        -1.1652
 237   0.0000      -0.017324        -0.4714
 238   0.0000       0.000456         0.0124
 239   0.0000       0.033377         0.9082

MULLIKEN ATOMIC CHARGES
-----------------------
   0 C :   -0.103410
   1 S :    0.149020
   2 C :   -0.063020
   3 C :   -0.040244
   4 C :    0.052899
   5 C :    0.164187
   6 O :   -0.129452
   7 C :    0.006706
   8 C :   -0.058322
   9 C :   -0.048898
  10 C :    0.076845
  11 C :   -0.185275
  12 S :    0.166487
  13 C :   -0.159176
  14 C :    0.033811
  15 C :    0.142180
  16 N :   -0.049287
  17 N :   -0.058871
  18 C :   -0.012128
  19 C :   -0.145862
  20 S :    0.133558
  21 C :   -0.117791
  22 C :   -0.078989
  23 C :   -0.062533
  24 C :    0.171385
  25 C :   -0.162473
  26 C :    0.481306
  27 F :   -0.155555
  28 F :   -0.169356
  29 F :   -0.167287
  30 C :    0.071922
  31 C :    0.077485
  32 C :    0.040971
  33 C :   -0.025096
  34 C :   -0.096936
  35 S :    0.118015
  36 C :   -0.190360
  37 C :   -0.020457
  38 C :   -0.115452
  39 C :    0.112199
  40 C :    0.081579
  41 C :    0.059799
  42 O :   -0.371991
  43 C :    0.189536
  44 C :    0.157301
  45 C :   -0.193400
  46 S :    0.135888
  47 C :   -0.149580
  48 C :   -0.063873
  49 C :   -0.043475
  50 C :    0.185386
  51 C :   -0.169877
  52 C :    0.487027
  53 F :   -0.157722
  54 F :   -0.170826
  55 F :   -0.165509
  56 C :    0.058775
  57 C :    0.079082
  58 C :    0.030310
  59 C :   -0.032521
  60 H :    0.027358
  61 H :   -0.005568
  62 H :   -0.020655
  63 H :   -0.075980
  64 H :    0.000155
  65 H :    0.138675
  66 H :    0.006088
  67 H :    0.027841
  68 H :    0.001465
  69 H :    0.030616
  70 H :    0.013670
  71 H :    0.016862
  72 H :    0.021952
  73 H :    0.043460
  74 H :   -0.012784
  75 H :   -0.020927
  76 H :    0.014561
  77 H :    0.019183
  78 H :    0.001395
  79 H :    0.004057
  80 H :   -0.012744
  81 H :    0.024190
  82 H :   -0.004439
  83 H :    0.010295
  84 H :    0.019644
  85 H :    0.018190
  86 H :    0.026065
  87 H :    0.007958
  88 H :    0.030631
  89 H :    0.012972
  90 H :    0.017297
  91 H :    0.021539
  92 H :    0.038178
  93 H :   -0.007120
  94 H :    0.014546
  95 H :    0.022715
Sum of atomic charges:   -0.0000000

LOEWDIN ATOMIC CHARGES
----------------------
   0 C :   -0.194147
   1 S :    0.454114
   2 C :   -0.167140
   3 C :   -0.123252
   4 C :   -0.028856
   5 C :    0.105417
   6 O :   -0.113406
   7 C :   -0.045906
   8 C :   -0.033928
   9 C :   -0.054635
  10 C :   -0.019130
  11 C :   -0.217867
  12 S :    0.463287
  13 C :   -0.180881
  14 C :   -0.097931
  15 C :   -0.012871
  16 N :    0.087557
  17 N :   -0.053024
  18 C :   -0.042041
  19 C :   -0.202194
  20 S :    0.434571
  21 C :   -0.166304
  22 C :   -0.059425
  23 C :   -0.055374
  24 C :   -0.015311
  25 C :   -0.065678
  26 C :    0.163217
  27 F :   -0.049829
  28 F :   -0.067102
  29 F :   -0.065729
  30 C :   -0.019026
  31 C :   -0.033276
  32 C :   -0.052294
  33 C :   -0.039135
  34 C :   -0.176919
  35 S :    0.425171
  36 C :   -0.200550
  37 C :   -0.054880
  38 C :   -0.057634
  39 C :   -0.027468
  40 C :   -0.028063
  41 C :    0.066202
  42 O :   -0.169611
  43 C :    0.066726
  44 C :   -0.038918
  45 C :   -0.202725
  46 S :    0.433967
  47 C :   -0.177495
  48 C :   -0.058645
  49 C :   -0.060986
  50 C :   -0.013591
  51 C :   -0.066274
  52 C :    0.164710
  53 F :   -0.050292
  54 F :   -0.066825
  55 F :   -0.064300
  56 C :   -0.020067
  57 C :   -0.031657
  58 C :   -0.040385
  59 C :   -0.051366
  60 H :    0.021700
  61 H :    0.037458
  62 H :    0.025640
  63 H :    0.015237
  64 H :    0.034034
  65 H :    0.082089
  66 H :    0.021540
  67 H :    0.043070
  68 H :    0.033911
  69 H :    0.044695
  70 H :    0.030626
  71 H :    0.029323
  72 H :    0.034409
  73 H :    0.031613
  74 H :    0.020118
  75 H :    0.029849
  76 H :    0.031120
  77 H :    0.033299
  78 H :    0.024219
  79 H :    0.027413
  80 H :    0.004494
  81 H :    0.022361
  82 H :    0.005253
  83 H :    0.005248
  84 H :    0.029124
  85 H :    0.030944
  86 H :    0.041973
  87 H :    0.033828
  88 H :    0.044171
  89 H :    0.030154
  90 H :    0.028884
  91 H :    0.035636
  92 H :    0.030800
  93 H :    0.028638
  94 H :    0.020367
  95 H :    0.026161

  Mayer bond orders larger than 0.100000
B(  0-C ,  1-S ) :   1.1419 B(  0-C ,  4-C ) :   1.5534 B(  0-C , 60-H ) :   0.9691
B(  1-S ,  2-C ) :   1.1496 B(  2-C ,  3-C ) :   1.4813 B(  2-C ,  8-C ) :   1.0458
B(  3-C ,  4-C ) :   1.2760 B(  3-C ,  5-C ) :   0.9654 B(  4-C , 61-H ) :   1.0046
B(  5-C ,  6-O ) :   2.2088 B(  5-C ,  7-C ) :   0.9020 B(  7-C ,  8-C ) :   1.5989
B(  7-C ,  9-C ) :   1.1957 B(  8-C , 62-H ) :   1.0240 B(  9-C , 10-C ) :   1.5907
B(  9-C , 63-H ) :   0.9680 B( 10-C , 11-C ) :   1.1638 B( 10-C , 64-H ) :   0.9424
B( 11-C , 12-S ) :   1.0899 B( 11-C , 13-C ) :   0.1227 B( 11-C , 15-C ) :   1.3549
B( 12-S , 13-C ) :   1.1798 B( 13-C , 14-C ) :   1.3631 B( 13-C , 19-C ) :   1.1002
B( 14-C , 15-C ) :   1.2538 B( 14-C , 18-C ) :   1.1386 B( 15-C , 16-N ) :   1.1571
B( 16-N , 17-N ) :   1.1250 B( 16-N , 65-H ) :   0.9484 B( 17-N , 18-C ) :   1.7475
B( 18-C , 66-H ) :   0.9833 B( 19-C , 20-S ) :   1.1253 B( 19-C , 21-C ) :   0.1143
B( 19-C , 23-C ) :   1.5387 B( 20-S , 21-C ) :   1.1145 B( 21-C , 22-C ) :   1.5167
B( 21-C , 32-C ) :   1.1269 B( 22-C , 23-C ) :   1.3012 B( 22-C , 31-C ) :   1.0594
B( 23-C , 24-C ) :   1.0488 B( 24-C , 25-C ) :   1.0446 B( 24-C , 67-H ) :   0.9025
B( 24-C , 68-H ) :   0.9051 B( 25-C , 26-C ) :   0.9807 B( 25-C , 30-C ) :   1.0377
B( 25-C , 69-H ) :   0.9013 B( 26-C , 27-F ) :   1.1387 B( 26-C , 28-F ) :   1.1184
B( 26-C , 29-F ) :   1.1449 B( 30-C , 31-C ) :   1.0789 B( 30-C , 70-H ) :   0.9391
B( 30-C , 71-H ) :   0.9313 B( 31-C , 72-H ) :   0.9065 B( 31-C , 73-H ) :   0.9005
B( 32-C , 33-C ) :   1.6626 B( 32-C , 74-H ) :   0.9458 B( 33-C , 34-C ) :   1.1549
B( 33-C , 75-H ) :   0.9642 B( 34-C , 35-S ) :   1.0962 B( 34-C , 36-C ) :   0.1106
B( 34-C , 38-C ) :   1.5151 B( 35-S , 36-C ) :   1.1331 B( 36-C , 37-C ) :   1.5767
B( 36-C , 45-C ) :   1.0023 B( 37-C , 38-C ) :   1.2865 B( 37-C , 44-C ) :   1.0455
B( 38-C , 39-C ) :   1.0454 B( 39-C , 40-C ) :   1.0768 B( 39-C , 76-H ) :   0.9104
B( 39-C , 77-H ) :   0.9123 B( 40-C , 41-C ) :   1.0289 B( 40-C , 78-H ) :   0.9354
B( 40-C , 79-H ) :   0.9277 B( 41-C , 42-O ) :   1.0524 B( 41-C , 44-C ) :   1.0351
B( 41-C , 80-H ) :   0.9408 B( 42-O , 43-C ) :   0.9915 B( 43-C , 81-H ) :   0.9822
B( 43-C , 82-H ) :   0.9617 B( 43-C , 83-H ) :   0.9659 B( 44-C , 84-H ) :   0.8785
B( 44-C , 85-H ) :   0.9049 B( 45-C , 46-S ) :   1.1414 B( 45-C , 47-C ) :   0.1119
B( 45-C , 49-C ) :   1.5838 B( 46-S , 47-C ) :   1.1129 B( 47-C , 48-C ) :   1.5694
B( 47-C , 58-C ) :   1.0856 B( 48-C , 49-C ) :   1.2636 B( 48-C , 57-C ) :   1.0547
B( 49-C , 50-C ) :   1.0525 B( 50-C , 51-C ) :   1.0417 B( 50-C , 86-H ) :   0.9043
B( 50-C , 87-H ) :   0.9048 B( 51-C , 52-C ) :   0.9809 B( 51-C , 56-C ) :   1.0376
B( 51-C , 88-H ) :   0.9024 B( 52-C , 53-F ) :   1.1165 B( 52-C , 54-F ) :   1.1271
B( 52-C , 55-F ) :   1.1470 B( 56-C , 57-C ) :   1.0826 B( 56-C , 89-H ) :   0.9397
B( 56-C , 90-H ) :   0.9324 B( 57-C , 91-H ) :   0.9089 B( 57-C , 92-H ) :   0.9071
B( 58-C , 59-C ) :   1.9426 B( 58-C , 93-H ) :   0.9471 B( 59-C , 94-H ) :   0.9577
B( 59-C , 95-H ) :   0.9440

-----------------------------------------------------------------------------
         ABSORPTION SPECTRUM VIA TRANSITION ELECTRIC DIPOLE MOMENTS
-----------------------------------------------------------------------------
State   Energy  Wavelength   fosc         T2         TX        TY        TZ
        (cm-1)    (nm)                  (au**2)     (au)      (au)      (au)
-----------------------------------------------------------------------------
   0   14668.5    681.7   0.790829552  17.74896   3.26639   0.27953  -2.64604
   1   21685.7    461.1   1.162632381  17.64997  -3.08514  -2.19082   1.82543
   2   24271.7    412.0   0.018546394   0.25156  -0.34205   0.13358   0.34164
   3   26752.5    373.8   0.000065387   0.00080  -0.01688   0.02245  -0.00399
   4   28142.6    355.3   0.041177368   0.48169   0.22790  -0.63915  -0.14577
   5   28339.5    352.9   0.478480706   5.55838  -0.27461   2.33520   0.17273
   6   31270.6    319.8   0.111182394   1.17051  -0.59714  -0.76831   0.47289
   7   32816.4    304.7   0.004738944   0.04754  -0.14059  -0.05514  -0.15727
   8   33756.1    296.2   0.062286813   0.60746   0.25054  -0.59890   0.43130
   9   34806.1    287.3   0.074197152   0.70179  -0.78354  -0.17608   0.23845
  10   35594.0    280.9   0.043660818   0.40382   0.02639  -0.63415  -0.03128
  11   35988.1    277.9   0.094982429   0.86888  -0.52166  -0.46508   0.61680
  12   36435.3    274.5   0.076115434   0.68774   0.67769   0.46408  -0.11454
  13   36998.3    270.3   0.049745727   0.44264   0.28312  -0.39365  -0.45554
  14   37508.2    266.6   0.088163406   0.77382  -0.60955   0.10351   0.62574
  15   38128.3    262.3   0.049384376   0.42640  -0.02613  -0.58925  -0.28019
  16   38772.4    257.9   0.152020722   1.29079   0.81049  -0.28883  -0.74194
  17   39392.5    253.9   0.088055782   0.73590  -0.72264   0.16616   0.43137

FINAL SINGLE POINT ENERGY     -4582.671781130840

DIPOLE MOMENT
-------------
                                X             Y             Z
Electronic contribution:     41.12659      27.25873     -19.30702
Nuclear contribution   :    -41.43642     -27.30978      18.33693
                        -----------------------------------------
Total Dipole Moment    :     -0.30983      -0.05105      -0.97009
                        -----------------------------------------
Magnitude (a.u.)       :      1.01965
Magnitude (Debye)      :      2.59174

Rotational constants in cm-1:     0.001674     0.000353     0.000301
Rotational constants in MHz :    50.182674    10.573914     9.022113

                             ****ORCA TERMINATED NORMALLY****
TOTAL RUN TIME: 0 days 0 hours 8 minutes 17 seconds 676 msec
