                         Program Version 4.2.0 -  RELEASE  -
|  1> # ORCA input file
|  2> # SCF done       -133.062721339305          0.000653793494
|  3> ! CAM-B3LYP def2-SVP def2/J RIJCOSX Grid4 TightSCF
|  4> %maxcore 5000
|  5> %tddft
|  6>     Mode sTDDFT
|  7>     Ethresh 5.0
|  8>     maxcore 5000
|  9> end
| 10>
| 11> %pal
| 12>   nprocs 6
| 13>   end
| 14> * xyz 0 1
| 15>    C       -1.09636        -5.54592        -0.48846
| 16>    S       -1.02704        -4.66887         1.00159
| 17>    C       -2.51942        -3.91531         0.64157
| 18>    C       -3.03221        -4.33585        -0.57939
| 19>    C       -2.21183        -5.27305        -1.22615
| 20>    C       -4.30669        -3.63092        -0.78653
| 21>    O       -5.07994        -3.69736        -1.71005
| 22>    C       -4.46364        -2.76214         0.45107
| 23>    C       -3.38384        -2.96204         1.26759
| 24>    C       -5.59729        -1.93165         0.59526
| 25>    C       -5.84633        -1.10436         1.64449
| 26>    C       -6.99294        -0.28826         1.75375
| 27>    S       -8.25260        -0.25010         0.54790
| 28>    C       -9.17202         0.92626         1.44832
| 29>    C       -8.51467         1.26636         2.63076
| 30>    C       -7.28843         0.58089         2.80224
| 31>    C       -6.44449         0.74700         3.91150
| 32>    N       -5.74315         0.86951         4.81129
| 33>    C       -9.02978         2.19354         3.54923
| 34>    N       -9.46267         2.95376         4.29163
| 35>    C      -10.41320         1.43627         1.01249
| 36>    C      -11.02541         1.05511        -0.14156
| 37>    C      -12.27025         1.53084        -0.59977
| 38>    S      -12.92635         0.88325        -2.10322
| 39>    C      -14.32070         1.85726        -1.94735
| 40>    C      -14.27558         2.65125        -0.79063
| 41>    C      -13.12954         2.46990        -0.03484
| 42>    C      -15.51763         3.44042        -0.75983
| 43>    O      -15.88661         4.25717         0.04893
| 44>    C      -16.27397         3.00535        -1.99862
| 45>    C      -15.51713         2.06841        -2.67204
| 46>    C      -17.53773         3.55202        -2.27066
| 47>    C      -18.34087         3.20015        -3.32062
| 48>    C      -19.61239         3.71943        -3.59999
| 49>    S      -20.49839         3.02584        -4.95343
| 50>    C      -21.88208         4.04600        -4.70800
| 51>    C      -21.63970         4.88134        -3.63112
| 52>    C      -20.38343         4.71916        -2.99654
| 53>    C      -20.23788         5.62728        -1.91337
| 54>    C      -21.32133         6.42371        -1.73693
| 55>    C      -21.51515         7.47811        -0.71094
| 56>    S      -22.60348         6.11420        -2.89607
| 57>    C      -23.06687         4.02196        -5.48302
| 58>    O      -24.03156         4.91433        -5.14030
| 59>    C      -25.06318         4.72830        -5.97864
| 60>    C      -24.80295         3.73453        -6.86495
| 61>    C      -23.49693         3.24910        -6.56527
| 62>    C      -22.77686         2.19899        -7.21615
| 63>    C      -23.24482         1.46793        -8.24543
| 64>    C      -22.49091         0.41652        -8.86851
| 65>    C      -22.94734        -0.31580        -9.88419
| 66>    H       -0.29526        -6.21714        -0.72660
| 67>    H       -2.42615        -5.72175        -2.17854
| 68>    H       -3.19464        -2.49775         2.21771
| 69>    H       -6.30918        -1.98124        -0.22094
| 70>    H       -5.14498        -1.03818         2.46602
| 71>    H      -10.87530         2.16419         1.66502
| 72>    H      -10.53403         0.32041        -0.76802
| 73>    H      -12.91713         2.98632         0.88303
| 74>    H      -15.77470         1.57251        -3.58928
| 75>    H      -17.87286         4.29048        -1.55802
| 76>    H      -17.99139         2.43826        -4.00502
| 77>    H      -19.36753         5.69733        -1.28827
| 78>    H      -21.67995         8.44540        -1.18487
| 79>    H      -20.64081         7.54398        -0.06857
| 80>    H      -22.38878         7.25755        -0.09846
| 81>    H      -25.91786         5.36127        -5.84294
| 82>    H      -25.45438         3.38590        -7.63855
| 83>    H      -21.78604         1.99130        -6.83496
| 84>    H      -24.23223         1.65495        -8.64374
| 85>    H      -21.50179         0.23334        -8.46862
| 86>    H      -23.92760        -0.15201       -10.30097
| 87>    H      -22.36027        -1.09797       -10.33277
| 88> *
| 89>
| 90>                          ****END OF INPUT****

CARTESIAN COORDINATES (ANGSTROEM)
---------------------------------
  C     -1.096360   -5.545920   -0.488460
  S     -1.027040   -4.668870    1.001590
  C     -2.519420   -3.915310    0.641570
  C     -3.032210   -4.335850   -0.579390
  C     -2.211830   -5.273050   -1.226150
  C     -4.306690   -3.630920   -0.786530
  O     -5.079940   -3.697360   -1.710050
  C     -4.463640   -2.762140    0.451070
  C     -3.383840   -2.962040    1.267590
  C     -5.597290   -1.931650    0.595260
  C     -5.846330   -1.104360    1.644490
  C     -6.992940   -0.288260    1.753750
  S     -8.252600   -0.250100    0.547900
  C     -9.172020    0.926260    1.448320
  C     -8.514670    1.266360    2.630760
  C     -7.288430    0.580890    2.802240
  C     -6.444490    0.747000    3.911500
  N     -5.743150    0.869510    4.811290
  C     -9.029780    2.193540    3.549230
  N     -9.462670    2.953760    4.291630
  C    -10.413200    1.436270    1.012490
  C    -11.025410    1.055110   -0.141560
  C    -12.270250    1.530840   -0.599770
  S    -12.926350    0.883250   -2.103220
  C    -14.320700    1.857260   -1.947350
  C    -14.275580    2.651250   -0.790630
  C    -13.129540    2.469900   -0.034840
  C    -15.517630    3.440420   -0.759830
  O    -15.886610    4.257170    0.048930
  C    -16.273970    3.005350   -1.998620
  C    -15.517130    2.068410   -2.672040
  C    -17.537730    3.552020   -2.270660
  C    -18.340870    3.200150   -3.320620
  C    -19.612390    3.719430   -3.599990
  S    -20.498390    3.025840   -4.953430
  C    -21.882080    4.046000   -4.708000
  C    -21.639700    4.881340   -3.631120
  C    -20.383430    4.719160   -2.996540
  C    -20.237880    5.627280   -1.913370
  C    -21.321330    6.423710   -1.736930
  C    -21.515150    7.478110   -0.710940
  S    -22.603480    6.114200   -2.896070
  C    -23.066870    4.021960   -5.483020
  O    -24.031560    4.914330   -5.140300
  C    -25.063180    4.728300   -5.978640
  C    -24.802950    3.734530   -6.864950
  C    -23.496930    3.249100   -6.565270
  C    -22.776860    2.198990   -7.216150
  C    -23.244820    1.467930   -8.245430
  C    -22.490910    0.416520   -8.868510
  C    -22.947340   -0.315800   -9.884190
  H     -0.295260   -6.217140   -0.726600
  H     -2.426150   -5.721750   -2.178540
  H     -3.194640   -2.497750    2.217710
  H     -6.309180   -1.981240   -0.220940
  H     -5.144980   -1.038180    2.466020
  H    -10.875300    2.164190    1.665020
  H    -10.534030    0.320410   -0.768020
  H    -12.917130    2.986320    0.883030
  H    -15.774700    1.572510   -3.589280
  H    -17.872860    4.290480   -1.558020
  H    -17.991390    2.438260   -4.005020
  H    -19.367530    5.697330   -1.288270
  H    -21.679950    8.445400   -1.184870
  H    -20.640810    7.543980   -0.068570
  H    -22.388780    7.257550   -0.098460
  H    -25.917860    5.361270   -5.842940
  H    -25.454380    3.385900   -7.638550
  H    -21.786040    1.991300   -6.834960
  H    -24.232230    1.654950   -8.643740
  H    -21.501790    0.233340   -8.468620
  H    -23.927600   -0.152010  -10.300970
  H    -22.360270   -1.097970  -10.332770

 Total Charge           Charge          ....    0
 Multiplicity           Mult            ....    1
 Number of Electrons    NEL             ....  386
 Basis Dimension        Dim             ....  844

ORBITAL ENERGIES
----------------

  NO   OCC          E(Eh)            E(eV)
   0   2.0000     -88.977574     -2421.2029
   1   2.0000     -88.976656     -2421.1779
   2   2.0000     -88.975808     -2421.1548
   3   2.0000     -88.966477     -2420.9009
   4   2.0000     -88.948524     -2420.4124
   5   2.0000     -19.295277      -525.0512
   6   2.0000     -19.228480      -523.2335
   7   2.0000     -19.225596      -523.1551
   8   2.0000     -14.406284      -392.0149
   9   2.0000     -14.403178      -391.9304
  10   2.0000     -10.369813      -282.1770
  11   2.0000     -10.366839      -282.0960
  12   2.0000     -10.339412      -281.3497
  13   2.0000     -10.332208      -281.1537
  14   2.0000     -10.330511      -281.1075
  15   2.0000     -10.328711      -281.0585
  16   2.0000     -10.321867      -280.8723
  17   2.0000     -10.318608      -280.7836
  18   2.0000     -10.318580      -280.7828
  19   2.0000     -10.316504      -280.7263
  20   2.0000     -10.312144      -280.6077
  21   2.0000     -10.309634      -280.5394
  22   2.0000     -10.307486      -280.4810
  23   2.0000     -10.307309      -280.4761
  24   2.0000     -10.306476      -280.4535
  25   2.0000     -10.306207      -280.4461
  26   2.0000     -10.303539      -280.3735
  27   2.0000     -10.303356      -280.3686
  28   2.0000     -10.302249      -280.3384
  29   2.0000     -10.301919      -280.3295
  30   2.0000     -10.295030      -280.1420
  31   2.0000     -10.293304      -280.0950
  32   2.0000     -10.293229      -280.0930
  33   2.0000     -10.293136      -280.0905
  34   2.0000     -10.291997      -280.0595
  35   2.0000     -10.289785      -279.9993
  36   2.0000     -10.289422      -279.9894
  37   2.0000     -10.289338      -279.9871
  38   2.0000     -10.288366      -279.9607
  39   2.0000     -10.287846      -279.9465
  40   2.0000     -10.283786      -279.8360
  41   2.0000     -10.278997      -279.7057
  42   2.0000     -10.277723      -279.6710
  43   2.0000     -10.275632      -279.6142
  44   2.0000     -10.275471      -279.6098
  45   2.0000     -10.274654      -279.5876
  46   2.0000     -10.274561      -279.5850
  47   2.0000     -10.272757      -279.5359
  48   2.0000     -10.272748      -279.5357
  49   2.0000     -10.272312      -279.5238
  50   2.0000     -10.264277      -279.3052
  51   2.0000      -8.072746      -219.6706
  52   2.0000      -8.071953      -219.6490
  53   2.0000      -8.070925      -219.6210
  54   2.0000      -8.061006      -219.3511
  55   2.0000      -8.044288      -218.8962
  56   2.0000      -6.041946      -164.4097
  57   2.0000      -6.041065      -164.3857
  58   2.0000      -6.039972      -164.3560
  59   2.0000      -6.038048      -164.3036
  60   2.0000      -6.036776      -164.2690
  61   2.0000      -6.036035      -164.2489
  62   2.0000      -6.034803      -164.2153
  63   2.0000      -6.034671      -164.2117
  64   2.0000      -6.033432      -164.1780
  65   2.0000      -6.030599      -164.1010
  66   2.0000      -6.026315      -163.9844
  67   2.0000      -6.022823      -163.8893
  68   2.0000      -6.014064      -163.6510
  69   2.0000      -6.009725      -163.5329
  70   2.0000      -6.005477      -163.4173
  71   2.0000      -1.214023       -33.0352
  72   2.0000      -1.138614       -30.9833
  73   2.0000      -1.135419       -30.8963
  74   2.0000      -1.019948       -27.7542
  75   2.0000      -1.008045       -27.4303
  76   2.0000      -1.007059       -27.4035
  77   2.0000      -1.006648       -27.3923
  78   2.0000      -0.986548       -26.8453
  79   2.0000      -0.981812       -26.7165
  80   2.0000      -0.951030       -25.8788
  81   2.0000      -0.945962       -25.7409
  82   2.0000      -0.942453       -25.6454
  83   2.0000      -0.925479       -25.1836
  84   2.0000      -0.918748       -25.0004
  85   2.0000      -0.905374       -24.6365
  86   2.0000      -0.894495       -24.3404
  87   2.0000      -0.885851       -24.1052
  88   2.0000      -0.872834       -23.7510
  89   2.0000      -0.864894       -23.5350
  90   2.0000      -0.852790       -23.2056
  91   2.0000      -0.850615       -23.1464
  92   2.0000      -0.847275       -23.0555
  93   2.0000      -0.844276       -22.9739
  94   2.0000      -0.831998       -22.6398
  95   2.0000      -0.819431       -22.2979
  96   2.0000      -0.806868       -21.9560
  97   2.0000      -0.794328       -21.6148
  98   2.0000      -0.777606       -21.1597
  99   2.0000      -0.771727       -20.9997
 100   2.0000      -0.759574       -20.6691
 101   2.0000      -0.753164       -20.4946
 102   2.0000      -0.742985       -20.2177
 103   2.0000      -0.728040       -19.8110
 104   2.0000      -0.723255       -19.6808
 105   2.0000      -0.702438       -19.1143
 106   2.0000      -0.691223       -18.8091
 107   2.0000      -0.683395       -18.5961
 108   2.0000      -0.675594       -18.3838
 109   2.0000      -0.667211       -18.1557
 110   2.0000      -0.655166       -17.8280
 111   2.0000      -0.647181       -17.6107
 112   2.0000      -0.644782       -17.5454
 113   2.0000      -0.639585       -17.4040
 114   2.0000      -0.634640       -17.2694
 115   2.0000      -0.630306       -17.1515
 116   2.0000      -0.629295       -17.1240
 117   2.0000      -0.625184       -17.0121
 118   2.0000      -0.619034       -16.8448
 119   2.0000      -0.611351       -16.6357
 120   2.0000      -0.598375       -16.2826
 121   2.0000      -0.588692       -16.0191
 122   2.0000      -0.578584       -15.7441
 123   2.0000      -0.572485       -15.5781
 124   2.0000      -0.569287       -15.4911
 125   2.0000      -0.568354       -15.4657
 126   2.0000      -0.562923       -15.3179
 127   2.0000      -0.560174       -15.2431
 128   2.0000      -0.551972       -15.0199
 129   2.0000      -0.544355       -14.8127
 130   2.0000      -0.538357       -14.6494
 131   2.0000      -0.534262       -14.5380
 132   2.0000      -0.528117       -14.3708
 133   2.0000      -0.527057       -14.3419
 134   2.0000      -0.525190       -14.2912
 135   2.0000      -0.523593       -14.2477
 136   2.0000      -0.521561       -14.1924
 137   2.0000      -0.518529       -14.1099
 138   2.0000      -0.517853       -14.0915
 139   2.0000      -0.513701       -13.9785
 140   2.0000      -0.510374       -13.8880
 141   2.0000      -0.503553       -13.7024
 142   2.0000      -0.499030       -13.5793
 143   2.0000      -0.495248       -13.4764
 144   2.0000      -0.492336       -13.3972
 145   2.0000      -0.491946       -13.3865
 146   2.0000      -0.489316       -13.3150
 147   2.0000      -0.480484       -13.0746
 148   2.0000      -0.478210       -13.0128
 149   2.0000      -0.476813       -12.9747
 150   2.0000      -0.473389       -12.8816
 151   2.0000      -0.472075       -12.8458
 152   2.0000      -0.469482       -12.7753
 153   2.0000      -0.468143       -12.7388
 154   2.0000      -0.465603       -12.6697
 155   2.0000      -0.464680       -12.6446
 156   2.0000      -0.456421       -12.4198
 157   2.0000      -0.453816       -12.3490
 158   2.0000      -0.449138       -12.2217
 159   2.0000      -0.447571       -12.1790
 160   2.0000      -0.441340       -12.0095
 161   2.0000      -0.438934       -11.9440
 162   2.0000      -0.437884       -11.9154
 163   2.0000      -0.434334       -11.8188
 164   2.0000      -0.432925       -11.7805
 165   2.0000      -0.432600       -11.7717
 166   2.0000      -0.427838       -11.6421
 167   2.0000      -0.427617       -11.6361
 168   2.0000      -0.426484       -11.6052
 169   2.0000      -0.425922       -11.5899
 170   2.0000      -0.421808       -11.4780
 171   2.0000      -0.412583       -11.2270
 172   2.0000      -0.410757       -11.1773
 173   2.0000      -0.410246       -11.1634
 174   2.0000      -0.408104       -11.1051
 175   2.0000      -0.404708       -11.0127
 176   2.0000      -0.403492       -10.9796
 177   2.0000      -0.386686       -10.5223
 178   2.0000      -0.370332       -10.0772
 179   2.0000      -0.364478        -9.9179
 180   2.0000      -0.340962        -9.2780
 181   2.0000      -0.339601        -9.2410
 182   2.0000      -0.338353        -9.2071
 183   2.0000      -0.337690        -9.1890
 184   2.0000      -0.336497        -9.1566
 185   2.0000      -0.332139        -9.0380
 186   2.0000      -0.319524        -8.6947
 187   2.0000      -0.310463        -8.4481
 188   2.0000      -0.303560        -8.2603
 189   2.0000      -0.287059        -7.8113
 190   2.0000      -0.269505        -7.3336
 191   2.0000      -0.245834        -6.6895
 192   2.0000      -0.215959        -5.8765
 193   0.0000      -0.097517        -2.6536
 194   0.0000      -0.085512        -2.3269
 195   0.0000      -0.050119        -1.3638
 196   0.0000      -0.038963        -1.0602
 197   0.0000      -0.016652        -0.4531

MULLIKEN ATOMIC CHARGES
-----------------------
   0 C :   -0.094705
   1 S :    0.169795
   2 C :   -0.088570
   3 C :   -0.027341
   4 C :    0.046789
   5 C :    0.158386
   6 O :   -0.115822
   7 C :   -0.046707
   8 C :   -0.013053
   9 C :    0.009290
  10 C :   -0.007242
  11 C :   -0.057569
  12 S :    0.132645
  13 C :   -0.046824
  14 C :   -0.022107
  15 C :   -0.004905
  16 C :   -0.270392
  17 N :    0.196252
  18 C :   -0.268412
  19 N :    0.197131
  20 C :   -0.038142
  21 C :    0.058716
  22 C :   -0.112129
  23 S :    0.167296
  24 C :   -0.035907
  25 C :   -0.013958
  26 C :    0.002037
  27 C :    0.161098
  28 O :   -0.118202
  29 C :   -0.018991
  30 C :   -0.053416
  31 C :   -0.017434
  32 C :    0.078632
  33 C :   -0.104742
  34 S :    0.120351
  35 C :   -0.167574
  36 C :   -0.039729
  37 C :    0.123935
  38 C :   -0.015929
  39 C :   -0.204533
  40 C :    0.112630
  41 S :    0.136172
  42 C :    0.121422
  43 O :   -0.207261
  44 C :    0.159562
  45 C :   -0.043389
  46 C :    0.037612
  47 C :   -0.015013
  48 C :    0.007196
  49 C :    0.006397
  50 C :   -0.016478
  51 H :    0.034190
  52 H :   -0.000646
  53 H :    0.001477
  54 H :    0.003991
  55 H :    0.008822
  56 H :    0.014627
  57 H :   -0.005987
  58 H :    0.002649
  59 H :   -0.012868
  60 H :   -0.024350
  61 H :   -0.027045
  62 H :   -0.006821
  63 H :    0.038010
  64 H :    0.028596
  65 H :    0.038096
  66 H :    0.011964
  67 H :   -0.010161
  68 H :   -0.017527
  69 H :   -0.020340
  70 H :   -0.009167
  71 H :    0.012967
  72 H :    0.022653
Sum of atomic charges:    0.0000000

LOEWDIN ATOMIC CHARGES
----------------------
   0 C :   -0.183186
   1 S :    0.470895
   2 C :   -0.176366
   3 C :   -0.111368
   4 C :   -0.028440
   5 C :    0.099725
   6 O :   -0.106391
   7 C :   -0.065797
   8 C :    0.013829
   9 C :   -0.010571
  10 C :   -0.033337
  11 C :   -0.131306
  12 S :    0.459657
  13 C :   -0.121187
  14 C :   -0.097861
  15 C :   -0.087075
  16 C :   -0.032346
  17 N :   -0.045346
  18 C :   -0.034271
  19 N :   -0.046326
  20 C :   -0.058397
  21 C :   -0.021861
  22 C :   -0.185548
  23 S :    0.461311
  24 C :   -0.153570
  25 C :   -0.114347
  26 C :   -0.001369
  27 C :    0.100110
  28 O :   -0.107006
  29 C :   -0.042304
  30 C :   -0.032660
  31 C :   -0.039889
  32 C :   -0.014668
  33 C :   -0.176283
  34 S :    0.450715
  35 C :   -0.196915
  36 C :   -0.186632
  37 C :   -0.054594
  38 C :   -0.076090
  39 C :   -0.136287
  40 C :   -0.058951
  41 S :    0.401236
  42 C :    0.011671
  43 O :    0.010060
  44 C :    0.048066
  45 C :   -0.062975
  46 C :   -0.060207
  47 C :   -0.030820
  48 C :   -0.015792
  49 C :   -0.025651
  50 C :   -0.044162
  51 H :    0.024978
  52 H :    0.039455
  53 H :    0.033732
  54 H :    0.028492
  55 H :    0.040029
  56 H :    0.041366
  57 H :    0.024322
  58 H :    0.041422
  59 H :    0.027452
  60 H :    0.030232
  61 H :    0.026213
  62 H :    0.031151
  63 H :    0.040417
  64 H :    0.040984
  65 H :    0.040491
  66 H :    0.025417
  67 H :    0.030789
  68 H :    0.014165
  69 H :    0.025319
  70 H :    0.028401
  71 H :    0.021303
  72 H :    0.024745

  Mayer bond orders larger than 0.100000
B(  0-C ,  1-S ) :   1.1604 B(  0-C ,  4-C ) :   1.5405 B(  0-C , 51-H ) :   0.9689
B(  1-S ,  2-C ) :   1.1499 B(  2-C ,  3-C ) :   1.4749 B(  2-C ,  8-C ) :   1.0554
B(  3-C ,  4-C ) :   1.2861 B(  3-C ,  5-C ) :   0.9412 B(  4-C , 52-H ) :   1.0054
B(  5-C ,  6-O ) :   2.2649 B(  5-C ,  7-C ) :   0.9112 B(  7-C ,  8-C ) :   1.6365
B(  7-C ,  9-C ) :   1.1511 B(  8-C , 53-H ) :   1.0135 B(  9-C , 10-C ) :   1.5871
B(  9-C , 54-H ) :   0.9698 B( 10-C , 11-C ) :   1.2135 B( 10-C , 55-H ) :   0.9649
B( 11-C , 12-S ) :   1.0971 B( 11-C , 15-C ) :   1.4617 B( 12-S , 13-C ) :   1.1000
B( 13-C , 14-C ) :   1.4515 B( 13-C , 20-C ) :   1.2275 B( 14-C , 15-C ) :   1.3037
B( 14-C , 18-C ) :   1.1521 B( 15-C , 16-C ) :   1.1498 B( 16-C , 17-N ) :   3.0017
B( 18-C , 19-N ) :   2.9991 B( 20-C , 21-C ) :   1.6175 B( 20-C , 56-H ) :   0.9622
B( 21-C , 22-C ) :   1.1668 B( 21-C , 57-H ) :   0.9590 B( 22-C , 23-S ) :   1.0865
B( 22-C , 26-C ) :   1.4233 B( 23-S , 24-C ) :   1.1495 B( 24-C , 25-C ) :   1.4131
B( 24-C , 30-C ) :   1.0909 B( 25-C , 26-C ) :   1.3364 B( 25-C , 27-C ) :   0.9283
B( 26-C , 58-H ) :   1.0002 B( 27-C , 28-O ) :   2.2558 B( 27-C , 29-C ) :   0.9092
B( 29-C , 30-C ) :   1.5615 B( 29-C , 31-C ) :   1.2124 B( 30-C , 59-H ) :   1.0139
B( 31-C , 32-C ) :   1.5398 B( 31-C , 60-H ) :   0.9683 B( 32-C , 33-C ) :   1.2089
B( 32-C , 61-H ) :   0.9526 B( 33-C , 34-S ) :   1.0753 B( 33-C , 35-C ) :   0.1027
B( 33-C , 37-C ) :   1.3552 B( 34-S , 35-C ) :   1.1453 B( 35-C , 36-C ) :   1.4854
B( 35-C , 42-C ) :   1.1521 B( 36-C , 37-C ) :   1.2621 B( 36-C , 41-S ) :   1.0452
B( 37-C , 38-C ) :   1.1442 B( 38-C , 39-C ) :   1.6675 B( 38-C , 62-H ) :   0.9961
B( 39-C , 40-C ) :   1.0706 B( 39-C , 41-S ) :   1.0744 B( 40-C , 63-H ) :   0.9477
B( 40-C , 64-H ) :   0.9574 B( 40-C , 65-H ) :   0.9479 B( 42-C , 43-O ) :   1.1569
B( 42-C , 46-C ) :   1.4260 B( 43-O , 44-C ) :   1.1240 B( 44-C , 45-C ) :   1.5696
B( 44-C , 66-H ) :   1.0034 B( 45-C , 46-C ) :   1.2051 B( 45-C , 67-H ) :   0.9959
B( 46-C , 47-C ) :   1.0851 B( 47-C , 48-C ) :   1.7347 B( 47-C , 68-H ) :   0.9587
B( 48-C , 49-C ) :   1.1059 B( 48-C , 69-H ) :   0.9783 B( 49-C , 50-C ) :   1.8998
B( 49-C , 70-H ) :   0.9756 B( 50-C , 71-H ) :   0.9581 B( 50-C , 72-H ) :   0.9520

-----------------------------------------------------------------------------
         ABSORPTION SPECTRUM VIA TRANSITION ELECTRIC DIPOLE MOMENTS
-----------------------------------------------------------------------------
State   Energy  Wavelength   fosc         T2         TX        TY        TZ
        (cm-1)    (nm)                  (au**2)     (au)      (au)      (au)
-----------------------------------------------------------------------------
   0   11386.4    878.2   1.373375098  39.70807   5.63440  -1.59534   2.32734
   1   16008.9    624.7   0.401070320   8.24774  -2.21971   1.77151   0.42707
   2   19147.2    522.3   0.110661165   1.90268   0.70105   0.50232   1.07651
   3   21154.5    472.7   0.043157619   0.67163   0.42626   0.04677   0.69839
   4   22353.5    447.4   0.752915226  11.08860   2.86919  -0.43360   1.63350
   5   23994.0    416.8   0.100464208   1.37843  -0.06603  -0.89345  -0.75882
   6   25652.5    389.8   0.020025068   0.25699  -0.22578   0.40921   0.19639
   7   26418.4    378.5   0.000024505   0.00031   0.01013   0.00889  -0.01112
   8   26567.3    376.4   0.000108808   0.00135  -0.00419  -0.00148   0.03645
   9   26732.6    374.1   0.051056267   0.62876   0.64618  -0.01080   0.45945
  10   27687.9    361.2   0.150445612   1.78881   0.32676  -0.94461  -0.88868
  11   29266.1    341.7   0.018965638   0.21334   0.36308  -0.21774  -0.18467
  12   30854.4    324.1   0.052993112   0.56543  -0.11482  -0.41354  -0.61744
  13   31273.4    319.8   0.025117935   0.26441   0.31644  -0.02525   0.40453
  14   31911.6    313.4   0.324376578   3.34639  -0.55713   1.36621   1.08142
  15   32500.3    307.7   0.027177728   0.27530  -0.43091   0.29827   0.02549
  16   33096.9    302.1   0.130458848   1.29766   0.51272  -0.86271  -0.53899
  17   33542.6    298.1   0.205225645   2.01423   0.18798  -0.89209  -1.08769
  18   34441.3    290.3   0.083440179   0.79757   0.79846  -0.28466   0.28107
  19   34982.2    285.9   0.141040713   1.32731  -0.16836   0.74474   0.86274
  20   35541.6    281.4   0.073660457   0.68230   0.51744   0.10157   0.63580
  21   36298.8    275.5   0.001201368   0.01090   0.02639  -0.08096  -0.06037
  22   36448.9    274.4   0.231421710   2.09024   1.21523  -0.78020   0.06885
  23   36667.1    272.7   0.065957735   0.59219  -0.27934  -0.27394  -0.66266
  24   37440.3    267.1   0.189005268   1.66192  -0.68834   0.84307   0.69089
  25   37894.6    263.9   0.000076176   0.00066  -0.00290   0.00858  -0.02408
  26   38514.6    259.6   0.213678670   1.82647  -0.53310   1.00287   0.73247
  27   38738.8    258.1   0.071107517   0.60429  -0.03293  -0.51702  -0.57956
  28   39450.1    253.5   0.035258539   0.29423   0.47107  -0.04719   0.26477
  29   39965.0    250.2   0.020296632   0.16719  -0.24662   0.28000   0.16725

FINAL SINGLE POINT ENERGY     -3898.545871347778

DIPOLE MOMENT
-------------
                                X             Y             Z
Electronic contribution:     47.24546      -7.60411      26.02845
Nuclear contribution   :    -48.75139       6.36144     -29.09002
                        -----------------------------------------
Total Dipole Moment    :     -1.50592      -1.24267      -3.06157
                        -----------------------------------------
Magnitude (a.u.)       :      3.63115
Magnitude (Debye)      :      9.22964

Rotational constants in cm-1:     0.003031     0.000308     0.000280
Rotational constants in MHz :    90.863524     9.220684     8.381582

                             ****ORCA TERMINATED NORMALLY****
TOTAL RUN TIME: 0 days 0 hours 5 minutes 14 seconds 518 msec
