                         Program Version 4.2.0 -  RELEASE  -
|  1> # ORCA input file
|  2> # SCF done       -198.173378673827          0.000466888560
|  3> ! CAM-B3LYP def2-SVP def2/J RIJCOSX Grid4 TightSCF
|  4> %maxcore 5000
|  5> %tddft
|  6>     Mode sTDDFT
|  7>     Ethresh 5.0
|  8>     maxcore 5000
|  9> end
| 10>
| 11> %pal
| 12>   nprocs 6
| 13>   end
| 14> * xyz 0 1
| 15>    C       -2.39367        -0.24248        -5.01310
| 16>    O       -2.42498        -1.50122        -4.60374
| 17>    C       -2.29977        -1.50589        -3.25249
| 18>    C       -2.18293        -0.19559        -2.78895
| 19>    C       -2.24669         0.62454        -3.95470
| 20>    C       -2.18522         2.09956        -4.13234
| 21>    F       -2.29547         2.43652        -5.42563
| 22>    F       -3.16804         2.76077        -3.49132
| 23>    F       -1.03189         2.64690        -3.70305
| 24>    O       -2.04356         0.06311        -1.48146
| 25>    C       -1.92355         1.39858        -1.02993
| 26>    C       -2.30561        -2.70753        -2.49150
| 27>    C       -2.42034        -3.94434        -3.02518
| 28>    C       -2.44412        -5.14777        -2.26925
| 29>    C       -2.38787        -5.32221        -0.89877
| 30>    C       -2.45280        -6.66716        -0.53350
| 31>    C       -2.55653        -7.53433        -1.63791
| 32>    S       -2.57549        -6.68466        -3.11861
| 33>    C       -2.62398        -8.86648        -1.16229
| 34>    C       -2.56825        -8.84010         0.24162
| 35>    C       -2.45315        -7.45811         0.68205
| 36>    C       -2.36236        -7.01257         1.97022
| 37>    C       -2.37468        -7.89586         3.06840
| 38>    N       -2.38291        -8.61597         3.96188
| 39>    C       -2.24769        -5.64328         2.28534
| 40>    N       -2.15405        -4.53013         2.54527
| 41>    C       -2.63330       -10.10438         0.81800
| 42>    C       -2.73948       -11.10836        -0.13159
| 43>    S       -2.75010       -10.46180        -1.76804
| 44>    C       -2.82517       -12.51156         0.10208
| 45>    C       -3.00483       -13.03136         1.36273
| 46>    C       -3.07683       -14.38797         1.66939
| 47>    C       -3.08270       -15.39777         0.60063
| 48>    C       -2.92020       -15.11504        -0.70957
| 49>    S       -2.67862       -13.53018        -1.32392
| 50>    C       -3.31153       -16.63954         1.25499
| 51>    C       -3.43747       -16.42866         2.62814
| 52>    C       -3.66581       -17.63077         3.33339
| 53>    C       -3.70914       -18.69891         2.49512
| 54>    S       -3.47232       -18.29601         0.82704
| 55>    C       -3.26653       -15.02705         2.91109
| 56>    C       -3.30726       -14.48909         4.22061
| 57>    C       -2.81230       -13.28589         4.61675
| 58>    C       -2.93764       -12.74241         5.91804
| 59>    C       -3.58564       -13.25509         7.03450
| 60>    C       -3.51624       -12.39014         8.12143
| 61>    C       -2.81351       -11.20434         7.84011
| 62>    S       -2.23352       -11.16242         6.23676
| 63>    C       -2.82182       -10.39187         9.00090
| 64>    C       -3.52637       -11.06339        10.01678
| 65>    C       -3.97565       -12.34352         9.50422
| 66>    C       -4.66963       -13.31207        10.16925
| 67>    C       -5.04714       -13.18588        11.52267
| 68>    N       -5.35121       -13.10781        12.62539
| 69>    C       -5.04368       -14.52145         9.54810
| 70>    N       -5.34549       -15.50674         9.04381
| 71>    C       -3.60151       -10.33109        11.20439
| 72>    C       -2.96897        -9.11153        11.09129
| 73>    S       -2.24304        -8.87019         9.50691
| 74>    C       -2.77405        -8.08252        12.06118
| 75>    O       -1.71311        -7.27916        11.89827
| 76>    C       -1.65206        -6.42293        12.94378
| 77>    C       -2.71374        -6.66609        13.80671
| 78>    C       -3.46159        -7.72800        13.21928
| 79>    C       -4.78413        -8.26781        13.62610
| 80>    F       -5.48427        -8.74912        12.58636
| 81>    F       -4.70446        -9.27509        14.52267
| 82>    F       -5.57959        -7.33986        14.18377
| 83>    O       -2.86883        -5.96168        14.94058
| 84>    C       -3.56087        -6.53513        16.03765
| 85>    C       -0.61133        -5.44164        13.05174
| 86>    C        0.36027        -5.27602        12.15663
| 87>    H       -2.48120        -0.04287        -6.06290
| 88>    H       -1.81858         1.32365         0.05088
| 89>    H       -2.81528         1.98384        -1.26477
| 90>    H       -1.03768         1.88489        -1.44417
| 91>    H       -2.21199        -2.55643        -1.42756
| 92>    H       -2.50433        -4.04665        -4.09830
| 93>    H       -2.30801        -4.50636        -0.20502
| 94>    H       -2.59164       -10.28365         1.87579
| 95>    H       -3.14171       -12.32221         2.16292
| 96>    H       -2.92295       -15.87621        -1.47365
| 97>    H       -3.79357       -17.70774         4.39777
| 98>    H       -3.86838       -19.72832         2.75030
| 99>    H       -3.75637       -15.13178         4.96627
|100>    H       -2.25422       -12.67815         3.92024
|101>    H       -4.08261       -14.20714         7.04199
|102>    H       -4.07373       -10.67947        12.10367
|103>    H       -3.10304        -6.10960        16.93052
|104>    H       -3.45440        -7.62125        16.06159
|105>    H       -4.61897        -6.26696        16.01711
|106>    H       -0.67855        -4.83262        13.94121
|107>    H        0.41448        -5.88486        11.27058
|108>    H        1.12091        -4.52760        12.28595
|109> *
|110>
|111>                          ****END OF INPUT****

CARTESIAN COORDINATES (ANGSTROEM)
---------------------------------
  C     -2.393670   -0.242480   -5.013100
  O     -2.424980   -1.501220   -4.603740
  C     -2.299770   -1.505890   -3.252490
  C     -2.182930   -0.195590   -2.788950
  C     -2.246690    0.624540   -3.954700
  C     -2.185220    2.099560   -4.132340
  F     -2.295470    2.436520   -5.425630
  F     -3.168040    2.760770   -3.491320
  F     -1.031890    2.646900   -3.703050
  O     -2.043560    0.063110   -1.481460
  C     -1.923550    1.398580   -1.029930
  C     -2.305610   -2.707530   -2.491500
  C     -2.420340   -3.944340   -3.025180
  C     -2.444120   -5.147770   -2.269250
  C     -2.387870   -5.322210   -0.898770
  C     -2.452800   -6.667160   -0.533500
  C     -2.556530   -7.534330   -1.637910
  S     -2.575490   -6.684660   -3.118610
  C     -2.623980   -8.866480   -1.162290
  C     -2.568250   -8.840100    0.241620
  C     -2.453150   -7.458110    0.682050
  C     -2.362360   -7.012570    1.970220
  C     -2.374680   -7.895860    3.068400
  N     -2.382910   -8.615970    3.961880
  C     -2.247690   -5.643280    2.285340
  N     -2.154050   -4.530130    2.545270
  C     -2.633300  -10.104380    0.818000
  C     -2.739480  -11.108360   -0.131590
  S     -2.750100  -10.461800   -1.768040
  C     -2.825170  -12.511560    0.102080
  C     -3.004830  -13.031360    1.362730
  C     -3.076830  -14.387970    1.669390
  C     -3.082700  -15.397770    0.600630
  C     -2.920200  -15.115040   -0.709570
  S     -2.678620  -13.530180   -1.323920
  C     -3.311530  -16.639540    1.254990
  C     -3.437470  -16.428660    2.628140
  C     -3.665810  -17.630770    3.333390
  C     -3.709140  -18.698910    2.495120
  S     -3.472320  -18.296010    0.827040
  C     -3.266530  -15.027050    2.911090
  C     -3.307260  -14.489090    4.220610
  C     -2.812300  -13.285890    4.616750
  C     -2.937640  -12.742410    5.918040
  C     -3.585640  -13.255090    7.034500
  C     -3.516240  -12.390140    8.121430
  C     -2.813510  -11.204340    7.840110
  S     -2.233520  -11.162420    6.236760
  C     -2.821820  -10.391870    9.000900
  C     -3.526370  -11.063390   10.016780
  C     -3.975650  -12.343520    9.504220
  C     -4.669630  -13.312070   10.169250
  C     -5.047140  -13.185880   11.522670
  N     -5.351210  -13.107810   12.625390
  C     -5.043680  -14.521450    9.548100
  N     -5.345490  -15.506740    9.043810
  C     -3.601510  -10.331090   11.204390
  C     -2.968970   -9.111530   11.091290
  S     -2.243040   -8.870190    9.506910
  C     -2.774050   -8.082520   12.061180
  O     -1.713110   -7.279160   11.898270
  C     -1.652060   -6.422930   12.943780
  C     -2.713740   -6.666090   13.806710
  C     -3.461590   -7.728000   13.219280
  C     -4.784130   -8.267810   13.626100
  F     -5.484270   -8.749120   12.586360
  F     -4.704460   -9.275090   14.522670
  F     -5.579590   -7.339860   14.183770
  O     -2.868830   -5.961680   14.940580
  C     -3.560870   -6.535130   16.037650
  C     -0.611330   -5.441640   13.051740
  C      0.360270   -5.276020   12.156630
  H     -2.481200   -0.042870   -6.062900
  H     -1.818580    1.323650    0.050880
  H     -2.815280    1.983840   -1.264770
  H     -1.037680    1.884890   -1.444170
  H     -2.211990   -2.556430   -1.427560
  H     -2.504330   -4.046650   -4.098300
  H     -2.308010   -4.506360   -0.205020
  H     -2.591640  -10.283650    1.875790
  H     -3.141710  -12.322210    2.162920
  H     -2.922950  -15.876210   -1.473650
  H     -3.793570  -17.707740    4.397770
  H     -3.868380  -19.728320    2.750300
  H     -3.756370  -15.131780    4.966270
  H     -2.254220  -12.678150    3.920240
  H     -4.082610  -14.207140    7.041990
  H     -4.073730  -10.679470   12.103670
  H     -3.103040   -6.109600   16.930520
  H     -3.454400   -7.621250   16.061590
  H     -4.618970   -6.266960   16.017110
  H     -0.678550   -4.832620   13.941210
  H      0.414480   -5.884860   11.270580
  H      1.120910   -4.527600   12.285950

 Total Charge           Charge          ....    0
 Multiplicity           Mult            ....    1
 Number of Electrons    NEL             ....  544
 Basis Dimension        Dim             .... 1142

ORBITAL ENERGIES
----------------

  NO   OCC          E(Eh)            E(eV)
   0   2.0000     -88.988970     -2421.5130
   1   2.0000     -88.983784     -2421.3719
   2   2.0000     -88.978523     -2421.2287
   3   2.0000     -88.977524     -2421.2015
   4   2.0000     -88.971828     -2421.0465
   5   2.0000     -88.954843     -2420.5843
   6   2.0000     -24.807988      -675.0597
   7   2.0000     -24.805152      -674.9825
   8   2.0000     -24.805021      -674.9789
   9   2.0000     -24.797607      -674.7772
  10   2.0000     -24.795306      -674.7146
  11   2.0000     -24.793162      -674.6562
  12   2.0000     -19.311785      -525.5004
  13   2.0000     -19.299956      -525.1785
  14   2.0000     -19.264159      -524.2044
  15   2.0000     -19.250339      -523.8284
  16   2.0000     -14.432914      -392.7395
  17   2.0000     -14.429513      -392.6470
  18   2.0000     -14.419702      -392.3800
  19   2.0000     -14.418092      -392.3362
  20   2.0000     -10.530502      -286.5495
  21   2.0000     -10.519729      -286.2564
  22   2.0000     -10.363053      -281.9930
  23   2.0000     -10.355688      -281.7926
  24   2.0000     -10.354428      -281.7583
  25   2.0000     -10.354159      -281.7510
  26   2.0000     -10.351359      -281.6748
  27   2.0000     -10.351014      -281.6654
  28   2.0000     -10.340907      -281.3904
  29   2.0000     -10.339900      -281.3630
  30   2.0000     -10.334316      -281.2110
  31   2.0000     -10.332575      -281.1637
  32   2.0000     -10.330173      -281.0983
  33   2.0000     -10.328960      -281.0653
  34   2.0000     -10.328543      -281.0539
  35   2.0000     -10.328527      -281.0535
  36   2.0000     -10.327863      -281.0354
  37   2.0000     -10.326223      -280.9908
  38   2.0000     -10.326126      -280.9882
  39   2.0000     -10.321913      -280.8735
  40   2.0000     -10.320739      -280.8416
  41   2.0000     -10.320130      -280.8250
  42   2.0000     -10.319776      -280.8154
  43   2.0000     -10.318520      -280.7812
  44   2.0000     -10.317672      -280.7581
  45   2.0000     -10.314302      -280.6664
  46   2.0000     -10.313055      -280.6325
  47   2.0000     -10.308327      -280.5038
  48   2.0000     -10.304431      -280.3978
  49   2.0000     -10.299936      -280.2755
  50   2.0000     -10.299484      -280.2632
  51   2.0000     -10.298699      -280.2418
  52   2.0000     -10.298569      -280.2383
  53   2.0000     -10.295630      -280.1583
  54   2.0000     -10.294708      -280.1332
  55   2.0000     -10.293720      -280.1064
  56   2.0000     -10.293022      -280.0874
  57   2.0000     -10.292551      -280.0745
  58   2.0000     -10.290831      -280.0277
  59   2.0000     -10.289904      -280.0025
  60   2.0000     -10.288704      -279.9699
  61   2.0000     -10.288028      -279.9515
  62   2.0000     -10.284837      -279.8646
  63   2.0000     -10.284705      -279.8610
  64   2.0000     -10.283789      -279.8361
  65   2.0000     -10.280420      -279.7445
  66   2.0000     -10.279111      -279.7088
  67   2.0000     -10.274877      -279.5936
  68   2.0000     -10.272596      -279.5315
  69   2.0000     -10.272469      -279.5281
  70   2.0000     -10.271354      -279.4978
  71   2.0000     -10.256839      -279.1028
  72   2.0000      -8.083516      -219.9636
  73   2.0000      -8.078549      -219.8285
  74   2.0000      -8.073044      -219.6787
  75   2.0000      -8.072991      -219.6773
  76   2.0000      -8.066444      -219.4991
  77   2.0000      -8.050249      -219.0584
  78   2.0000      -6.052859      -164.7067
  79   2.0000      -6.048590      -164.5905
  80   2.0000      -6.047726      -164.5670
  81   2.0000      -6.045786      -164.5142
  82   2.0000      -6.043614      -164.4551
  83   2.0000      -6.042706      -164.4304
  84   2.0000      -6.042249      -164.4180
  85   2.0000      -6.041000      -164.3840
  86   2.0000      -6.038136      -164.3060
  87   2.0000      -6.038026      -164.3030
  88   2.0000      -6.035607      -164.2372
  89   2.0000      -6.035389      -164.2313
  90   2.0000      -6.034767      -164.2144
  91   2.0000      -6.031380      -164.1222
  92   2.0000      -6.028954      -164.0562
  93   2.0000      -6.019714      -163.8048
  94   2.0000      -6.015453      -163.6888
  95   2.0000      -6.012249      -163.6016
  96   2.0000      -1.396318       -37.9957
  97   2.0000      -1.385881       -37.7117
  98   2.0000      -1.299285       -35.3553
  99   2.0000      -1.295891       -35.2630
 100   2.0000      -1.288174       -35.0530
 101   2.0000      -1.284830       -34.9620
 102   2.0000      -1.233654       -33.5694
 103   2.0000      -1.222014       -33.2527
 104   2.0000      -1.167106       -31.7586
 105   2.0000      -1.152518       -31.3616
 106   2.0000      -1.041668       -28.3452
 107   2.0000      -1.030893       -28.0520
 108   2.0000      -1.022338       -27.8192
 109   2.0000      -1.010301       -27.4917
 110   2.0000      -1.008895       -27.4534
 111   2.0000      -1.006399       -27.3855
 112   2.0000      -0.996557       -27.1177
 113   2.0000      -0.995270       -27.0827
 114   2.0000      -0.984046       -26.7772
 115   2.0000      -0.971480       -26.4353
 116   2.0000      -0.954761       -25.9804
 117   2.0000      -0.948036       -25.7974
 118   2.0000      -0.929171       -25.2840
 119   2.0000      -0.927970       -25.2514
 120   2.0000      -0.921254       -25.0686
 121   2.0000      -0.919930       -25.0326
 122   2.0000      -0.909847       -24.7582
 123   2.0000      -0.905750       -24.6467
 124   2.0000      -0.894281       -24.3346
 125   2.0000      -0.887065       -24.1383
 126   2.0000      -0.873889       -23.7797
 127   2.0000      -0.867096       -23.5949
 128   2.0000      -0.855407       -23.2768
 129   2.0000      -0.852013       -23.1845
 130   2.0000      -0.849608       -23.1190
 131   2.0000      -0.843160       -22.9436
 132   2.0000      -0.840463       -22.8702
 133   2.0000      -0.831500       -22.6263
 134   2.0000      -0.819561       -22.3014
 135   2.0000      -0.812428       -22.1073
 136   2.0000      -0.809089       -22.0164
 137   2.0000      -0.794375       -21.6160
 138   2.0000      -0.793965       -21.6049
 139   2.0000      -0.784164       -21.3382
 140   2.0000      -0.780430       -21.2366
 141   2.0000      -0.775143       -21.0927
 142   2.0000      -0.763448       -20.7745
 143   2.0000      -0.758824       -20.6486
 144   2.0000      -0.743528       -20.2324
 145   2.0000      -0.733369       -19.9560
 146   2.0000      -0.722597       -19.6629
 147   2.0000      -0.718284       -19.5455
 148   2.0000      -0.714743       -19.4492
 149   2.0000      -0.703388       -19.1402
 150   2.0000      -0.698016       -18.9940
 151   2.0000      -0.692763       -18.8510
 152   2.0000      -0.689056       -18.7502
 153   2.0000      -0.684335       -18.6217
 154   2.0000      -0.679938       -18.5021
 155   2.0000      -0.679571       -18.4921
 156   2.0000      -0.676907       -18.4196
 157   2.0000      -0.670394       -18.2424
 158   2.0000      -0.665902       -18.1201
 159   2.0000      -0.664392       -18.0790
 160   2.0000      -0.660454       -17.9719
 161   2.0000      -0.653143       -17.7729
 162   2.0000      -0.650760       -17.7081
 163   2.0000      -0.649362       -17.6700
 164   2.0000      -0.641725       -17.4622
 165   2.0000      -0.630907       -17.1679
 166   2.0000      -0.626659       -17.0523
 167   2.0000      -0.619266       -16.8511
 168   2.0000      -0.617576       -16.8051
 169   2.0000      -0.613026       -16.6813
 170   2.0000      -0.606092       -16.4926
 171   2.0000      -0.603713       -16.4279
 172   2.0000      -0.602692       -16.4001
 173   2.0000      -0.599861       -16.3230
 174   2.0000      -0.596729       -16.2378
 175   2.0000      -0.588855       -16.0235
 176   2.0000      -0.584322       -15.9002
 177   2.0000      -0.583029       -15.8650
 178   2.0000      -0.576430       -15.6855
 179   2.0000      -0.575517       -15.6606
 180   2.0000      -0.564616       -15.3640
 181   2.0000      -0.562679       -15.3113
 182   2.0000      -0.559161       -15.2155
 183   2.0000      -0.558094       -15.1865
 184   2.0000      -0.553485       -15.0611
 185   2.0000      -0.551891       -15.0177
 186   2.0000      -0.548541       -14.9266
 187   2.0000      -0.546195       -14.8627
 188   2.0000      -0.545078       -14.8323
 189   2.0000      -0.544953       -14.8289
 190   2.0000      -0.541670       -14.7396
 191   2.0000      -0.540598       -14.7104
 192   2.0000      -0.538862       -14.6632
 193   2.0000      -0.536757       -14.6059
 194   2.0000      -0.533658       -14.5216
 195   2.0000      -0.532380       -14.4868
 196   2.0000      -0.530655       -14.4399
 197   2.0000      -0.520071       -14.1519
 198   2.0000      -0.516010       -14.0414
 199   2.0000      -0.512930       -13.9575
 200   2.0000      -0.512760       -13.9529
 201   2.0000      -0.512304       -13.9405
 202   2.0000      -0.509743       -13.8708
 203   2.0000      -0.509024       -13.8512
 204   2.0000      -0.503663       -13.7054
 205   2.0000      -0.503169       -13.6919
 206   2.0000      -0.500785       -13.6270
 207   2.0000      -0.499097       -13.5811
 208   2.0000      -0.498490       -13.5646
 209   2.0000      -0.493755       -13.4358
 210   2.0000      -0.492484       -13.4012
 211   2.0000      -0.492077       -13.3901
 212   2.0000      -0.489241       -13.3129
 213   2.0000      -0.486565       -13.2401
 214   2.0000      -0.482690       -13.1347
 215   2.0000      -0.479925       -13.0594
 216   2.0000      -0.479524       -13.0485
 217   2.0000      -0.474576       -12.9139
 218   2.0000      -0.472484       -12.8570
 219   2.0000      -0.470678       -12.8078
 220   2.0000      -0.469243       -12.7688
 221   2.0000      -0.465942       -12.6789
 222   2.0000      -0.464822       -12.6484
 223   2.0000      -0.462679       -12.5901
 224   2.0000      -0.460852       -12.5404
 225   2.0000      -0.460376       -12.5275
 226   2.0000      -0.458907       -12.4875
 227   2.0000      -0.457678       -12.4541
 228   2.0000      -0.453261       -12.3339
 229   2.0000      -0.451160       -12.2767
 230   2.0000      -0.448705       -12.2099
 231   2.0000      -0.446278       -12.1438
 232   2.0000      -0.442966       -12.0537
 233   2.0000      -0.442742       -12.0476
 234   2.0000      -0.441815       -12.0224
 235   2.0000      -0.439998       -11.9730
 236   2.0000      -0.438833       -11.9412
 237   2.0000      -0.438269       -11.9259
 238   2.0000      -0.433761       -11.8032
 239   2.0000      -0.432447       -11.7675
 240   2.0000      -0.429737       -11.6937
 241   2.0000      -0.429537       -11.6883
 242   2.0000      -0.427622       -11.6362
 243   2.0000      -0.426532       -11.6065
 244   2.0000      -0.424588       -11.5536
 245   2.0000      -0.423914       -11.5353
 246   2.0000      -0.422321       -11.4919
 247   2.0000      -0.420824       -11.4512
 248   2.0000      -0.417448       -11.3593
 249   2.0000      -0.413634       -11.2556
 250   2.0000      -0.408359       -11.1120
 251   2.0000      -0.403101       -10.9689
 252   2.0000      -0.400923       -10.9097
 253   2.0000      -0.398688       -10.8489
 254   2.0000      -0.393184       -10.6991
 255   2.0000      -0.383697       -10.4409
 256   2.0000      -0.375050       -10.2056
 257   2.0000      -0.360411        -9.8073
 258   2.0000      -0.352606        -9.5949
 259   2.0000      -0.347206        -9.4480
 260   2.0000      -0.345435        -9.3998
 261   2.0000      -0.338460        -9.2100
 262   2.0000      -0.333976        -9.0879
 263   2.0000      -0.324106        -8.8194
 264   2.0000      -0.321092        -8.7374
 265   2.0000      -0.309053        -8.4097
 266   2.0000      -0.302843        -8.2408
 267   2.0000      -0.287644        -7.8272
 268   2.0000      -0.274222        -7.4619
 269   2.0000      -0.252860        -6.8807
 270   2.0000      -0.239260        -6.5106
 271   2.0000      -0.214419        -5.8346
 272   0.0000      -0.104251        -2.8368
 273   0.0000      -0.091828        -2.4988
 274   0.0000      -0.064057        -1.7431
 275   0.0000      -0.040693        -1.1073
 276   0.0000      -0.028811        -0.7840

MULLIKEN ATOMIC CHARGES
-----------------------
   0 C :    0.114022
   1 O :   -0.173981
   2 C :    0.071664
   3 C :    0.157795
   4 C :   -0.184717
   5 C :    0.527711
   6 F :   -0.156687
   7 F :   -0.162846
   8 F :   -0.163115
   9 O :   -0.297294
  10 C :    0.173635
  11 C :   -0.019195
  12 C :    0.038491
  13 C :   -0.072757
  14 C :   -0.037629
  15 C :    0.004453
  16 C :   -0.110562
  17 S :    0.182621
  18 C :   -0.100348
  19 C :    0.004171
  20 C :    0.309490
  21 C :   -0.299814
  22 C :   -0.182019
  23 N :    0.162099
  24 C :   -0.188513
  25 N :    0.169426
  26 C :   -0.043340
  27 C :   -0.063183
  28 S :    0.183562
  29 C :   -0.037489
  30 C :   -0.074282
  31 C :    0.048926
  32 C :    0.066682
  33 C :   -0.132910
  34 S :    0.118752
  35 C :   -0.109226
  36 C :    0.048554
  37 C :    0.008977
  38 C :   -0.068907
  39 S :    0.126035
  40 C :    0.083715
  41 C :   -0.027278
  42 C :    0.027232
  43 C :   -0.082551
  44 C :   -0.040994
  45 C :    0.007515
  46 C :   -0.111993
  47 S :    0.219069
  48 C :   -0.091991
  49 C :   -0.018761
  50 C :    0.313596
  51 C :   -0.308676
  52 C :   -0.191751
  53 N :    0.176771
  54 C :   -0.184816
  55 N :    0.160694
  56 C :   -0.009071
  57 C :   -0.139044
  58 S :    0.215734
  59 C :    0.153749
  60 O :   -0.194328
  61 C :    0.068550
  62 C :    0.132446
  63 C :   -0.185210
  64 C :    0.523947
  65 F :   -0.156205
  66 F :   -0.166178
  67 F :   -0.160892
  68 O :   -0.304130
  69 C :    0.176307
  70 C :   -0.023877
  71 C :   -0.006781
  72 H :    0.026913
  73 H :    0.044097
  74 H :    0.034789
  75 H :    0.033764
  76 H :    0.014225
  77 H :   -0.011187
  78 H :    0.006046
  79 H :    0.000332
  80 H :   -0.018668
  81 H :    0.036572
  82 H :   -0.009781
  83 H :    0.027969
  84 H :   -0.014737
  85 H :   -0.022860
  86 H :    0.001329
  87 H :    0.010096
  88 H :    0.034266
  89 H :    0.029689
  90 H :    0.041313
  91 H :    0.003039
  92 H :    0.019440
  93 H :    0.020301
Sum of atomic charges:   -0.0000000

LOEWDIN ATOMIC CHARGES
----------------------
   0 C :    0.069386
   1 O :    0.038990
   2 C :   -0.015241
   3 C :    0.027996
   4 C :   -0.165722
   5 C :    0.170803
   6 F :   -0.054719
   7 F :   -0.062681
   8 F :   -0.062940
   9 O :   -0.090483
  10 C :    0.076300
  11 C :   -0.017760
  12 C :   -0.056179
  13 C :   -0.157911
  14 C :   -0.033359
  15 C :   -0.070274
  16 C :   -0.189170
  17 S :    0.471013
  18 C :   -0.181369
  19 C :   -0.072320
  20 C :    0.087817
  21 C :   -0.108117
  22 C :   -0.009607
  23 N :   -0.048506
  24 C :   -0.016502
  25 N :   -0.035513
  26 C :   -0.030205
  27 C :   -0.184684
  28 S :    0.463996
  29 C :   -0.187380
  30 C :   -0.019363
  31 C :   -0.023000
  32 C :   -0.044061
  33 C :   -0.143403
  34 S :    0.431946
  35 C :   -0.205440
  36 C :   -0.038017
  37 C :   -0.062384
  38 C :   -0.163167
  39 S :    0.420091
  40 C :   -0.048866
  41 C :   -0.008573
  42 C :   -0.059426
  43 C :   -0.158611
  44 C :   -0.035765
  45 C :   -0.063916
  46 C :   -0.198285
  47 S :    0.500435
  48 C :   -0.168699
  49 C :   -0.080883
  50 C :    0.085228
  51 C :   -0.108178
  52 C :   -0.018975
  53 N :   -0.033368
  54 C :   -0.013648
  55 N :   -0.042631
  56 C :   -0.014654
  57 C :   -0.195422
  58 S :    0.492228
  59 C :    0.036944
  60 O :    0.026099
  61 C :   -0.010390
  62 C :    0.024395
  63 C :   -0.163970
  64 C :    0.171632
  65 F :   -0.049013
  66 F :   -0.068348
  67 F :   -0.053772
  68 O :   -0.099736
  69 C :    0.078469
  70 C :   -0.034687
  71 C :   -0.048096
  72 H :    0.032100
  73 H :    0.032959
  74 H :    0.017192
  75 H :    0.016848
  76 H :    0.042556
  77 H :    0.028771
  78 H :    0.038400
  79 H :    0.036287
  80 H :    0.036567
  81 H :    0.036428
  82 H :    0.032823
  83 H :    0.023945
  84 H :    0.031644
  85 H :    0.023601
  86 H :    0.036437
  87 H :    0.037219
  88 H :    0.026724
  89 H :    0.017015
  90 H :    0.018189
  91 H :    0.040031
  92 H :    0.022809
  93 H :    0.025078

  Mayer bond orders larger than 0.100000
B(  0-C ,  1-O ) :   1.1997 B(  0-C ,  4-C ) :   1.4891 B(  0-C , 72-H ) :   1.0128
B(  1-O ,  2-C ) :   1.1190 B(  2-C ,  3-C ) :   1.4244 B(  2-C , 11-C ) :   1.1631
B(  3-C ,  4-C ) :   1.2191 B(  3-C ,  9-O ) :   1.2270 B(  4-C ,  5-C ) :   0.9557
B(  5-C ,  6-F ) :   1.1713 B(  5-C ,  7-F ) :   1.1539 B(  5-C ,  8-F ) :   1.1536
B(  9-O , 10-C ) :   0.9254 B( 10-C , 73-H ) :   0.9773 B( 10-C , 74-H ) :   0.9655
B( 10-C , 75-H ) :   0.9652 B( 11-C , 12-C ) :   1.6646 B( 11-C , 76-H ) :   0.9610
B( 12-C , 13-C ) :   1.1001 B( 12-C , 77-H ) :   0.9706 B( 13-C , 14-C ) :   1.4692
B( 13-C , 17-S ) :   1.1019 B( 14-C , 15-C ) :   1.2912 B( 14-C , 78-H ) :   0.9898
B( 15-C , 16-C ) :   1.4320 B( 15-C , 20-C ) :   1.0045 B( 16-C , 17-S ) :   1.1176
B( 16-C , 18-C ) :   1.2012 B( 18-C , 19-C ) :   1.4404 B( 18-C , 28-S ) :   1.1170
B( 19-C , 20-C ) :   1.0006 B( 19-C , 26-C ) :   1.3021 B( 20-C , 21-C ) :   1.7014
B( 21-C , 22-C ) :   1.1325 B( 21-C , 24-C ) :   1.1361 B( 22-C , 23-N ) :   2.9892
B( 24-C , 25-N ) :   2.9907 B( 26-C , 27-C ) :   1.4794 B( 26-C , 79-H ) :   0.9847
B( 27-C , 28-S ) :   1.0985 B( 27-C , 29-C ) :   1.1176 B( 29-C , 30-C ) :   1.5545
B( 29-C , 34-S ) :   1.0391 B( 30-C , 31-C ) :   1.2324 B( 30-C , 80-H ) :   0.9649
B( 31-C , 32-C ) :   1.0506 B( 31-C , 40-C ) :   1.3838 B( 32-C , 33-C ) :   1.6185
B( 32-C , 35-C ) :   1.1749 B( 33-C , 34-S ) :   1.1269 B( 33-C , 81-H ) :   0.9411
B( 35-C , 36-C ) :   1.4432 B( 35-C , 39-S ) :   1.0737 B( 36-C , 37-C ) :   1.2213
B( 36-C , 40-C ) :   1.0985 B( 37-C , 38-C ) :   1.5835 B( 37-C , 82-H ) :   0.9988
B( 38-C , 39-S ) :   1.1549 B( 38-C , 83-H ) :   0.9666 B( 40-C , 41-C ) :   1.1634
B( 41-C , 42-C ) :   1.6459 B( 41-C , 84-H ) :   0.9599 B( 42-C , 43-C ) :   1.1295
B( 42-C , 85-H ) :   0.9555 B( 43-C , 44-C ) :   1.4363 B( 43-C , 47-S ) :   1.1203
B( 44-C , 45-C ) :   1.3144 B( 44-C , 86-H ) :   0.9887 B( 45-C , 46-C ) :   1.4278
B( 45-C , 50-C ) :   0.9954 B( 46-C , 47-S ) :   1.1261 B( 46-C , 48-C ) :   1.1939
B( 48-C , 49-C ) :   1.4306 B( 48-C , 58-S ) :   1.1356 B( 49-C , 50-C ) :   0.9978
B( 49-C , 56-C ) :   1.3010 B( 50-C , 51-C ) :   1.7034 B( 51-C , 52-C ) :   1.1367
B( 51-C , 54-C ) :   1.1367 B( 52-C , 53-N ) :   2.9928 B( 54-C , 55-N ) :   2.9852
B( 56-C , 57-C ) :   1.5020 B( 56-C , 87-H ) :   0.9800 B( 57-C , 58-S ) :   1.0847
B( 57-C , 59-C ) :   1.0782 B( 59-C , 60-O ) :   1.2173 B( 59-C , 61-C ) :   0.1206
B( 59-C , 63-C ) :   1.4831 B( 60-O , 61-C ) :   1.0959 B( 61-C , 62-C ) :   1.4491
B( 61-C , 70-C ) :   1.1401 B( 62-C , 63-C ) :   1.2008 B( 62-C , 68-O ) :   1.2252
B( 63-C , 64-C ) :   0.9503 B( 64-C , 65-F ) :   1.1601 B( 64-C , 66-F ) :   1.1434
B( 64-C , 67-F ) :   1.1534 B( 68-O , 69-C ) :   0.9257 B( 69-C , 88-H ) :   0.9782
B( 69-C , 89-H ) :   0.9632 B( 69-C , 90-H ) :   0.9736 B( 70-C , 71-C ) :   1.9008
B( 70-C , 91-H ) :   0.9563 B( 71-C , 92-H ) :   0.9581 B( 71-C , 93-H ) :   0.9466

-----------------------------------------------------------------------------
         ABSORPTION SPECTRUM VIA TRANSITION ELECTRIC DIPOLE MOMENTS
-----------------------------------------------------------------------------
State   Energy  Wavelength   fosc         T2         TX        TY        TZ
        (cm-1)    (nm)                  (au**2)     (au)      (au)      (au)
-----------------------------------------------------------------------------
   0    8572.7   1166.5   0.153905281   5.91030  -0.13610  -1.81821   1.60807
   1   10404.7    961.1   0.129775300   4.10616  -0.05660  -0.90497  -1.81218
   2   14313.2    698.7   0.030658215   0.70516   0.01204  -0.36023  -0.75845
   3   17109.6    584.5   0.597758821  11.50168  -0.19102  -1.74944   2.89908
   4   18499.2    540.6   0.145850970   2.59556   0.00847   0.39882  -1.56091
   5   20504.0    487.7   0.012052316   0.19351  -0.05974  -0.39040  -0.19372
   6   21347.2    468.4   0.154967687   2.38988  -0.03772  -0.91493   1.24553
   7   23107.3    432.8   0.025634348   0.36521  -0.09757   0.53197   0.26964
   8   23676.5    422.4   0.097938017   1.36179   0.08431   1.14186   0.22545
   9   24480.9    408.5   1.587460896  21.34774   0.42344   4.42213   1.27013
  10   26011.8    384.4   0.297561928   3.76602   0.34202   1.60493   1.03598
  11   26536.5    376.8   0.273382811   3.39159   0.15736   1.70797   0.67056
  12   27382.4    365.2   0.350012588   4.20812  -0.25488   0.96443  -1.79249
  13   27428.6    364.6   0.114606413   1.37557  -0.30053  -0.29741  -1.09398
  14   28406.4    352.0   0.010656153   0.12350  -0.02959  -0.35014   0.00524
  15   28946.3    345.5   0.016388200   0.18639   0.21002   0.34403   0.15468
  16   29387.1    340.3   0.040139051   0.44966  -0.14305   0.23896   0.61000
  17   30542.8    327.4   1.122371371  12.09772   1.25732   1.58993  -2.82648
  18   31235.3    320.2   0.340477260   3.58854   0.46999   1.31390   1.28114
  19   31410.0    318.4   0.065032904   0.68162   0.65403   0.10879   0.49196
  20   31705.7    315.4   0.055569855   0.57700  -0.03787   0.75861   0.00910
  21   31990.1    312.6   0.068658041   0.70656  -0.18145  -0.78710   0.23264
  22   32854.2    304.4   0.330512866   3.31187   0.55791   1.41521   0.99889
  23   33066.5    302.4   0.454955154   4.52956  -0.16823  -1.94733  -0.84211
  24   33407.7    299.3   0.077890268   0.76756  -0.21178  -0.82950   0.18612
  25   33516.7    298.4   0.000944357   0.00928  -0.00480  -0.03741  -0.08862
  26   34231.7    292.1   0.111495521   1.07227  -0.04682  -0.80701   0.64716
  27   34724.1    288.0   0.198524632   1.88217  -0.11451  -1.30915  -0.39395
  28   35361.4    282.8   0.009400527   0.08752   0.13298   0.13812  -0.22529
  29   35466.5    282.0   0.026916989   0.24985   0.01351  -0.49147  -0.09016
  30   35547.2    281.3   0.077046260   0.71355  -0.12944  -0.83472   0.00498
  31   35724.1    279.9   0.073081346   0.67347  -0.11585  -0.67530  -0.45169
  32   36432.6    274.5   0.045058501   0.40716  -0.01833   0.28779  -0.56921
  33   37066.0    269.8   0.100238807   0.89030  -0.22028  -0.79720   0.45414
  34   37247.0    268.5   0.006579361   0.05815   0.03748   0.23792  -0.01185
  35   37278.3    268.3   0.010845368   0.09578   0.08792   0.25728  -0.14783
  36   37739.7    265.0   0.012855646   0.11214  -0.05630   0.29971   0.13837
  37   38195.6    261.8   0.016124378   0.13898  -0.00004  -0.03629  -0.37103
  38   38248.2    261.5   0.011426212   0.09835   0.01128   0.07089  -0.30528
  39   38816.9    257.6   0.015913029   0.13496   0.20648  -0.25688   0.16229
  40   39128.6    255.6   0.035875103   0.30184   0.08736   0.40609  -0.35958
  41   39289.0    254.5   0.028288498   0.23704   0.19591   0.34054  -0.28755
  42   39601.1    252.5   0.062512966   0.51968   0.09318   0.65934  -0.27617
  43   40145.0    249.1   0.002777874   0.02278  -0.10243  -0.00378   0.11079

FINAL SINGLE POINT ENERGY     -5498.197998397881

DIPOLE MOMENT
-------------
                                X             Y             Z
Electronic contribution:    -11.18725      13.09902     -19.32097
Nuclear contribution   :     12.34435     -12.12856      15.90902
                        -----------------------------------------
Total Dipole Moment    :      1.15711       0.97046      -3.41194
                        -----------------------------------------
Magnitude (a.u.)       :      3.73123
Magnitude (Debye)      :      9.48402

Rotational constants in cm-1:     0.000651     0.000330     0.000224
Rotational constants in MHz :    19.517395     9.887793     6.714769

                             ****ORCA TERMINATED NORMALLY****
TOTAL RUN TIME: 0 days 0 hours 9 minutes 27 seconds 594 msec
