                         Program Version 4.2.0 -  RELEASE  -
|  1> # ORCA input file
|  2> # SCF done       -160.493330923058          0.000543706151
|  3> ! CAM-B3LYP def2-SVP def2/J RIJCOSX Grid4 TightSCF
|  4> %maxcore 5000
|  5> %tddft
|  6>     Mode sTDDFT
|  7>     Ethresh 5.0
|  8>     maxcore 5000
|  9> end
| 10>
| 11> %pal
| 12>   nprocs 6
| 13>   end
| 14> * xyz 0 1
| 15>    C        0.94928         1.22573        10.65586
| 16>    O       -0.04150         1.54495        11.50945
| 17>    C       -0.81707         2.41263        10.81623
| 18>    C       -0.23382         2.56177         9.52848
| 19>    N        0.89718         1.77318         9.49687
| 20>    C       -0.77262         3.40255         8.56985
| 21>    C       -1.89780         4.10373         8.97806
| 22>    C       -2.46546         3.93188        10.27629
| 23>    C       -1.95572         3.08031        11.23338
| 24>    O       -3.52409         4.76560        10.36846
| 25>    C       -3.56593         5.41831         9.15908
| 26>    N       -2.62131         5.05906         8.32834
| 27>    C       -4.56831         6.38565         8.93843
| 28>    C       -4.67639         7.08185         7.76480
| 29>    C       -5.66296         8.03999         7.52524
| 30>    C       -5.80639         8.74850         6.34778
| 31>    C       -6.78596         9.72600         6.07085
| 32>    C       -6.69302        10.26926         4.81924
| 33>    C       -5.63715         9.74463         4.05244
| 34>    S       -4.75971         8.53974         4.95756
| 35>    C       -5.27342        10.08836         2.75127
| 36>    C       -5.84779        11.06796         1.92193
| 37>    C       -5.23628        11.16573         0.70167
| 38>    C       -4.14837        10.28477         0.53125
| 39>    S       -3.93687         9.30815         1.95258
| 40>    C       -3.41202        10.15069        -0.64330
| 41>    C       -2.26893         9.39968        -0.85365
| 42>    C       -1.34551         8.77323         0.01247
| 43>    C       -0.39621         8.08210        -0.76423
| 44>    C       -0.69686         8.28918        -2.17204
| 45>    O       -0.16566         7.88879        -3.18431
| 46>    N       -1.81282         9.11805        -2.13526
| 47>    C        0.50954         7.46775         0.10616
| 48>    O        0.16059         7.80828         1.39002
| 49>    C       -0.93621         8.65432         1.39219
| 50>    O       -1.32813         9.15997         2.41369
| 51>    C        1.58052         6.62180        -0.10939
| 52>    C        2.27894         6.02248         0.93356
| 53>    C        3.35606         5.12223         0.84203
| 54>    C        3.79133         4.65154         2.05402
| 55>    C        3.06722         5.16697         3.14206
| 56>    S        1.83928         6.28132         2.59894
| 57>    C        3.19159         4.87769         4.49834
| 58>    C        4.08085         4.00142         5.14822
| 59>    C        3.89007         3.92914         6.49920
| 60>    C        2.83804         4.74452         6.97806
| 61>    S        2.11157         5.62308         5.64891
| 62>    C        2.39920         4.83417         8.27772
| 63>    C        1.32803         5.60325         8.74861
| 64>    S        0.33774         6.69378         7.78306
| 65>    C       -0.70360         7.10051         9.07902
| 66>    C       -0.32954         6.44717        10.23445
| 67>    C        0.80752         5.60970        10.03629
| 68>    O        1.12252         4.94714        11.16404
| 69>    C        0.19874         5.34477        12.08409
| 70>    N        0.26740         4.76060        13.36777
| 71>    O       -0.58901         5.09758        14.16483
| 72>    O        1.15663         3.96440        13.58265
| 73>    C       -0.70469         6.25005        11.59072
| 74>    H        1.70738         0.54806        10.99637
| 75>    H       -0.34837         3.51251         7.58785
| 76>    H       -2.38649         2.96205        12.21265
| 77>    H       -5.26155         6.54994         9.75031
| 78>    H       -3.95741         6.87073         6.98441
| 79>    H       -6.37621         8.24992         8.31220
| 80>    H       -7.52763        10.00271         6.79915
| 81>    H       -7.35495        11.02612         4.43890
| 82>    H       -6.67872        11.67529         2.23181
| 83>    H       -5.52927        11.85724        -0.06871
| 84>    H       -3.81133        10.66934        -1.50712
| 85>    H       -2.28589         9.42043        -2.97258
| 86>    H        1.85104         6.40637        -1.13120
| 87>    H        3.77530         4.83909        -0.10714
| 88>    H        4.59722         3.95017         2.17543
| 89>    H        4.82813         3.44546         4.61127
| 90>    H        4.46272         3.30809         7.16435
| 91>    H        2.89367         4.22083         9.01902
| 92>    H       -1.51093         7.78515         8.92128
| 93>    H       -1.51457         6.68982        12.13523
| 94> *
| 95>
| 96>                          ****END OF INPUT****

CARTESIAN COORDINATES (ANGSTROEM)
---------------------------------
  C      0.949280    1.225730   10.655860
  O     -0.041500    1.544950   11.509450
  C     -0.817070    2.412630   10.816230
  C     -0.233820    2.561770    9.528480
  N      0.897180    1.773180    9.496870
  C     -0.772620    3.402550    8.569850
  C     -1.897800    4.103730    8.978060
  C     -2.465460    3.931880   10.276290
  C     -1.955720    3.080310   11.233380
  O     -3.524090    4.765600   10.368460
  C     -3.565930    5.418310    9.159080
  N     -2.621310    5.059060    8.328340
  C     -4.568310    6.385650    8.938430
  C     -4.676390    7.081850    7.764800
  C     -5.662960    8.039990    7.525240
  C     -5.806390    8.748500    6.347780
  C     -6.785960    9.726000    6.070850
  C     -6.693020   10.269260    4.819240
  C     -5.637150    9.744630    4.052440
  S     -4.759710    8.539740    4.957560
  C     -5.273420   10.088360    2.751270
  C     -5.847790   11.067960    1.921930
  C     -5.236280   11.165730    0.701670
  C     -4.148370   10.284770    0.531250
  S     -3.936870    9.308150    1.952580
  C     -3.412020   10.150690   -0.643300
  C     -2.268930    9.399680   -0.853650
  C     -1.345510    8.773230    0.012470
  C     -0.396210    8.082100   -0.764230
  C     -0.696860    8.289180   -2.172040
  O     -0.165660    7.888790   -3.184310
  N     -1.812820    9.118050   -2.135260
  C      0.509540    7.467750    0.106160
  O      0.160590    7.808280    1.390020
  C     -0.936210    8.654320    1.392190
  O     -1.328130    9.159970    2.413690
  C      1.580520    6.621800   -0.109390
  C      2.278940    6.022480    0.933560
  C      3.356060    5.122230    0.842030
  C      3.791330    4.651540    2.054020
  C      3.067220    5.166970    3.142060
  S      1.839280    6.281320    2.598940
  C      3.191590    4.877690    4.498340
  C      4.080850    4.001420    5.148220
  C      3.890070    3.929140    6.499200
  C      2.838040    4.744520    6.978060
  S      2.111570    5.623080    5.648910
  C      2.399200    4.834170    8.277720
  C      1.328030    5.603250    8.748610
  S      0.337740    6.693780    7.783060
  C     -0.703600    7.100510    9.079020
  C     -0.329540    6.447170   10.234450
  C      0.807520    5.609700   10.036290
  O      1.122520    4.947140   11.164040
  C      0.198740    5.344770   12.084090
  N      0.267400    4.760600   13.367770
  O     -0.589010    5.097580   14.164830
  O      1.156630    3.964400   13.582650
  C     -0.704690    6.250050   11.590720
  H      1.707380    0.548060   10.996370
  H     -0.348370    3.512510    7.587850
  H     -2.386490    2.962050   12.212650
  H     -5.261550    6.549940    9.750310
  H     -3.957410    6.870730    6.984410
  H     -6.376210    8.249920    8.312200
  H     -7.527630   10.002710    6.799150
  H     -7.354950   11.026120    4.438900
  H     -6.678720   11.675290    2.231810
  H     -5.529270   11.857240   -0.068710
  H     -3.811330   10.669340   -1.507120
  H     -2.285890    9.420430   -2.972580
  H      1.851040    6.406370   -1.131200
  H      3.775300    4.839090   -0.107140
  H      4.597220    3.950170    2.175430
  H      4.828130    3.445460    4.611270
  H      4.462720    3.308090    7.164350
  H      2.893670    4.220830    9.019020
  H     -1.510930    7.785150    8.921280
  H     -1.514570    6.689820   12.135230

 Total Charge           Charge          ....    0
 Multiplicity           Mult            ....    1
 Number of Electrons    NEL             ....  444
 Basis Dimension        Dim             ....  946

ORBITAL ENERGIES
----------------

  NO   OCC          E(Eh)            E(eV)
   0   2.0000     -88.975726     -2421.1526
   1   2.0000     -88.954452     -2420.5737
   2   2.0000     -88.952456     -2420.5194
   3   2.0000     -88.948242     -2420.4047
   4   2.0000     -88.945370     -2420.3266
   5   2.0000     -19.313160      -525.5378
   6   2.0000     -19.295597      -525.0599
   7   2.0000     -19.292440      -524.9740
   8   2.0000     -19.267200      -524.2872
   9   2.0000     -19.244790      -523.6774
  10   2.0000     -19.242427      -523.6130
  11   2.0000     -19.189677      -522.1777
  12   2.0000     -19.170222      -521.6483
  13   2.0000     -14.655994      -398.8099
  14   2.0000     -14.440176      -392.9372
  15   2.0000     -14.405515      -391.9940
  16   2.0000     -14.400842      -391.8668
  17   2.0000     -10.391036      -282.7545
  18   2.0000     -10.386154      -282.6216
  19   2.0000     -10.363892      -282.0158
  20   2.0000     -10.363350      -282.0011
  21   2.0000     -10.361367      -281.9471
  22   2.0000     -10.350716      -281.6573
  23   2.0000     -10.343781      -281.4686
  24   2.0000     -10.337315      -281.2926
  25   2.0000     -10.336431      -281.2686
  26   2.0000     -10.328572      -281.0547
  27   2.0000     -10.320470      -280.8343
  28   2.0000     -10.318013      -280.7674
  29   2.0000     -10.317312      -280.7483
  30   2.0000     -10.317131      -280.7434
  31   2.0000     -10.315943      -280.7111
  32   2.0000     -10.314296      -280.6663
  33   2.0000     -10.313581      -280.6468
  34   2.0000     -10.313530      -280.6454
  35   2.0000     -10.312982      -280.6305
  36   2.0000     -10.311913      -280.6014
  37   2.0000     -10.305512      -280.4272
  38   2.0000     -10.301338      -280.3137
  39   2.0000     -10.300475      -280.2902
  40   2.0000     -10.300084      -280.2795
  41   2.0000     -10.298500      -280.2364
  42   2.0000     -10.294187      -280.1191
  43   2.0000     -10.292855      -280.0828
  44   2.0000     -10.290054      -280.0066
  45   2.0000     -10.289668      -279.9961
  46   2.0000     -10.289642      -279.9954
  47   2.0000     -10.289404      -279.9889
  48   2.0000     -10.288551      -279.9657
  49   2.0000     -10.288039      -279.9518
  50   2.0000     -10.287769      -279.9444
  51   2.0000     -10.285946      -279.8948
  52   2.0000     -10.284530      -279.8563
  53   2.0000     -10.282818      -279.8097
  54   2.0000     -10.282559      -279.8026
  55   2.0000     -10.280036      -279.7340
  56   2.0000     -10.277163      -279.6558
  57   2.0000     -10.267638      -279.3966
  58   2.0000     -10.263353      -279.2800
  59   2.0000      -8.070057      -219.5974
  60   2.0000      -8.050612      -219.0683
  61   2.0000      -8.048726      -219.0170
  62   2.0000      -8.044101      -218.8911
  63   2.0000      -8.040966      -218.8058
  64   2.0000      -6.039406      -164.3406
  65   2.0000      -6.034975      -164.2200
  66   2.0000      -6.032425      -164.1506
  67   2.0000      -6.020247      -163.8193
  68   2.0000      -6.018320      -163.7668
  69   2.0000      -6.016106      -163.7066
  70   2.0000      -6.014292      -163.6572
  71   2.0000      -6.013583      -163.6379
  72   2.0000      -6.011766      -163.5885
  73   2.0000      -6.010675      -163.5588
  74   2.0000      -6.009866      -163.5368
  75   2.0000      -6.009358      -163.5229
  76   2.0000      -6.006247      -163.4383
  77   2.0000      -6.005493      -163.4178
  78   2.0000      -6.002219      -163.3287
  79   2.0000      -1.327170       -36.1141
  80   2.0000      -1.232271       -33.5318
  81   2.0000      -1.227118       -33.3916
  82   2.0000      -1.219487       -33.1839
  83   2.0000      -1.197747       -32.5923
  84   2.0000      -1.143437       -31.1145
  85   2.0000      -1.111708       -30.2511
  86   2.0000      -1.099588       -29.9213
  87   2.0000      -1.041056       -28.3286
  88   2.0000      -1.018297       -27.7093
  89   2.0000      -1.012029       -27.5387
  90   2.0000      -1.003392       -27.3037
  91   2.0000      -1.000805       -27.2333
  92   2.0000      -0.994573       -27.0637
  93   2.0000      -0.978690       -26.6315
  94   2.0000      -0.976633       -26.5755
  95   2.0000      -0.950871       -25.8745
  96   2.0000      -0.936764       -25.4907
  97   2.0000      -0.914958       -24.8973
  98   2.0000      -0.906334       -24.6626
  99   2.0000      -0.898782       -24.4571
 100   2.0000      -0.892364       -24.2825
 101   2.0000      -0.890101       -24.2209
 102   2.0000      -0.877024       -23.8650
 103   2.0000      -0.867945       -23.6180
 104   2.0000      -0.854263       -23.2457
 105   2.0000      -0.852192       -23.1893
 106   2.0000      -0.845712       -23.0130
 107   2.0000      -0.837439       -22.7879
 108   2.0000      -0.833613       -22.6838
 109   2.0000      -0.826870       -22.5003
 110   2.0000      -0.824415       -22.4335
 111   2.0000      -0.811126       -22.0719
 112   2.0000      -0.805159       -21.9095
 113   2.0000      -0.785682       -21.3795
 114   2.0000      -0.779966       -21.2239
 115   2.0000      -0.764398       -20.8003
 116   2.0000      -0.748081       -20.3563
 117   2.0000      -0.743612       -20.2347
 118   2.0000      -0.727193       -19.7879
 119   2.0000      -0.718461       -19.5503
 120   2.0000      -0.715170       -19.4608
 121   2.0000      -0.709130       -19.2964
 122   2.0000      -0.699131       -19.0243
 123   2.0000      -0.694707       -18.9039
 124   2.0000      -0.687251       -18.7011
 125   2.0000      -0.679691       -18.4953
 126   2.0000      -0.675191       -18.3729
 127   2.0000      -0.671043       -18.2600
 128   2.0000      -0.650177       -17.6922
 129   2.0000      -0.648042       -17.6341
 130   2.0000      -0.645801       -17.5731
 131   2.0000      -0.643220       -17.5029
 132   2.0000      -0.642386       -17.4802
 133   2.0000      -0.635102       -17.2820
 134   2.0000      -0.630866       -17.1667
 135   2.0000      -0.628807       -17.1107
 136   2.0000      -0.626722       -17.0540
 137   2.0000      -0.619305       -16.8521
 138   2.0000      -0.616902       -16.7867
 139   2.0000      -0.604947       -16.4615
 140   2.0000      -0.603632       -16.4257
 141   2.0000      -0.601170       -16.3587
 142   2.0000      -0.591149       -16.0860
 143   2.0000      -0.585861       -15.9421
 144   2.0000      -0.585718       -15.9382
 145   2.0000      -0.582843       -15.8600
 146   2.0000      -0.570593       -15.5266
 147   2.0000      -0.569116       -15.4864
 148   2.0000      -0.565932       -15.3998
 149   2.0000      -0.564273       -15.3546
 150   2.0000      -0.562123       -15.2961
 151   2.0000      -0.561015       -15.2660
 152   2.0000      -0.560760       -15.2590
 153   2.0000      -0.553228       -15.0541
 154   2.0000      -0.549865       -14.9626
 155   2.0000      -0.542850       -14.7717
 156   2.0000      -0.538480       -14.6528
 157   2.0000      -0.532569       -14.4919
 158   2.0000      -0.528491       -14.3810
 159   2.0000      -0.523714       -14.2510
 160   2.0000      -0.520544       -14.1647
 161   2.0000      -0.515936       -14.0393
 162   2.0000      -0.514151       -13.9908
 163   2.0000      -0.507879       -13.8201
 164   2.0000      -0.503654       -13.7051
 165   2.0000      -0.502106       -13.6630
 166   2.0000      -0.501357       -13.6426
 167   2.0000      -0.499297       -13.5866
 168   2.0000      -0.498222       -13.5573
 169   2.0000      -0.495131       -13.4732
 170   2.0000      -0.493903       -13.4398
 171   2.0000      -0.491052       -13.3622
 172   2.0000      -0.486793       -13.2463
 173   2.0000      -0.479788       -13.0557
 174   2.0000      -0.478733       -13.0270
 175   2.0000      -0.476769       -12.9735
 176   2.0000      -0.474847       -12.9213
 177   2.0000      -0.472458       -12.8562
 178   2.0000      -0.468153       -12.7391
 179   2.0000      -0.465209       -12.6590
 180   2.0000      -0.463333       -12.6079
 181   2.0000      -0.458457       -12.4753
 182   2.0000      -0.456673       -12.4267
 183   2.0000      -0.455386       -12.3917
 184   2.0000      -0.444229       -12.0881
 185   2.0000      -0.442845       -12.0504
 186   2.0000      -0.440926       -11.9982
 187   2.0000      -0.438832       -11.9412
 188   2.0000      -0.436310       -11.8726
 189   2.0000      -0.430920       -11.7259
 190   2.0000      -0.429322       -11.6824
 191   2.0000      -0.422873       -11.5069
 192   2.0000      -0.418698       -11.3934
 193   2.0000      -0.415060       -11.2944
 194   2.0000      -0.413798       -11.2600
 195   2.0000      -0.402157       -10.9432
 196   2.0000      -0.398988       -10.8570
 197   2.0000      -0.396516       -10.7898
 198   2.0000      -0.391281       -10.6473
 199   2.0000      -0.387694       -10.5497
 200   2.0000      -0.382921       -10.4198
 201   2.0000      -0.379055       -10.3146
 202   2.0000      -0.372273       -10.1301
 203   2.0000      -0.367022        -9.9872
 204   2.0000      -0.365030        -9.9330
 205   2.0000      -0.361827        -9.8458
 206   2.0000      -0.355712        -9.6794
 207   2.0000      -0.352226        -9.5846
 208   2.0000      -0.341548        -9.2940
 209   2.0000      -0.339113        -9.2277
 210   2.0000      -0.336677        -9.1615
 211   2.0000      -0.329066        -8.9543
 212   2.0000      -0.326907        -8.8956
 213   2.0000      -0.320762        -8.7284
 214   2.0000      -0.316900        -8.6233
 215   2.0000      -0.309236        -8.4147
 216   2.0000      -0.297757        -8.1024
 217   2.0000      -0.293206        -7.9785
 218   2.0000      -0.280828        -7.6417
 219   2.0000      -0.260553        -7.0900
 220   2.0000      -0.226925        -6.1750
 221   2.0000      -0.193926        -5.2770
 222   0.0000      -0.110275        -3.0007
 223   0.0000      -0.086138        -2.3439
 224   0.0000      -0.061863        -1.6834
 225   0.0000      -0.036014        -0.9800
 226   0.0000      -0.015847        -0.4312

MULLIKEN ATOMIC CHARGES
-----------------------
   0 C :    0.178355
   1 O :   -0.185696
   2 C :    0.187022
   3 C :   -0.003548
   4 N :   -0.086990
   5 C :   -0.057852
   6 C :    0.005700
   7 C :    0.226967
   8 C :   -0.173969
   9 O :   -0.214688
  10 C :    0.134307
  11 N :   -0.069278
  12 C :   -0.057383
  13 C :    0.028922
  14 C :   -0.020684
  15 C :   -0.011188
  16 C :    0.031255
  17 C :    0.026238
  18 C :   -0.044591
  19 S :    0.116108
  20 C :   -0.052927
  21 C :    0.024897
  22 C :    0.026621
  23 C :   -0.039465
  24 S :    0.177483
  25 C :   -0.039827
  26 C :    0.114194
  27 C :   -0.128868
  28 C :   -0.025963
  29 C :    0.121315
  30 O :   -0.182802
  31 N :   -0.126437
  32 C :    0.108966
  33 O :   -0.278372
  34 C :    0.213688
  35 O :   -0.157941
  36 C :   -0.048047
  37 C :   -0.011493
  38 C :    0.021975
  39 C :    0.031483
  40 C :   -0.050900
  41 S :    0.142278
  42 C :   -0.022977
  43 C :    0.020448
  44 C :    0.053322
  45 C :   -0.044981
  46 S :    0.080452
  47 C :    0.023643
  48 C :   -0.201722
  49 S :    0.166221
  50 C :   -0.083901
  51 C :    0.101369
  52 C :    0.206300
  53 O :   -0.191145
  54 C :    0.227722
  55 N :    0.265943
  56 O :   -0.252368
  57 O :   -0.230817
  58 C :   -0.044153
  59 H :    0.030653
  60 H :   -0.028894
  61 H :   -0.011159
  62 H :   -0.005059
  63 H :    0.026794
  64 H :   -0.012671
  65 H :   -0.010291
  66 H :   -0.010081
  67 H :   -0.015019
  68 H :   -0.013095
  69 H :   -0.026936
  70 H :    0.118650
  71 H :    0.007655
  72 H :   -0.008140
  73 H :   -0.011054
  74 H :   -0.010955
  75 H :   -0.003079
  76 H :    0.010558
  77 H :    0.039841
  78 H :    0.010055
Sum of atomic charges:   -0.0000000

LOEWDIN ATOMIC CHARGES
----------------------
   0 C :    0.084903
   1 O :    0.002361
   2 C :    0.023356
   3 C :   -0.045086
   4 N :   -0.105658
   5 C :   -0.019147
   6 C :   -0.039829
   7 C :    0.032391
   8 C :   -0.070466
   9 O :   -0.016790
  10 C :    0.056083
  11 N :   -0.110900
  12 C :   -0.069826
  13 C :    0.009715
  14 C :   -0.062827
  15 C :   -0.136045
  16 C :   -0.037525
  17 C :   -0.027441
  18 C :   -0.172475
  19 S :    0.405484
  20 C :   -0.178072
  21 C :   -0.038240
  22 C :   -0.036313
  23 C :   -0.143841
  24 S :    0.477979
  25 C :   -0.079749
  26 C :    0.040069
  27 C :   -0.129980
  28 C :   -0.107002
  29 C :    0.061142
  30 O :   -0.207959
  31 N :    0.022479
  32 C :    0.079443
  33 O :   -0.063440
  34 C :    0.083345
  35 O :   -0.167736
  36 C :   -0.079306
  37 C :   -0.126773
  38 C :   -0.043174
  39 C :   -0.022648
  40 C :   -0.196867
  41 S :    0.437286
  42 C :   -0.156399
  43 C :   -0.043865
  44 C :   -0.013410
  45 C :   -0.165458
  46 S :    0.390462
  47 C :   -0.036768
  48 C :   -0.208640
  49 S :    0.496084
  50 C :   -0.154131
  51 C :   -0.092555
  52 C :    0.032692
  53 O :    0.009838
  54 C :    0.019749
  55 N :    0.273403
  56 O :   -0.214029
  57 O :   -0.194674
  58 C :   -0.000931
  59 H :    0.025788
  60 H :    0.039105
  61 H :    0.043810
  62 H :    0.035094
  63 H :    0.033262
  64 H :    0.033299
  65 H :    0.034128
  66 H :    0.033425
  67 H :    0.030805
  68 H :    0.032639
  69 H :    0.034949
  70 H :    0.085550
  71 H :    0.049626
  72 H :    0.034798
  73 H :    0.032015
  74 H :    0.033502
  75 H :    0.037690
  76 H :    0.049224
  77 H :    0.032214
  78 H :    0.046790

  Mayer bond orders larger than 0.100000
B(  0-C ,  1-O ) :   1.1361 B(  0-C ,  4-N ) :   1.7816 B(  0-C , 59-H ) :   0.9842
B(  1-O ,  2-C ) :   1.1202 B(  2-C ,  3-C ) :   1.2959 B(  2-C ,  8-C ) :   1.2859
B(  3-C ,  4-N ) :   1.2804 B(  3-C ,  5-C ) :   1.2846 B(  5-C ,  6-C ) :   1.2911
B(  5-C ,  8-C ) :   0.1585 B(  5-C , 60-H ) :   1.0435 B(  6-C ,  7-C ) :   1.2451
B(  6-C , 11-N ) :   1.2957 B(  7-C ,  8-C ) :   1.3268 B(  7-C ,  9-O ) :   1.1047
B(  8-C , 61-H ) :   1.0561 B(  9-O , 10-C ) :   1.1037 B( 10-C , 11-N ) :   1.6598
B( 10-C , 12-C ) :   1.1426 B( 12-C , 13-C ) :   1.5648 B( 12-C , 62-H ) :   0.9670
B( 13-C , 14-C ) :   1.2036 B( 13-C , 63-H ) :   0.9738 B( 14-C , 15-C ) :   1.4830
B( 14-C , 64-H ) :   0.9826 B( 15-C , 16-C ) :   1.1849 B( 15-C , 19-S ) :   1.0565
B( 16-C , 17-C ) :   1.5255 B( 16-C , 65-H ) :   1.0009 B( 17-C , 18-C ) :   1.2442
B( 17-C , 66-H ) :   0.9958 B( 18-C , 19-S ) :   1.0708 B( 18-C , 20-C ) :   1.4002
B( 20-C , 21-C ) :   1.2361 B( 20-C , 24-S ) :   1.1039 B( 21-C , 22-C ) :   1.5214
B( 21-C , 67-H ) :   0.9944 B( 22-C , 23-C ) :   1.2036 B( 22-C , 68-H ) :   0.9992
B( 23-C , 24-S ) :   1.1098 B( 23-C , 25-C ) :   1.4136 B( 25-C , 26-C ) :   1.3037
B( 25-C , 69-H ) :   0.9493 B( 26-C , 27-C ) :   1.2286 B( 26-C , 31-N ) :   1.1526
B( 27-C , 28-C ) :   1.2908 B( 27-C , 34-C ) :   1.0115 B( 28-C , 29-C ) :   0.9497
B( 28-C , 32-C ) :   1.2509 B( 29-C , 30-O ) :   2.2245 B( 29-C , 31-N ) :   1.0761
B( 31-N , 70-H ) :   0.9241 B( 32-C , 33-O ) :   1.0871 B( 32-C , 36-C ) :   1.3667
B( 33-O , 34-C ) :   1.0049 B( 34-C , 35-O ) :   2.1723 B( 36-C , 37-C ) :   1.3769
B( 36-C , 71-H ) :   0.9683 B( 37-C , 38-C ) :   1.2147 B( 37-C , 41-S ) :   1.1022
B( 38-C , 39-C ) :   1.5057 B( 38-C , 72-H ) :   1.0022 B( 39-C , 40-C ) :   1.2495
B( 39-C , 73-H ) :   0.9975 B( 40-C , 41-S ) :   1.0411 B( 40-C , 42-C ) :   1.4177
B( 42-C , 43-C ) :   1.2305 B( 42-C , 46-S ) :   1.0780 B( 43-C , 44-C ) :   1.5419
B( 43-C , 74-H ) :   0.9942 B( 44-C , 45-C ) :   1.1734 B( 44-C , 75-H ) :   1.0008
B( 45-C , 46-S ) :   1.0357 B( 45-C , 47-C ) :   1.5162 B( 47-C , 48-C ) :   1.2202
B( 47-C , 76-H ) :   0.9717 B( 48-C , 49-S ) :   1.0966 B( 48-C , 52-C ) :   1.3985
B( 49-S , 50-C ) :   1.2032 B( 50-C , 51-C ) :   1.4003 B( 50-C , 77-H ) :   0.9711
B( 51-C , 52-C ) :   1.2488 B( 51-C , 58-C ) :   1.0617 B( 52-C , 53-O ) :   1.1253
B( 53-O , 54-C ) :   1.1052 B( 54-C , 55-N ) :   0.9182 B( 54-C , 58-C ) :   1.5701
B( 55-N , 56-O ) :   1.5313 B( 55-N , 57-O ) :   1.5158 B( 56-O , 57-O ) :   0.2741
B( 58-C , 78-H ) :   1.0328

-----------------------------------------------------------------------------
         ABSORPTION SPECTRUM VIA TRANSITION ELECTRIC DIPOLE MOMENTS
-----------------------------------------------------------------------------
State   Energy  Wavelength   fosc         T2         TX        TY        TZ
        (cm-1)    (nm)                  (au**2)     (au)      (au)      (au)
-----------------------------------------------------------------------------
   0    5492.1   1820.8   0.166219361   9.96360  -3.06078   0.76921  -0.05929
   1    9214.5   1085.2   0.023382289   0.83539   0.29586  -0.14569   0.85243
   2   14559.8    686.8   1.793398527  40.55050   0.16130   1.86789  -6.08568
   3   16037.5    623.5   0.337164816   6.92118  -0.24133  -0.78151   2.50044
   4   17565.5    569.3   0.383124883   7.18051   2.13554  -1.54373   0.48671
   5   18566.8    538.6   0.043204394   0.76606  -0.37890   0.76458  -0.19473
   6   20374.1    490.8   0.326198785   5.27083  -1.41174   1.58230  -0.87985
   7   21955.3    455.5   0.093781833   1.40623  -0.80389   0.68033   0.54511
   8   22503.4    444.4   0.520459999   7.61404   2.08210  -1.75591  -0.44235
   9   24148.1    414.1   0.028141621   0.38366  -0.41037   0.45683  -0.08099
  10   24686.8    405.1   0.066806900   0.89091   0.51983  -0.66658   0.41994
  11   25398.3    393.7   0.011927234   0.15460   0.38922   0.01342  -0.05409
  12   26075.2    383.5   0.002750456   0.03473  -0.08678  -0.15043   0.06757
  13   26346.9    379.6   0.072695188   0.90835   0.68891  -0.64325  -0.14134
  14   27492.3    363.7   0.009572445   0.11463  -0.16558  -0.02053   0.29460
  15   28192.4    354.7   0.017885243   0.20885   0.44063   0.06866  -0.09993
  16   28508.4    350.8   0.004461815   0.05152   0.05214   0.03807   0.21762
  17   28825.6    346.9   0.027209610   0.31076  -0.20389   0.28812   0.43147
  18   29332.1    340.9   0.084932031   0.95324  -0.40177   0.26538   0.84935
  19   29781.3    335.8   0.051775087   0.57234   0.52505  -0.51164  -0.18679
  20   30420.7    328.7   0.178482133   1.93153   0.84865  -0.91489   0.61180
  21   30927.1    323.3   0.022155977   0.23585  -0.26139   0.37798   0.15702
  22   31034.0    322.2   0.027100461   0.28748   0.11572  -0.21543  -0.47716
  23   31475.5    317.7   0.000443785   0.00464   0.05144  -0.01957  -0.04015
  24   31593.9    316.5   0.028099767   0.29280  -0.30551  -0.02320   0.44601
  25   32081.5    311.7   0.088639284   0.90959   0.83166  -0.42651  -0.18981
  26   32364.1    309.0   0.017013176   0.17306   0.34139  -0.23574   0.03061
  27   32637.8    306.4   0.026352850   0.26582   0.34412  -0.15848  -0.34969
  28   32820.2    304.7   0.069291339   0.69505   0.49272  -0.38031  -0.55465
  29   32836.1    304.5   0.000749589   0.00752  -0.05784   0.05276  -0.03723
  30   33068.0    302.4   0.095497890   0.95074   0.76788  -0.51471  -0.31012
  31   33640.9    297.3   0.004788249   0.04686  -0.14451   0.04809   0.15383
  32   33709.1    296.7   0.010337794   0.10096   0.05530  -0.19393   0.24555
  33   34037.3    293.8   0.035080037   0.33930  -0.08310   0.15432  -0.55550
  34   34174.8    292.6   0.055496078   0.53460   0.55068  -0.26821  -0.39928
  35   34254.2    291.9   0.151982172   1.46068  -0.40833  -0.08253   1.13452
  36   34757.3    287.7   0.062378680   0.59083   0.35159  -0.30177  -0.61332
  37   34966.2    286.0   0.080492773   0.75785   0.36353  -0.58482   0.53262
  38   35417.1    282.3   0.018026756   0.16756   0.31941  -0.00214  -0.25600
  39   35997.4    277.8   0.007002858   0.06404  -0.20344   0.12039   0.09035
  40   36121.3    276.8   0.084344819   0.76872  -0.26686   0.58572  -0.59535
  41   36319.7    275.3   0.026911312   0.24393  -0.23363   0.27453  -0.33761
  42   36786.7    271.8   0.043866509   0.39257  -0.45354   0.42053  -0.10016
  43   37194.3    268.9   0.011424212   0.10112   0.03641  -0.08306   0.30478
  44   37595.8    266.0   0.033082431   0.28969  -0.11929   0.11870   0.51124
  45   38091.8    262.5   0.028014425   0.24212  -0.16758   0.23480  -0.39863
  46   38559.7    259.3   0.081692763   0.69747   0.01676   0.17960  -0.81543
  47   38769.5    257.9   0.048151891   0.40888  -0.41467   0.43586  -0.21671
  48   39023.1    256.3   0.055834996   0.47104  -0.14437   0.46913  -0.47970
  49   39154.2    255.4   0.000254691   0.00214  -0.04483  -0.00903   0.00709
  50   39304.5    254.4   0.006635122   0.05558  -0.13457   0.08470   0.17405
  51   39702.1    251.9   0.033662932   0.27913  -0.08344  -0.20116   0.48136
  52   40057.8    249.6   0.049193409   0.40429  -0.33588   0.13733   0.52213
  53   40300.2    248.1   0.026078825   0.21304   0.29084  -0.19000   0.30389

FINAL SINGLE POINT ENERGY     -4420.474163300257

DIPOLE MOMENT
-------------
                                X             Y             Z
Electronic contribution:      8.87900      -3.06110       5.86283
Nuclear contribution   :    -10.08015       3.88871      -5.96446
                        -----------------------------------------
Total Dipole Moment    :     -1.20116       0.82761      -0.10163
                        -----------------------------------------
Magnitude (a.u.)       :      1.46220
Magnitude (Debye)      :      3.71663

Rotational constants in cm-1:     0.001768     0.000779     0.000574
Rotational constants in MHz :    53.000029    23.360139    17.212254

                             ****ORCA TERMINATED NORMALLY****
TOTAL RUN TIME: 0 days 0 hours 8 minutes 54 seconds 50 msec
