                         Program Version 4.2.0 -  RELEASE  -
|  1> # ORCA input file
|  2> # SCF done       -218.673278335282          0.000540006762
|  3> ! CAM-B3LYP def2-SVP def2/J RIJCOSX Grid4 TightSCF
|  4> %maxcore 5000
|  5> %tddft
|  6>     Mode sTDDFT
|  7>     Ethresh 5.0
|  8>     maxcore 5000
|  9> end
| 10>
| 11> %pal
| 12>   nprocs 6
| 13>   end
| 14> * xyz 0 1
| 15>    C       -4.44309         0.46263        -0.50698
| 16>    O       -3.96224        -0.76546        -0.62570
| 17>    C       -4.59353        -1.55424         0.27900
| 18>    C       -5.51057        -0.79521         0.99945
| 19>    C       -5.40360         0.52834         0.47579
| 20>    C       -6.10797         1.79192         0.81481
| 21>    F       -5.67264         2.80879         0.05556
| 22>    F       -7.44149         1.73584         0.62700
| 23>    F       -5.93399         2.18519         2.09201
| 24>    O       -6.27041        -1.35134         1.96091
| 25>    C       -7.18809        -0.55158         2.67961
| 26>    C       -4.29830        -2.94687         0.40218
| 27>    C       -3.38907        -3.58630        -0.35594
| 28>    C       -3.04290        -4.98698        -0.29489
| 29>    C       -3.64582        -5.87999         0.60430
| 30>    C       -3.27472        -7.20149         0.59867
| 31>    C       -2.29895        -7.67274        -0.29679
| 32>    C       -1.69031        -6.80073        -1.18678
| 33>    C       -2.06702        -5.47281        -1.17617
| 34>    C       -2.12180        -9.09314        -0.08052
| 35>    C       -2.98691        -9.49980         0.94948
| 36>    C       -3.78885        -8.32769         1.46581
| 37>    C       -5.29978        -8.54550         1.26442
| 38>    C       -5.67014        -8.80885        -0.19006
| 39>    C       -3.49973        -8.06740         2.95586
| 40>    C       -2.01987        -7.84040         3.23981
| 41>    C       -3.02147       -10.80773         1.36475
| 42>    C       -2.18090       -11.74795         0.75033
| 43>    C       -1.32866       -11.33004        -0.27754
| 44>    C       -1.29091       -10.01560        -0.69767
| 45>    C       -2.19131       -13.12993         1.17383
| 46>    C       -2.92775       -13.72151         2.15185
| 47>    C       -2.68967       -15.11097         2.30744
| 48>    C       -1.71797       -15.60357         1.40233
| 49>    S       -1.14240       -14.29625         0.38692
| 50>    C       -1.34934       -16.93995         1.39996
| 51>    O       -0.43543       -17.57356         0.61400
| 52>    C        0.28786       -16.84976        -0.35095
| 53>    C       -2.00080       -17.77150         2.33014
| 54>    C       -2.97549       -17.27870         3.23234
| 55>    C       -3.33391       -15.94021         3.24437
| 56>    O       -4.23660       -15.30303         4.04218
| 57>    C       -4.90791       -16.01382         5.05287
| 58>    S       -3.58174       -18.59249         4.21959
| 59>    C       -2.53794       -19.76169         3.42873
| 60>    C       -1.77849       -19.16550         2.47176
| 61>    C       -2.58733       -21.14964         3.82913
| 62>    C       -3.53976       -21.57004         4.76712
| 63>    C       -3.59973       -22.89191         5.13626
| 64>    C       -2.67600       -23.81331         4.61401
| 65>    C       -1.72792       -23.40845         3.68619
| 66>    C       -1.69591       -22.08604         3.29214
| 67>    C       -2.89983       -25.09906         5.24210
| 68>    C       -3.96419       -24.96969         6.14949
| 69>    C       -4.54192       -23.57108         6.10329
| 70>    C       -5.97089       -23.69202         5.52246
| 71>    C       -6.66843       -22.37787         5.19694
| 72>    C       -4.54564       -22.89707         7.48280
| 73>    C       -3.16144       -22.87885         8.12117
| 74>    C       -4.37208       -26.04310         6.90210
| 75>    C       -3.71279       -27.27145         6.75707
| 76>    C       -2.64415       -27.38824         5.86496
| 77>    C       -2.23730       -26.30918         5.10391
| 78>    C       -4.14937       -28.38620         7.57740
| 79>    O       -4.71759       -28.11058         8.75590
| 80>    C       -5.05097       -29.27265         9.38822
| 81>    C       -4.68950       -30.33473         8.57425
| 82>    C       -4.11612       -29.75671         7.40104
| 83>    C       -3.65685       -30.51935         6.21332
| 84>    F       -3.96640       -29.90235         5.05472
| 85>    F       -2.31621       -30.69811         6.18196
| 86>    F       -4.19183       -31.74081         6.12967
| 87>    O       -4.76905       -31.67128         8.70077
| 88>    C       -5.38513       -32.23229         9.83458
| 89>    C       -5.67068       -29.15588        10.68499
| 90>    C       -5.90394       -27.98711        11.27980
| 91>    H       -4.05670         1.22896        -1.14927
| 92>    H       -7.66569        -1.22937         3.38506
| 93>    H       -7.94911        -0.12317         2.02341
| 94>    H       -6.68239         0.24301         3.23295
| 95>    H       -4.87623        -3.44623         1.16379
| 96>    H       -2.85444        -3.00615        -1.09720
| 97>    H       -4.39741        -5.52755         1.29345
| 98>    H       -0.93715        -7.15205        -1.87631
| 99>    H       -1.60148        -4.78287        -1.86569
|100>    H       -5.83048        -7.65900         1.61832
|101>    H       -5.61665        -9.39164         1.87794
|102>    H       -5.37875        -7.96973        -0.81790
|103>    H       -6.74433        -8.95209        -0.28292
|104>    H       -5.17014        -9.70222        -0.55756
|105>    H       -3.85208        -8.92396         3.53466
|106>    H       -4.06857        -7.19151         3.27512
|107>    H       -1.43528        -8.70959         2.94657
|108>    H       -1.86517        -7.66360         4.30179
|109>    H       -1.65147        -6.97764         2.68926
|110>    H       -3.68692       -11.11440         2.15632
|111>    H       -0.68566       -12.06003        -0.74859
|112>    H       -0.62427        -9.71563        -1.49222
|113>    H       -3.63972       -13.21168         2.77288
|114>    H        0.94982       -17.57745        -0.81920
|115>    H        0.88874       -16.05692         0.10246
|116>    H       -0.36892       -16.41882        -1.11156
|117>    H       -5.53300       -15.27683         5.55606
|118>    H       -4.21035       -16.44741         5.77450
|119>    H       -5.54303       -16.80313         4.64165
|120>    H       -1.06995       -19.67885         1.84966
|121>    H       -4.20895       -20.83896         5.19605
|122>    H       -1.01935       -24.11479         3.28052
|123>    H       -0.96009       -21.76551         2.57174
|124>    H       -6.57450       -24.24867         6.24298
|125>    H       -5.91123       -24.29179         4.61044
|126>    H       -6.74355       -21.73903         6.07296
|127>    H       -7.67653       -22.58508         4.84403
|128>    H       -6.14087       -21.84185         4.41307
|129>    H       -5.24033       -23.43133         8.13431
|130>    H       -4.90224       -21.87157         7.37841
|131>    H       -2.79085       -23.89110         8.26670
|132>    H       -3.20039       -22.38327         9.08859
|133>    H       -2.45643       -22.34410         7.48853
|134>    H       -5.19104       -25.96377         7.60063
|135>    H       -2.10946       -28.31993         5.78552
|136>    H       -1.40899       -26.41011         4.41965
|137>    H       -5.35762       -33.30861         9.67152
|138>    H       -6.42510       -31.90644         9.92622
|139>    H       -4.83397       -31.98997        10.74803
|140>    H       -5.94997       -30.07362        11.17592
|141>    H       -5.63195       -27.05584        10.81538
|142>    H       -6.37001       -27.93585        12.24717
|143> *
|144>
|145>                          ****END OF INPUT****

CARTESIAN COORDINATES (ANGSTROEM)
---------------------------------
  C     -4.443090    0.462630   -0.506980
  O     -3.962240   -0.765460   -0.625700
  C     -4.593530   -1.554240    0.279000
  C     -5.510570   -0.795210    0.999450
  C     -5.403600    0.528340    0.475790
  C     -6.107970    1.791920    0.814810
  F     -5.672640    2.808790    0.055560
  F     -7.441490    1.735840    0.627000
  F     -5.933990    2.185190    2.092010
  O     -6.270410   -1.351340    1.960910
  C     -7.188090   -0.551580    2.679610
  C     -4.298300   -2.946870    0.402180
  C     -3.389070   -3.586300   -0.355940
  C     -3.042900   -4.986980   -0.294890
  C     -3.645820   -5.879990    0.604300
  C     -3.274720   -7.201490    0.598670
  C     -2.298950   -7.672740   -0.296790
  C     -1.690310   -6.800730   -1.186780
  C     -2.067020   -5.472810   -1.176170
  C     -2.121800   -9.093140   -0.080520
  C     -2.986910   -9.499800    0.949480
  C     -3.788850   -8.327690    1.465810
  C     -5.299780   -8.545500    1.264420
  C     -5.670140   -8.808850   -0.190060
  C     -3.499730   -8.067400    2.955860
  C     -2.019870   -7.840400    3.239810
  C     -3.021470  -10.807730    1.364750
  C     -2.180900  -11.747950    0.750330
  C     -1.328660  -11.330040   -0.277540
  C     -1.290910  -10.015600   -0.697670
  C     -2.191310  -13.129930    1.173830
  C     -2.927750  -13.721510    2.151850
  C     -2.689670  -15.110970    2.307440
  C     -1.717970  -15.603570    1.402330
  S     -1.142400  -14.296250    0.386920
  C     -1.349340  -16.939950    1.399960
  O     -0.435430  -17.573560    0.614000
  C      0.287860  -16.849760   -0.350950
  C     -2.000800  -17.771500    2.330140
  C     -2.975490  -17.278700    3.232340
  C     -3.333910  -15.940210    3.244370
  O     -4.236600  -15.303030    4.042180
  C     -4.907910  -16.013820    5.052870
  S     -3.581740  -18.592490    4.219590
  C     -2.537940  -19.761690    3.428730
  C     -1.778490  -19.165500    2.471760
  C     -2.587330  -21.149640    3.829130
  C     -3.539760  -21.570040    4.767120
  C     -3.599730  -22.891910    5.136260
  C     -2.676000  -23.813310    4.614010
  C     -1.727920  -23.408450    3.686190
  C     -1.695910  -22.086040    3.292140
  C     -2.899830  -25.099060    5.242100
  C     -3.964190  -24.969690    6.149490
  C     -4.541920  -23.571080    6.103290
  C     -5.970890  -23.692020    5.522460
  C     -6.668430  -22.377870    5.196940
  C     -4.545640  -22.897070    7.482800
  C     -3.161440  -22.878850    8.121170
  C     -4.372080  -26.043100    6.902100
  C     -3.712790  -27.271450    6.757070
  C     -2.644150  -27.388240    5.864960
  C     -2.237300  -26.309180    5.103910
  C     -4.149370  -28.386200    7.577400
  O     -4.717590  -28.110580    8.755900
  C     -5.050970  -29.272650    9.388220
  C     -4.689500  -30.334730    8.574250
  C     -4.116120  -29.756710    7.401040
  C     -3.656850  -30.519350    6.213320
  F     -3.966400  -29.902350    5.054720
  F     -2.316210  -30.698110    6.181960
  F     -4.191830  -31.740810    6.129670
  O     -4.769050  -31.671280    8.700770
  C     -5.385130  -32.232290    9.834580
  C     -5.670680  -29.155880   10.684990
  C     -5.903940  -27.987110   11.279800
  H     -4.056700    1.228960   -1.149270
  H     -7.665690   -1.229370    3.385060
  H     -7.949110   -0.123170    2.023410
  H     -6.682390    0.243010    3.232950
  H     -4.876230   -3.446230    1.163790
  H     -2.854440   -3.006150   -1.097200
  H     -4.397410   -5.527550    1.293450
  H     -0.937150   -7.152050   -1.876310
  H     -1.601480   -4.782870   -1.865690
  H     -5.830480   -7.659000    1.618320
  H     -5.616650   -9.391640    1.877940
  H     -5.378750   -7.969730   -0.817900
  H     -6.744330   -8.952090   -0.282920
  H     -5.170140   -9.702220   -0.557560
  H     -3.852080   -8.923960    3.534660
  H     -4.068570   -7.191510    3.275120
  H     -1.435280   -8.709590    2.946570
  H     -1.865170   -7.663600    4.301790
  H     -1.651470   -6.977640    2.689260
  H     -3.686920  -11.114400    2.156320
  H     -0.685660  -12.060030   -0.748590
  H     -0.624270   -9.715630   -1.492220
  H     -3.639720  -13.211680    2.772880
  H      0.949820  -17.577450   -0.819200
  H      0.888740  -16.056920    0.102460
  H     -0.368920  -16.418820   -1.111560
  H     -5.533000  -15.276830    5.556060
  H     -4.210350  -16.447410    5.774500
  H     -5.543030  -16.803130    4.641650
  H     -1.069950  -19.678850    1.849660
  H     -4.208950  -20.838960    5.196050
  H     -1.019350  -24.114790    3.280520
  H     -0.960090  -21.765510    2.571740
  H     -6.574500  -24.248670    6.242980
  H     -5.911230  -24.291790    4.610440
  H     -6.743550  -21.739030    6.072960
  H     -7.676530  -22.585080    4.844030
  H     -6.140870  -21.841850    4.413070
  H     -5.240330  -23.431330    8.134310
  H     -4.902240  -21.871570    7.378410
  H     -2.790850  -23.891100    8.266700
  H     -3.200390  -22.383270    9.088590
  H     -2.456430  -22.344100    7.488530
  H     -5.191040  -25.963770    7.600630
  H     -2.109460  -28.319930    5.785520
  H     -1.408990  -26.410110    4.419650
  H     -5.357620  -33.308610    9.671520
  H     -6.425100  -31.906440    9.926220
  H     -4.833970  -31.989970   10.748030
  H     -5.949970  -30.073620   11.175920
  H     -5.631950  -27.055840   10.815380
  H     -6.370010  -27.935850   12.247170

 Total Charge           Charge          ....    0
 Multiplicity           Mult            ....    1
 Number of Electrons    NEL             ....  558
 Basis Dimension        Dim             .... 1332

ORBITAL ENERGIES
----------------

  NO   OCC          E(Eh)            E(eV)
   0   2.0000     -88.939600     -2420.1695
   1   2.0000     -88.938590     -2420.1421
   2   2.0000     -24.800741      -674.8625
   3   2.0000     -24.798056      -674.7894
   4   2.0000     -24.797894      -674.7850
   5   2.0000     -24.781933      -674.3507
   6   2.0000     -24.780810      -674.3201
   7   2.0000     -24.780621      -674.3150
   8   2.0000     -19.300536      -525.1943
   9   2.0000     -19.289367      -524.8904
  10   2.0000     -19.254030      -523.9288
  11   2.0000     -19.253080      -523.9029
  12   2.0000     -19.239867      -523.5434
  13   2.0000     -19.239595      -523.5360
  14   2.0000     -10.522852      -286.3414
  15   2.0000     -10.506468      -285.8955
  16   2.0000     -10.343067      -281.4491
  17   2.0000     -10.342568      -281.4356
  18   2.0000     -10.341302      -281.4011
  19   2.0000     -10.340227      -281.3719
  20   2.0000     -10.327778      -281.0331
  21   2.0000     -10.326963      -281.0109
  22   2.0000     -10.326674      -281.0031
  23   2.0000     -10.322384      -280.8863
  24   2.0000     -10.321929      -280.8740
  25   2.0000     -10.321065      -280.8505
  26   2.0000     -10.317139      -280.7436
  27   2.0000     -10.316357      -280.7224
  28   2.0000     -10.294493      -280.1274
  29   2.0000     -10.292174      -280.0643
  30   2.0000     -10.291782      -280.0536
  31   2.0000     -10.291462      -280.0449
  32   2.0000     -10.291025      -280.0330
  33   2.0000     -10.281444      -279.7723
  34   2.0000     -10.279961      -279.7320
  35   2.0000     -10.279594      -279.7220
  36   2.0000     -10.278511      -279.6925
  37   2.0000     -10.277627      -279.6685
  38   2.0000     -10.275192      -279.6022
  39   2.0000     -10.271950      -279.5140
  40   2.0000     -10.270806      -279.4828
  41   2.0000     -10.269993      -279.4607
  42   2.0000     -10.268671      -279.4248
  43   2.0000     -10.268498      -279.4200
  44   2.0000     -10.268384      -279.4169
  45   2.0000     -10.268365      -279.4164
  46   2.0000     -10.268274      -279.4140
  47   2.0000     -10.267637      -279.3966
  48   2.0000     -10.267025      -279.3800
  49   2.0000     -10.266329      -279.3610
  50   2.0000     -10.266174      -279.3568
  51   2.0000     -10.265863      -279.3483
  52   2.0000     -10.265547      -279.3397
  53   2.0000     -10.265233      -279.3312
  54   2.0000     -10.264617      -279.3144
  55   2.0000     -10.264611      -279.3143
  56   2.0000     -10.264346      -279.3071
  57   2.0000     -10.264060      -279.2993
  58   2.0000     -10.263458      -279.2829
  59   2.0000     -10.263224      -279.2765
  60   2.0000     -10.262058      -279.2448
  61   2.0000     -10.261468      -279.2287
  62   2.0000     -10.261173      -279.2207
  63   2.0000     -10.261151      -279.2201
  64   2.0000     -10.261048      -279.2173
  65   2.0000     -10.260387      -279.1993
  66   2.0000     -10.259965      -279.1878
  67   2.0000     -10.259929      -279.1869
  68   2.0000     -10.259654      -279.1794
  69   2.0000     -10.257979      -279.1338
  70   2.0000     -10.257057      -279.1087
  71   2.0000     -10.256998      -279.1071
  72   2.0000     -10.247819      -278.8573
  73   2.0000     -10.242834      -278.7217
  74   2.0000     -10.239968      -278.6437
  75   2.0000     -10.239933      -278.6427
  76   2.0000      -8.034287      -218.6241
  77   2.0000      -8.033384      -218.5995
  78   2.0000      -6.004115      -163.3803
  79   2.0000      -6.003254      -163.3568
  80   2.0000      -5.999893      -163.2654
  81   2.0000      -5.998959      -163.2400
  82   2.0000      -5.995515      -163.1463
  83   2.0000      -5.994578      -163.1208
  84   2.0000      -1.388904       -37.7940
  85   2.0000      -1.371549       -37.3217
  86   2.0000      -1.291814       -35.1520
  87   2.0000      -1.288481       -35.0614
  88   2.0000      -1.274071       -34.6692
  89   2.0000      -1.270560       -34.5737
  90   2.0000      -1.222468       -33.2650
  91   2.0000      -1.211985       -32.9798
  92   2.0000      -1.157328       -31.4925
  93   2.0000      -1.155959       -31.4553
  94   2.0000      -1.143859       -31.1260
  95   2.0000      -1.142755       -31.0959
  96   2.0000      -0.986447       -26.8426
  97   2.0000      -0.983277       -26.7563
  98   2.0000      -0.979486       -26.6532
  99   2.0000      -0.966047       -26.2875
 100   2.0000      -0.943279       -25.6679
 101   2.0000      -0.937071       -25.4990
 102   2.0000      -0.920237       -25.0409
 103   2.0000      -0.918932       -25.0054
 104   2.0000      -0.913634       -24.8612
 105   2.0000      -0.909609       -24.7517
 106   2.0000      -0.895943       -24.3799
 107   2.0000      -0.895248       -24.3609
 108   2.0000      -0.892389       -24.2831
 109   2.0000      -0.872684       -23.7469
 110   2.0000      -0.866056       -23.5666
 111   2.0000      -0.862695       -23.4751
 112   2.0000      -0.843710       -22.9585
 113   2.0000      -0.837946       -22.8017
 114   2.0000      -0.833302       -22.6753
 115   2.0000      -0.831073       -22.6146
 116   2.0000      -0.830907       -22.6101
 117   2.0000      -0.829647       -22.5758
 118   2.0000      -0.828477       -22.5440
 119   2.0000      -0.823203       -22.4005
 120   2.0000      -0.821075       -22.3426
 121   2.0000      -0.815529       -22.1917
 122   2.0000      -0.806387       -21.9429
 123   2.0000      -0.796771       -21.6812
 124   2.0000      -0.793970       -21.6050
 125   2.0000      -0.790691       -21.5158
 126   2.0000      -0.786855       -21.4114
 127   2.0000      -0.785922       -21.3860
 128   2.0000      -0.777222       -21.1493
 129   2.0000      -0.767160       -20.8755
 130   2.0000      -0.760830       -20.7032
 131   2.0000      -0.754170       -20.5220
 132   2.0000      -0.738551       -20.0970
 133   2.0000      -0.736938       -20.0531
 134   2.0000      -0.723702       -19.6929
 135   2.0000      -0.713296       -19.4098
 136   2.0000      -0.712552       -19.3895
 137   2.0000      -0.706960       -19.2374
 138   2.0000      -0.700840       -19.0708
 139   2.0000      -0.693603       -18.8739
 140   2.0000      -0.687756       -18.7148
 141   2.0000      -0.684273       -18.6200
 142   2.0000      -0.680375       -18.5139
 143   2.0000      -0.676671       -18.4132
 144   2.0000      -0.672265       -18.2933
 145   2.0000      -0.670347       -18.2411
 146   2.0000      -0.667954       -18.1760
 147   2.0000      -0.664077       -18.0705
 148   2.0000      -0.660947       -17.9853
 149   2.0000      -0.659002       -17.9324
 150   2.0000      -0.656914       -17.8755
 151   2.0000      -0.654846       -17.8193
 152   2.0000      -0.652398       -17.7527
 153   2.0000      -0.649746       -17.6805
 154   2.0000      -0.645513       -17.5653
 155   2.0000      -0.642517       -17.4838
 156   2.0000      -0.633738       -17.2449
 157   2.0000      -0.622420       -16.9369
 158   2.0000      -0.621208       -16.9039
 159   2.0000      -0.617457       -16.8019
 160   2.0000      -0.610283       -16.6067
 161   2.0000      -0.607214       -16.5231
 162   2.0000      -0.598527       -16.2868
 163   2.0000      -0.597152       -16.2493
 164   2.0000      -0.590020       -16.0553
 165   2.0000      -0.587167       -15.9776
 166   2.0000      -0.581901       -15.8343
 167   2.0000      -0.574834       -15.6420
 168   2.0000      -0.574164       -15.6238
 169   2.0000      -0.572300       -15.5731
 170   2.0000      -0.570860       -15.5339
 171   2.0000      -0.567899       -15.4533
 172   2.0000      -0.558412       -15.1952
 173   2.0000      -0.556509       -15.1434
 174   2.0000      -0.553459       -15.0604
 175   2.0000      -0.553235       -15.0543
 176   2.0000      -0.550107       -14.9692
 177   2.0000      -0.547058       -14.8862
 178   2.0000      -0.546522       -14.8716
 179   2.0000      -0.545703       -14.8493
 180   2.0000      -0.543760       -14.7965
 181   2.0000      -0.540453       -14.7065
 182   2.0000      -0.538371       -14.6498
 183   2.0000      -0.536417       -14.5966
 184   2.0000      -0.534671       -14.5491
 185   2.0000      -0.532359       -14.4862
 186   2.0000      -0.531932       -14.4746
 187   2.0000      -0.530715       -14.4415
 188   2.0000      -0.530352       -14.4316
 189   2.0000      -0.529283       -14.4025
 190   2.0000      -0.525194       -14.2912
 191   2.0000      -0.523253       -14.2384
 192   2.0000      -0.520578       -14.1657
 193   2.0000      -0.518941       -14.1211
 194   2.0000      -0.517255       -14.0752
 195   2.0000      -0.515283       -14.0216
 196   2.0000      -0.512408       -13.9433
 197   2.0000      -0.511222       -13.9111
 198   2.0000      -0.510918       -13.9028
 199   2.0000      -0.510093       -13.8803
 200   2.0000      -0.507739       -13.8163
 201   2.0000      -0.505450       -13.7540
 202   2.0000      -0.504530       -13.7290
 203   2.0000      -0.503671       -13.7056
 204   2.0000      -0.498934       -13.5767
 205   2.0000      -0.494032       -13.4433
 206   2.0000      -0.490619       -13.3504
 207   2.0000      -0.489691       -13.3252
 208   2.0000      -0.488991       -13.3061
 209   2.0000      -0.488008       -13.2794
 210   2.0000      -0.485287       -13.2053
 211   2.0000      -0.485240       -13.2040
 212   2.0000      -0.478176       -13.0118
 213   2.0000      -0.476822       -12.9750
 214   2.0000      -0.473786       -12.8924
 215   2.0000      -0.471139       -12.8203
 216   2.0000      -0.469893       -12.7864
 217   2.0000      -0.468573       -12.7505
 218   2.0000      -0.467926       -12.7329
 219   2.0000      -0.467514       -12.7217
 220   2.0000      -0.464024       -12.6267
 221   2.0000      -0.462027       -12.5724
 222   2.0000      -0.459827       -12.5125
 223   2.0000      -0.458726       -12.4826
 224   2.0000      -0.455292       -12.3891
 225   2.0000      -0.452363       -12.3094
 226   2.0000      -0.450423       -12.2566
 227   2.0000      -0.448956       -12.2167
 228   2.0000      -0.447475       -12.1764
 229   2.0000      -0.443649       -12.0723
 230   2.0000      -0.442110       -12.0304
 231   2.0000      -0.438069       -11.9205
 232   2.0000      -0.435961       -11.8631
 233   2.0000      -0.434167       -11.8143
 234   2.0000      -0.433313       -11.7910
 235   2.0000      -0.432532       -11.7698
 236   2.0000      -0.430631       -11.7181
 237   2.0000      -0.430050       -11.7023
 238   2.0000      -0.428296       -11.6545
 239   2.0000      -0.426844       -11.6150
 240   2.0000      -0.424561       -11.5529
 241   2.0000      -0.421474       -11.4689
 242   2.0000      -0.419423       -11.4131
 243   2.0000      -0.418457       -11.3868
 244   2.0000      -0.416019       -11.3204
 245   2.0000      -0.413364       -11.2482
 246   2.0000      -0.412290       -11.2190
 247   2.0000      -0.410461       -11.1692
 248   2.0000      -0.408631       -11.1194
 249   2.0000      -0.406844       -11.0708
 250   2.0000      -0.401015       -10.9122
 251   2.0000      -0.400657       -10.9024
 252   2.0000      -0.393280       -10.7017
 253   2.0000      -0.392912       -10.6917
 254   2.0000      -0.391437       -10.6516
 255   2.0000      -0.389000       -10.5852
 256   2.0000      -0.384183       -10.4541
 257   2.0000      -0.383990       -10.4489
 258   2.0000      -0.380020       -10.3409
 259   2.0000      -0.377088       -10.2611
 260   2.0000      -0.374811       -10.1991
 261   2.0000      -0.373922       -10.1749
 262   2.0000      -0.364778        -9.9261
 263   2.0000      -0.358138        -9.7454
 264   2.0000      -0.344908        -9.3854
 265   2.0000      -0.337668        -9.1884
 266   2.0000      -0.327317        -8.9067
 267   2.0000      -0.324302        -8.8247
 268   2.0000      -0.317777        -8.6471
 269   2.0000      -0.315872        -8.5953
 270   2.0000      -0.311517        -8.4768
 271   2.0000      -0.308848        -8.4042
 272   2.0000      -0.306862        -8.3501
 273   2.0000      -0.302632        -8.2350
 274   2.0000      -0.277694        -7.5564
 275   2.0000      -0.264935        -7.2092
 276   2.0000      -0.247098        -6.7239
 277   2.0000      -0.237370        -6.4592
 278   2.0000      -0.216461        -5.8902
 279   0.0000      -0.041134        -1.1193
 280   0.0000      -0.028152        -0.7660
 281   0.0000      -0.005807        -0.1580
 282   0.0000       0.013926         0.3789
 283   0.0000       0.024950         0.6789

MULLIKEN ATOMIC CHARGES
-----------------------
   0 C :    0.109209
   1 O :   -0.172154
   2 C :    0.075309
   3 C :    0.151444
   4 C :   -0.185231
   5 C :    0.526648
   6 F :   -0.158677
   7 F :   -0.164943
   8 F :   -0.165080
   9 O :   -0.304149
  10 C :    0.178688
  11 C :   -0.010389
  12 C :   -0.013077
  13 C :    0.128532
  14 C :   -0.092044
  15 C :    0.020777
  16 C :    0.102984
  17 C :   -0.048932
  18 C :   -0.022292
  19 C :    0.108464
  20 C :    0.016917
  21 C :   -0.139177
  22 C :    0.068508
  23 C :    0.024620
  24 C :    0.069201
  25 C :    0.024811
  26 C :   -0.113265
  27 C :    0.161762
  28 C :   -0.047408
  29 C :   -0.050858
  30 C :   -0.015661
  31 C :   -0.064950
  32 C :    0.058417
  33 C :   -0.100828
  34 S :    0.044094
  35 C :    0.096974
  36 O :   -0.315464
  37 C :    0.173655
  38 C :    0.056411
  39 C :   -0.099270
  40 C :    0.100110
  41 O :   -0.316648
  42 C :    0.174041
  43 S :    0.033294
  44 C :   -0.010399
  45 C :   -0.060490
  46 C :    0.161167
  47 C :   -0.133090
  48 C :    0.019823
  49 C :    0.106035
  50 C :   -0.049244
  51 C :   -0.037217
  52 C :    0.113251
  53 C :    0.019997
  54 C :   -0.128850
  55 C :    0.079045
  56 C :    0.030263
  57 C :    0.053343
  58 C :    0.027413
  59 C :   -0.089265
  60 C :    0.041818
  61 C :    0.001569
  62 C :   -0.063245
  63 C :    0.151178
  64 O :   -0.202940
  65 C :    0.042610
  66 C :    0.151031
  67 C :   -0.166297
  68 C :    0.515710
  69 F :   -0.167319
  70 F :   -0.171953
  71 F :   -0.143779
  72 O :   -0.285552
  73 C :    0.174337
  74 C :   -0.046165
  75 C :   -0.006940
  76 H :    0.022759
  77 H :    0.035335
  78 H :    0.031119
  79 H :    0.031058
  80 H :   -0.000959
  81 H :   -0.020253
  82 H :   -0.045522
  83 H :   -0.039128
  84 H :   -0.031132
  85 H :   -0.004672
  86 H :   -0.004658
  87 H :    0.022623
  88 H :    0.007759
  89 H :    0.021959
  90 H :   -0.004520
  91 H :   -0.004912
  92 H :    0.022588
  93 H :    0.007240
  94 H :    0.022088
  95 H :   -0.042562
  96 H :   -0.017890
  97 H :   -0.038159
  98 H :   -0.022650
  99 H :    0.034524
 100 H :    0.033140
 101 H :    0.032809
 102 H :    0.034095
 103 H :    0.031914
 104 H :    0.033187
 105 H :   -0.021337
 106 H :   -0.021551
 107 H :   -0.035462
 108 H :   -0.029082
 109 H :   -0.003496
 110 H :    0.006221
 111 H :    0.001524
 112 H :    0.011643
 113 H :    0.023472
 114 H :   -0.003030
 115 H :    0.004547
 116 H :    0.021326
 117 H :    0.007012
 118 H :    0.021372
 119 H :   -0.028308
 120 H :   -0.019857
 121 H :   -0.032312
 122 H :    0.042384
 123 H :    0.031753
 124 H :    0.032285
 125 H :   -0.023006
 126 H :    0.022134
 127 H :    0.014367
Sum of atomic charges:    0.0000000

LOEWDIN ATOMIC CHARGES
----------------------
   0 C :    0.062397
   1 O :    0.040752
   2 C :   -0.009901
   3 C :    0.019654
   4 C :   -0.166560
   5 C :    0.171517
   6 F :   -0.056251
   7 F :   -0.065107
   8 F :   -0.064789
   9 O :   -0.097957
  10 C :    0.074314
  11 C :   -0.034716
  12 C :   -0.021016
  13 C :   -0.022793
  14 C :   -0.019227
  15 C :    0.004746
  16 C :   -0.020175
  17 C :   -0.020198
  18 C :   -0.020551
  19 C :   -0.018240
  20 C :    0.004613
  21 C :   -0.035397
  22 C :   -0.011975
  23 C :   -0.057919
  24 C :   -0.011799
  25 C :   -0.057838
  26 C :   -0.015331
  27 C :   -0.034295
  28 C :   -0.028854
  29 C :   -0.018030
  30 C :   -0.146730
  31 C :   -0.047261
  32 C :   -0.059802
  33 C :   -0.185346
  34 S :    0.390913
  35 C :    0.025285
  36 O :   -0.106403
  37 C :    0.064503
  38 C :   -0.061092
  39 C :   -0.185130
  40 C :    0.024311
  41 O :   -0.107402
  42 C :    0.064129
  43 S :    0.388998
  44 C :   -0.148019
  45 C :   -0.043863
  46 C :   -0.032409
  47 C :   -0.032098
  48 C :    0.005638
  49 C :   -0.019379
  50 C :   -0.015760
  51 C :   -0.012251
  52 C :   -0.009938
  53 C :    0.003730
  54 C :   -0.034441
  55 C :   -0.009052
  56 C :   -0.059473
  57 C :   -0.015420
  58 C :   -0.056285
  59 C :   -0.009469
  60 C :   -0.045883
  61 C :   -0.006883
  62 C :   -0.018513
  63 C :    0.072823
  64 O :    0.026312
  65 C :   -0.027121
  66 C :    0.026506
  67 C :   -0.154016
  68 C :    0.172459
  69 F :   -0.065865
  70 F :   -0.074181
  71 F :   -0.047256
  72 O :   -0.088580
  73 C :    0.081102
  74 C :   -0.045709
  75 C :   -0.053454
  76 H :    0.030191
  77 H :    0.029491
  78 H :    0.015508
  79 H :    0.015514
  80 H :    0.035187
  81 H :    0.026728
  82 H :    0.022056
  83 H :    0.025665
  84 H :    0.025106
  85 H :    0.018998
  86 H :    0.019056
  87 H :    0.025926
  88 H :    0.023284
  89 H :    0.025740
  90 H :    0.019040
  91 H :    0.018973
  92 H :    0.025919
  93 H :    0.023164
  94 H :    0.025767
  95 H :    0.024493
  96 H :    0.018022
  97 H :    0.026502
  98 H :    0.028715
  99 H :    0.028864
 100 H :    0.011865
 101 H :    0.011885
 102 H :    0.028582
 103 H :    0.012140
 104 H :    0.011045
 105 H :    0.029687
 106 H :    0.014837
 107 H :    0.027506
 108 H :    0.027728
 109 H :    0.019904
 110 H :    0.027264
 111 H :    0.019125
 112 H :    0.027453
 113 H :    0.025264
 114 H :    0.019987
 115 H :    0.019393
 116 H :    0.025303
 117 H :    0.023261
 118 H :    0.025958
 119 H :    0.026433
 120 H :    0.025054
 121 H :    0.028267
 122 H :    0.032466
 123 H :    0.017265
 124 H :    0.016911
 125 H :    0.030378
 126 H :    0.022488
 127 H :    0.023340

  Mayer bond orders larger than 0.100000
B(  0-C ,  1-O ) :   1.1983 B(  0-C ,  2-C ) :   0.1020 B(  0-C ,  4-C ) :   1.4910
B(  0-C , 76-H ) :   1.0125 B(  1-O ,  2-C ) :   1.1222 B(  2-C ,  3-C ) :   1.4398
B(  2-C , 11-C ) :   1.1360 B(  3-C ,  4-C ) :   1.2175 B(  3-C ,  9-O ) :   1.2098
B(  4-C ,  5-C ) :   0.9586 B(  5-C ,  6-F ) :   1.1691 B(  5-C ,  7-F ) :   1.1519
B(  5-C ,  8-F ) :   1.1509 B(  9-O , 10-C ) :   0.9347 B( 10-C , 77-H ) :   0.9774
B( 10-C , 78-H ) :   0.9645 B( 10-C , 79-H ) :   0.9650 B( 11-C , 12-C ) :   1.6735
B( 11-C , 80-H ) :   0.9574 B( 12-C , 13-C ) :   1.0507 B( 12-C , 81-H ) :   0.9902
B( 13-C , 14-C ) :   1.2984 B( 13-C , 18-C ) :   1.3422 B( 14-C , 15-C ) :   1.4055
B( 14-C , 82-H ) :   1.0000 B( 15-C , 16-C ) :   1.3562 B( 15-C , 21-C ) :   0.9157
B( 16-C , 17-C ) :   1.3474 B( 16-C , 19-C ) :   0.9912 B( 17-C , 18-C ) :   1.3704
B( 17-C , 83-H ) :   0.9913 B( 18-C , 84-H ) :   0.9932 B( 19-C , 20-C ) :   1.3585
B( 19-C , 29-C ) :   1.3443 B( 20-C , 21-C ) :   0.9139 B( 20-C , 26-C ) :   1.3989
B( 21-C , 22-C ) :   1.0379 B( 21-C , 24-C ) :   1.0379 B( 22-C , 23-C ) :   1.1020
B( 22-C , 85-H ) :   0.9389 B( 22-C , 86-H ) :   0.9389 B( 23-C , 87-H ) :   0.9643
B( 23-C , 88-H ) :   0.9637 B( 23-C , 89-H ) :   0.9642 B( 24-C , 25-C ) :   1.1015
B( 24-C , 90-H ) :   0.9389 B( 24-C , 91-H ) :   0.9389 B( 25-C , 92-H ) :   0.9644
B( 25-C , 93-H ) :   0.9638 B( 25-C , 94-H ) :   0.9642 B( 26-C , 27-C ) :   1.3086
B( 26-C , 95-H ) :   1.0069 B( 27-C , 28-C ) :   1.3416 B( 27-C , 30-C ) :   1.0580
B( 28-C , 29-C ) :   1.3875 B( 28-C , 96-H ) :   0.9786 B( 29-C , 97-H ) :   0.9916
B( 30-C , 31-C ) :   1.5786 B( 30-C , 34-S ) :   1.0476 B( 31-C , 32-C ) :   1.1576
B( 31-C , 98-H ) :   1.0012 B( 32-C , 33-C ) :   1.3206 B( 32-C , 38-C ) :   0.1037
B( 32-C , 40-C ) :   1.3058 B( 33-C , 34-S ) :   1.0020 B( 33-C , 35-C ) :   1.3628
B( 35-C , 36-O ) :   1.2056 B( 35-C , 38-C ) :   1.3066 B( 36-O , 37-C ) :   0.9513
B( 37-C , 99-H ) :   0.9764 B( 37-C ,100-H ) :   0.9669 B( 37-C ,101-H ) :   0.9674
B( 38-C , 39-C ) :   1.3191 B( 38-C , 45-C ) :   1.1595 B( 39-C , 40-C ) :   1.3632
B( 39-C , 43-S ) :   1.0004 B( 40-C , 41-O ) :   1.2008 B( 41-O , 42-C ) :   0.9522
B( 42-C ,102-H ) :   0.9764 B( 42-C ,103-H ) :   0.9676 B( 42-C ,104-H ) :   0.9663
B( 43-S , 44-C ) :   1.0475 B( 44-C , 45-C ) :   1.5790 B( 44-C , 46-C ) :   1.0572
B( 45-C ,105-H ) :   1.0027 B( 46-C , 47-C ) :   1.2882 B( 46-C , 51-C ) :   1.3588
B( 47-C , 48-C ) :   1.4085 B( 47-C ,106-H ) :   0.9833 B( 48-C , 49-C ) :   1.3887
B( 48-C , 54-C ) :   0.9169 B( 49-C , 50-C ) :   1.3296 B( 49-C , 52-C ) :   0.9915
B( 50-C , 51-C ) :   1.3885 B( 50-C ,107-H ) :   0.9907 B( 51-C ,108-H ) :   0.9903
B( 52-C , 53-C ) :   1.3735 B( 52-C , 62-C ) :   1.3382 B( 53-C , 54-C ) :   0.9216
B( 53-C , 59-C ) :   1.3727 B( 54-C , 55-C ) :   1.0145 B( 54-C , 57-C ) :   1.0335
B( 55-C , 56-C ) :   1.1156 B( 55-C ,109-H ) :   0.9367 B( 55-C ,110-H ) :   0.9384
B( 56-C ,111-H ) :   0.9627 B( 56-C ,112-H ) :   0.9587 B( 56-C ,113-H ) :   0.9602
B( 57-C , 58-C ) :   1.1049 B( 57-C ,114-H ) :   0.9385 B( 57-C ,115-H ) :   0.9379
B( 58-C ,116-H ) :   0.9629 B( 58-C ,117-H ) :   0.9643 B( 58-C ,118-H ) :   0.9647
B( 59-C , 60-C ) :   1.2964 B( 59-C ,119-H ) :   1.0115 B( 60-C , 61-C ) :   1.3732
B( 60-C , 63-C ) :   1.0279 B( 61-C , 62-C ) :   1.3869 B( 61-C ,120-H ) :   0.9766
B( 62-C ,121-H ) :   0.9944 B( 63-C , 64-O ) :   1.2060 B( 63-C , 65-C ) :   0.1039
B( 63-C , 67-C ) :   1.5184 B( 64-O , 65-C ) :   1.0752 B( 65-C , 66-C ) :   1.3884
B( 65-C , 74-C ) :   1.1081 B( 66-C , 67-C ) :   1.2431 B( 66-C , 72-O ) :   1.2272
B( 67-C , 68-C ) :   0.9307 B( 68-C , 69-F ) :   1.1602 B( 68-C , 70-F ) :   1.1398
B( 68-C , 71-F ) :   1.1990 B( 72-O , 73-C ) :   0.9515 B( 73-C ,122-H ) :   0.9762
B( 73-C ,123-H ) :   0.9668 B( 73-C ,124-H ) :   0.9677 B( 74-C , 75-C ) :   1.9327
B( 74-C ,125-H ) :   0.9563 B( 75-C ,126-H ) :   0.9579 B( 75-C ,127-H ) :   0.9418

-----------------------------------------------------------------------------
         ABSORPTION SPECTRUM VIA TRANSITION ELECTRIC DIPOLE MOMENTS
-----------------------------------------------------------------------------
State   Energy  Wavelength   fosc         T2         TX        TY        TZ
        (cm-1)    (nm)                  (au**2)     (au)      (au)      (au)
-----------------------------------------------------------------------------
   0   23433.1    426.7   2.015297770  28.31294   0.58241   4.87141  -2.05989
   1   28114.8    355.7   0.724576351   8.48446   1.21996  -2.58926  -0.54027
   2   29122.0    343.4   1.161198755  13.12687   0.31420  -3.52022   0.79762
   3   30848.8    324.2   0.377883841   4.03270   0.89413   1.05495  -1.45613
   4   33811.2    295.8   0.047928677   0.46667   0.10966   0.41543  -0.53110
   5   34051.5    293.7   0.063872637   0.61752  -0.36591  -0.52955   0.45080
   6   35913.6    278.4   0.128756167   1.18028   0.28366  -1.03692  -0.15691
   7   36844.4    271.4   0.166906835   1.49135   0.35258  -1.15429  -0.18618
   8   36930.2    270.8   0.005003571   0.04460   0.16290   0.01398  -0.13368
   9   37456.2    267.0   0.035313954   0.31038   0.19976  -0.49657  -0.15459
  10   38322.4    260.9   0.171060536   1.46951   0.18463   1.05560  -0.56669
  11   38590.9    259.1   0.089851232   0.76651   0.43489   0.11928  -0.75043
  12   39253.9    254.8   0.026064110   0.21859  -0.21657  -0.25612   0.32572
  13   40145.9    249.1   0.032685460   0.26803   0.30476  -0.29309  -0.29876

FINAL SINGLE POINT ENERGY     -4236.278122473870

DIPOLE MOMENT
-------------
                                X             Y             Z
Electronic contribution:      8.21889      15.86536     -25.42048
Nuclear contribution   :     -8.88707     -15.48279      26.51170
                        -----------------------------------------
Total Dipole Moment    :     -0.66818       0.38257       1.09122
                        -----------------------------------------
Magnitude (a.u.)       :      1.33551
Magnitude (Debye)      :      3.39459

Rotational constants in cm-1:     0.002699     0.000134     0.000129
Rotational constants in MHz :    80.920044     4.026032     3.874994

                             ****ORCA TERMINATED NORMALLY****
TOTAL RUN TIME: 0 days 0 hours 11 minutes 29 seconds 990 msec
