                         Program Version 4.2.0 -  RELEASE  -
|  1> # ORCA input file
|  2> # SCF done       -161.468762118844          0.000562204084
|  3> ! CAM-B3LYP def2-SVP def2/J RIJCOSX Grid4 TightSCF
|  4> %maxcore 5000
|  5> %tddft
|  6>     Mode sTDDFT
|  7>     Ethresh 5.0
|  8>     maxcore 5000
|  9> end
| 10>
| 11> %pal
| 12>   nprocs 6
| 13>   end
| 14> * xyz 0 1
| 15>    C      -15.58296        10.90920        -7.01554
| 16>    O      -14.64082        11.43275        -6.20217
| 17>    C      -14.15434        10.36226        -5.52305
| 18>    C      -14.85745         9.21624        -5.98349
| 19>    N      -15.75668         9.64284        -6.93895
| 20>    C      -14.60041         7.94753        -5.49312
| 21>    C      -13.60872         7.88969        -4.52723
| 22>    C      -12.91881         9.05482        -4.08233
| 23>    C      -13.16392        10.32607        -4.55938
| 24>    O      -12.01970         8.66148        -3.15166
| 25>    C      -12.18170         7.30338        -3.06334
| 26>    N      -13.09756         6.81900        -3.84522
| 27>    C      -11.34109         6.57408        -2.16770
| 28>    C      -11.42365         5.23170        -2.07430
| 29>    C      -10.63155         4.36796        -1.26264
| 30>    S      -10.60272         2.67172        -1.69737
| 31>    C       -9.49814         2.30961        -0.43809
| 32>    C       -9.17474         3.41392         0.28669
| 33>    C       -9.81960         4.58824        -0.17168
| 34>    C       -9.62581         5.81572         0.65080
| 35>    C       -9.83588         5.43267         2.13200
| 36>    C       -8.92985         4.26672         2.61099
| 37>    O       -9.66242         3.30553         3.33445
| 38>    C      -10.12603         3.73406         4.59400
| 39>    C       -8.25289         3.51463         1.45239
| 40>    N       -9.66280         6.55967         3.01844
| 41>    C      -10.67534         7.45393         3.25878
| 42>    S      -12.23666         7.32681         2.49851
| 43>    C      -12.82718         8.66480         3.41899
| 44>    C      -11.88188         9.17786         4.24486
| 45>    C      -10.63908         8.49048         4.15974
| 46>    C       -9.41829         8.90182         4.93161
| 47>    C       -9.72463         9.88618         6.06579
| 48>    C      -10.75881        10.94069         5.60098
| 49>    O      -10.14403        11.61603         4.52487
| 50>    C      -10.77378        12.80985         4.13037
| 51>    C      -12.09126        10.27618         5.23714
| 52>    N      -10.11169         9.27023         7.31889
| 53>    C      -10.72475         8.11117         7.59593
| 54>    C      -10.99524         7.62185         8.86611
| 55>    C      -11.62125         6.33795         8.73484
| 56>    C      -11.74444         6.04708         7.32148
| 57>    O      -12.19616         5.11952         6.69354
| 58>    N      -11.16655         7.17783         6.70167
| 59>    C      -11.84351         5.87260        10.00921
| 60>    O      -11.39900         6.79274        10.91600
| 61>    C      -10.85897         7.90698        10.25479
| 62>    O      -10.40534         8.84921        10.85930
| 63>    C      -12.41888         4.65477        10.45062
| 64>    O      -12.86961         3.79326         9.50833
| 65>    C      -13.35686         2.72503        10.14869
| 66>    C      -13.23721         2.85661        11.49671
| 67>    C      -12.62149         4.11898        11.72661
| 68>    C      -12.26392         4.72727        12.97214
| 69>    C      -12.43174         4.15573        14.17910
| 70>    C      -12.04812         4.79377        15.40802
| 71>    C      -12.19243         4.23249        16.60769
| 72>    H      -16.11538        11.57785        -7.66339
| 73>    H      -15.12622         7.07494        -5.83654
| 74>    H      -12.63621        11.20000        -4.21901
| 75>    H      -10.62679         7.16419        -1.61704
| 76>    H      -12.14137         4.74272        -2.71991
| 77>    H       -9.15183         1.30427        -0.30457
| 78>    H      -10.34235         6.59359         0.39169
| 79>    H       -8.61244         6.20751         0.51460
| 80>    H      -10.87325         5.09433         2.23597
| 81>    H       -8.14734         4.68749         3.26902
| 82>    H      -10.55385         2.85886         5.07630
| 83>    H      -10.89899         4.50272         4.51901
| 84>    H       -9.30080         4.11906         5.20541
| 85>    H       -7.96545         2.52723         1.81064
| 86>    H       -7.35157         4.05584         1.15187
| 87>    H       -8.73288         6.95622         3.02552
| 88>    H      -13.84733         8.96744         3.30032
| 89>    H       -8.73383         9.41558         4.24964
| 90>    H       -8.89662         8.03041         5.33746
| 91>    H       -8.79971        10.43646         6.27741
| 92>    H      -10.93534        11.65198         6.42786
| 93>    H      -10.09029        13.29525         3.43635
| 94>    H      -10.94871        13.46785         4.98985
| 95>    H      -11.72575        12.62499         3.62210
| 96>    H      -12.79210        11.01581         4.84764
| 97>    H      -12.52841         9.86601         6.15321
| 98>    H       -9.91009         9.81202         8.14774
| 99>    H      -11.14539         7.29329         5.69534
|100>    H      -13.76151         1.93808         9.54256
|101>    H      -13.54880         2.14868        12.23599
|102>    H      -11.82310         5.71141        12.90416
|103>    H      -12.86732         3.16924        14.26304
|104>    H      -11.61862         5.78326        15.31885
|105>    H      -12.61576         3.24756        16.72213
|106>    H      -11.89403         4.73315        17.51241
|107> *
|108>
|109>                          ****END OF INPUT****

CARTESIAN COORDINATES (ANGSTROEM)
---------------------------------
  C    -15.582960   10.909200   -7.015540
  O    -14.640820   11.432750   -6.202170
  C    -14.154340   10.362260   -5.523050
  C    -14.857450    9.216240   -5.983490
  N    -15.756680    9.642840   -6.938950
  C    -14.600410    7.947530   -5.493120
  C    -13.608720    7.889690   -4.527230
  C    -12.918810    9.054820   -4.082330
  C    -13.163920   10.326070   -4.559380
  O    -12.019700    8.661480   -3.151660
  C    -12.181700    7.303380   -3.063340
  N    -13.097560    6.819000   -3.845220
  C    -11.341090    6.574080   -2.167700
  C    -11.423650    5.231700   -2.074300
  C    -10.631550    4.367960   -1.262640
  S    -10.602720    2.671720   -1.697370
  C     -9.498140    2.309610   -0.438090
  C     -9.174740    3.413920    0.286690
  C     -9.819600    4.588240   -0.171680
  C     -9.625810    5.815720    0.650800
  C     -9.835880    5.432670    2.132000
  C     -8.929850    4.266720    2.610990
  O     -9.662420    3.305530    3.334450
  C    -10.126030    3.734060    4.594000
  C     -8.252890    3.514630    1.452390
  N     -9.662800    6.559670    3.018440
  C    -10.675340    7.453930    3.258780
  S    -12.236660    7.326810    2.498510
  C    -12.827180    8.664800    3.418990
  C    -11.881880    9.177860    4.244860
  C    -10.639080    8.490480    4.159740
  C     -9.418290    8.901820    4.931610
  C     -9.724630    9.886180    6.065790
  C    -10.758810   10.940690    5.600980
  O    -10.144030   11.616030    4.524870
  C    -10.773780   12.809850    4.130370
  C    -12.091260   10.276180    5.237140
  N    -10.111690    9.270230    7.318890
  C    -10.724750    8.111170    7.595930
  C    -10.995240    7.621850    8.866110
  C    -11.621250    6.337950    8.734840
  C    -11.744440    6.047080    7.321480
  O    -12.196160    5.119520    6.693540
  N    -11.166550    7.177830    6.701670
  C    -11.843510    5.872600   10.009210
  O    -11.399000    6.792740   10.916000
  C    -10.858970    7.906980   10.254790
  O    -10.405340    8.849210   10.859300
  C    -12.418880    4.654770   10.450620
  O    -12.869610    3.793260    9.508330
  C    -13.356860    2.725030   10.148690
  C    -13.237210    2.856610   11.496710
  C    -12.621490    4.118980   11.726610
  C    -12.263920    4.727270   12.972140
  C    -12.431740    4.155730   14.179100
  C    -12.048120    4.793770   15.408020
  C    -12.192430    4.232490   16.607690
  H    -16.115380   11.577850   -7.663390
  H    -15.126220    7.074940   -5.836540
  H    -12.636210   11.200000   -4.219010
  H    -10.626790    7.164190   -1.617040
  H    -12.141370    4.742720   -2.719910
  H     -9.151830    1.304270   -0.304570
  H    -10.342350    6.593590    0.391690
  H     -8.612440    6.207510    0.514600
  H    -10.873250    5.094330    2.235970
  H     -8.147340    4.687490    3.269020
  H    -10.553850    2.858860    5.076300
  H    -10.898990    4.502720    4.519010
  H     -9.300800    4.119060    5.205410
  H     -7.965450    2.527230    1.810640
  H     -7.351570    4.055840    1.151870
  H     -8.732880    6.956220    3.025520
  H    -13.847330    8.967440    3.300320
  H     -8.733830    9.415580    4.249640
  H     -8.896620    8.030410    5.337460
  H     -8.799710   10.436460    6.277410
  H    -10.935340   11.651980    6.427860
  H    -10.090290   13.295250    3.436350
  H    -10.948710   13.467850    4.989850
  H    -11.725750   12.624990    3.622100
  H    -12.792100   11.015810    4.847640
  H    -12.528410    9.866010    6.153210
  H     -9.910090    9.812020    8.147740
  H    -11.145390    7.293290    5.695340
  H    -13.761510    1.938080    9.542560
  H    -13.548800    2.148680   12.235990
  H    -11.823100    5.711410   12.904160
  H    -12.867320    3.169240   14.263040
  H    -11.618620    5.783260   15.318850
  H    -12.615760    3.247560   16.722130
  H    -11.894030    4.733150   17.512410

 Total Charge           Charge          ....    0
 Multiplicity           Mult            ....    1
 Number of Electrons    NEL             ....  418
 Basis Dimension        Dim             ....  981

ORBITAL ENERGIES
----------------

  NO   OCC          E(Eh)            E(eV)
   0   2.0000     -88.955577     -2420.6043
   1   2.0000     -88.949672     -2420.4436
   2   2.0000     -19.293088      -524.9916
   3   2.0000     -19.289908      -524.9051
   4   2.0000     -19.281338      -524.6719
   5   2.0000     -19.260623      -524.1082
   6   2.0000     -19.229723      -523.2674
   7   2.0000     -19.205066      -522.5964
   8   2.0000     -19.186669      -522.0958
   9   2.0000     -19.173808      -521.7458
  10   2.0000     -14.461832      -393.5264
  11   2.0000     -14.446559      -393.1109
  12   2.0000     -14.436629      -392.8406
  13   2.0000     -14.402140      -391.9022
  14   2.0000     -14.396002      -391.7351
  15   2.0000     -10.380041      -282.4553
  16   2.0000     -10.378350      -282.4093
  17   2.0000     -10.376248      -282.3521
  18   2.0000     -10.362233      -281.9707
  19   2.0000     -10.358796      -281.8772
  20   2.0000     -10.342595      -281.4363
  21   2.0000     -10.335670      -281.2479
  22   2.0000     -10.335604      -281.2461
  23   2.0000     -10.333396      -281.1860
  24   2.0000     -10.333000      -281.1752
  25   2.0000     -10.332869      -281.1717
  26   2.0000     -10.323637      -280.9205
  27   2.0000     -10.322405      -280.8869
  28   2.0000     -10.321125      -280.8521
  29   2.0000     -10.319464      -280.8069
  30   2.0000     -10.313389      -280.6416
  31   2.0000     -10.298051      -280.2242
  32   2.0000     -10.297960      -280.2217
  33   2.0000     -10.297489      -280.2089
  34   2.0000     -10.292571      -280.0751
  35   2.0000     -10.291242      -280.0389
  36   2.0000     -10.290399      -280.0160
  37   2.0000     -10.289359      -279.9877
  38   2.0000     -10.287040      -279.9246
  39   2.0000     -10.281906      -279.7849
  40   2.0000     -10.281847      -279.7833
  41   2.0000     -10.281114      -279.7633
  42   2.0000     -10.280787      -279.7544
  43   2.0000     -10.279231      -279.7121
  44   2.0000     -10.277836      -279.6741
  45   2.0000     -10.274641      -279.5872
  46   2.0000     -10.273792      -279.5641
  47   2.0000     -10.272692      -279.5342
  48   2.0000     -10.271850      -279.5112
  49   2.0000     -10.268658      -279.4244
  50   2.0000     -10.261695      -279.2349
  51   2.0000     -10.260412      -279.2000
  52   2.0000     -10.260243      -279.1954
  53   2.0000     -10.259435      -279.1734
  54   2.0000     -10.258519      -279.1485
  55   2.0000     -10.251273      -278.9513
  56   2.0000     -10.244771      -278.7744
  57   2.0000      -8.051073      -219.0808
  58   2.0000      -8.045706      -218.9348
  59   2.0000      -6.020604      -163.8290
  60   2.0000      -6.016194      -163.7090
  61   2.0000      -6.014973      -163.6757
  62   2.0000      -6.012993      -163.6219
  63   2.0000      -6.010697      -163.5594
  64   2.0000      -6.007956      -163.4848
  65   2.0000      -1.223091       -33.2820
  66   2.0000      -1.217771       -33.1372
  67   2.0000      -1.203098       -32.7380
  68   2.0000      -1.183891       -32.2153
  69   2.0000      -1.133033       -30.8314
  70   2.0000      -1.126798       -30.6617
  71   2.0000      -1.110367       -30.2146
  72   2.0000      -1.085096       -29.5270
  73   2.0000      -1.081283       -29.4232
  74   2.0000      -1.047058       -28.4919
  75   2.0000      -1.022514       -27.8240
  76   2.0000      -1.015101       -27.6223
  77   2.0000      -1.008994       -27.4561
  78   2.0000      -0.986462       -26.8430
  79   2.0000      -0.971745       -26.4425
  80   2.0000      -0.947468       -25.7819
  81   2.0000      -0.915182       -24.9034
  82   2.0000      -0.912333       -24.8258
  83   2.0000      -0.909017       -24.7356
  84   2.0000      -0.897201       -24.4141
  85   2.0000      -0.895069       -24.3561
  86   2.0000      -0.872747       -23.7487
  87   2.0000      -0.868999       -23.6467
  88   2.0000      -0.863620       -23.5003
  89   2.0000      -0.856037       -23.2940
  90   2.0000      -0.842859       -22.9354
  91   2.0000      -0.842406       -22.9230
  92   2.0000      -0.833707       -22.6863
  93   2.0000      -0.821534       -22.3551
  94   2.0000      -0.810068       -22.0431
  95   2.0000      -0.800351       -21.7787
  96   2.0000      -0.795608       -21.6496
  97   2.0000      -0.777710       -21.1626
  98   2.0000      -0.770597       -20.9690
  99   2.0000      -0.764473       -20.8024
 100   2.0000      -0.756120       -20.5751
 101   2.0000      -0.744907       -20.2700
 102   2.0000      -0.741806       -20.1856
 103   2.0000      -0.729851       -19.8603
 104   2.0000      -0.721792       -19.6410
 105   2.0000      -0.712956       -19.4005
 106   2.0000      -0.710958       -19.3462
 107   2.0000      -0.699586       -19.0367
 108   2.0000      -0.695403       -18.9229
 109   2.0000      -0.693966       -18.8838
 110   2.0000      -0.688172       -18.7261
 111   2.0000      -0.669602       -18.2208
 112   2.0000      -0.662328       -18.0229
 113   2.0000      -0.659227       -17.9385
 114   2.0000      -0.653283       -17.7767
 115   2.0000      -0.652582       -17.7577
 116   2.0000      -0.649058       -17.6618
 117   2.0000      -0.638669       -17.3791
 118   2.0000      -0.629902       -17.1405
 119   2.0000      -0.620039       -16.8721
 120   2.0000      -0.617591       -16.8055
 121   2.0000      -0.617026       -16.7901
 122   2.0000      -0.609922       -16.5968
 123   2.0000      -0.603271       -16.4158
 124   2.0000      -0.595819       -16.2130
 125   2.0000      -0.593474       -16.1493
 126   2.0000      -0.589978       -16.0541
 127   2.0000      -0.582012       -15.8373
 128   2.0000      -0.579754       -15.7759
 129   2.0000      -0.573815       -15.6143
 130   2.0000      -0.570113       -15.5136
 131   2.0000      -0.568284       -15.4638
 132   2.0000      -0.565241       -15.3810
 133   2.0000      -0.561863       -15.2891
 134   2.0000      -0.559903       -15.2357
 135   2.0000      -0.556080       -15.1317
 136   2.0000      -0.552574       -15.0363
 137   2.0000      -0.551892       -15.0178
 138   2.0000      -0.542343       -14.7579
 139   2.0000      -0.541620       -14.7382
 140   2.0000      -0.537397       -14.6233
 141   2.0000      -0.535868       -14.5817
 142   2.0000      -0.534510       -14.5448
 143   2.0000      -0.533854       -14.5269
 144   2.0000      -0.532721       -14.4961
 145   2.0000      -0.527627       -14.3575
 146   2.0000      -0.520285       -14.1577
 147   2.0000      -0.517870       -14.0920
 148   2.0000      -0.516540       -14.0558
 149   2.0000      -0.509141       -13.8544
 150   2.0000      -0.506770       -13.7899
 151   2.0000      -0.504856       -13.7378
 152   2.0000      -0.500717       -13.6252
 153   2.0000      -0.500378       -13.6160
 154   2.0000      -0.498266       -13.5585
 155   2.0000      -0.498038       -13.5523
 156   2.0000      -0.491814       -13.3829
 157   2.0000      -0.489237       -13.3128
 158   2.0000      -0.487654       -13.2698
 159   2.0000      -0.486188       -13.2299
 160   2.0000      -0.477155       -12.9841
 161   2.0000      -0.475549       -12.9403
 162   2.0000      -0.472789       -12.8652
 163   2.0000      -0.467163       -12.7121
 164   2.0000      -0.463211       -12.6046
 165   2.0000      -0.462315       -12.5802
 166   2.0000      -0.457772       -12.4566
 167   2.0000      -0.456694       -12.4273
 168   2.0000      -0.453931       -12.3521
 169   2.0000      -0.453133       -12.3304
 170   2.0000      -0.449533       -12.2324
 171   2.0000      -0.447003       -12.1636
 172   2.0000      -0.441303       -12.0085
 173   2.0000      -0.438380       -11.9289
 174   2.0000      -0.436459       -11.8767
 175   2.0000      -0.433639       -11.7999
 176   2.0000      -0.427271       -11.6266
 177   2.0000      -0.423851       -11.5336
 178   2.0000      -0.421437       -11.4679
 179   2.0000      -0.419678       -11.4200
 180   2.0000      -0.418829       -11.3969
 181   2.0000      -0.416745       -11.3402
 182   2.0000      -0.413157       -11.2426
 183   2.0000      -0.409818       -11.1517
 184   2.0000      -0.408255       -11.1092
 185   2.0000      -0.404044       -10.9946
 186   2.0000      -0.401801       -10.9336
 187   2.0000      -0.396038       -10.7767
 188   2.0000      -0.387776       -10.5519
 189   2.0000      -0.372600       -10.1390
 190   2.0000      -0.368192       -10.0190
 191   2.0000      -0.362273        -9.8580
 192   2.0000      -0.358015        -9.7421
 193   2.0000      -0.356937        -9.7128
 194   2.0000      -0.352469        -9.5912
 195   2.0000      -0.348355        -9.4792
 196   2.0000      -0.342983        -9.3330
 197   2.0000      -0.342406        -9.3173
 198   2.0000      -0.327129        -8.9016
 199   2.0000      -0.321822        -8.7572
 200   2.0000      -0.314647        -8.5620
 201   2.0000      -0.311569        -8.4782
 202   2.0000      -0.308471        -8.3939
 203   2.0000      -0.304570        -8.2878
 204   2.0000      -0.295193        -8.0326
 205   2.0000      -0.273944        -7.4544
 206   2.0000      -0.261424        -7.1137
 207   2.0000      -0.257771        -7.0143
 208   2.0000      -0.222306        -6.0493
 209   0.0000      -0.043162        -1.1745
 210   0.0000      -0.041191        -1.1209
 211   0.0000       0.013038         0.3548
 212   0.0000       0.016709         0.4547
 213   0.0000       0.025779         0.7015

MULLIKEN ATOMIC CHARGES
-----------------------
   0 C :    0.170895
   1 O :   -0.198960
   2 C :    0.187807
   3 C :    0.003488
   4 N :   -0.075921
   5 C :   -0.085457
   6 C :    0.025940
   7 C :    0.209835
   8 C :   -0.152700
   9 O :   -0.209339
  10 C :    0.107746
  11 N :   -0.058414
  12 C :   -0.040211
  13 C :    0.074010
  14 C :   -0.172098
  15 S :    0.121892
  16 C :   -0.127906
  17 C :   -0.085082
  18 C :   -0.048557
  19 C :    0.273305
  20 C :   -0.083454
  21 C :    0.146566
  22 O :   -0.380818
  23 C :    0.184777
  24 C :    0.264924
  25 N :   -0.135405
  26 C :   -0.142866
  27 S :    0.096531
  28 C :   -0.143104
  29 C :   -0.045546
  30 C :   -0.129493
  31 C :    0.155225
  32 C :    0.030482
  33 C :    0.143024
  34 O :   -0.381290
  35 C :    0.186812
  36 C :    0.165093
  37 N :   -0.053680
  38 C :    0.030111
  39 C :   -0.128490
  40 C :   -0.016083
  41 C :    0.143127
  42 O :   -0.160207
  43 N :   -0.152582
  44 C :    0.089644
  45 O :   -0.268649
  46 C :    0.180798
  47 O :   -0.192491
  48 C :    0.078185
  49 O :   -0.172057
  50 C :    0.161737
  51 C :   -0.047408
  52 C :    0.044989
  53 C :   -0.020827
  54 C :    0.010582
  55 C :    0.007194
  56 C :   -0.017850
  57 H :    0.028654
  58 H :   -0.026695
  59 H :   -0.019548
  60 H :   -0.000438
  61 H :    0.016059
  62 H :    0.016611
  63 H :    0.002131
  64 H :   -0.016784
  65 H :    0.036505
  66 H :   -0.033830
  67 H :    0.030088
  68 H :    0.023588
  69 H :   -0.011963
  70 H :    0.003140
  71 H :   -0.000316
  72 H :    0.129004
  73 H :    0.006585
  74 H :    0.034829
  75 H :    0.017012
  76 H :    0.014691
  77 H :   -0.012302
  78 H :    0.032605
  79 H :    0.004974
  80 H :    0.015585
  81 H :    0.002745
  82 H :    0.033621
  83 H :    0.147622
  84 H :    0.155608
  85 H :    0.012039
  86 H :   -0.011996
  87 H :    0.004456
  88 H :   -0.025415
  89 H :   -0.004221
  90 H :    0.008434
  91 H :    0.019142
Sum of atomic charges:   -0.0000000

LOEWDIN ATOMIC CHARGES
----------------------
   0 C :    0.079446
   1 O :   -0.010782
   2 C :    0.026606
   3 C :   -0.040611
   4 N :   -0.099184
   5 C :   -0.018740
   6 C :   -0.034146
   7 C :    0.032445
   8 C :   -0.064030
   9 O :   -0.017316
  10 C :    0.066023
  11 N :   -0.114412
  12 C :   -0.067113
  13 C :    0.013565
  14 C :   -0.184005
  15 S :    0.439063
  16 C :   -0.179421
  17 C :   -0.063118
  18 C :   -0.050511
  19 C :   -0.031171
  20 C :    0.010089
  21 C :    0.071460
  22 O :   -0.168364
  23 C :    0.066847
  24 C :   -0.023260
  25 N :   -0.032333
  26 C :   -0.125702
  27 S :    0.421138
  28 C :   -0.216783
  29 C :   -0.060339
  30 C :   -0.149578
  31 C :   -0.031028
  32 C :    0.033511
  33 C :    0.063153
  34 O :   -0.168744
  35 C :    0.071632
  36 C :   -0.036132
  37 N :    0.021533
  38 C :    0.115366
  39 C :   -0.205364
  40 C :   -0.113315
  41 C :    0.086275
  42 O :   -0.172926
  43 N :    0.014285
  44 C :    0.068774
  45 O :   -0.055530
  46 C :    0.085455
  47 O :   -0.203135
  48 C :    0.005209
  49 O :    0.033423
  50 C :    0.055632
  51 C :   -0.068582
  52 C :   -0.042230
  53 C :   -0.022238
  54 C :   -0.020006
  55 C :   -0.022528
  56 C :   -0.050191
  57 H :    0.024268
  58 H :    0.041786
  59 H :    0.041400
  60 H :    0.032601
  61 H :    0.039854
  62 H :    0.024288
  63 H :    0.024441
  64 H :    0.028254
  65 H :    0.029207
  66 H :    0.001614
  67 H :    0.025923
  68 H :    0.003846
  69 H :    0.002521
  70 H :    0.038011
  71 H :    0.032260
  72 H :    0.073663
  73 H :    0.020447
  74 H :    0.042248
  75 H :    0.026409
  76 H :    0.034722
  77 H :    0.007898
  78 H :    0.026169
  79 H :    0.008931
  80 H :    0.009123
  81 H :    0.033636
  82 H :    0.040436
  83 H :    0.101098
  84 H :    0.082903
  85 H :    0.026100
  86 H :    0.029779
  87 H :    0.032545
  88 H :    0.022141
  89 H :    0.031008
  90 H :    0.019302
  91 H :    0.023105

  Mayer bond orders larger than 0.100000
B(  0-C ,  1-O ) :   1.1282 B(  0-C ,  4-N ) :   1.8014 B(  0-C , 57-H ) :   0.9838
B(  1-O ,  2-C ) :   1.1117 B(  2-C ,  3-C ) :   1.2881 B(  2-C ,  8-C ) :   1.3104
B(  3-C ,  4-N ) :   1.2801 B(  3-C ,  5-C ) :   1.2921 B(  5-C ,  6-C ) :   1.2881
B(  5-C ,  8-C ) :   0.1529 B(  5-C , 58-H ) :   1.0543 B(  6-C ,  7-C ) :   1.2536
B(  6-C , 11-N ) :   1.2876 B(  7-C ,  8-C ) :   1.3265 B(  7-C ,  9-O ) :   1.1052
B(  8-C , 59-H ) :   1.0466 B(  9-O , 10-C ) :   1.1232 B( 10-C , 11-N ) :   1.7510
B( 10-C , 12-C ) :   1.1079 B( 12-C , 13-C ) :   1.7127 B( 12-C , 60-H ) :   0.9518
B( 13-C , 14-C ) :   1.0989 B( 13-C , 61-H ) :   0.9506 B( 14-C , 15-S ) :   1.1294
B( 14-C , 18-C ) :   1.5269 B( 15-S , 16-C ) :   1.1628 B( 16-C , 17-C ) :   1.5734
B( 16-C , 62-H ) :   0.9705 B( 17-C , 18-C ) :   1.2869 B( 17-C , 24-C ) :   1.0628
B( 18-C , 19-C ) :   1.0719 B( 19-C , 20-C ) :   1.0844 B( 19-C , 63-H ) :   0.9010
B( 19-C , 64-H ) :   0.8493 B( 20-C , 21-C ) :   0.9655 B( 20-C , 25-N ) :   0.9760
B( 20-C , 65-H ) :   0.8926 B( 21-C , 22-O ) :   1.0633 B( 21-C , 24-C ) :   1.0607
B( 21-C , 66-H ) :   0.9172 B( 22-O , 23-C ) :   0.9778 B( 23-C , 67-H ) :   0.9794
B( 23-C , 68-H ) :   0.9621 B( 23-C , 69-H ) :   0.9618 B( 24-C , 70-H ) :   0.8984
B( 24-C , 71-H ) :   0.8852 B( 25-N , 26-C ) :   1.1808 B( 25-N , 72-H ) :   0.9123
B( 26-C , 27-S ) :   1.1536 B( 26-C , 30-C ) :   1.4826 B( 27-S , 28-C ) :   1.0944
B( 28-C , 29-C ) :   1.6154 B( 28-C , 73-H ) :   0.9729 B( 29-C , 30-C ) :   1.2552
B( 29-C , 36-C ) :   1.0030 B( 30-C , 31-C ) :   1.0303 B( 31-C , 32-C ) :   1.0564
B( 31-C , 74-H ) :   0.8998 B( 31-C , 75-H ) :   0.9190 B( 32-C , 33-C ) :   1.0001
B( 32-C , 37-N ) :   0.9638 B( 32-C , 76-H ) :   0.9157 B( 33-C , 34-O ) :   1.0366
B( 33-C , 36-C ) :   1.0372 B( 33-C , 77-H ) :   0.9241 B( 34-O , 35-C ) :   0.9861
B( 35-C , 78-H ) :   0.9820 B( 35-C , 79-H ) :   0.9645 B( 35-C , 80-H ) :   0.9694
B( 36-C , 81-H ) :   0.9069 B( 36-C , 82-H ) :   0.9082 B( 37-N , 38-C ) :   1.3558
B( 37-N , 83-H ) :   0.8972 B( 38-C , 39-C ) :   1.2462 B( 38-C , 43-N ) :   1.2166
B( 39-C , 40-C ) :   1.1568 B( 39-C , 46-C ) :   1.0417 B( 40-C , 41-C ) :   0.9405
B( 40-C , 44-C ) :   1.4452 B( 41-C , 42-O ) :   2.1938 B( 41-C , 43-N ) :   1.0295
B( 43-N , 84-H ) :   0.8971 B( 44-C , 45-O ) :   1.1526 B( 44-C , 48-C ) :   1.1191
B( 45-O , 46-C ) :   0.9809 B( 46-C , 47-O ) :   2.2088 B( 48-C , 49-O ) :   1.1936
B( 48-C , 52-C ) :   1.3879 B( 49-O , 50-C ) :   1.1511 B( 50-C , 51-C ) :   1.5468
B( 50-C , 85-H ) :   1.0049 B( 51-C , 52-C ) :   1.2065 B( 51-C , 86-H ) :   0.9951
B( 52-C , 53-C ) :   1.0974 B( 53-C , 54-C ) :   1.7122 B( 53-C , 87-H ) :   0.9658
B( 54-C , 55-C ) :   1.1067 B( 54-C , 88-H ) :   0.9752 B( 55-C , 56-C ) :   1.9029
B( 55-C , 89-H ) :   0.9765 B( 56-C , 90-H ) :   0.9564 B( 56-C , 91-H ) :   0.9515

-----------------------------------------------------------------------------
         ABSORPTION SPECTRUM VIA TRANSITION ELECTRIC DIPOLE MOMENTS
-----------------------------------------------------------------------------
State   Energy  Wavelength   fosc         T2         TX        TY        TZ
        (cm-1)    (nm)                  (au**2)     (au)      (au)      (au)
-----------------------------------------------------------------------------
   0   22832.9    438.0   0.913508638  13.17125  -0.69439  -1.68422   3.13887
   1   30489.1    328.0   0.536505270   5.79302  -1.18844   1.50845  -1.45093
   2   30685.8    325.9   0.764384171   8.20067  -1.41102   1.86457  -1.65320
   3   31655.1    315.9   0.005603569   0.05828  -0.00151  -0.09251   0.22297
   4   32038.5    312.1   0.118761373   1.22033   0.08143   0.15026  -1.09139
   5   32328.0    309.3   0.198852289   2.02501   0.67288  -1.14217   0.51738
   6   36080.8    277.2   0.079708812   0.72729  -0.02823  -0.32128   0.78947
   7   37667.7    265.5   0.026816105   0.23437  -0.31340  -0.27660  -0.24421
   8   38076.2    262.6   0.003675145   0.03178   0.08264   0.13620  -0.07998
   9   38127.7    262.3   0.032012303   0.27641   0.23489   0.39257  -0.25908
  10   38639.7    258.8   0.018031587   0.15363   0.07855   0.22524   0.31101

FINAL SINGLE POINT ENERGY     -3290.122564114696

DIPOLE MOMENT
-------------
                                X             Y             Z
Electronic contribution:    -16.38292      -2.88641     -41.62613
Nuclear contribution   :     17.70853       4.41142      40.66126
                        -----------------------------------------
Total Dipole Moment    :      1.32561       1.52501      -0.96487
                        -----------------------------------------
Magnitude (a.u.)       :      2.23917
Magnitude (Debye)      :      5.69151

Rotational constants in cm-1:     0.002283     0.000522     0.000470
Rotational constants in MHz :    68.439898    15.642208    14.102683

                             ****ORCA TERMINATED NORMALLY****
TOTAL RUN TIME: 0 days 0 hours 6 minutes 28 seconds 775 msec
