                         Program Version 4.2.0 -  RELEASE  -
|  1> # ORCA input file
|  2> # SCF done       -166.569239255331          0.000782685578
|  3> ! CAM-B3LYP def2-SVP def2/J RIJCOSX Grid4 TightSCF
|  4> %maxcore 5000
|  5> %tddft
|  6>     Mode sTDDFT
|  7>     Ethresh 5.0
|  8>     maxcore 5000
|  9> end
| 10>
| 11> %pal
| 12>   nprocs 6
| 13>   end
| 14> * xyz 0 1
| 15>    C       -0.87388         2.73682         6.82392
| 16>    C       -0.58183         3.19257         5.58617
| 17>    C       -0.44066         2.35862         4.45634
| 18>    C       -0.71329         0.91564         4.57965
| 19>    C       -1.00233         0.27876         5.73556
| 20>    S       -1.11774         1.07401         7.25191
| 21>    C       -0.59973         0.39547         3.26151
| 22>    C       -0.27747         1.42565         2.38265
| 23>    C       -0.14218         0.96928         1.05341
| 24>    C       -0.36480        -0.36828         0.95991
| 25>    S       -0.74066        -1.12618         2.47017
| 26>    C       -0.15314         2.65876         3.12401
| 27>    C        0.20912         3.88632         2.49808
| 28>    C        0.72901         4.98182         3.09595
| 29>    C        1.06830         6.18917         2.41758
| 30>    C        0.91566         6.54245         1.10492
| 31>    C        1.37446         7.84702         0.80451
| 32>    C        1.89546         8.50765         1.95010
| 33>    S        1.79930         7.48621         3.35589
| 34>    C        2.39889         9.78683         1.90497
| 35>    C        2.39066        10.44762         0.67569
| 36>    C        1.87105         9.78925        -0.46930
| 37>    C        1.36668         8.50982        -0.42405
| 38>    S        1.96803        10.81404        -1.87610
| 39>    C        2.69749        12.10613        -0.93353
| 40>    C        2.84690        11.75396         0.37992
| 41>    C        3.04378        13.34505        -1.56576
| 42>    C        3.70685        14.34891        -0.91004
| 43>    C        4.05806        15.58241        -1.46689
| 44>    C        3.83526        15.84124        -2.89857
| 45>    C        3.19329        14.99409        -3.73171
| 46>    S        2.54355        13.48373        -3.24552
| 47>    C        4.42636        17.10799        -3.15046
| 48>    C        4.96727        17.61317        -1.96890
| 49>    C        5.56432        18.87949        -2.15616
| 50>    C        5.46708        19.29166        -3.44702
| 51>    S        4.64728        18.17210        -4.48400
| 52>    C        4.72281        16.68027        -0.89876
| 53>    C        5.11696        16.92725         0.44514
| 54>    C        4.63039        16.31907         1.55245
| 55>    C        5.08012        16.55573         2.88300
| 56>    C        6.00466        17.43762         3.37126
| 57>    C        6.19974        17.34814         4.77037
| 58>    C        5.38568        16.34477         5.36199
| 59>    S        4.39544        15.56114         4.16477
| 60>    C        5.41713        16.05854         6.70709
| 61>    C        6.28944        16.79385         7.51039
| 62>    C        7.09339        17.80537         6.92342
| 63>    C        7.06200        18.09168         5.57774
| 64>    S        8.09222        18.58231         8.12164
| 65>    C        7.44617        17.54878         9.38806
| 66>    C        6.51288        16.67586         8.90359
| 67>    C        7.92424        17.68778        10.73357
| 68>    C        7.63643        16.78907        11.72360
| 69>    C        8.09895        16.87134        13.04385
| 70>    C        9.04527        17.93076        13.44188
| 71>    C        9.44784        18.93043        12.62943
| 72>    S        8.92637        19.10988        11.00607
| 73>    C        9.39111        17.63804        14.78680
| 74>    C        8.71424        16.48964        15.20108
| 75>    C        9.01536        16.14826        16.53908
| 76>    C        9.89491        17.02286        17.09197
| 77>    S       10.39059        18.29478        16.02395
| 78>    C        7.88926        16.01521        14.12475
| 79>    C        7.03476        14.86187        14.23928
| 80>    C        5.91053        14.63360        13.56299
| 81>    H       -0.98264         3.39473         7.66941
| 82>    H       -0.48128         4.26019         5.45949
| 83>    H       -1.17837        -0.78438         5.78122
| 84>    H        0.10553         1.58737         0.20929
| 85>    H       -0.33183        -0.97992         0.07931
| 86>    H        0.08527         3.89772         1.42274
| 87>    H        0.94984         4.97100         4.15283
| 88>    H        0.48482         5.89581         0.36208
| 89>    H        2.78935        10.27041         2.78649
| 90>    H        0.97562         8.02824        -1.30648
| 91>    H        3.26144        12.39800         1.13397
| 92>    H        4.00831        14.14703         0.10533
| 93>    H        3.03160        15.21796        -4.77449
| 94>    H        6.04081        19.45805        -1.38536
| 95>    H        5.83102        20.20552        -3.87466
| 96>    H        5.85965        17.70508         0.56776
| 97>    H        3.82718        15.60297         1.46556
| 98>    H        6.53666        18.14023         2.75573
| 99>    H        4.79358        15.28833         7.13282
|100>    H        7.68584        18.86199         5.15288
|101>    H        5.98338        15.96572         9.51234
|102>    H        7.04272        15.92877        11.45425
|103>    H       10.12812        19.70314        12.95163
|104>    H        8.60758        15.30494        17.06692
|105>    H       10.29918        17.01001        18.08546
|106>    H        7.34813        14.14586        14.99040
|107>    H        5.50724        15.33948        12.85797
|108>    H        5.33464        13.73818        13.72339
|109> *
|110>
|111>                          ****END OF INPUT****

CARTESIAN COORDINATES (ANGSTROEM)
---------------------------------
  C     -0.873880    2.736820    6.823920
  C     -0.581830    3.192570    5.586170
  C     -0.440660    2.358620    4.456340
  C     -0.713290    0.915640    4.579650
  C     -1.002330    0.278760    5.735560
  S     -1.117740    1.074010    7.251910
  C     -0.599730    0.395470    3.261510
  C     -0.277470    1.425650    2.382650
  C     -0.142180    0.969280    1.053410
  C     -0.364800   -0.368280    0.959910
  S     -0.740660   -1.126180    2.470170
  C     -0.153140    2.658760    3.124010
  C      0.209120    3.886320    2.498080
  C      0.729010    4.981820    3.095950
  C      1.068300    6.189170    2.417580
  C      0.915660    6.542450    1.104920
  C      1.374460    7.847020    0.804510
  C      1.895460    8.507650    1.950100
  S      1.799300    7.486210    3.355890
  C      2.398890    9.786830    1.904970
  C      2.390660   10.447620    0.675690
  C      1.871050    9.789250   -0.469300
  C      1.366680    8.509820   -0.424050
  S      1.968030   10.814040   -1.876100
  C      2.697490   12.106130   -0.933530
  C      2.846900   11.753960    0.379920
  C      3.043780   13.345050   -1.565760
  C      3.706850   14.348910   -0.910040
  C      4.058060   15.582410   -1.466890
  C      3.835260   15.841240   -2.898570
  C      3.193290   14.994090   -3.731710
  S      2.543550   13.483730   -3.245520
  C      4.426360   17.107990   -3.150460
  C      4.967270   17.613170   -1.968900
  C      5.564320   18.879490   -2.156160
  C      5.467080   19.291660   -3.447020
  S      4.647280   18.172100   -4.484000
  C      4.722810   16.680270   -0.898760
  C      5.116960   16.927250    0.445140
  C      4.630390   16.319070    1.552450
  C      5.080120   16.555730    2.883000
  C      6.004660   17.437620    3.371260
  C      6.199740   17.348140    4.770370
  C      5.385680   16.344770    5.361990
  S      4.395440   15.561140    4.164770
  C      5.417130   16.058540    6.707090
  C      6.289440   16.793850    7.510390
  C      7.093390   17.805370    6.923420
  C      7.062000   18.091680    5.577740
  S      8.092220   18.582310    8.121640
  C      7.446170   17.548780    9.388060
  C      6.512880   16.675860    8.903590
  C      7.924240   17.687780   10.733570
  C      7.636430   16.789070   11.723600
  C      8.098950   16.871340   13.043850
  C      9.045270   17.930760   13.441880
  C      9.447840   18.930430   12.629430
  S      8.926370   19.109880   11.006070
  C      9.391110   17.638040   14.786800
  C      8.714240   16.489640   15.201080
  C      9.015360   16.148260   16.539080
  C      9.894910   17.022860   17.091970
  S     10.390590   18.294780   16.023950
  C      7.889260   16.015210   14.124750
  C      7.034760   14.861870   14.239280
  C      5.910530   14.633600   13.562990
  H     -0.982640    3.394730    7.669410
  H     -0.481280    4.260190    5.459490
  H     -1.178370   -0.784380    5.781220
  H      0.105530    1.587370    0.209290
  H     -0.331830   -0.979920    0.079310
  H      0.085270    3.897720    1.422740
  H      0.949840    4.971000    4.152830
  H      0.484820    5.895810    0.362080
  H      2.789350   10.270410    2.786490
  H      0.975620    8.028240   -1.306480
  H      3.261440   12.398000    1.133970
  H      4.008310   14.147030    0.105330
  H      3.031600   15.217960   -4.774490
  H      6.040810   19.458050   -1.385360
  H      5.831020   20.205520   -3.874660
  H      5.859650   17.705080    0.567760
  H      3.827180   15.602970    1.465560
  H      6.536660   18.140230    2.755730
  H      4.793580   15.288330    7.132820
  H      7.685840   18.861990    5.152880
  H      5.983380   15.965720    9.512340
  H      7.042720   15.928770   11.454250
  H     10.128120   19.703140   12.951630
  H      8.607580   15.304940   17.066920
  H     10.299180   17.010010   18.085460
  H      7.348130   14.145860   14.990400
  H      5.507240   15.339480   12.857970
  H      5.334640   13.738180   13.723390

 Total Charge           Charge          ....    0
 Multiplicity           Mult            ....    1
 Number of Electrons    NEL             ....  524
 Basis Dimension        Dim             .... 1104

ORBITAL ENERGIES
----------------

  NO   OCC          E(Eh)            E(eV)
   0   2.0000     -88.969407     -2420.9807
   1   2.0000     -88.968728     -2420.9622
   2   2.0000     -88.962238     -2420.7856
   3   2.0000     -88.949599     -2420.4416
   4   2.0000     -88.949475     -2420.4383
   5   2.0000     -88.944911     -2420.3141
   6   2.0000     -88.944900     -2420.3138
   7   2.0000     -88.941762     -2420.2284
   8   2.0000     -88.938353     -2420.1356
   9   2.0000     -88.937188     -2420.1039
  10   2.0000     -10.320628      -280.8386
  11   2.0000     -10.320208      -280.8271
  12   2.0000     -10.318389      -280.7776
  13   2.0000     -10.315399      -280.6963
  14   2.0000     -10.312008      -280.6040
  15   2.0000     -10.307949      -280.4936
  16   2.0000     -10.307197      -280.4731
  17   2.0000     -10.304671      -280.4044
  18   2.0000     -10.296907      -280.1931
  19   2.0000     -10.295484      -280.1544
  20   2.0000     -10.294888      -280.1382
  21   2.0000     -10.292080      -280.0617
  22   2.0000     -10.292020      -280.0601
  23   2.0000     -10.291775      -280.0534
  24   2.0000     -10.290599      -280.0214
  25   2.0000     -10.290402      -280.0161
  26   2.0000     -10.290338      -280.0143
  27   2.0000     -10.290230      -280.0114
  28   2.0000     -10.288778      -279.9719
  29   2.0000     -10.286875      -279.9201
  30   2.0000     -10.285834      -279.8918
  31   2.0000     -10.284564      -279.8572
  32   2.0000     -10.281618      -279.7771
  33   2.0000     -10.278011      -279.6789
  34   2.0000     -10.278008      -279.6788
  35   2.0000     -10.277969      -279.6778
  36   2.0000     -10.277290      -279.6593
  37   2.0000     -10.276302      -279.6324
  38   2.0000     -10.275586      -279.6129
  39   2.0000     -10.274624      -279.5867
  40   2.0000     -10.274585      -279.5857
  41   2.0000     -10.274086      -279.5721
  42   2.0000     -10.273784      -279.5639
  43   2.0000     -10.273647      -279.5602
  44   2.0000     -10.273626      -279.5596
  45   2.0000     -10.273164      -279.5470
  46   2.0000     -10.273101      -279.5453
  47   2.0000     -10.272411      -279.5265
  48   2.0000     -10.271513      -279.5021
  49   2.0000     -10.271029      -279.4889
  50   2.0000     -10.270436      -279.4728
  51   2.0000     -10.270062      -279.4626
  52   2.0000     -10.269151      -279.4378
  53   2.0000     -10.268647      -279.4241
  54   2.0000     -10.268521      -279.4207
  55   2.0000     -10.266210      -279.3578
  56   2.0000     -10.266076      -279.3541
  57   2.0000     -10.265184      -279.3299
  58   2.0000     -10.264825      -279.3201
  59   2.0000     -10.264607      -279.3142
  60   2.0000     -10.264040      -279.2987
  61   2.0000     -10.262420      -279.2546
  62   2.0000     -10.261410      -279.2272
  63   2.0000     -10.259877      -279.1854
  64   2.0000     -10.259202      -279.1671
  65   2.0000     -10.252355      -278.9808
  66   2.0000      -8.065264      -219.4670
  67   2.0000      -8.064165      -219.4371
  68   2.0000      -8.057778      -219.2633
  69   2.0000      -8.044949      -218.9142
  70   2.0000      -8.044803      -218.9102
  71   2.0000      -8.040842      -218.8024
  72   2.0000      -8.040313      -218.7880
  73   2.0000      -8.037776      -218.7190
  74   2.0000      -8.034480      -218.6293
  75   2.0000      -8.033322      -218.5978
  76   2.0000      -6.034762      -164.2142
  77   2.0000      -6.033761      -164.1870
  78   2.0000      -6.030131      -164.0882
  79   2.0000      -6.029172      -164.0621
  80   2.0000      -6.027386      -164.0135
  81   2.0000      -6.027339      -164.0122
  82   2.0000      -6.026034      -163.9767
  83   2.0000      -6.022848      -163.8900
  84   2.0000      -6.019539      -163.8000
  85   2.0000      -6.014434      -163.6611
  86   2.0000      -6.014286      -163.6571
  87   2.0000      -6.010574      -163.5560
  88   2.0000      -6.010181      -163.5453
  89   2.0000      -6.010038      -163.5414
  90   2.0000      -6.009776      -163.5343
  91   2.0000      -6.007453      -163.4711
  92   2.0000      -6.006936      -163.4571
  93   2.0000      -6.006796      -163.4532
  94   2.0000      -6.006454      -163.4439
  95   2.0000      -6.005565      -163.4197
  96   2.0000      -6.004051      -163.3785
  97   2.0000      -6.003396      -163.3607
  98   2.0000      -6.002847      -163.3458
  99   2.0000      -6.002278      -163.3303
 100   2.0000      -6.001948      -163.3213
 101   2.0000      -6.000130      -163.2718
 102   2.0000      -5.999007      -163.2413
 103   2.0000      -5.998905      -163.2385
 104   2.0000      -5.995732      -163.1522
 105   2.0000      -5.994593      -163.1212
 106   2.0000      -1.000148       -27.2154
 107   2.0000      -0.997542       -27.1445
 108   2.0000      -0.995313       -27.0838
 109   2.0000      -0.992343       -27.0030
 110   2.0000      -0.988985       -26.9117
 111   2.0000      -0.974547       -26.5188
 112   2.0000      -0.971422       -26.4337
 113   2.0000      -0.961110       -26.1531
 114   2.0000      -0.957101       -26.0440
 115   2.0000      -0.952687       -25.9239
 116   2.0000      -0.923247       -25.1228
 117   2.0000      -0.919208       -25.0129
 118   2.0000      -0.915811       -24.9205
 119   2.0000      -0.906708       -24.6728
 120   2.0000      -0.900602       -24.5066
 121   2.0000      -0.885373       -24.0922
 122   2.0000      -0.878449       -23.9038
 123   2.0000      -0.873731       -23.7754
 124   2.0000      -0.866891       -23.5893
 125   2.0000      -0.864755       -23.5312
 126   2.0000      -0.860845       -23.4248
 127   2.0000      -0.858662       -23.3654
 128   2.0000      -0.851880       -23.1808
 129   2.0000      -0.837009       -22.7762
 130   2.0000      -0.834521       -22.7085
 131   2.0000      -0.824366       -22.4321
 132   2.0000      -0.822135       -22.3714
 133   2.0000      -0.819589       -22.3021
 134   2.0000      -0.811641       -22.0859
 135   2.0000      -0.807499       -21.9732
 136   2.0000      -0.797968       -21.7138
 137   2.0000      -0.791749       -21.5446
 138   2.0000      -0.786112       -21.3912
 139   2.0000      -0.774834       -21.0843
 140   2.0000      -0.772818       -21.0294
 141   2.0000      -0.769918       -20.9505
 142   2.0000      -0.759813       -20.6756
 143   2.0000      -0.748596       -20.3703
 144   2.0000      -0.734305       -19.9814
 145   2.0000      -0.727642       -19.8001
 146   2.0000      -0.712688       -19.3932
 147   2.0000      -0.711330       -19.3563
 148   2.0000      -0.704968       -19.1831
 149   2.0000      -0.701306       -19.0835
 150   2.0000      -0.685182       -18.6448
 151   2.0000      -0.680518       -18.5178
 152   2.0000      -0.669454       -18.2168
 153   2.0000      -0.663037       -18.0422
 154   2.0000      -0.658146       -17.9091
 155   2.0000      -0.650437       -17.6993
 156   2.0000      -0.646351       -17.5881
 157   2.0000      -0.642490       -17.4830
 158   2.0000      -0.639959       -17.4142
 159   2.0000      -0.637364       -17.3436
 160   2.0000      -0.632817       -17.2198
 161   2.0000      -0.622489       -16.9388
 162   2.0000      -0.621301       -16.9065
 163   2.0000      -0.616016       -16.7626
 164   2.0000      -0.610392       -16.6096
 165   2.0000      -0.607668       -16.5355
 166   2.0000      -0.602101       -16.3840
 167   2.0000      -0.594987       -16.1904
 168   2.0000      -0.588394       -16.0110
 169   2.0000      -0.581192       -15.8150
 170   2.0000      -0.579215       -15.7612
 171   2.0000      -0.575643       -15.6640
 172   2.0000      -0.568992       -15.4830
 173   2.0000      -0.563417       -15.3313
 174   2.0000      -0.559145       -15.2151
 175   2.0000      -0.558355       -15.1936
 176   2.0000      -0.556067       -15.1314
 177   2.0000      -0.553170       -15.0525
 178   2.0000      -0.549813       -14.9612
 179   2.0000      -0.545062       -14.8319
 180   2.0000      -0.538463       -14.6523
 181   2.0000      -0.532092       -14.4790
 182   2.0000      -0.529335       -14.4039
 183   2.0000      -0.525568       -14.3014
 184   2.0000      -0.525182       -14.2909
 185   2.0000      -0.518499       -14.1091
 186   2.0000      -0.516533       -14.0556
 187   2.0000      -0.514474       -13.9995
 188   2.0000      -0.508535       -13.8379
 189   2.0000      -0.507754       -13.8167
 190   2.0000      -0.504402       -13.7255
 191   2.0000      -0.501862       -13.6564
 192   2.0000      -0.501046       -13.6342
 193   2.0000      -0.500622       -13.6226
 194   2.0000      -0.499686       -13.5971
 195   2.0000      -0.497541       -13.5388
 196   2.0000      -0.495556       -13.4848
 197   2.0000      -0.493555       -13.4303
 198   2.0000      -0.491887       -13.3849
 199   2.0000      -0.491075       -13.3628
 200   2.0000      -0.486986       -13.2516
 201   2.0000      -0.472239       -12.8503
 202   2.0000      -0.471609       -12.8331
 203   2.0000      -0.468216       -12.7408
 204   2.0000      -0.465793       -12.6749
 205   2.0000      -0.460511       -12.5311
 206   2.0000      -0.459042       -12.4912
 207   2.0000      -0.455239       -12.3877
 208   2.0000      -0.453452       -12.3390
 209   2.0000      -0.451294       -12.2803
 210   2.0000      -0.448294       -12.1987
 211   2.0000      -0.448106       -12.1936
 212   2.0000      -0.444722       -12.1015
 213   2.0000      -0.442736       -12.0475
 214   2.0000      -0.442497       -12.0409
 215   2.0000      -0.441926       -12.0254
 216   2.0000      -0.436418       -11.8755
 217   2.0000      -0.435297       -11.8450
 218   2.0000      -0.434783       -11.8311
 219   2.0000      -0.434084       -11.8120
 220   2.0000      -0.428092       -11.6490
 221   2.0000      -0.426565       -11.6074
 222   2.0000      -0.425186       -11.5699
 223   2.0000      -0.422033       -11.4841
 224   2.0000      -0.417794       -11.3688
 225   2.0000      -0.415988       -11.3196
 226   2.0000      -0.412484       -11.2243
 227   2.0000      -0.411667       -11.2020
 228   2.0000      -0.410712       -11.1760
 229   2.0000      -0.407588       -11.0910
 230   2.0000      -0.405197       -11.0260
 231   2.0000      -0.404074       -10.9954
 232   2.0000      -0.401163       -10.9162
 233   2.0000      -0.399392       -10.8680
 234   2.0000      -0.398661       -10.8481
 235   2.0000      -0.397087       -10.8053
 236   2.0000      -0.394445       -10.7334
 237   2.0000      -0.392274       -10.6743
 238   2.0000      -0.388995       -10.5851
 239   2.0000      -0.378660       -10.3039
 240   2.0000      -0.374890       -10.2013
 241   2.0000      -0.374442       -10.1891
 242   2.0000      -0.365473        -9.9450
 243   2.0000      -0.362956        -9.8765
 244   2.0000      -0.344762        -9.3814
 245   2.0000      -0.343079        -9.3356
 246   2.0000      -0.341509        -9.2929
 247   2.0000      -0.325599        -8.8600
 248   2.0000      -0.324908        -8.8412
 249   2.0000      -0.316581        -8.6146
 250   2.0000      -0.312072        -8.4919
 251   2.0000      -0.309712        -8.4277
 252   2.0000      -0.288113        -7.8400
 253   2.0000      -0.285841        -7.7781
 254   2.0000      -0.274578        -7.4716
 255   2.0000      -0.268786        -7.3140
 256   2.0000      -0.265283        -7.2187
 257   2.0000      -0.260843        -7.0979
 258   2.0000      -0.254157        -6.9160
 259   2.0000      -0.231706        -6.3050
 260   2.0000      -0.222345        -6.0503
 261   2.0000      -0.210054        -5.7159
 262   0.0000      -0.063889        -1.7385
 263   0.0000      -0.048533        -1.3207
 264   0.0000      -0.040474        -1.1013
 265   0.0000      -0.024083        -0.6553
 266   0.0000      -0.020232        -0.5505

MULLIKEN ATOMIC CHARGES
-----------------------
   0 C :   -0.104658
   1 C :    0.030583
   2 C :    0.010276
   3 C :    0.065609
   4 C :   -0.147984
   5 S :    0.124611
   6 C :   -0.114011
   7 C :    0.049360
   8 C :    0.007851
   9 C :   -0.070842
  10 S :    0.120732
  11 C :    0.074708
  12 C :   -0.015191
  13 C :    0.034824
  14 C :   -0.056303
  15 C :   -0.039069
  16 C :    0.115090
  17 C :   -0.045306
  18 S :    0.094364
  19 C :   -0.057088
  20 C :    0.111705
  21 C :   -0.036658
  22 C :   -0.064204
  23 S :    0.097385
  24 C :   -0.042278
  25 C :   -0.040403
  26 C :   -0.015753
  27 C :   -0.074635
  28 C :    0.049364
  29 C :    0.063036
  30 C :   -0.133747
  31 S :    0.132930
  32 C :   -0.110888
  33 C :    0.051938
  34 C :    0.007111
  35 C :   -0.070153
  36 S :    0.122507
  37 C :    0.071284
  38 C :   -0.015409
  39 C :    0.033294
  40 C :   -0.055443
  41 C :   -0.037917
  42 C :    0.114819
  43 C :   -0.045939
  44 S :    0.087194
  45 C :   -0.058951
  46 C :    0.115166
  47 C :   -0.039657
  48 C :   -0.063784
  49 S :    0.097496
  50 C :   -0.038097
  51 C :   -0.042928
  52 C :   -0.023609
  53 C :   -0.067273
  54 C :    0.046089
  55 C :    0.063501
  56 C :   -0.133707
  57 S :    0.124403
  58 C :   -0.110955
  59 C :    0.053137
  60 C :    0.008848
  61 C :   -0.072222
  62 S :    0.118515
  63 C :    0.042159
  64 C :   -0.036643
  65 C :   -0.032116
  66 H :    0.043911
  67 H :   -0.009541
  68 H :    0.033698
  69 H :   -0.021023
  70 H :    0.023817
  71 H :   -0.022474
  72 H :   -0.024654
  73 H :   -0.030636
  74 H :   -0.032737
  75 H :   -0.035374
  76 H :   -0.023030
  77 H :   -0.022051
  78 H :    0.034334
  79 H :   -0.020041
  80 H :    0.023559
  81 H :   -0.023022
  82 H :   -0.022742
  83 H :   -0.030849
  84 H :   -0.035384
  85 H :   -0.035136
  86 H :   -0.024472
  87 H :   -0.022929
  88 H :    0.032954
  89 H :   -0.021072
  90 H :    0.022234
  91 H :   -0.013937
  92 H :    0.014122
  93 H :    0.016410
Sum of atomic charges:   -0.0000000

LOEWDIN ATOMIC CHARGES
----------------------
   0 C :   -0.184874
   1 C :   -0.028893
   2 C :   -0.022804
   3 C :   -0.044302
   4 C :   -0.145539
   5 S :    0.448093
   6 C :   -0.208550
   7 C :   -0.039749
   8 C :   -0.066198
   9 C :   -0.167934
  10 S :    0.414803
  11 C :   -0.059022
  12 C :    0.000078
  13 C :   -0.061536
  14 C :   -0.142617
  15 C :   -0.067274
  16 C :   -0.039626
  17 C :   -0.155126
  18 S :    0.382941
  19 C :   -0.036773
  20 C :   -0.047718
  21 C :   -0.151372
  22 C :   -0.042050
  23 S :    0.377857
  24 C :   -0.172322
  25 C :   -0.050394
  26 C :   -0.180295
  27 C :   -0.018421
  28 C :   -0.019346
  29 C :   -0.046561
  30 C :   -0.143849
  31 S :    0.446033
  32 C :   -0.206704
  33 C :   -0.038947
  34 C :   -0.065819
  35 C :   -0.166543
  36 S :    0.415715
  37 C :   -0.057209
  38 C :   -0.001048
  39 C :   -0.063115
  40 C :   -0.143284
  41 C :   -0.066282
  42 C :   -0.040801
  43 C :   -0.155226
  44 S :    0.378582
  45 C :   -0.039204
  46 C :   -0.046726
  47 C :   -0.152632
  48 C :   -0.041705
  49 S :    0.378499
  50 C :   -0.169474
  51 C :   -0.054743
  52 C :   -0.185197
  53 C :   -0.015578
  54 C :   -0.024102
  55 C :   -0.049013
  56 C :   -0.143311
  57 S :    0.437196
  58 C :   -0.206628
  59 C :   -0.040699
  60 C :   -0.065428
  61 C :   -0.168710
  62 S :    0.412252
  63 C :   -0.055979
  64 C :   -0.019121
  65 C :   -0.059732
  66 H :    0.030636
  67 H :    0.038607
  68 H :    0.034382
  69 H :    0.028521
  70 H :    0.022096
  71 H :    0.028199
  72 H :    0.022307
  73 H :    0.025817
  74 H :    0.030152
  75 H :    0.029201
  76 H :    0.029009
  77 H :    0.035745
  78 H :    0.035658
  79 H :    0.028895
  80 H :    0.022182
  81 H :    0.028313
  82 H :    0.021853
  83 H :    0.025842
  84 H :    0.029023
  85 H :    0.029121
  86 H :    0.028469
  87 H :    0.036605
  88 H :    0.035008
  89 H :    0.028932
  90 H :    0.021434
  91 H :    0.028412
  92 H :    0.017621
  93 H :    0.022017

  Mayer bond orders larger than 0.100000
B(  0-C ,  1-C ) :   1.6592 B(  0-C ,  5-S ) :   1.0985 B(  0-C , 66-H ) :   0.9405
B(  1-C ,  2-C ) :   1.1955 B(  1-C , 67-H ) :   0.9694 B(  2-C ,  3-C ) :   1.0533
B(  2-C , 11-C ) :   1.4482 B(  3-C ,  4-C ) :   1.6046 B(  3-C ,  6-C ) :   1.1854
B(  4-C ,  5-S ) :   1.1408 B(  4-C , 68-H ) :   0.9421 B(  6-C ,  7-C ) :   1.4528
B(  6-C , 10-S ) :   1.0680 B(  7-C ,  8-C ) :   1.2212 B(  7-C , 11-C ) :   1.0974
B(  8-C ,  9-C ) :   1.5831 B(  8-C , 69-H ) :   0.9971 B(  9-C , 10-S ) :   1.1571
B(  9-C , 70-H ) :   0.9665 B( 11-C , 12-C ) :   1.1345 B( 12-C , 13-C ) :   1.6862
B( 12-C , 71-H ) :   0.9615 B( 13-C , 14-C ) :   1.0988 B( 13-C , 72-H ) :   0.9615
B( 14-C , 15-C ) :   1.5729 B( 14-C , 18-S ) :   1.0695 B( 15-C , 16-C ) :   1.1618
B( 15-C , 73-H ) :   0.9936 B( 16-C , 17-C ) :   1.2791 B( 16-C , 22-C ) :   1.3132
B( 17-C , 18-S ) :   1.0409 B( 17-C , 19-C ) :   1.3895 B( 19-C , 20-C ) :   1.3143
B( 19-C , 74-H ) :   1.0014 B( 20-C , 21-C ) :   1.2838 B( 20-C , 25-C ) :   1.1599
B( 21-C , 22-C ) :   1.3891 B( 21-C , 23-S ) :   1.0363 B( 22-C , 75-H ) :   1.0008
B( 23-S , 24-C ) :   1.0676 B( 24-C , 25-C ) :   1.5944 B( 24-C , 26-C ) :   1.0946
B( 25-C , 76-H ) :   0.9917 B( 26-C , 27-C ) :   1.5744 B( 26-C , 31-S ) :   1.0480
B( 27-C , 28-C ) :   1.2198 B( 27-C , 77-H ) :   0.9668 B( 28-C , 29-C ) :   1.0541
B( 28-C , 37-C ) :   1.3979 B( 29-C , 30-C ) :   1.6070 B( 29-C , 32-C ) :   1.1796
B( 30-C , 31-S ) :   1.1404 B( 30-C , 78-H ) :   0.9407 B( 32-C , 33-C ) :   1.4435
B( 32-C , 36-S ) :   1.0691 B( 33-C , 34-C ) :   1.2178 B( 33-C , 37-C ) :   1.1011
B( 34-C , 35-C ) :   1.5852 B( 34-C , 79-H ) :   0.9974 B( 35-C , 36-S ) :   1.1555
B( 35-C , 80-H ) :   0.9664 B( 37-C , 38-C ) :   1.1493 B( 38-C , 39-C ) :   1.6765
B( 38-C , 81-H ) :   0.9611 B( 39-C , 40-C ) :   1.1013 B( 39-C , 82-H ) :   0.9573
B( 40-C , 41-C ) :   1.5718 B( 40-C , 44-S ) :   1.0657 B( 41-C , 42-C ) :   1.1618
B( 41-C , 83-H ) :   0.9949 B( 42-C , 43-C ) :   1.2795 B( 42-C , 48-C ) :   1.3112
B( 43-C , 44-S ) :   1.0405 B( 43-C , 45-C ) :   1.3902 B( 45-C , 46-C ) :   1.3130
B( 45-C , 84-H ) :   1.0016 B( 46-C , 47-C ) :   1.2833 B( 46-C , 51-C ) :   1.1564
B( 47-C , 48-C ) :   1.3902 B( 47-C , 49-S ) :   1.0364 B( 48-C , 85-H ) :   1.0012
B( 49-S , 50-C ) :   1.0685 B( 50-C , 51-C ) :   1.6003 B( 50-C , 52-C ) :   1.0839
B( 51-C , 86-H ) :   0.9944 B( 52-C , 53-C ) :   1.5891 B( 52-C , 57-S ) :   1.0398
B( 53-C , 54-C ) :   1.2051 B( 53-C , 87-H ) :   0.9680 B( 54-C , 55-C ) :   1.0418
B( 54-C , 63-C ) :   1.4500 B( 55-C , 56-C ) :   1.6129 B( 55-C , 58-C ) :   1.1824
B( 56-C , 57-S ) :   1.1381 B( 56-C , 88-H ) :   0.9411 B( 58-C , 59-C ) :   1.4392
B( 58-C , 62-S ) :   1.0692 B( 59-C , 60-C ) :   1.2126 B( 59-C , 63-C ) :   1.1223
B( 60-C , 61-C ) :   1.5862 B( 60-C , 89-H ) :   0.9980 B( 61-C , 62-S ) :   1.1523
B( 61-C , 90-H ) :   0.9664 B( 63-C , 64-C ) :   1.0930 B( 64-C , 65-C ) :   1.9250
B( 64-C , 91-H ) :   0.9562 B( 65-C , 92-H ) :   0.9577 B( 65-C , 93-H ) :   0.9474

-----------------------------------------------------------------------------
         ABSORPTION SPECTRUM VIA TRANSITION ELECTRIC DIPOLE MOMENTS
-----------------------------------------------------------------------------
State   Energy  Wavelength   fosc         T2         TX        TY        TZ
        (cm-1)    (nm)                  (au**2)     (au)      (au)      (au)
-----------------------------------------------------------------------------
   0   17607.8    567.9   1.155329498  21.60109   2.11464   3.71143   1.83159
   1   21460.3    466.0   1.036564246  15.90145   0.35516   1.89631  -3.48989
   2   21746.9    459.8   0.501038607   7.58491  -0.55688   0.46293  -2.65716
   3   22516.1    444.1   0.067878201   0.99246   0.15959   0.54410   0.81911
   4   23696.4    422.0   0.586664623   8.15049  -0.03877   1.70911  -2.28647
   5   24611.8    406.3   0.119409701   1.59725  -0.31815  -0.02830  -1.22279
   6   25513.8    391.9   0.403239115   5.20311   0.13711   1.33130  -1.84715
   7   27297.5    366.3   0.078357989   0.94501   0.07661  -0.53843   0.80575
   8   27638.6    361.8   0.228125013   2.71727   0.90614   1.36043   0.21313
   9   27831.8    359.3   0.004619226   0.05464  -0.07577  -0.02952   0.21915
  10   28862.6    346.5   0.054539054   0.62208  -0.16332   0.11415  -0.76314
  11   29215.6    342.3   0.152082886   1.71373   0.23417   0.73610  -1.05691
  12   29691.2    336.8   0.063654928   0.70580   0.14855   0.56003  -0.60836
  13   30580.1    327.0   0.244836760   2.63580   0.67957   1.42344   0.38445
  14   31011.6    322.5   0.110294092   1.17086   0.12034  -0.02206   1.07512
  15   31391.0    318.6   0.182228342   1.91111   0.54694   0.20007   1.25377
  16   31564.8    316.8   0.139927270   1.45940  -0.35241  -0.99061   0.59490
  17   32245.4    310.1   0.144386575   1.47413  -0.15957   0.15806  -1.19318
  18   32786.5    305.0   0.064129308   0.64393  -0.40918  -0.61522   0.31306
  19   33019.6    302.9   0.037762549   0.37650  -0.07584  -0.19900  -0.57546
  20   33412.5    299.3   0.019546673   0.19259  -0.35746  -0.24520   0.06848
  21   33720.1    296.6   0.167501249   1.63533  -0.07742  -0.69062   1.07349
  22   33843.5    295.5   0.233586195   2.27220  -0.53916  -1.40577   0.07300
  23   34399.9    290.7   0.128181302   1.22671  -0.10067  -0.70967   0.84436
  24   35178.1    284.3   0.007699185   0.07205  -0.02786   0.01129  -0.26674
  25   35427.6    282.3   0.016453138   0.15289   0.02114   0.18745  -0.34250
  26   35979.2    277.9   0.129934197   1.18891   0.60869   0.65635   0.62258
  27   36282.8    275.6   0.016887047   0.15322   0.12816   0.33288   0.16121
  28   36618.0    273.1   0.008719799   0.07839  -0.06743   0.23521  -0.13611
  29   36917.7    270.9   0.007160616   0.06385   0.05359   0.23683  -0.06996
  30   37314.5    268.0   0.044702053   0.39439   0.03238  -0.41688   0.46857
  31   37652.8    265.6   0.016794588   0.14684  -0.02940  -0.37258  -0.08462
  32   37876.6    264.0   0.251878436   2.18925   0.40578   1.16038  -0.82347
  33   38040.0    262.9   0.193918370   1.67824   0.17922   0.75061  -1.04053
  34   38225.8    261.6   0.003950867   0.03403   0.06549   0.14801   0.08848
  35   38425.9    260.2   0.046129623   0.39521  -0.29633  -0.54922  -0.07586
  36   38821.0    257.6   0.317336270   2.69109   0.89851   1.34507   0.27305
  37   38988.5    256.5   0.447354104   3.77738  -0.18060   0.67478  -1.81368
  38   39035.9    256.2   0.275464840   2.32315  -0.14898  -0.30089  -1.48675
  39   39177.7    255.2   0.092017766   0.77323   0.00769   0.67558  -0.56281
  40   39523.0    253.0   0.014703170   0.12247   0.13582  -0.15773  -0.28133
  41   39628.3    252.3   0.134960346   1.12118   0.16509   0.39360  -0.96902
  42   39652.1    252.2   0.109388575   0.90820   0.46848   0.79239  -0.24667
  43   40309.4    248.1   0.036155747   0.29529   0.12292   0.44559  -0.28571

FINAL SINGLE POINT ENERGY     -6128.666574826297

DIPOLE MOMENT
-------------
                                X             Y             Z
Electronic contribution:      0.62724       4.91548     -17.62891
Nuclear contribution   :     -1.13956      -5.92971      17.47058
                        -----------------------------------------
Total Dipole Moment    :     -0.51233      -1.01423      -0.15833
                        -----------------------------------------
Magnitude (a.u.)       :      1.14726
Magnitude (Debye)      :      2.91610

Rotational constants in cm-1:     0.000557     0.000277     0.000186
Rotational constants in MHz :    16.700224     8.295354     5.580498

                             ****ORCA TERMINATED NORMALLY****
TOTAL RUN TIME: 0 days 0 hours 7 minutes 51 seconds 95 msec
