                         Program Version 4.2.0 -  RELEASE  -
|  1> # ORCA input file
|  2> # SCF done       -198.653249667113          0.000499735980
|  3> ! CAM-B3LYP def2-SVP def2/J RIJCOSX Grid4 TightSCF
|  4> %maxcore 5000
|  5> %tddft
|  6>     Mode sTDDFT
|  7>     Ethresh 5.0
|  8>     maxcore 5000
|  9> end
| 10>
| 11> %pal
| 12>   nprocs 6
| 13>   end
| 14> * xyz 0 1
| 15>    C       -2.57147         0.73670         0.94846
| 16>    C       -2.62979         2.07558         1.11710
| 17>    C       -3.73793         2.74874         1.67468
| 18>    C       -4.87507         1.96904         2.19577
| 19>    C       -5.00122         0.62741         2.10201
| 20>    S       -3.82570        -0.38571         1.36889
| 21>    C       -5.75048         2.92349         2.78178
| 22>    C       -5.20990         4.19791         2.63827
| 23>    C       -6.03961         5.19489         3.19613
| 24>    C       -7.16429         4.66094         3.74094
| 25>    S       -7.26613         2.93850         3.59740
| 26>    C       -3.95720         4.10334         1.92575
| 27>    C       -3.18854         5.25616         1.59193
| 28>    C       -2.25013         5.35925         0.62475
| 29>    C       -1.51925         6.54990         0.33594
| 30>    C       -1.51434         7.76006         0.97147
| 31>    C       -0.65555         8.71726         0.37871
| 32>    C        0.02097         8.19846        -0.75729
| 33>    S       -0.42924         6.54124        -1.04631
| 34>    C        0.90326         8.94727        -1.50251
| 35>    C        1.12858        10.26724        -1.11345
| 36>    C        0.45531        10.78510         0.02195
| 37>    C       -0.42523        10.03636         0.76953
| 38>    S        0.89509        12.44505         0.30424
| 39>    C        1.96795        12.44653        -1.09093
| 40>    C        1.97398        11.23501        -1.71464
| 41>    C        2.69545        13.64815        -1.43587
| 42>    C        3.50803        13.69208        -2.57853
| 43>    C        4.19102        14.84514        -2.87772
| 44>    C        4.07834        15.98010        -2.05917
| 45>    C        3.27264        15.95062        -0.93130
| 46>    C        2.59166        14.78844        -0.63165
| 47>    C        4.92350        17.02278        -2.60122
| 48>    C        5.56303        16.53137        -3.75226
| 49>    C        5.08689        15.13047        -4.06566
| 50>    C        6.24455        14.12869        -4.17691
| 51>    C        7.06612        14.04998        -2.89524
| 52>    C        4.18494        15.10407        -5.32262
| 53>    C        4.83998        15.55762        -6.62047
| 54>    C        6.49893        17.30130        -4.40134
| 55>    C        6.76664        18.60308        -3.95474
| 56>    C        6.09799        19.08515        -2.82522
| 57>    C        5.19114        18.30228        -2.13934
| 58>    C        7.74437        19.39662        -4.67653
| 59>    C        7.85856        20.72975        -4.62006
| 60>    C        8.82705        21.49016        -5.39295
| 61>    C        9.13370        21.09364        -6.65992
| 62>    S       10.23937        22.11121        -7.49217
| 63>    C       10.33152        23.13400        -6.09494
| 64>    C        9.53198        22.70068        -5.02314
| 65>    C        9.53843        23.46025        -3.82396
| 66>    C        8.77395        22.95230        -2.62888
| 67>    C        9.43265        21.69961        -2.04598
| 68>    C       10.28114        24.63328        -3.73809
| 69>    C       10.21171        25.52855        -2.52792
| 70>    C       11.16622        25.09255        -1.41533
| 71>    C       11.10595        25.03771        -4.81486
| 72>    C       11.95758        26.19753        -4.96562
| 73>    C       12.49700        26.26603        -6.22163
| 74>    S       12.09397        24.95683        -7.24921
| 75>    C       11.10072        24.27989        -5.99295
| 76>    C       12.32463        27.17577        -3.97027
| 77>    C       12.47009        28.48931        -4.27135
| 78>    C       12.86890        29.55176        -3.41887
| 79>    C       13.30560        29.59635        -2.12761
| 80>    C       13.57821        28.55787        -1.14478
| 81>    O       13.45217        27.35674        -1.26784
| 82>    N       14.04064        29.11598         0.04259
| 83>    C       14.15061        30.46984         0.08279
| 84>    C       14.57083        31.24689         1.13255
| 85>    C       14.97526        30.78460         2.39659
| 86>    N       15.31320        30.47141         3.44862
| 87>    C       14.61710        32.64865         0.98306
| 88>    N       14.65881        33.78919         0.86815
| 89>    S       13.67102        31.18078        -1.43388
| 90>    C       14.37565        28.25259         1.14945
| 91>    H       -1.71113         0.24532         0.52683
| 92>    H       -1.76204         2.65176         0.83240
| 93>    H       -5.86117         0.09984         2.48343
| 94>    H       -5.82513         6.24843         3.19829
| 95>    H       -7.96631         5.17729         4.23155
| 96>    H       -3.43932         6.14304         2.15955
| 97>    H       -2.03962         4.52038        -0.02186
| 98>    H       -2.10333         7.97504         1.84468
| 99>    H        1.40483         8.53242        -2.36277
|100>    H       -0.92686        10.45164         1.62939
|101>    H        2.56225        11.01139        -2.58633
|102>    H        3.59623        12.82408        -3.21291
|103>    H        3.17840        16.81801        -0.29540
|104>    H        1.96244        14.74990         0.24592
|105>    H        6.89677        14.42433        -4.99982
|106>    H        5.83734        13.14230        -4.40949
|107>    H        7.48659        15.02313        -2.65084
|108>    H        7.88264        13.34131        -3.01473
|109>    H        6.44752        13.72601        -2.06123
|110>    H        3.31972        15.74298        -5.12609
|111>    H        3.81748        14.08265        -5.44579
|112>    H        5.13535        16.60157        -6.56062
|113>    H        4.12867        15.45463        -7.43740
|114>    H        5.71285        14.95469        -6.85697
|115>    H        7.03859        16.92054        -5.25634
|116>    H        6.32057        20.07513        -2.45747
|117>    H        4.70580        18.67849        -1.25097
|118>    H        8.42231        18.83514        -5.30764
|119>    H        7.16908        21.29201        -4.01153
|120>    H        8.72303        20.25184        -7.18213
|121>    H        7.74323        22.73821        -2.90927
|122>    H        8.73384        23.70594        -1.84732
|123>    H       10.46092        21.91371        -1.76315
|124>    H        9.44069        20.88672        -2.76663
|125>    H        8.89212        21.36913        -1.16147
|126>    H        9.19130        25.56333        -2.14173
|127>    H       10.45778        26.54559        -2.83811
|128>    H       11.18361        25.83792        -0.62389
|129>    H       12.17789        24.97978        -1.79569
|130>    H       10.85884        24.14235        -0.98734
|131>    H       13.19234        27.00254        -6.57534
|132>    H       12.54480        26.82685        -2.97469
|133>    H       12.21543        28.80791        -5.27515
|134>    H       12.81161        30.52843        -3.88848
|135>    H       14.19478        27.23012         0.81625
|136>    H       13.75037        28.47264         2.01513
|137>    H       15.42380        28.36746         1.42627
|138> *
|139>
|140>                          ****END OF INPUT****

CARTESIAN COORDINATES (ANGSTROEM)
---------------------------------
  C     -2.571470    0.736700    0.948460
  C     -2.629790    2.075580    1.117100
  C     -3.737930    2.748740    1.674680
  C     -4.875070    1.969040    2.195770
  C     -5.001220    0.627410    2.102010
  S     -3.825700   -0.385710    1.368890
  C     -5.750480    2.923490    2.781780
  C     -5.209900    4.197910    2.638270
  C     -6.039610    5.194890    3.196130
  C     -7.164290    4.660940    3.740940
  S     -7.266130    2.938500    3.597400
  C     -3.957200    4.103340    1.925750
  C     -3.188540    5.256160    1.591930
  C     -2.250130    5.359250    0.624750
  C     -1.519250    6.549900    0.335940
  C     -1.514340    7.760060    0.971470
  C     -0.655550    8.717260    0.378710
  C      0.020970    8.198460   -0.757290
  S     -0.429240    6.541240   -1.046310
  C      0.903260    8.947270   -1.502510
  C      1.128580   10.267240   -1.113450
  C      0.455310   10.785100    0.021950
  C     -0.425230   10.036360    0.769530
  S      0.895090   12.445050    0.304240
  C      1.967950   12.446530   -1.090930
  C      1.973980   11.235010   -1.714640
  C      2.695450   13.648150   -1.435870
  C      3.508030   13.692080   -2.578530
  C      4.191020   14.845140   -2.877720
  C      4.078340   15.980100   -2.059170
  C      3.272640   15.950620   -0.931300
  C      2.591660   14.788440   -0.631650
  C      4.923500   17.022780   -2.601220
  C      5.563030   16.531370   -3.752260
  C      5.086890   15.130470   -4.065660
  C      6.244550   14.128690   -4.176910
  C      7.066120   14.049980   -2.895240
  C      4.184940   15.104070   -5.322620
  C      4.839980   15.557620   -6.620470
  C      6.498930   17.301300   -4.401340
  C      6.766640   18.603080   -3.954740
  C      6.097990   19.085150   -2.825220
  C      5.191140   18.302280   -2.139340
  C      7.744370   19.396620   -4.676530
  C      7.858560   20.729750   -4.620060
  C      8.827050   21.490160   -5.392950
  C      9.133700   21.093640   -6.659920
  S     10.239370   22.111210   -7.492170
  C     10.331520   23.134000   -6.094940
  C      9.531980   22.700680   -5.023140
  C      9.538430   23.460250   -3.823960
  C      8.773950   22.952300   -2.628880
  C      9.432650   21.699610   -2.045980
  C     10.281140   24.633280   -3.738090
  C     10.211710   25.528550   -2.527920
  C     11.166220   25.092550   -1.415330
  C     11.105950   25.037710   -4.814860
  C     11.957580   26.197530   -4.965620
  C     12.497000   26.266030   -6.221630
  S     12.093970   24.956830   -7.249210
  C     11.100720   24.279890   -5.992950
  C     12.324630   27.175770   -3.970270
  C     12.470090   28.489310   -4.271350
  C     12.868900   29.551760   -3.418870
  C     13.305600   29.596350   -2.127610
  C     13.578210   28.557870   -1.144780
  O     13.452170   27.356740   -1.267840
  N     14.040640   29.115980    0.042590
  C     14.150610   30.469840    0.082790
  C     14.570830   31.246890    1.132550
  C     14.975260   30.784600    2.396590
  N     15.313200   30.471410    3.448620
  C     14.617100   32.648650    0.983060
  N     14.658810   33.789190    0.868150
  S     13.671020   31.180780   -1.433880
  C     14.375650   28.252590    1.149450
  H     -1.711130    0.245320    0.526830
  H     -1.762040    2.651760    0.832400
  H     -5.861170    0.099840    2.483430
  H     -5.825130    6.248430    3.198290
  H     -7.966310    5.177290    4.231550
  H     -3.439320    6.143040    2.159550
  H     -2.039620    4.520380   -0.021860
  H     -2.103330    7.975040    1.844680
  H      1.404830    8.532420   -2.362770
  H     -0.926860   10.451640    1.629390
  H      2.562250   11.011390   -2.586330
  H      3.596230   12.824080   -3.212910
  H      3.178400   16.818010   -0.295400
  H      1.962440   14.749900    0.245920
  H      6.896770   14.424330   -4.999820
  H      5.837340   13.142300   -4.409490
  H      7.486590   15.023130   -2.650840
  H      7.882640   13.341310   -3.014730
  H      6.447520   13.726010   -2.061230
  H      3.319720   15.742980   -5.126090
  H      3.817480   14.082650   -5.445790
  H      5.135350   16.601570   -6.560620
  H      4.128670   15.454630   -7.437400
  H      5.712850   14.954690   -6.856970
  H      7.038590   16.920540   -5.256340
  H      6.320570   20.075130   -2.457470
  H      4.705800   18.678490   -1.250970
  H      8.422310   18.835140   -5.307640
  H      7.169080   21.292010   -4.011530
  H      8.723030   20.251840   -7.182130
  H      7.743230   22.738210   -2.909270
  H      8.733840   23.705940   -1.847320
  H     10.460920   21.913710   -1.763150
  H      9.440690   20.886720   -2.766630
  H      8.892120   21.369130   -1.161470
  H      9.191300   25.563330   -2.141730
  H     10.457780   26.545590   -2.838110
  H     11.183610   25.837920   -0.623890
  H     12.177890   24.979780   -1.795690
  H     10.858840   24.142350   -0.987340
  H     13.192340   27.002540   -6.575340
  H     12.544800   26.826850   -2.974690
  H     12.215430   28.807910   -5.275150
  H     12.811610   30.528430   -3.888480
  H     14.194780   27.230120    0.816250
  H     13.750370   28.472640    2.015130
  H     15.423800   28.367460    1.426270

 Total Charge           Charge          ....    0
 Multiplicity           Mult            ....    1
 Number of Electrons    NEL             ....  578
 Basis Dimension        Dim             .... 1327

ORBITAL ENERGIES
----------------

  NO   OCC          E(Eh)            E(eV)
   0   2.0000     -88.980864     -2421.2924
   1   2.0000     -88.967733     -2420.9351
   2   2.0000     -88.960152     -2420.7288
   3   2.0000     -88.952338     -2420.5162
   4   2.0000     -88.948377     -2420.4084
   5   2.0000     -88.936039     -2420.0727
   6   2.0000     -88.935260     -2420.0515
   7   2.0000     -19.228740      -523.2406
   8   2.0000     -14.499620      -394.5547
   9   2.0000     -14.404639      -391.9702
  10   2.0000     -14.404190      -391.9579
  11   2.0000     -10.416172      -283.4385
  12   2.0000     -10.397748      -282.9371
  13   2.0000     -10.334567      -281.2179
  14   2.0000     -10.332094      -281.1506
  15   2.0000     -10.325257      -280.9645
  16   2.0000     -10.320155      -280.8257
  17   2.0000     -10.319237      -280.8007
  18   2.0000     -10.311421      -280.5880
  19   2.0000     -10.308180      -280.4998
  20   2.0000     -10.305986      -280.4401
  21   2.0000     -10.305616      -280.4301
  22   2.0000     -10.302343      -280.3410
  23   2.0000     -10.300366      -280.2872
  24   2.0000     -10.298846      -280.2459
  25   2.0000     -10.295262      -280.1483
  26   2.0000     -10.293575      -280.1024
  27   2.0000     -10.293077      -280.0889
  28   2.0000     -10.290701      -280.0242
  29   2.0000     -10.290379      -280.0155
  30   2.0000     -10.290289      -280.0130
  31   2.0000     -10.289157      -279.9822
  32   2.0000     -10.288162      -279.9551
  33   2.0000     -10.288012      -279.9510
  34   2.0000     -10.287443      -279.9355
  35   2.0000     -10.283137      -279.8184
  36   2.0000     -10.282501      -279.8011
  37   2.0000     -10.281922      -279.7853
  38   2.0000     -10.280075      -279.7351
  39   2.0000     -10.278075      -279.6806
  40   2.0000     -10.276834      -279.6469
  41   2.0000     -10.276814      -279.6463
  42   2.0000     -10.276251      -279.6310
  43   2.0000     -10.276038      -279.6252
  44   2.0000     -10.274821      -279.5921
  45   2.0000     -10.274012      -279.5701
  46   2.0000     -10.272046      -279.5166
  47   2.0000     -10.271025      -279.4888
  48   2.0000     -10.270993      -279.4879
  49   2.0000     -10.270647      -279.4785
  50   2.0000     -10.270094      -279.4635
  51   2.0000     -10.269187      -279.4388
  52   2.0000     -10.268798      -279.4282
  53   2.0000     -10.268716      -279.4260
  54   2.0000     -10.268265      -279.4137
  55   2.0000     -10.267534      -279.3938
  56   2.0000     -10.267450      -279.3915
  57   2.0000     -10.267145      -279.3832
  58   2.0000     -10.266994      -279.3791
  59   2.0000     -10.266967      -279.3784
  60   2.0000     -10.266748      -279.3724
  61   2.0000     -10.266380      -279.3624
  62   2.0000     -10.266186      -279.3571
  63   2.0000     -10.266054      -279.3535
  64   2.0000     -10.265933      -279.3502
  65   2.0000     -10.265098      -279.3275
  66   2.0000     -10.264647      -279.3152
  67   2.0000     -10.263942      -279.2961
  68   2.0000     -10.263525      -279.2847
  69   2.0000     -10.262231      -279.2495
  70   2.0000     -10.261718      -279.2355
  71   2.0000     -10.259516      -279.1756
  72   2.0000     -10.253671      -279.0166
  73   2.0000     -10.253129      -279.0018
  74   2.0000     -10.250952      -278.9426
  75   2.0000     -10.244872      -278.7771
  76   2.0000      -8.077203      -219.7919
  77   2.0000      -8.063638      -219.4227
  78   2.0000      -8.056368      -219.2249
  79   2.0000      -8.048588      -219.0132
  80   2.0000      -8.043788      -218.8826
  81   2.0000      -8.031798      -218.5563
  82   2.0000      -8.031348      -218.5441
  83   2.0000      -6.047098      -164.5499
  84   2.0000      -6.043152      -164.4425
  85   2.0000      -6.037462      -164.2877
  86   2.0000      -6.033140      -164.1701
  87   2.0000      -6.028525      -164.0445
  88   2.0000      -6.025801      -163.9704
  89   2.0000      -6.025682      -163.9672
  90   2.0000      -6.021583      -163.8556
  91   2.0000      -6.018144      -163.7620
  92   2.0000      -6.018077      -163.7602
  93   2.0000      -6.013885      -163.6461
  94   2.0000      -6.013262      -163.6292
  95   2.0000      -6.010268      -163.5477
  96   2.0000      -6.009029      -163.5140
  97   2.0000      -6.005759      -163.4250
  98   2.0000      -6.001399      -163.3064
  99   2.0000      -6.000904      -163.2929
 100   2.0000      -5.997427      -163.1983
 101   2.0000      -5.997018      -163.1872
 102   2.0000      -5.993083      -163.0801
 103   2.0000      -5.992615      -163.0673
 104   2.0000      -1.173725       -31.9387
 105   2.0000      -1.100080       -29.9347
 106   2.0000      -1.006195       -27.3799
 107   2.0000      -1.001067       -27.2404
 108   2.0000      -0.996185       -27.1076
 109   2.0000      -0.988321       -26.8936
 110   2.0000      -0.984537       -26.7906
 111   2.0000      -0.983662       -26.7668
 112   2.0000      -0.976367       -26.5683
 113   2.0000      -0.966426       -26.2978
 114   2.0000      -0.964499       -26.2454
 115   2.0000      -0.959694       -26.1146
 116   2.0000      -0.941663       -25.6240
 117   2.0000      -0.929332       -25.2884
 118   2.0000      -0.927597       -25.2412
 119   2.0000      -0.920152       -25.0386
 120   2.0000      -0.916400       -24.9365
 121   2.0000      -0.911853       -24.8128
 122   2.0000      -0.898166       -24.4403
 123   2.0000      -0.893777       -24.3209
 124   2.0000      -0.878333       -23.9006
 125   2.0000      -0.873417       -23.7669
 126   2.0000      -0.871242       -23.7077
 127   2.0000      -0.863383       -23.4938
 128   2.0000      -0.860074       -23.4038
 129   2.0000      -0.854391       -23.2492
 130   2.0000      -0.852534       -23.1986
 131   2.0000      -0.836117       -22.7519
 132   2.0000      -0.835415       -22.7328
 133   2.0000      -0.832363       -22.6497
 134   2.0000      -0.831515       -22.6267
 135   2.0000      -0.827655       -22.5216
 136   2.0000      -0.824419       -22.4336
 137   2.0000      -0.820225       -22.3195
 138   2.0000      -0.815087       -22.1796
 139   2.0000      -0.808241       -21.9934
 140   2.0000      -0.797018       -21.6880
 141   2.0000      -0.795343       -21.6424
 142   2.0000      -0.788784       -21.4639
 143   2.0000      -0.777101       -21.1460
 144   2.0000      -0.770639       -20.9702
 145   2.0000      -0.768547       -20.9132
 146   2.0000      -0.760371       -20.6907
 147   2.0000      -0.754389       -20.5280
 148   2.0000      -0.736953       -20.0535
 149   2.0000      -0.731749       -19.9119
 150   2.0000      -0.719751       -19.5854
 151   2.0000      -0.717841       -19.5334
 152   2.0000      -0.710135       -19.3237
 153   2.0000      -0.704148       -19.1608
 154   2.0000      -0.701178       -19.0800
 155   2.0000      -0.695576       -18.9276
 156   2.0000      -0.693755       -18.8780
 157   2.0000      -0.690969       -18.8022
 158   2.0000      -0.685813       -18.6619
 159   2.0000      -0.680475       -18.5167
 160   2.0000      -0.674244       -18.3471
 161   2.0000      -0.667115       -18.1531
 162   2.0000      -0.660256       -17.9665
 163   2.0000      -0.658345       -17.9145
 164   2.0000      -0.648856       -17.6563
 165   2.0000      -0.644821       -17.5465
 166   2.0000      -0.641323       -17.4513
 167   2.0000      -0.639687       -17.4068
 168   2.0000      -0.632608       -17.2141
 169   2.0000      -0.630021       -17.1437
 170   2.0000      -0.621918       -16.9233
 171   2.0000      -0.619416       -16.8552
 172   2.0000      -0.616149       -16.7663
 173   2.0000      -0.607031       -16.5182
 174   2.0000      -0.603598       -16.4247
 175   2.0000      -0.598357       -16.2821
 176   2.0000      -0.597464       -16.2578
 177   2.0000      -0.593236       -16.1428
 178   2.0000      -0.588699       -16.0193
 179   2.0000      -0.587294       -15.9811
 180   2.0000      -0.578172       -15.7329
 181   2.0000      -0.574001       -15.6194
 182   2.0000      -0.565681       -15.3930
 183   2.0000      -0.563138       -15.3238
 184   2.0000      -0.560979       -15.2650
 185   2.0000      -0.558164       -15.1884
 186   2.0000      -0.553057       -15.0494
 187   2.0000      -0.549262       -14.9462
 188   2.0000      -0.543832       -14.7984
 189   2.0000      -0.539862       -14.6904
 190   2.0000      -0.536991       -14.6123
 191   2.0000      -0.535521       -14.5723
 192   2.0000      -0.533752       -14.5241
 193   2.0000      -0.532854       -14.4997
 194   2.0000      -0.531971       -14.4757
 195   2.0000      -0.527174       -14.3451
 196   2.0000      -0.524728       -14.2786
 197   2.0000      -0.518048       -14.0968
 198   2.0000      -0.516249       -14.0479
 199   2.0000      -0.515590       -14.0299
 200   2.0000      -0.514016       -13.9871
 201   2.0000      -0.513207       -13.9651
 202   2.0000      -0.510371       -13.8879
 203   2.0000      -0.506021       -13.7695
 204   2.0000      -0.504639       -13.7319
 205   2.0000      -0.504223       -13.7206
 206   2.0000      -0.500758       -13.6263
 207   2.0000      -0.499473       -13.5914
 208   2.0000      -0.498199       -13.5567
 209   2.0000      -0.497462       -13.5366
 210   2.0000      -0.496036       -13.4978
 211   2.0000      -0.494488       -13.4557
 212   2.0000      -0.492683       -13.4066
 213   2.0000      -0.491526       -13.3751
 214   2.0000      -0.488316       -13.2878
 215   2.0000      -0.486500       -13.2383
 216   2.0000      -0.485401       -13.2084
 217   2.0000      -0.475647       -12.9430
 218   2.0000      -0.474524       -12.9125
 219   2.0000      -0.472371       -12.8539
 220   2.0000      -0.466779       -12.7017
 221   2.0000      -0.465749       -12.6737
 222   2.0000      -0.463996       -12.6260
 223   2.0000      -0.463331       -12.6079
 224   2.0000      -0.459521       -12.5042
 225   2.0000      -0.457937       -12.4611
 226   2.0000      -0.457262       -12.4427
 227   2.0000      -0.454235       -12.3604
 228   2.0000      -0.451981       -12.2990
 229   2.0000      -0.451428       -12.2840
 230   2.0000      -0.449163       -12.2223
 231   2.0000      -0.448469       -12.2035
 232   2.0000      -0.444673       -12.1002
 233   2.0000      -0.444062       -12.0835
 234   2.0000      -0.443147       -12.0586
 235   2.0000      -0.440895       -11.9974
 236   2.0000      -0.438802       -11.9404
 237   2.0000      -0.438597       -11.9348
 238   2.0000      -0.438202       -11.9241
 239   2.0000      -0.435400       -11.8478
 240   2.0000      -0.434135       -11.8134
 241   2.0000      -0.433872       -11.8063
 242   2.0000      -0.432161       -11.7597
 243   2.0000      -0.430324       -11.7097
 244   2.0000      -0.426093       -11.5946
 245   2.0000      -0.425416       -11.5761
 246   2.0000      -0.425108       -11.5678
 247   2.0000      -0.421188       -11.4611
 248   2.0000      -0.420817       -11.4510
 249   2.0000      -0.420236       -11.4352
 250   2.0000      -0.418064       -11.3761
 251   2.0000      -0.415954       -11.3187
 252   2.0000      -0.414504       -11.2792
 253   2.0000      -0.413012       -11.2386
 254   2.0000      -0.410680       -11.1752
 255   2.0000      -0.409546       -11.1443
 256   2.0000      -0.407319       -11.0837
 257   2.0000      -0.406246       -11.0545
 258   2.0000      -0.403490       -10.9795
 259   2.0000      -0.400814       -10.9067
 260   2.0000      -0.397812       -10.8250
 261   2.0000      -0.392172       -10.6715
 262   2.0000      -0.390380       -10.6228
 263   2.0000      -0.387942       -10.5564
 264   2.0000      -0.383169       -10.4266
 265   2.0000      -0.382523       -10.4090
 266   2.0000      -0.377609       -10.2753
 267   2.0000      -0.376822       -10.2539
 268   2.0000      -0.375839       -10.2271
 269   2.0000      -0.373800       -10.1716
 270   2.0000      -0.372166       -10.1272
 271   2.0000      -0.366466        -9.9721
 272   2.0000      -0.355371        -9.6701
 273   2.0000      -0.345686        -9.4066
 274   2.0000      -0.337708        -9.1895
 275   2.0000      -0.325799        -8.8654
 276   2.0000      -0.322626        -8.7791
 277   2.0000      -0.321821        -8.7572
 278   2.0000      -0.316517        -8.6129
 279   2.0000      -0.311257        -8.4697
 280   2.0000      -0.304192        -8.2775
 281   2.0000      -0.290522        -7.9055
 282   2.0000      -0.285988        -7.7821
 283   2.0000      -0.273730        -7.4486
 284   2.0000      -0.268402        -7.3036
 285   2.0000      -0.263458        -7.1690
 286   2.0000      -0.255406        -6.9500
 287   2.0000      -0.244327        -6.6485
 288   2.0000      -0.219332        -5.9683
 289   0.0000      -0.077576        -2.1110
 290   0.0000      -0.050433        -1.3723
 291   0.0000      -0.031744        -0.8638
 292   0.0000      -0.016973        -0.4619
 293   0.0000      -0.013612        -0.3704

MULLIKEN ATOMIC CHARGES
-----------------------
   0 C :   -0.105862
   1 C :    0.037086
   2 C :    0.006184
   3 C :    0.066958
   4 C :   -0.148447
   5 S :    0.121902
   6 C :   -0.113239
   7 C :    0.051359
   8 C :    0.002682
   9 C :   -0.070671
  10 S :    0.119574
  11 C :    0.074412
  12 C :   -0.014974
  13 C :    0.037207
  14 C :   -0.057567
  15 C :   -0.040724
  16 C :    0.116101
  17 C :   -0.045697
  18 S :    0.090032
  19 C :   -0.062485
  20 C :    0.121496
  21 C :   -0.033919
  22 C :   -0.066395
  23 S :    0.078181
  24 C :   -0.050619
  25 C :   -0.049100
  26 C :    0.168830
  27 C :   -0.109347
  28 C :    0.017444
  29 C :    0.102582
  30 C :   -0.051258
  31 C :   -0.050518
  32 C :    0.106420
  33 C :    0.024126
  34 C :   -0.134179
  35 C :    0.050256
  36 C :    0.026669
  37 C :    0.081478
  38 C :    0.027953
  39 C :   -0.110493
  40 C :    0.117368
  41 C :   -0.011563
  42 C :   -0.050167
  43 C :   -0.005486
  44 C :   -0.026905
  45 C :    0.064254
  46 C :   -0.117022
  47 S :    0.123240
  48 C :   -0.150946
  49 C :    0.121759
  50 C :   -0.116962
  51 C :    0.042538
  52 C :    0.021993
  53 C :   -0.114536
  54 C :    0.004972
  55 C :    0.049518
  56 C :    0.115692
  57 C :    0.047241
  58 C :   -0.110694
  59 S :    0.140074
  60 C :   -0.143916
  61 C :    0.008526
  62 C :   -0.031088
  63 C :    0.063553
  64 C :   -0.171941
  65 C :    0.250385
  66 O :   -0.195408
  67 N :   -0.239369
  68 C :    0.124589
  69 C :   -0.304980
  70 C :   -0.192536
  71 N :    0.166684
  72 C :   -0.220907
  73 N :    0.141517
  74 S :    0.144297
  75 C :    0.115642
  76 H :    0.042537
  77 H :   -0.011841
  78 H :    0.032872
  79 H :   -0.019391
  80 H :    0.023928
  81 H :   -0.024498
  82 H :   -0.024895
  83 H :   -0.031855
  84 H :   -0.037831
  85 H :   -0.037208
  86 H :   -0.033248
  87 H :   -0.043730
  88 H :   -0.036543
  89 H :   -0.012592
  90 H :    0.005075
  91 H :   -0.004032
  92 H :    0.018739
  93 H :    0.008588
  94 H :    0.022247
  95 H :    0.005686
  96 H :   -0.005034
  97 H :    0.019970
  98 H :    0.013162
  99 H :    0.002067
 100 H :   -0.043136
 101 H :   -0.037260
 102 H :   -0.038112
 103 H :   -0.017353
 104 H :    0.002639
 105 H :    0.017731
 106 H :    0.000392
 107 H :   -0.007222
 108 H :    0.011557
 109 H :    0.030079
 110 H :    0.013574
 111 H :    0.009713
 112 H :    0.002370
 113 H :    0.010798
 114 H :    0.025971
 115 H :    0.001561
 116 H :    0.024993
 117 H :    0.045416
 118 H :   -0.007844
 119 H :    0.012588
 120 H :    0.066918
 121 H :    0.064676
 122 H :    0.064928
Sum of atomic charges:   -0.0000000

LOEWDIN ATOMIC CHARGES
----------------------
   0 C :   -0.185802
   1 C :   -0.028344
   2 C :   -0.024221
   3 C :   -0.044362
   4 C :   -0.145871
   5 S :    0.445747
   6 C :   -0.208525
   7 C :   -0.039730
   8 C :   -0.066393
   9 C :   -0.168291
  10 S :    0.413889
  11 C :   -0.058198
  12 C :   -0.002087
  13 C :   -0.059782
  14 C :   -0.145364
  15 C :   -0.066295
  16 C :   -0.042065
  17 C :   -0.156248
  18 S :    0.378835
  19 C :   -0.040088
  20 C :   -0.047124
  21 C :   -0.153483
  22 C :   -0.042494
  23 S :    0.386027
  24 C :   -0.140532
  25 C :   -0.060008
  26 C :   -0.034542
  27 C :   -0.015872
  28 C :    0.006889
  29 C :   -0.018877
  30 C :   -0.017696
  31 C :   -0.026877
  32 C :   -0.017236
  33 C :    0.003097
  34 C :   -0.034338
  35 C :   -0.016165
  36 C :   -0.056428
  37 C :   -0.009044
  38 C :   -0.059978
  39 C :   -0.023806
  40 C :   -0.025374
  41 C :   -0.018548
  42 C :   -0.018055
  43 C :   -0.017481
  44 C :   -0.019102
  45 C :   -0.060562
  46 C :   -0.166861
  47 S :    0.410414
  48 C :   -0.177710
  49 C :   -0.038344
  50 C :   -0.016044
  51 C :   -0.029843
  52 C :   -0.050857
  53 C :   -0.020975
  54 C :   -0.031265
  55 C :   -0.049951
  56 C :   -0.041947
  57 C :   -0.067216
  58 C :   -0.157642
  59 S :    0.425567
  60 C :   -0.177890
  61 C :    0.048027
  62 C :   -0.065402
  63 C :    0.018999
  64 C :   -0.215730
  65 C :    0.077158
  66 O :   -0.163897
  67 N :   -0.005004
  68 C :   -0.034525
  69 C :   -0.214276
  70 C :   -0.034512
  71 N :   -0.064435
  72 C :   -0.040646
  73 N :   -0.052708
  74 S :    0.422964
  75 C :    0.037320
  76 H :    0.030157
  77 H :    0.038322
  78 H :    0.034065
  79 H :    0.028810
  80 H :    0.021998
  81 H :    0.027835
  82 H :    0.022246
  83 H :    0.025303
  84 H :    0.028055
  85 H :    0.028278
  86 H :    0.025595
  87 H :    0.023027
  88 H :    0.026832
  89 H :    0.019479
  90 H :    0.019184
  91 H :    0.019360
  92 H :    0.025272
  93 H :    0.023409
  94 H :    0.025823
  95 H :    0.027126
  96 H :    0.019502
  97 H :    0.024062
  98 H :    0.027591
  99 H :    0.019156
 100 H :    0.022172
 101 H :    0.023614
 102 H :    0.026165
 103 H :    0.025673
 104 H :    0.025592
 105 H :    0.022362
 106 H :    0.023183
 107 H :    0.025287
 108 H :    0.023436
 109 H :    0.026618
 110 H :    0.024120
 111 H :    0.026755
 112 H :    0.027969
 113 H :    0.023126
 114 H :    0.024679
 115 H :    0.020925
 116 H :    0.024632
 117 H :    0.034090
 118 H :    0.031360
 119 H :    0.041507
 120 H :    0.042466
 121 H :    0.040693
 122 H :    0.041120

  Mayer bond orders larger than 0.100000
B(  0-C ,  1-C ) :   1.6600 B(  0-C ,  5-S ) :   1.0970 B(  0-C , 76-H ) :   0.9402
B(  1-C ,  2-C ) :   1.1973 B(  1-C , 77-H ) :   0.9683 B(  2-C ,  3-C ) :   1.0519
B(  2-C , 11-C ) :   1.4498 B(  3-C ,  4-C ) :   1.6071 B(  3-C ,  6-C ) :   1.1839
B(  4-C ,  5-S ) :   1.1403 B(  4-C , 78-H ) :   0.9419 B(  6-C ,  7-C ) :   1.4552
B(  6-C , 10-S ) :   1.0675 B(  7-C ,  8-C ) :   1.2176 B(  7-C , 11-C ) :   1.0961
B(  8-C ,  9-C ) :   1.5846 B(  8-C , 79-H ) :   0.9981 B(  9-C , 10-S ) :   1.1565
B(  9-C , 80-H ) :   0.9662 B( 11-C , 12-C ) :   1.1335 B( 12-C , 13-C ) :   1.6893
B( 12-C , 81-H ) :   0.9603 B( 13-C , 14-C ) :   1.0978 B( 13-C , 82-H ) :   0.9613
B( 14-C , 15-C ) :   1.5755 B( 14-C , 18-S ) :   1.0674 B( 15-C , 16-C ) :   1.1566
B( 15-C , 83-H ) :   0.9952 B( 16-C , 17-C ) :   1.2844 B( 16-C , 22-C ) :   1.3098
B( 17-C , 18-S ) :   1.0389 B( 17-C , 19-C ) :   1.3840 B( 19-C , 20-C ) :   1.3162
B( 19-C , 22-C ) :   0.1006 B( 19-C , 84-H ) :   1.0022 B( 20-C , 21-C ) :   1.2898
B( 20-C , 25-C ) :   1.1348 B( 21-C , 22-C ) :   1.3835 B( 21-C , 23-S ) :   1.0346
B( 22-C , 85-H ) :   1.0027 B( 23-S , 24-C ) :   1.0700 B( 24-C , 25-C ) :   1.6024
B( 24-C , 26-C ) :   1.0539 B( 25-C , 86-H ) :   0.9944 B( 26-C , 27-C ) :   1.3155
B( 26-C , 31-C ) :   1.3414 B( 27-C , 28-C ) :   1.4026 B( 27-C , 87-H ) :   1.0004
B( 28-C , 29-C ) :   1.3707 B( 28-C , 34-C ) :   0.9235 B( 29-C , 30-C ) :   1.3435
B( 29-C , 32-C ) :   0.9937 B( 30-C , 31-C ) :   1.3919 B( 30-C , 88-H ) :   0.9900
B( 31-C , 89-H ) :   0.9791 B( 32-C , 33-C ) :   1.3882 B( 32-C , 42-C ) :   1.3320
B( 33-C , 34-C ) :   0.9173 B( 33-C , 39-C ) :   1.3789 B( 34-C , 35-C ) :   1.0323
B( 34-C , 37-C ) :   1.0161 B( 35-C , 36-C ) :   1.1061 B( 35-C , 90-H ) :   0.9377
B( 35-C , 91-H ) :   0.9389 B( 36-C , 92-H ) :   0.9647 B( 36-C , 93-H ) :   0.9646
B( 36-C , 94-H ) :   0.9628 B( 37-C , 38-C ) :   1.1148 B( 37-C , 95-H ) :   0.9384
B( 37-C , 96-H ) :   0.9363 B( 38-C , 97-H ) :   0.9606 B( 38-C , 98-H ) :   0.9597
B( 38-C , 99-H ) :   0.9630 B( 39-C , 40-C ) :   1.2915 B( 39-C ,100-H ) :   1.0068
B( 40-C , 41-C ) :   1.3626 B( 40-C , 43-C ) :   1.0387 B( 41-C , 42-C ) :   1.3866
B( 41-C ,101-H ) :   0.9831 B( 42-C ,102-H ) :   0.9913 B( 43-C , 44-C ) :   1.7871
B( 43-C ,103-H ) :   0.9791 B( 44-C , 45-C ) :   1.0045 B( 44-C ,104-H ) :   0.9556
B( 45-C , 46-C ) :   1.6278 B( 45-C , 49-C ) :   1.1459 B( 46-C , 47-S ) :   1.1079
B( 46-C ,105-H ) :   0.9620 B( 47-S , 48-C ) :   1.0836 B( 48-C , 49-C ) :   1.3712
B( 48-C , 60-C ) :   1.3808 B( 49-C , 50-C ) :   1.2400 B( 50-C , 51-C ) :   1.0726
B( 50-C , 53-C ) :   1.5167 B( 51-C , 52-C ) :   1.1052 B( 51-C ,106-H ) :   0.9239
B( 51-C ,107-H ) :   0.9100 B( 52-C ,108-H ) :   0.9541 B( 52-C ,109-H ) :   0.9639
B( 52-C ,110-H ) :   0.9652 B( 53-C , 54-C ) :   1.0542 B( 53-C , 56-C ) :   1.2723
B( 54-C , 55-C ) :   1.1056 B( 54-C ,111-H ) :   0.9182 B( 54-C ,112-H ) :   0.9167
B( 55-C ,113-H ) :   0.9618 B( 55-C ,114-H ) :   0.9574 B( 55-C ,115-H ) :   0.9609
B( 56-C , 57-C ) :   1.1404 B( 56-C , 60-C ) :   1.3773 B( 57-C , 58-C ) :   1.5871
B( 57-C , 61-C ) :   1.0382 B( 58-C , 59-S ) :   1.1367 B( 58-C ,116-H ) :   0.9630
B( 59-S , 60-C ) :   1.0706 B( 61-C , 62-C ) :   1.6933 B( 61-C ,117-H ) :   0.9232
B( 62-C , 63-C ) :   1.2189 B( 62-C ,118-H ) :   0.9628 B( 63-C , 64-C ) :   1.6703
B( 63-C ,119-H ) :   0.9416 B( 64-C , 65-C ) :   0.9758 B( 64-C , 74-S ) :   1.0080
B( 65-C , 66-O ) :   2.0382 B( 65-C , 67-N ) :   1.0658 B( 67-N , 68-C ) :   1.1990
B( 67-N , 75-C ) :   0.9353 B( 68-C , 69-C ) :   1.5467 B( 68-C , 74-S ) :   1.1004
B( 69-C , 70-C ) :   1.1670 B( 69-C , 72-C ) :   1.1512 B( 70-C , 71-N ) :   3.0106
B( 72-C , 73-N ) :   3.0333 B( 75-C ,120-H ) :   0.9435 B( 75-C ,121-H ) :   0.9691
B( 75-C ,122-H ) :   0.9688

-----------------------------------------------------------------------------
         ABSORPTION SPECTRUM VIA TRANSITION ELECTRIC DIPOLE MOMENTS
-----------------------------------------------------------------------------
State   Energy  Wavelength   fosc         T2         TX        TY        TZ
        (cm-1)    (nm)                  (au**2)     (au)      (au)      (au)
-----------------------------------------------------------------------------
   0   21369.9    467.9   0.978604908  15.07582  -1.25010  -3.65185   0.42080
   1   23221.4    430.6   0.927413739  13.14803  -1.28897  -2.36973  -2.42301
   2   25177.5    397.2   0.022237298   0.29077  -0.14087  -0.12438   0.50542
   3   25412.9    393.5   1.676605772  21.71959  -2.56210  -3.67180   1.29350
   4   27023.9    370.0   0.006334336   0.07717   0.00357  -0.01352  -0.27744
   5   28711.4    348.3   0.113198587   1.29796   0.61097   0.96134  -0.02269
   6   29972.4    333.6   0.524223176   5.75799  -1.63977  -1.59189   0.73145
   7   30186.9    331.3   0.342355057   3.73366  -0.28895  -0.46419  -1.85329
   8   31035.6    322.2   0.291490661   3.09200  -1.07646  -0.98287   0.98347
   9   31424.2    318.2   0.010310643   0.10802   0.14875   0.21348   0.20079
  10   31668.1    315.8   0.040927012   0.42547  -0.37118  -0.09679   0.52756
  11   34068.6    293.5   0.000148048   0.00143   0.00517   0.03452  -0.01456
  12   34158.8    292.8   0.234680177   2.26177  -0.42333  -1.40360   0.33536
  13   35528.0    281.5   0.006875128   0.06371   0.22786   0.00278  -0.10852
  14   35604.1    280.9   0.121430611   1.12280   0.45160  -0.07625  -0.95553
  15   35652.5    280.5   0.008939185   0.08254   0.12816   0.25589  -0.02530
  16   36610.3    273.1   0.069212520   0.62238   0.08382  -0.39897  -0.67541
  17   36834.9    271.5   0.025279946   0.22594   0.35277   0.13866   0.28683
  18   37453.6    267.0   0.002809641   0.02470  -0.09445   0.05225   0.11422
  19   37521.5    266.5   0.002160180   0.01895   0.13459  -0.02701   0.01049
  20   37990.1    263.2   0.292660751   2.53612  -0.93089  -1.20536   0.46548
  21   38292.9    261.1   0.037935911   0.32614   0.25130   0.47720  -0.18781
  22   39013.0    256.3   0.145801199   1.23035   0.38191   1.04094   0.03050
  23   39206.2    255.1   0.005585484   0.04690   0.14700   0.11600   0.10879
  24   39326.9    254.3   0.022316751   0.18682   0.03713   0.42316  -0.07985
  25   39765.8    251.5   0.107213574   0.88760   0.67589   0.23213  -0.61390
  26   39901.3    250.6   0.035677947   0.29437  -0.11715   0.37559  -0.37360
  27   40067.7    249.6   0.086602063   0.71156   0.31589   0.75411   0.20757
  28   40217.6    248.6   0.097565013   0.79865   0.16383   0.84526  -0.23946

FINAL SINGLE POINT ENERGY     -5527.628308903521

DIPOLE MOMENT
-------------
                                X             Y             Z
Electronic contribution:    -25.06916     -17.75571      19.28288
Nuclear contribution   :     23.69258      14.84554     -21.39169
                        -----------------------------------------
Total Dipole Moment    :     -1.37658      -2.91018      -2.10880
                        -----------------------------------------
Magnitude (a.u.)       :      3.84853
Magnitude (Debye)      :      9.78218

Rotational constants in cm-1:     0.001839     0.000106     0.000102
Rotational constants in MHz :    55.139178     3.171716     3.043039

                             ****ORCA TERMINATED NORMALLY****
TOTAL RUN TIME: 0 days 0 hours 13 minutes 1 seconds 250 msec
