                         Program Version 4.2.0 -  RELEASE  -
|  1> # ORCA input file
|  2> # SCF done       -127.907028122045          0.000391189902
|  3> ! CAM-B3LYP def2-SVP def2/J RIJCOSX Grid4 TightSCF
|  4> %maxcore 5000
|  5> %tddft
|  6>     Mode sTDDFT
|  7>     Ethresh 5.0
|  8>     maxcore 5000
|  9> end
| 10>
| 11> %pal
| 12>   nprocs 6
| 13>   end
| 14> * xyz 0 1
| 15>    C        1.44330        -0.93675         4.97768
| 16>    O        0.49672        -0.24584         5.75141
| 17>    C        0.72364        -0.09271         7.09667
| 18>    C        1.84029        -0.61567         7.73111
| 19>    C        2.04025        -0.44244         9.09171
| 20>    C        1.11497         0.26421         9.83452
| 21>    C        0.00150         0.78750         9.20870
| 22>    C       -0.23613         0.63246         7.83980
| 23>    C       -1.43980         1.22315         7.30234
| 24>    C       -1.89495         1.19140         6.03830
| 25>    N       -3.01804         1.84592         5.62576
| 26>    C       -3.68184         1.57289         4.37303
| 27>    C       -4.26649         2.84555         3.81100
| 28>    C       -3.25071         3.88924         3.47268
| 29>    C       -5.59606         2.99325         3.71705
| 30>    C       -6.34701         4.12223         3.23460
| 31>    C       -5.94690         5.05220         2.34466
| 32>    C       -6.75051         6.15484         1.93524
| 33>    O       -7.98607         6.37596         2.46043
| 34>    C       -8.49788         7.48860         1.91029
| 35>    C       -9.78994         7.92608         2.32195
| 36>    C      -10.50892         7.24909         3.24642
| 37>    N      -11.75402         7.56957         3.67415
| 38>    C      -12.38938         8.83114         3.34927
| 39>    C      -11.64116        10.01863         3.91517
| 40>    C      -11.39534         9.95388         5.39281
| 41>    C      -11.26013        11.02085         3.12547
| 42>    C      -10.48717        12.19800         3.51597
| 43>    C       -9.34348        12.10393         4.29747
| 44>    C       -8.60328        13.22834         4.62001
| 45>    C       -9.00437        14.46585         4.15510
| 46>    C      -10.13255        14.58509         3.35881
| 47>    C      -10.87559        13.46049         3.02855
| 48>    O      -12.00307        13.47551         2.26049
| 49>    C      -12.42199        14.69599         1.70350
| 50>    C       -7.58237         8.02496         1.00060
| 51>    C       -7.75932         9.26740         0.21361
| 52>    F       -8.91255         9.90879         0.44684
| 53>    F       -6.79355        10.18656         0.44740
| 54>    F       -7.74058         9.06477        -1.12635
| 55>    C       -6.45152         7.15486         1.02009
| 56>    O       -5.25638         7.15019         0.39117
| 57>    C       -5.02302         7.97667        -0.72970
| 58>    H        1.06093        -0.91487         3.95726
| 59>    H        1.54793        -1.97913         5.29769
| 60>    H        2.42344        -0.44856         5.00287
| 61>    H        2.57625        -1.17047         7.17024
| 62>    H        2.91916        -0.86161         9.55846
| 63>    H        1.25878         0.40806        10.89516
| 64>    H       -0.72068         1.34102         9.79234
| 65>    H       -2.03599         1.75964         8.03274
| 66>    H       -1.36259         0.67692         5.25639
| 67>    H       -3.60092         2.24622         6.34632
| 68>    H       -4.47014         0.81391         4.49330
| 69>    H       -2.93212         1.17692         3.68067
| 70>    H       -2.36720         3.75069         4.09349
| 71>    H       -3.64811         4.88858         3.63221
| 72>    H       -2.94526         3.80515         2.42934
| 73>    H       -6.21255         2.17762         4.08036
| 74>    H       -7.35577         4.20255         3.62047
| 75>    H       -4.99175         5.00237         1.84979
| 76>    H      -10.16946         8.83064         1.88822
| 77>    H      -10.10205         6.34333         3.67472
| 78>    H      -12.07275         7.11308         4.51289
| 79>    H      -13.40440         8.79883         3.75666
| 80>    H      -12.46067         8.91602         2.26169
| 81>    H      -10.57566         9.27110         5.61953
| 82>    H      -12.28657         9.58821         5.90317
| 83>    H      -11.14320        10.93412         5.78690
| 84>    H      -11.55632        11.01349         2.08398
| 85>    H       -9.01446        11.13003         4.62507
| 86>    H       -7.71386        13.13535         5.22457
| 87>    H       -8.43559        15.35046         4.40062
| 88>    H      -10.41892        15.56117         2.99969
| 89>    H      -13.30751        14.46175         1.11427
| 90>    H      -11.65628        15.12526         1.04916
| 91>    H      -12.68762        15.42306         2.47822
| 92>    H       -4.03574         7.69074        -1.08965
| 93>    H       -5.00858         9.03501        -0.46258
| 94>    H       -5.75762         7.80206        -1.51924
| 95> *
| 96>
| 97>                          ****END OF INPUT****

CARTESIAN COORDINATES (ANGSTROEM)
---------------------------------
  C      1.443300   -0.936750    4.977680
  O      0.496720   -0.245840    5.751410
  C      0.723640   -0.092710    7.096670
  C      1.840290   -0.615670    7.731110
  C      2.040250   -0.442440    9.091710
  C      1.114970    0.264210    9.834520
  C      0.001500    0.787500    9.208700
  C     -0.236130    0.632460    7.839800
  C     -1.439800    1.223150    7.302340
  C     -1.894950    1.191400    6.038300
  N     -3.018040    1.845920    5.625760
  C     -3.681840    1.572890    4.373030
  C     -4.266490    2.845550    3.811000
  C     -3.250710    3.889240    3.472680
  C     -5.596060    2.993250    3.717050
  C     -6.347010    4.122230    3.234600
  C     -5.946900    5.052200    2.344660
  C     -6.750510    6.154840    1.935240
  O     -7.986070    6.375960    2.460430
  C     -8.497880    7.488600    1.910290
  C     -9.789940    7.926080    2.321950
  C    -10.508920    7.249090    3.246420
  N    -11.754020    7.569570    3.674150
  C    -12.389380    8.831140    3.349270
  C    -11.641160   10.018630    3.915170
  C    -11.395340    9.953880    5.392810
  C    -11.260130   11.020850    3.125470
  C    -10.487170   12.198000    3.515970
  C     -9.343480   12.103930    4.297470
  C     -8.603280   13.228340    4.620010
  C     -9.004370   14.465850    4.155100
  C    -10.132550   14.585090    3.358810
  C    -10.875590   13.460490    3.028550
  O    -12.003070   13.475510    2.260490
  C    -12.421990   14.695990    1.703500
  C     -7.582370    8.024960    1.000600
  C     -7.759320    9.267400    0.213610
  F     -8.912550    9.908790    0.446840
  F     -6.793550   10.186560    0.447400
  F     -7.740580    9.064770   -1.126350
  C     -6.451520    7.154860    1.020090
  O     -5.256380    7.150190    0.391170
  C     -5.023020    7.976670   -0.729700
  H      1.060930   -0.914870    3.957260
  H      1.547930   -1.979130    5.297690
  H      2.423440   -0.448560    5.002870
  H      2.576250   -1.170470    7.170240
  H      2.919160   -0.861610    9.558460
  H      1.258780    0.408060   10.895160
  H     -0.720680    1.341020    9.792340
  H     -2.035990    1.759640    8.032740
  H     -1.362590    0.676920    5.256390
  H     -3.600920    2.246220    6.346320
  H     -4.470140    0.813910    4.493300
  H     -2.932120    1.176920    3.680670
  H     -2.367200    3.750690    4.093490
  H     -3.648110    4.888580    3.632210
  H     -2.945260    3.805150    2.429340
  H     -6.212550    2.177620    4.080360
  H     -7.355770    4.202550    3.620470
  H     -4.991750    5.002370    1.849790
  H    -10.169460    8.830640    1.888220
  H    -10.102050    6.343330    3.674720
  H    -12.072750    7.113080    4.512890
  H    -13.404400    8.798830    3.756660
  H    -12.460670    8.916020    2.261690
  H    -10.575660    9.271100    5.619530
  H    -12.286570    9.588210    5.903170
  H    -11.143200   10.934120    5.786900
  H    -11.556320   11.013490    2.083980
  H     -9.014460   11.130030    4.625070
  H     -7.713860   13.135350    5.224570
  H     -8.435590   15.350460    4.400620
  H    -10.418920   15.561170    2.999690
  H    -13.307510   14.461750    1.114270
  H    -11.656280   15.125260    1.049160
  H    -12.687620   15.423060    2.478220
  H     -4.035740    7.690740   -1.089650
  H     -5.008580    9.035010   -0.462580
  H     -5.757620    7.802060   -1.519240

 Total Charge           Charge          ....    0
 Multiplicity           Mult            ....    1
 Number of Electrons    NEL             ....  314
 Basis Dimension        Dim             ....  787

ORBITAL ENERGIES
----------------

  NO   OCC          E(Eh)            E(eV)
   0   2.0000     -24.789268      -674.5503
   1   2.0000     -24.780981      -674.3248
   2   2.0000     -24.780200      -674.3035
   3   2.0000     -19.275887      -524.5235
   4   2.0000     -19.239289      -523.5277
   5   2.0000     -19.238913      -523.5174
   6   2.0000     -19.227693      -523.2121
   7   2.0000     -14.431592      -392.7036
   8   2.0000     -14.400939      -391.8695
   9   2.0000     -10.506812      -285.9049
  10   2.0000     -10.336019      -281.2574
  11   2.0000     -10.325142      -280.9614
  12   2.0000     -10.321176      -280.8535
  13   2.0000     -10.318240      -280.7736
  14   2.0000     -10.310303      -280.5576
  15   2.0000     -10.308764      -280.5157
  16   2.0000     -10.308423      -280.5065
  17   2.0000     -10.304467      -280.3988
  18   2.0000     -10.303034      -280.3598
  19   2.0000     -10.299049      -280.2514
  20   2.0000     -10.287680      -279.9420
  21   2.0000     -10.275499      -279.6105
  22   2.0000     -10.272029      -279.5161
  23   2.0000     -10.266591      -279.3681
  24   2.0000     -10.262453      -279.2555
  25   2.0000     -10.261712      -279.2354
  26   2.0000     -10.259758      -279.1822
  27   2.0000     -10.259152      -279.1657
  28   2.0000     -10.258135      -279.1380
  29   2.0000     -10.257883      -279.1312
  30   2.0000     -10.255918      -279.0777
  31   2.0000     -10.255367      -279.0627
  32   2.0000     -10.252733      -278.9911
  33   2.0000     -10.251030      -278.9447
  34   2.0000     -10.248027      -278.8630
  35   2.0000     -10.247859      -278.8584
  36   2.0000     -10.247823      -278.8575
  37   2.0000     -10.243880      -278.7501
  38   2.0000     -10.242014      -278.6994
  39   2.0000     -10.241759      -278.6924
  40   2.0000     -10.239260      -278.6244
  41   2.0000     -10.237370      -278.5730
  42   2.0000     -10.223424      -278.1935
  43   2.0000      -1.373267       -37.3685
  44   2.0000      -1.276862       -34.7452
  45   2.0000      -1.269751       -34.5517
  46   2.0000      -1.197084       -32.5743
  47   2.0000      -1.142284       -31.0831
  48   2.0000      -1.139425       -31.0053
  49   2.0000      -1.128851       -30.7176
  50   2.0000      -1.030075       -28.0298
  51   2.0000      -1.002506       -27.2796
  52   2.0000      -0.940256       -25.5857
  53   2.0000      -0.921397       -25.0725
  54   2.0000      -0.904112       -24.6021
  55   2.0000      -0.899008       -24.4632
  56   2.0000      -0.894301       -24.3352
  57   2.0000      -0.881911       -23.9980
  58   2.0000      -0.853404       -23.2223
  59   2.0000      -0.843922       -22.9643
  60   2.0000      -0.837015       -22.7763
  61   2.0000      -0.826141       -22.4804
  62   2.0000      -0.817546       -22.2466
  63   2.0000      -0.813664       -22.1409
  64   2.0000      -0.791578       -21.5399
  65   2.0000      -0.785110       -21.3639
  66   2.0000      -0.777625       -21.1602
  67   2.0000      -0.774222       -21.0677
  68   2.0000      -0.770750       -20.9732
  69   2.0000      -0.762713       -20.7545
  70   2.0000      -0.758483       -20.6394
  71   2.0000      -0.744096       -20.2479
  72   2.0000      -0.728252       -19.8167
  73   2.0000      -0.699509       -19.0346
  74   2.0000      -0.690445       -18.7880
  75   2.0000      -0.680798       -18.5254
  76   2.0000      -0.675995       -18.3948
  77   2.0000      -0.667174       -18.1547
  78   2.0000      -0.664926       -18.0936
  79   2.0000      -0.658705       -17.9243
  80   2.0000      -0.655584       -17.8393
  81   2.0000      -0.653274       -17.7765
  82   2.0000      -0.642156       -17.4740
  83   2.0000      -0.636593       -17.3226
  84   2.0000      -0.625010       -17.0074
  85   2.0000      -0.613690       -16.6993
  86   2.0000      -0.605741       -16.4831
  87   2.0000      -0.595229       -16.1970
  88   2.0000      -0.592574       -16.1248
  89   2.0000      -0.584167       -15.8960
  90   2.0000      -0.569919       -15.5083
  91   2.0000      -0.568010       -15.4563
  92   2.0000      -0.565147       -15.3784
  93   2.0000      -0.560903       -15.2630
  94   2.0000      -0.557822       -15.1791
  95   2.0000      -0.554177       -15.0799
  96   2.0000      -0.552764       -15.0415
  97   2.0000      -0.549257       -14.9460
  98   2.0000      -0.537698       -14.6315
  99   2.0000      -0.537436       -14.6244
 100   2.0000      -0.535678       -14.5765
 101   2.0000      -0.534490       -14.5442
 102   2.0000      -0.532061       -14.4781
 103   2.0000      -0.527890       -14.3646
 104   2.0000      -0.525713       -14.3054
 105   2.0000      -0.523212       -14.2373
 106   2.0000      -0.521099       -14.1798
 107   2.0000      -0.518169       -14.1001
 108   2.0000      -0.515853       -14.0371
 109   2.0000      -0.508461       -13.8359
 110   2.0000      -0.500192       -13.6109
 111   2.0000      -0.499664       -13.5966
 112   2.0000      -0.496369       -13.5069
 113   2.0000      -0.489484       -13.3195
 114   2.0000      -0.488858       -13.3025
 115   2.0000      -0.488183       -13.2841
 116   2.0000      -0.484527       -13.1847
 117   2.0000      -0.483872       -13.1668
 118   2.0000      -0.472589       -12.8598
 119   2.0000      -0.469896       -12.7865
 120   2.0000      -0.462397       -12.5825
 121   2.0000      -0.461237       -12.5509
 122   2.0000      -0.458813       -12.4849
 123   2.0000      -0.457451       -12.4479
 124   2.0000      -0.455332       -12.3902
 125   2.0000      -0.451361       -12.2822
 126   2.0000      -0.447206       -12.1691
 127   2.0000      -0.446539       -12.1510
 128   2.0000      -0.442031       -12.0283
 129   2.0000      -0.440885       -11.9971
 130   2.0000      -0.435704       -11.8561
 131   2.0000      -0.432302       -11.7635
 132   2.0000      -0.432171       -11.7600
 133   2.0000      -0.420380       -11.4391
 134   2.0000      -0.418146       -11.3783
 135   2.0000      -0.417450       -11.3594
 136   2.0000      -0.415447       -11.3049
 137   2.0000      -0.406123       -11.0512
 138   2.0000      -0.404517       -11.0075
 139   2.0000      -0.403542       -10.9809
 140   2.0000      -0.392140       -10.6707
 141   2.0000      -0.391403       -10.6506
 142   2.0000      -0.387024       -10.5315
 143   2.0000      -0.380750       -10.3607
 144   2.0000      -0.378514       -10.2999
 145   2.0000      -0.374963       -10.2033
 146   2.0000      -0.373403       -10.1608
 147   2.0000      -0.341333        -9.2881
 148   2.0000      -0.338601        -9.2138
 149   2.0000      -0.316560        -8.6140
 150   2.0000      -0.310871        -8.4592
 151   2.0000      -0.297475        -8.0947
 152   2.0000      -0.278670        -7.5830
 153   2.0000      -0.275360        -7.4929
 154   2.0000      -0.269550        -7.3348
 155   2.0000      -0.216849        -5.9008
 156   2.0000      -0.213023        -5.7967
 157   0.0000      -0.005883        -0.1601
 158   0.0000       0.019498         0.5306
 159   0.0000       0.038872         1.0578
 160   0.0000       0.042847         1.1659
 161   0.0000       0.051644         1.4053

MULLIKEN ATOMIC CHARGES
-----------------------
   0 C :    0.187241
   1 O :   -0.333650
   2 C :    0.182126
   3 C :   -0.085331
   4 C :    0.012806
   5 C :    0.032041
   6 C :   -0.059061
   7 C :    0.109205
   8 C :   -0.077370
   9 C :    0.080319
  10 N :   -0.181377
  11 C :    0.227171
  12 C :   -0.214843
  13 C :    0.094485
  14 C :    0.013442
  15 C :   -0.001343
  16 C :   -0.020135
  17 C :    0.069628
  18 O :   -0.215552
  19 C :    0.145693
  20 C :   -0.105001
  21 C :    0.067477
  22 N :   -0.153820
  23 C :    0.197192
  24 C :   -0.200706
  25 C :    0.082501
  26 C :    0.029029
  27 C :   -0.013204
  28 C :   -0.020382
  29 C :    0.022758
  30 C :    0.028483
  31 C :   -0.097207
  32 C :    0.212794
  33 O :   -0.310874
  34 C :    0.178621
  35 C :   -0.177875
  36 C :    0.502699
  37 F :   -0.149256
  38 F :   -0.171308
  39 F :   -0.176887
  40 C :    0.157722
  41 O :   -0.311958
  42 C :    0.184167
  43 H :    0.026545
  44 H :    0.020678
  45 H :    0.020086
  46 H :   -0.041339
  47 H :   -0.029140
  48 H :   -0.030901
  49 H :   -0.038561
  50 H :   -0.057819
  51 H :    0.002389
  52 H :    0.105373
  53 H :   -0.004018
  54 H :    0.004751
  55 H :    0.014853
  56 H :    0.023775
  57 H :    0.022982
  58 H :   -0.032822
  59 H :   -0.019608
  60 H :   -0.008756
  61 H :   -0.010944
  62 H :    0.011779
  63 H :    0.124366
  64 H :    0.018851
  65 H :    0.011871
  66 H :    0.026617
  67 H :   -0.000676
  68 H :    0.033848
  69 H :   -0.004756
  70 H :   -0.021730
  71 H :   -0.021910
  72 H :   -0.017629
  73 H :   -0.034802
  74 H :    0.034708
  75 H :    0.023713
  76 H :    0.021606
  77 H :    0.027067
  78 H :    0.032839
  79 H :    0.026256
Sum of atomic charges:   -0.0000000

LOEWDIN ATOMIC CHARGES
----------------------
   0 C :    0.073973
   1 O :   -0.106991
   2 C :    0.052956
   3 C :   -0.077198
   4 C :   -0.038115
   5 C :   -0.046605
   6 C :   -0.029348
   7 C :   -0.028542
   8 C :   -0.128385
   9 C :    0.035296
  10 N :   -0.023573
  11 C :    0.045738
  12 C :   -0.040352
  13 C :   -0.055193
  14 C :   -0.056404
  15 C :   -0.053203
  16 C :   -0.028006
  17 C :   -0.022296
  18 O :    0.012789
  19 C :    0.080618
  20 C :   -0.150073
  21 C :    0.053150
  22 N :   -0.003850
  23 C :    0.042339
  24 C :   -0.042735
  25 C :   -0.054648
  26 C :   -0.025806
  27 C :   -0.051350
  28 C :   -0.008458
  29 C :   -0.046790
  30 C :   -0.015757
  31 C :   -0.077840
  32 C :    0.062364
  33 O :   -0.103565
  34 C :    0.075181
  35 C :   -0.188865
  36 C :    0.177556
  37 F :   -0.049067
  38 F :   -0.072475
  39 F :   -0.076452
  40 C :    0.030877
  41 O :   -0.101066
  42 C :    0.072514
  43 H :    0.024011
  44 H :    0.013643
  45 H :    0.013804
  46 H :    0.023595
  47 H :    0.022504
  48 H :    0.022632
  49 H :    0.021715
  50 H :    0.015339
  51 H :    0.020438
  52 H :    0.071283
  53 H :    0.012500
  54 H :    0.026782
  55 H :    0.028025
  56 H :    0.033283
  57 H :    0.032580
  58 H :    0.021076
  59 H :    0.021790
  60 H :    0.036080
  61 H :    0.026099
  62 H :    0.028425
  63 H :    0.077215
  64 H :    0.030486
  65 H :    0.027305
  66 H :    0.031340
  67 H :    0.023862
  68 H :    0.035430
  69 H :    0.026708
  70 H :    0.029631
  71 H :    0.025901
  72 H :    0.027408
  73 H :    0.025623
  74 H :    0.027775
  75 H :    0.015342
  76 H :    0.014256
  77 H :    0.025899
  78 H :    0.013310
  79 H :    0.014560

  Mayer bond orders larger than 0.100000
B(  0-C ,  1-O ) :   0.9723 B(  0-C , 43-H ) :   0.9781 B(  0-C , 44-H ) :   0.9683
B(  0-C , 45-H ) :   0.9680 B(  1-O ,  2-C ) :   1.0998 B(  2-C ,  3-C ) :   1.3540
B(  2-C ,  7-C ) :   1.3099 B(  3-C ,  4-C ) :   1.3490 B(  3-C , 46-H ) :   0.9893
B(  4-C ,  5-C ) :   1.3882 B(  4-C , 47-H ) :   0.9897 B(  5-C ,  6-C ) :   1.3647
B(  5-C , 48-H ) :   0.9921 B(  6-C ,  7-C ) :   1.3689 B(  6-C , 49-H ) :   0.9955
B(  7-C ,  8-C ) :   1.1291 B(  8-C ,  9-C ) :   1.6606 B(  8-C , 50-H ) :   0.9611
B(  9-C , 10-N ) :   1.1704 B(  9-C , 51-H ) :   0.9440 B( 10-N , 11-C ) :   0.9862
B( 10-N , 52-H ) :   0.9423 B( 11-C , 12-C ) :   1.0513 B( 11-C , 53-H ) :   0.9325
B( 11-C , 54-H ) :   0.9244 B( 12-C , 13-C ) :   1.0800 B( 12-C , 14-C ) :   1.8205
B( 13-C , 55-H ) :   0.9438 B( 13-C , 56-H ) :   0.9455 B( 13-C , 57-H ) :   0.9398
B( 14-C , 15-C ) :   1.0848 B( 14-C , 58-H ) :   0.9497 B( 15-C , 16-C ) :   1.6816
B( 15-C , 59-H ) :   0.9616 B( 16-C , 17-C ) :   1.1630 B( 16-C , 60-H ) :   0.9574
B( 17-C , 18-O ) :   1.0799 B( 17-C , 19-C ) :   0.1008 B( 17-C , 40-C ) :   1.4449
B( 18-O , 19-C ) :   1.1932 B( 19-C , 20-C ) :   1.1891 B( 19-C , 35-C ) :   1.4101
B( 20-C , 21-C ) :   1.6215 B( 20-C , 61-H ) :   0.9430 B( 21-C , 22-N ) :   1.2277
B( 21-C , 62-H ) :   0.9653 B( 22-N , 23-C ) :   1.0256 B( 22-N , 63-H ) :   0.9393
B( 23-C , 24-C ) :   1.0245 B( 23-C , 64-H ) :   0.9379 B( 23-C , 65-H ) :   0.9323
B( 24-C , 25-C ) :   1.0646 B( 24-C , 26-C ) :   1.8951 B( 25-C , 66-H ) :   0.9480
B( 25-C , 67-H ) :   0.9495 B( 25-C , 68-H ) :   0.9457 B( 26-C , 27-C ) :   1.0042
B( 26-C , 69-H ) :   0.9385 B( 27-C , 28-C ) :   1.4173 B( 27-C , 32-C ) :   1.3507
B( 28-C , 29-C ) :   1.3543 B( 28-C , 70-H ) :   0.9953 B( 29-C , 30-C ) :   1.3994
B( 29-C , 71-H ) :   0.9938 B( 30-C , 31-C ) :   1.3477 B( 30-C , 72-H ) :   0.9903
B( 31-C , 32-C ) :   1.3329 B( 31-C , 73-H ) :   0.9970 B( 32-C , 33-O ) :   1.1740
B( 33-O , 34-C ) :   0.9690 B( 34-C , 74-H ) :   0.9793 B( 34-C , 75-H ) :   0.9685
B( 34-C , 76-H ) :   0.9688 B( 35-C , 36-C ) :   0.9616 B( 35-C , 40-C ) :   1.1879
B( 36-C , 37-F ) :   1.1486 B( 36-C , 38-F ) :   1.1496 B( 36-C , 39-F ) :   1.1420
B( 40-C , 41-O ) :   1.2036 B( 41-O , 42-C ) :   0.9374 B( 42-C , 77-H ) :   0.9774
B( 42-C , 78-H ) :   0.9627 B( 42-C , 79-H ) :   0.9672

-----------------------------------------------------------------------------
         ABSORPTION SPECTRUM VIA TRANSITION ELECTRIC DIPOLE MOMENTS
-----------------------------------------------------------------------------
State   Energy  Wavelength   fosc         T2         TX        TY        TZ
        (cm-1)    (nm)                  (au**2)     (au)      (au)      (au)
-----------------------------------------------------------------------------
   0   28902.2    346.0   1.043507378  11.88614   2.56737  -2.22244   0.59623
   1   31602.2    316.4   0.015947615   0.16613  -0.24098   0.26439   0.19533
   2   35182.0    284.2   0.021536263   0.20152  -0.11525   0.23774  -0.36293
   3   38239.4    261.5   0.119037444   1.02482  -0.14560  -0.56210   0.82926

FINAL SINGLE POINT ENERGY     -2025.258700324830

DIPOLE MOMENT
-------------
                                X             Y             Z
Electronic contribution:    -15.33277      23.03529     -28.82137
Nuclear contribution   :     13.65029     -22.19428      28.54670
                        -----------------------------------------
Total Dipole Moment    :     -1.68248       0.84101      -0.27467
                        -----------------------------------------
Magnitude (a.u.)       :      1.90091
Magnitude (Debye)      :      4.83174

Rotational constants in cm-1:     0.004421     0.000625     0.000602
Rotational constants in MHz :   132.542220    18.733972    18.043992

                             ****ORCA TERMINATED NORMALLY****
TOTAL RUN TIME: 0 days 0 hours 3 minutes 45 seconds 429 msec
