                         Program Version 4.2.0 -  RELEASE  -
|  1> # ORCA input file
|  2> # SCF done       -171.180498012417          0.000552737103
|  3> ! CAM-B3LYP def2-SVP def2/J RIJCOSX Grid4 TightSCF
|  4> %maxcore 5000
|  5> %tddft
|  6>     Mode sTDDFT
|  7>     Ethresh 5.0
|  8>     maxcore 5000
|  9> end
| 10>
| 11> %pal
| 12>   nprocs 6
| 13>   end
| 14> * xyz 0 1
| 15>    C        2.57901         8.64031        -7.53846
| 16>    C        2.31585         8.04162        -6.35477
| 17>    C        2.96439         6.87112        -5.90971
| 18>    C        3.92447         6.19056        -6.79429
| 19>    C        4.32221         6.64789        -8.00301
| 20>    S        3.74040         8.10028        -8.70345
| 21>    C        4.30635         5.00784        -6.10383
| 22>    C        3.64208         4.94884        -4.88231
| 23>    C        3.98450         3.79573        -4.14374
| 24>    C        4.88032         3.02347        -4.81375
| 25>    S        5.34555         3.65967        -6.35450
| 26>    C        2.81327         6.12317        -4.73715
| 27>    C        2.04594         6.36406        -3.56703
| 28>    C        1.50842         7.54089        -3.16460
| 29>    C        0.75085         7.69493        -1.97469
| 30>    C        0.18247         8.84928        -1.44433
| 31>    C        0.30171        10.20298        -1.97731
| 32>    O        0.10365        11.20712        -1.33049
| 33>    O        0.65829        10.28527        -3.27535
| 34>    C       -0.47062         8.61449        -0.19045
| 35>    C       -0.38762         7.31150         0.19860
| 36>    S        0.46832         6.33574        -0.92235
| 37>    C       -1.17250         9.61613         0.60737
| 38>    C       -0.90095         9.78907         1.92985
| 39>    C       -1.54238        10.72583         2.75516
| 40>    C       -2.58067        11.60693         2.22004
| 41>    C       -3.01853        11.57654         0.94014
| 42>    S       -2.41076        10.50529        -0.24441
| 43>    C       -2.96985        12.43142         3.31030
| 44>    C       -2.23327        12.09991         4.44801
| 45>    C       -2.61246        12.88566         5.56021
| 46>    C       -3.59365        13.77038         5.24169
| 47>    S       -4.10417        13.69241         3.59094
| 48>    C       -1.32811        11.02441         4.10993
| 49>    C       -0.40320        10.36093         4.94783
| 50>    C       -0.07040        10.71841         6.21449
| 51>    C        0.84382         9.99697         7.01695
| 52>    C        1.33287        10.30130         8.28160
| 53>    C        1.11562        11.51362         9.05957
| 54>    O        1.75265        11.79410        10.05119
| 55>    O        0.14078        12.32866         8.61287
| 56>    C        2.26643         9.32848         8.76739
| 57>    C        2.46044         8.31079         7.87667
| 58>    S        1.52165         8.48829         6.45618
| 59>    C        2.86429         9.36959        10.07718
| 60>    C        4.13771         9.05390        10.40169
| 61>    C        4.49410         8.75488        11.81784
| 62>    O        3.81127         8.94773        12.79571
| 63>    C        5.81662         8.10162        11.75439
| 64>    C        6.53994         7.53518        12.76416
| 65>    C        7.77616         6.92036        12.46665
| 66>    C        8.23649         6.89773        11.11779
| 67>    C        9.46415         6.27127        10.82531
| 68>    C       10.18600         5.70411        11.83777
| 69>    C        9.75216         5.71893        13.17060
| 70>    C        8.56278         6.32133        13.47211
| 71>    F       11.35863         5.10427        11.56025
| 72>    C        7.46998         7.49902        10.09318
| 73>    C        6.28015         8.10031        10.40744
| 74>    C        5.31134         8.81409         9.57946
| 75>    C        5.56302         9.32815         8.33753
| 76>    C        4.71070        10.20847         7.63652
| 77>    N        4.10818        10.96249         7.01565
| 78>    C        6.75656         9.09759         7.62135
| 79>    N        7.69629         8.92457         6.98519
| 80>    H        2.06533         9.53118        -7.85801
| 81>    H        1.54629         8.47962        -5.73724
| 82>    H        5.04269         6.12232        -8.60955
| 83>    H        3.59563         3.54432        -3.17363
| 84>    H        5.31361         2.09489        -4.49696
| 85>    H        1.91989         5.50291        -2.91973
| 86>    H        1.66773         8.43934        -3.73460
| 87>    H        0.71370        11.22281        -3.51961
| 88>    H       -0.80505         6.86615         1.07967
| 89>    H       -0.11054         9.18274         2.35113
| 90>    H       -3.79039        12.23691         0.57698
| 91>    H       -2.20036        12.81212         6.54956
| 92>    H       -4.06664        14.48514         5.88658
| 93>    H        0.08357         9.48965         4.52474
| 94>    H       -0.48955        11.60396         6.65800
| 95>    H        0.10622        13.11033         9.18699
| 96>    H        3.06633         7.43495         8.00541
| 97>    H        2.20664         9.60509        10.90620
| 98>    H        6.17141         7.55493        13.77883
| 99>    H        9.83089         6.24467         9.81108
|100>    H       10.36503         5.25534        13.92730
|101>    H        8.20724         6.34550        14.49121
|102>    H        7.83989         7.46023         9.08087
|103> *
|104>
|105>                          ****END OF INPUT****

CARTESIAN COORDINATES (ANGSTROEM)
---------------------------------
  C      2.579010    8.640310   -7.538460
  C      2.315850    8.041620   -6.354770
  C      2.964390    6.871120   -5.909710
  C      3.924470    6.190560   -6.794290
  C      4.322210    6.647890   -8.003010
  S      3.740400    8.100280   -8.703450
  C      4.306350    5.007840   -6.103830
  C      3.642080    4.948840   -4.882310
  C      3.984500    3.795730   -4.143740
  C      4.880320    3.023470   -4.813750
  S      5.345550    3.659670   -6.354500
  C      2.813270    6.123170   -4.737150
  C      2.045940    6.364060   -3.567030
  C      1.508420    7.540890   -3.164600
  C      0.750850    7.694930   -1.974690
  C      0.182470    8.849280   -1.444330
  C      0.301710   10.202980   -1.977310
  O      0.103650   11.207120   -1.330490
  O      0.658290   10.285270   -3.275350
  C     -0.470620    8.614490   -0.190450
  C     -0.387620    7.311500    0.198600
  S      0.468320    6.335740   -0.922350
  C     -1.172500    9.616130    0.607370
  C     -0.900950    9.789070    1.929850
  C     -1.542380   10.725830    2.755160
  C     -2.580670   11.606930    2.220040
  C     -3.018530   11.576540    0.940140
  S     -2.410760   10.505290   -0.244410
  C     -2.969850   12.431420    3.310300
  C     -2.233270   12.099910    4.448010
  C     -2.612460   12.885660    5.560210
  C     -3.593650   13.770380    5.241690
  S     -4.104170   13.692410    3.590940
  C     -1.328110   11.024410    4.109930
  C     -0.403200   10.360930    4.947830
  C     -0.070400   10.718410    6.214490
  C      0.843820    9.996970    7.016950
  C      1.332870   10.301300    8.281600
  C      1.115620   11.513620    9.059570
  O      1.752650   11.794100   10.051190
  O      0.140780   12.328660    8.612870
  C      2.266430    9.328480    8.767390
  C      2.460440    8.310790    7.876670
  S      1.521650    8.488290    6.456180
  C      2.864290    9.369590   10.077180
  C      4.137710    9.053900   10.401690
  C      4.494100    8.754880   11.817840
  O      3.811270    8.947730   12.795710
  C      5.816620    8.101620   11.754390
  C      6.539940    7.535180   12.764160
  C      7.776160    6.920360   12.466650
  C      8.236490    6.897730   11.117790
  C      9.464150    6.271270   10.825310
  C     10.186000    5.704110   11.837770
  C      9.752160    5.718930   13.170600
  C      8.562780    6.321330   13.472110
  F     11.358630    5.104270   11.560250
  C      7.469980    7.499020   10.093180
  C      6.280150    8.100310   10.407440
  C      5.311340    8.814090    9.579460
  C      5.563020    9.328150    8.337530
  C      4.710700   10.208470    7.636520
  N      4.108180   10.962490    7.015650
  C      6.756560    9.097590    7.621350
  N      7.696290    8.924570    6.985190
  H      2.065330    9.531180   -7.858010
  H      1.546290    8.479620   -5.737240
  H      5.042690    6.122320   -8.609550
  H      3.595630    3.544320   -3.173630
  H      5.313610    2.094890   -4.496960
  H      1.919890    5.502910   -2.919730
  H      1.667730    8.439340   -3.734600
  H      0.713700   11.222810   -3.519610
  H     -0.805050    6.866150    1.079670
  H     -0.110540    9.182740    2.351130
  H     -3.790390   12.236910    0.576980
  H     -2.200360   12.812120    6.549560
  H     -4.066640   14.485140    5.886580
  H      0.083570    9.489650    4.524740
  H     -0.489550   11.603960    6.658000
  H      0.106220   13.110330    9.186990
  H      3.066330    7.434950    8.005410
  H      2.206640    9.605090   10.906200
  H      6.171410    7.554930   13.778830
  H      9.830890    6.244670    9.811080
  H     10.365030    5.255340   13.927300
  H      8.207240    6.345500   14.491210
  H      7.839890    7.460230    9.080870

 Total Charge           Charge          ....    0
 Multiplicity           Mult            ....    1
 Number of Electrons    NEL             ....  488
 Basis Dimension        Dim             .... 1049

ORBITAL ENERGIES
----------------

  NO   OCC          E(Eh)            E(eV)
   0   2.0000     -88.977269     -2421.1946
   1   2.0000     -88.963983     -2420.8330
   2   2.0000     -88.963731     -2420.8262
   3   2.0000     -88.956467     -2420.6285
   4   2.0000     -88.954280     -2420.5690
   5   2.0000     -88.945082     -2420.3187
   6   2.0000     -24.780734      -674.3181
   7   2.0000     -19.265910      -524.2521
   8   2.0000     -19.256023      -523.9830
   9   2.0000     -19.202940      -522.5386
  10   2.0000     -19.201745      -522.5060
  11   2.0000     -19.194340      -522.3046
  12   2.0000     -14.407550      -392.0494
  13   2.0000     -14.401290      -391.8790
  14   2.0000     -10.406075      -283.1637
  15   2.0000     -10.396684      -282.9082
  16   2.0000     -10.363974      -282.0181
  17   2.0000     -10.354151      -281.7508
  18   2.0000     -10.333522      -281.1894
  19   2.0000     -10.331879      -281.1447
  20   2.0000     -10.327197      -281.0173
  21   2.0000     -10.319789      -280.8157
  22   2.0000     -10.317138      -280.7436
  23   2.0000     -10.314720      -280.6778
  24   2.0000     -10.313769      -280.6519
  25   2.0000     -10.310305      -280.5577
  26   2.0000     -10.310278      -280.5569
  27   2.0000     -10.305528      -280.4277
  28   2.0000     -10.303878      -280.3828
  29   2.0000     -10.300584      -280.2931
  30   2.0000     -10.299825      -280.2725
  31   2.0000     -10.298591      -280.2389
  32   2.0000     -10.298475      -280.2358
  33   2.0000     -10.297178      -280.2004
  34   2.0000     -10.295704      -280.1603
  35   2.0000     -10.295340      -280.1504
  36   2.0000     -10.294935      -280.1394
  37   2.0000     -10.294802      -280.1358
  38   2.0000     -10.292352      -280.0691
  39   2.0000     -10.292052      -280.0610
  40   2.0000     -10.291247      -280.0391
  41   2.0000     -10.289173      -279.9826
  42   2.0000     -10.288883      -279.9747
  43   2.0000     -10.286538      -279.9109
  44   2.0000     -10.286517      -279.9104
  45   2.0000     -10.285382      -279.8795
  46   2.0000     -10.284565      -279.8572
  47   2.0000     -10.284466      -279.8546
  48   2.0000     -10.283665      -279.8328
  49   2.0000     -10.283500      -279.8283
  50   2.0000     -10.283142      -279.8185
  51   2.0000     -10.282407      -279.7985
  52   2.0000     -10.281760      -279.7809
  53   2.0000     -10.276201      -279.6297
  54   2.0000     -10.275789      -279.6184
  55   2.0000     -10.274149      -279.5738
  56   2.0000     -10.274120      -279.5730
  57   2.0000     -10.273352      -279.5521
  58   2.0000     -10.273055      -279.5440
  59   2.0000     -10.272428      -279.5270
  60   2.0000     -10.270435      -279.4727
  61   2.0000     -10.263102      -279.2732
  62   2.0000     -10.262039      -279.2443
  63   2.0000     -10.261292      -279.2239
  64   2.0000     -10.259322      -279.1704
  65   2.0000      -8.073126      -219.6809
  66   2.0000      -8.059710      -219.3159
  67   2.0000      -8.059373      -219.3067
  68   2.0000      -8.052307      -219.1144
  69   2.0000      -8.049618      -219.0412
  70   2.0000      -8.040546      -218.7944
  71   2.0000      -6.042585      -164.4271
  72   2.0000      -6.037919      -164.3001
  73   2.0000      -6.035315      -164.2293
  74   2.0000      -6.028911      -164.0550
  75   2.0000      -6.028824      -164.0527
  76   2.0000      -6.024703      -163.9405
  77   2.0000      -6.024235      -163.9278
  78   2.0000      -6.022002      -163.8670
  79   2.0000      -6.021551      -163.8547
  80   2.0000      -6.021464      -163.8524
  81   2.0000      -6.019089      -163.7877
  82   2.0000      -6.017286      -163.7387
  83   2.0000      -6.014858      -163.6726
  84   2.0000      -6.014582      -163.6651
  85   2.0000      -6.011615      -163.5844
  86   2.0000      -6.009955      -163.5392
  87   2.0000      -6.005774      -163.4254
  88   2.0000      -6.002587      -163.3387
  89   2.0000      -1.295400       -35.2496
  90   2.0000      -1.191026       -32.4095
  91   2.0000      -1.181408       -32.1477
  92   2.0000      -1.118545       -30.4371
  93   2.0000      -1.091857       -29.7109
  94   2.0000      -1.083318       -29.4786
  95   2.0000      -1.009496       -27.4698
  96   2.0000      -1.003858       -27.3164
  97   2.0000      -0.999215       -27.1900
  98   2.0000      -0.992298       -27.0018
  99   2.0000      -0.991387       -26.9770
 100   2.0000      -0.988503       -26.8985
 101   2.0000      -0.979844       -26.6629
 102   2.0000      -0.967798       -26.3351
 103   2.0000      -0.967714       -26.3328
 104   2.0000      -0.958856       -26.0918
 105   2.0000      -0.926099       -25.2004
 106   2.0000      -0.921002       -25.0617
 107   2.0000      -0.917218       -24.9588
 108   2.0000      -0.900592       -24.5064
 109   2.0000      -0.896007       -24.3816
 110   2.0000      -0.885866       -24.1056
 111   2.0000      -0.881706       -23.9924
 112   2.0000      -0.877470       -23.8772
 113   2.0000      -0.872568       -23.7438
 114   2.0000      -0.863979       -23.5101
 115   2.0000      -0.856973       -23.3194
 116   2.0000      -0.846252       -23.0277
 117   2.0000      -0.843777       -22.9603
 118   2.0000      -0.831767       -22.6335
 119   2.0000      -0.826923       -22.5017
 120   2.0000      -0.820311       -22.3218
 121   2.0000      -0.810782       -22.0625
 122   2.0000      -0.803494       -21.8642
 123   2.0000      -0.790904       -21.5216
 124   2.0000      -0.782905       -21.3039
 125   2.0000      -0.771335       -20.9891
 126   2.0000      -0.758765       -20.6470
 127   2.0000      -0.750234       -20.4149
 128   2.0000      -0.741084       -20.1659
 129   2.0000      -0.730331       -19.8733
 130   2.0000      -0.723901       -19.6983
 131   2.0000      -0.717641       -19.5280
 132   2.0000      -0.713754       -19.4222
 133   2.0000      -0.709621       -19.3098
 134   2.0000      -0.703062       -19.1313
 135   2.0000      -0.701133       -19.0788
 136   2.0000      -0.689991       -18.7756
 137   2.0000      -0.674155       -18.3447
 138   2.0000      -0.670254       -18.2386
 139   2.0000      -0.667652       -18.1677
 140   2.0000      -0.653633       -17.7863
 141   2.0000      -0.645847       -17.5744
 142   2.0000      -0.641082       -17.4447
 143   2.0000      -0.638966       -17.3871
 144   2.0000      -0.635743       -17.2995
 145   2.0000      -0.631886       -17.1945
 146   2.0000      -0.627536       -17.0761
 147   2.0000      -0.624505       -16.9936
 148   2.0000      -0.622124       -16.9289
 149   2.0000      -0.612364       -16.6633
 150   2.0000      -0.605231       -16.4692
 151   2.0000      -0.601401       -16.3650
 152   2.0000      -0.592327       -16.1180
 153   2.0000      -0.587480       -15.9861
 154   2.0000      -0.586614       -15.9626
 155   2.0000      -0.576423       -15.6853
 156   2.0000      -0.569366       -15.4932
 157   2.0000      -0.562022       -15.2934
 158   2.0000      -0.560110       -15.2414
 159   2.0000      -0.558542       -15.1987
 160   2.0000      -0.556103       -15.1323
 161   2.0000      -0.553135       -15.0516
 162   2.0000      -0.551437       -15.0054
 163   2.0000      -0.550775       -14.9874
 164   2.0000      -0.546694       -14.8763
 165   2.0000      -0.544340       -14.8122
 166   2.0000      -0.543193       -14.7810
 167   2.0000      -0.540182       -14.6991
 168   2.0000      -0.534972       -14.5573
 169   2.0000      -0.533719       -14.5232
 170   2.0000      -0.530730       -14.4419
 171   2.0000      -0.524094       -14.2613
 172   2.0000      -0.517633       -14.0855
 173   2.0000      -0.517479       -14.0813
 174   2.0000      -0.517116       -14.0714
 175   2.0000      -0.513621       -13.9763
 176   2.0000      -0.509035       -13.8516
 177   2.0000      -0.507508       -13.8100
 178   2.0000      -0.503988       -13.7142
 179   2.0000      -0.503467       -13.7000
 180   2.0000      -0.501589       -13.6489
 181   2.0000      -0.501052       -13.6343
 182   2.0000      -0.496516       -13.5109
 183   2.0000      -0.495565       -13.4850
 184   2.0000      -0.489112       -13.3094
 185   2.0000      -0.483351       -13.1526
 186   2.0000      -0.482718       -13.1354
 187   2.0000      -0.481184       -13.0937
 188   2.0000      -0.478572       -13.0226
 189   2.0000      -0.475839       -12.9482
 190   2.0000      -0.474420       -12.9096
 191   2.0000      -0.470374       -12.7995
 192   2.0000      -0.465361       -12.6631
 193   2.0000      -0.462949       -12.5975
 194   2.0000      -0.461896       -12.5688
 195   2.0000      -0.458974       -12.4893
 196   2.0000      -0.456260       -12.4155
 197   2.0000      -0.451471       -12.2852
 198   2.0000      -0.450346       -12.2545
 199   2.0000      -0.448246       -12.1974
 200   2.0000      -0.443972       -12.0811
 201   2.0000      -0.441048       -12.0015
 202   2.0000      -0.440045       -11.9742
 203   2.0000      -0.437699       -11.9104
 204   2.0000      -0.432766       -11.7762
 205   2.0000      -0.431079       -11.7302
 206   2.0000      -0.430307       -11.7093
 207   2.0000      -0.427667       -11.6374
 208   2.0000      -0.424232       -11.5439
 209   2.0000      -0.420540       -11.4435
 210   2.0000      -0.420034       -11.4297
 211   2.0000      -0.416922       -11.3450
 212   2.0000      -0.416175       -11.3247
 213   2.0000      -0.414584       -11.2814
 214   2.0000      -0.413585       -11.2542
 215   2.0000      -0.408567       -11.1177
 216   2.0000      -0.407231       -11.0813
 217   2.0000      -0.405936       -11.0461
 218   2.0000      -0.400385       -10.8950
 219   2.0000      -0.399634       -10.8746
 220   2.0000      -0.393976       -10.7206
 221   2.0000      -0.388964       -10.5842
 222   2.0000      -0.388411       -10.5692
 223   2.0000      -0.385302       -10.4846
 224   2.0000      -0.381302       -10.3758
 225   2.0000      -0.374395       -10.1878
 226   2.0000      -0.371454       -10.1078
 227   2.0000      -0.363891        -9.9020
 228   2.0000      -0.354599        -9.6491
 229   2.0000      -0.348451        -9.4818
 230   2.0000      -0.335478        -9.1288
 231   2.0000      -0.334298        -9.0967
 232   2.0000      -0.326855        -8.8942
 233   2.0000      -0.323941        -8.8149
 234   2.0000      -0.323134        -8.7929
 235   2.0000      -0.310496        -8.4490
 236   2.0000      -0.303750        -8.2654
 237   2.0000      -0.301420        -8.2021
 238   2.0000      -0.293184        -7.9779
 239   2.0000      -0.282557        -7.6888
 240   2.0000      -0.279730        -7.6118
 241   2.0000      -0.265276        -7.2185
 242   2.0000      -0.235052        -6.3961
 243   2.0000      -0.219666        -5.9774
 244   0.0000      -0.076782        -2.0893
 245   0.0000      -0.060817        -1.6549
 246   0.0000      -0.050738        -1.3806
 247   0.0000      -0.042918        -1.1678
 248   0.0000      -0.024571        -0.6686

MULLIKEN ATOMIC CHARGES
-----------------------
   0 C :   -0.102822
   1 C :    0.030004
   2 C :    0.016603
   3 C :    0.063863
   4 C :   -0.147724
   5 S :    0.134257
   6 C :   -0.112477
   7 C :    0.050816
   8 C :    0.006480
   9 C :   -0.068374
  10 S :    0.124497
  11 C :    0.075694
  12 C :   -0.016176
  13 C :   -0.022099
  14 C :   -0.104202
  15 C :    0.046847
  16 C :    0.101551
  17 O :   -0.201693
  18 O :   -0.178657
  19 C :    0.069080
  20 C :   -0.096849
  21 S :    0.117411
  22 C :   -0.104666
  23 C :   -0.010790
  24 C :    0.050849
  25 C :    0.064739
  26 C :   -0.129456
  27 S :    0.177056
  28 C :   -0.117145
  29 C :    0.054293
  30 C :   -0.005155
  31 C :   -0.071558
  32 S :    0.117646
  33 C :    0.081518
  34 C :   -0.017567
  35 C :   -0.014819
  36 C :   -0.077747
  37 C :    0.065802
  38 C :    0.125214
  39 O :   -0.211096
  40 O :   -0.174244
  41 C :   -0.016612
  42 C :   -0.079704
  43 S :    0.119733
  44 C :    0.087959
  45 C :   -0.137908
  46 C :    0.141151
  47 O :   -0.139589
  48 C :    0.006006
  49 C :   -0.084965
  50 C :    0.104043
  51 C :    0.103851
  52 C :   -0.099462
  53 C :    0.301779
  54 C :   -0.028173
  55 C :   -0.011993
  56 F :   -0.192278
  57 C :   -0.090275
  58 C :    0.037584
  59 C :    0.286395
  60 C :   -0.342616
  61 C :   -0.184583
  62 N :    0.178959
  63 C :   -0.189627
  64 N :    0.149753
  65 H :    0.043670
  66 H :   -0.006252
  67 H :    0.036622
  68 H :   -0.018292
  69 H :    0.025511
  70 H :   -0.015842
  71 H :    0.000672
  72 H :    0.191162
  73 H :    0.027284
  74 H :   -0.018218
  75 H :    0.031523
  76 H :   -0.014277
  77 H :    0.019898
  78 H :   -0.026982
  79 H :   -0.012763
  80 H :    0.192042
  81 H :    0.028918
  82 H :    0.037222
  83 H :   -0.013016
  84 H :   -0.003600
  85 H :    0.002332
  86 H :   -0.009664
  87 H :   -0.006280
Sum of atomic charges:   -0.0000000

LOEWDIN ATOMIC CHARGES
----------------------
   0 C :   -0.182431
   1 C :   -0.027926
   2 C :   -0.015604
   3 C :   -0.043023
   4 C :   -0.144611
   5 S :    0.458200
   6 C :   -0.209501
   7 C :   -0.038371
   8 C :   -0.065920
   9 C :   -0.165251
  10 S :    0.417745
  11 C :   -0.062183
  12 C :    0.000099
  13 C :   -0.067995
  14 C :   -0.120940
  15 C :   -0.124083
  16 C :    0.081776
  17 O :   -0.187918
  18 O :   -0.041348
  19 C :   -0.061933
  20 C :   -0.177018
  21 S :    0.452129
  22 C :   -0.153175
  23 C :   -0.022535
  24 C :   -0.008861
  25 C :   -0.052330
  26 C :   -0.139918
  27 S :    0.487681
  28 C :   -0.203916
  29 C :   -0.037088
  30 C :   -0.065749
  31 C :   -0.171295
  32 S :    0.414830
  33 C :   -0.063327
  34 C :    0.004489
  35 C :   -0.072437
  36 C :   -0.105394
  37 C :   -0.116846
  38 C :    0.096072
  39 O :   -0.182964
  40 O :   -0.037056
  41 C :   -0.057022
  42 C :   -0.168666
  43 S :    0.458869
  44 C :    0.103426
  45 C :   -0.096691
  46 C :    0.083445
  47 O :   -0.140330
  48 C :   -0.058470
  49 C :    0.032733
  50 C :   -0.018534
  51 C :    0.002425
  52 C :   -0.042590
  53 C :    0.091712
  54 C :   -0.038064
  55 C :    0.004016
  56 F :   -0.066701
  57 C :    0.009894
  58 C :   -0.018163
  59 C :    0.069340
  60 C :   -0.133628
  61 C :   -0.018064
  62 N :   -0.044443
  63 C :   -0.017655
  64 N :   -0.056810
  65 H :    0.030920
  66 H :    0.040702
  67 H :    0.035571
  68 H :    0.029415
  69 H :    0.022963
  70 H :    0.020128
  71 H :    0.027168
  72 H :    0.099936
  73 H :    0.027066
  74 H :    0.036507
  75 H :    0.034809
  76 H :    0.029134
  77 H :    0.021109
  78 H :    0.016469
  79 H :    0.029844
  80 H :    0.101199
  81 H :    0.025333
  82 H :    0.050438
  83 H :    0.039212
  84 H :    0.042713
  85 H :    0.041257
  86 H :    0.035462
  87 H :    0.038539

  Mayer bond orders larger than 0.100000
B(  0-C ,  1-C ) :   1.6471 B(  0-C ,  5-S ) :   1.1070 B(  0-C , 65-H ) :   0.9408
B(  1-C ,  2-C ) :   1.2057 B(  1-C , 66-H ) :   0.9684 B(  2-C ,  3-C ) :   1.0582
B(  2-C , 11-C ) :   1.4316 B(  3-C ,  4-C ) :   1.5975 B(  3-C ,  6-C ) :   1.1861
B(  4-C ,  5-S ) :   1.1474 B(  4-C , 67-H ) :   0.9421 B(  6-C ,  7-C ) :   1.4538
B(  6-C , 10-S ) :   1.0685 B(  7-C ,  8-C ) :   1.2223 B(  7-C , 11-C ) :   1.0954
B(  8-C ,  9-C ) :   1.5838 B(  8-C , 68-H ) :   0.9970 B(  9-C , 10-S ) :   1.1589
B(  9-C , 69-H ) :   0.9661 B( 11-C , 12-C ) :   1.1551 B( 12-C , 13-C ) :   1.6081
B( 12-C , 70-H ) :   0.9569 B( 13-C , 14-C ) :   1.1712 B( 13-C , 71-H ) :   0.9658
B( 14-C , 15-C ) :   1.4250 B( 14-C , 21-S ) :   1.1552 B( 15-C , 16-C ) :   0.9604
B( 15-C , 19-C ) :   1.2305 B( 16-C , 17-O ) :   2.1068 B( 16-C , 18-O ) :   1.2343
B( 18-O , 72-H ) :   0.9390 B( 19-C , 20-C ) :   1.6100 B( 19-C , 22-C ) :   0.9645
B( 20-C , 21-S ) :   1.1261 B( 20-C , 73-H ) :   0.9693 B( 22-C , 23-C ) :   1.6244
B( 22-C , 27-S ) :   1.0785 B( 23-C , 24-C ) :   1.1924 B( 23-C , 74-H ) :   0.9715
B( 24-C , 25-C ) :   1.0681 B( 24-C , 33-C ) :   1.3859 B( 25-C , 26-C ) :   1.5821
B( 25-C , 28-C ) :   1.1796 B( 26-C , 27-S ) :   1.1679 B( 26-C , 75-H ) :   0.9419
B( 28-C , 29-C ) :   1.4588 B( 28-C , 32-S ) :   1.0727 B( 29-C , 30-C ) :   1.2177
B( 29-C , 33-C ) :   1.0763 B( 30-C , 31-C ) :   1.5833 B( 30-C , 76-H ) :   0.9970
B( 31-C , 32-S ) :   1.1540 B( 31-C , 77-H ) :   0.9644 B( 33-C , 34-C ) :   1.1854
B( 34-C , 35-C ) :   1.5787 B( 34-C , 78-H ) :   0.9555 B( 35-C , 36-C ) :   1.1765
B( 35-C , 79-H ) :   0.9764 B( 36-C , 37-C ) :   1.4226 B( 36-C , 43-S ) :   1.1421
B( 37-C , 38-C ) :   0.9709 B( 37-C , 41-C ) :   1.2202 B( 38-C , 39-O ) :   2.0766
B( 38-C , 40-O ) :   1.2514 B( 40-O , 80-H ) :   0.9371 B( 41-C , 42-C ) :   1.5747
B( 41-C , 44-C ) :   1.0020 B( 42-C , 43-S ) :   1.1383 B( 42-C , 81-H ) :   0.9677
B( 44-C , 45-C ) :   1.7410 B( 44-C , 82-H ) :   0.9233 B( 45-C , 46-C ) :   0.9322
B( 45-C , 59-C ) :   1.0144 B( 46-C , 47-O ) :   2.2811 B( 46-C , 48-C ) :   0.9138
B( 48-C , 49-C ) :   1.4671 B( 48-C , 58-C ) :   1.2227 B( 49-C , 50-C ) :   1.1916
B( 49-C , 83-H ) :   1.0163 B( 50-C , 51-C ) :   1.2578 B( 50-C , 55-C ) :   1.2312
B( 51-C , 52-C ) :   1.1985 B( 51-C , 57-C ) :   1.2043 B( 52-C , 53-C ) :   1.4422
B( 52-C , 84-H ) :   1.0072 B( 53-C , 54-C ) :   1.2539 B( 53-C , 56-F ) :   1.0867
B( 54-C , 55-C ) :   1.4610 B( 54-C , 85-H ) :   0.9930 B( 55-C , 86-H ) :   0.9979
B( 57-C , 58-C ) :   1.4545 B( 57-C , 87-H ) :   0.9942 B( 58-C , 59-C ) :   0.9949
B( 59-C , 60-C ) :   1.6721 B( 60-C , 61-C ) :   1.1598 B( 60-C , 63-C ) :   1.1331
B( 61-C , 62-N ) :   3.0079 B( 63-C , 64-N ) :   2.9824

-----------------------------------------------------------------------------
         ABSORPTION SPECTRUM VIA TRANSITION ELECTRIC DIPOLE MOMENTS
-----------------------------------------------------------------------------
State   Energy  Wavelength   fosc         T2         TX        TY        TZ
        (cm-1)    (nm)                  (au**2)     (au)      (au)      (au)
-----------------------------------------------------------------------------
   0   17205.8    581.2   0.075041676   1.43583   0.79693   0.09879   0.88937
   1   20269.7    493.3   1.172283233  19.03971  -0.47042  -0.24729  -4.33097
   2   21321.0    469.0   0.132988411   2.05343  -1.38444  -0.17762   0.32437
   3   22727.8    440.0   0.001457196   0.02111   0.03113  -0.06464   0.12633
   4   24762.6    403.8   0.470212923   6.25136   1.31928  -0.35963   2.09321
   5   25736.5    388.6   0.447224546   5.72073   1.78247  -1.00395  -1.23919
   6   26335.1    379.7   0.012466126   0.15584  -0.09920  -0.03718   0.38028
   7   26704.3    374.5   0.018501878   0.22809   0.45927   0.01062   0.13059
   8   27665.9    361.5   0.079469507   0.94565   0.97079   0.03467  -0.04484
   9   28060.0    356.4   0.128917980   1.51252   0.56109  -0.63947   0.88813
  10   28886.7    346.2   0.082741991   0.94298  -0.86819   0.38479  -0.20288
  11   29160.7    342.9   0.127974738   1.44478   0.57956  -0.44791   0.95303
  12   29666.5    337.1   0.294320671   3.26610  -0.89195   0.37895   1.52542
  13   29872.8    334.8   0.040343069   0.44460   0.26783  -0.38421   0.47460
  14   30978.0    322.8   0.012522379   0.13308   0.35109  -0.00847  -0.09872
  15   31545.6    317.0   0.102538088   1.07009  -0.73490   0.55114  -0.47567
  16   32139.4    311.1   0.050236839   0.51459  -0.35899   0.54344   0.30065
  17   32290.8    309.7   0.004770792   0.04864  -0.08587   0.18307  -0.08804
  18   32572.0    307.0   0.004685156   0.04735  -0.11185   0.09094   0.16301
  19   33016.6    302.9   0.002200487   0.02194   0.11089   0.09666  -0.01737
  20   33285.3    300.4   0.060407695   0.59747  -0.08560   0.35569  -0.68090
  21   34286.4    291.7   0.241983851   2.32348   0.97478  -0.79356   0.86229
  22   34311.4    291.4   0.047386688   0.45467  -0.43429   0.10011   0.50600
  23   34773.0    287.6   0.217582596   2.05996   0.64483  -0.78876   1.01094
  24   35053.4    285.3   0.027483434   0.25812  -0.08159  -0.00755  -0.50140
  25   35356.5    282.8   0.228225716   2.12506  -0.45331   0.53437  -1.27829
  26   35683.4    280.2   0.240932351   2.22282   0.72217  -1.04852  -0.77581
  27   36290.6    275.6   0.758312567   6.87907   1.88714  -1.23059   1.34292
  28   36512.9    273.9   0.028292946   0.25510  -0.10810   0.40672   0.27926
  29   36990.6    270.3   0.009150775   0.08144  -0.19047  -0.20231  -0.06506
  30   37372.0    267.6   0.000184390   0.00162  -0.02306   0.03236  -0.00672
  31   38447.2    260.1   0.216626426   1.85491  -0.10862   0.74623   1.13413
  32   38543.9    259.4   0.053970805   0.46098  -0.52266   0.27159  -0.33770
  33   38746.8    258.1   0.207659993   1.76438  -0.34115   0.76998   1.02720
  34   39194.5    255.1   0.009548952   0.08021  -0.07551   0.21071  -0.17350
  35   39654.6    252.2   0.008462150   0.07025  -0.19823   0.09705  -0.14676
  36   39752.4    251.6   0.413882131   3.42759   0.48616  -1.61202   0.76984
  37   39769.6    251.4   0.077484852   0.64142  -0.03947   0.38589  -0.70068
  38   40008.8    249.9   0.018992421   0.15628  -0.33171   0.17676   0.12248
  39   40279.2    248.3   0.233176101   1.90581  -1.15777   0.41365   0.62790

FINAL SINGLE POINT ENERGY     -4927.931384018256

DIPOLE MOMENT
-------------
                                X             Y             Z
Electronic contribution:      5.68448      -0.00855       1.34344
Nuclear contribution   :     -6.65475      -1.48971      -4.13423
                        -----------------------------------------
Total Dipole Moment    :     -0.97027      -1.49826      -2.79079
                        -----------------------------------------
Magnitude (a.u.)       :      3.31281
Magnitude (Debye)      :      8.42050

Rotational constants in cm-1:     0.000964     0.000372     0.000279
Rotational constants in MHz :    28.891700    11.162646     8.368830

                             ****ORCA TERMINATED NORMALLY****
TOTAL RUN TIME: 0 days 0 hours 9 minutes 38 seconds 596 msec
