                         Program Version 4.2.0 -  RELEASE  -
|  1> # ORCA input file
|  2> # SCF done       -138.305839594605          0.000772228524
|  3> ! CAM-B3LYP def2-SVP def2/J RIJCOSX Grid4 TightSCF
|  4> %maxcore 5000
|  5> %tddft
|  6>     Mode sTDDFT
|  7>     Ethresh 5.0
|  8>     maxcore 5000
|  9> end
| 10>
| 11> %pal
| 12>   nprocs 6
| 13>   end
| 14> * xyz 0 1
| 15>    C        4.55096         2.31505        -4.13706
| 16>    C        3.71633         2.90597        -3.25100
| 17>    C        2.87161         2.18720        -2.38445
| 18>    C        2.85967         0.72290        -2.40530
| 19>    C        3.62258        -0.04277        -3.21843
| 20>    S        4.72788         0.60688        -4.35882
| 21>    C        1.90719         0.34403        -1.41870
| 22>    C        1.35983         1.47787        -0.81925
| 23>    C        0.40524         1.13438         0.16426
| 24>    C        0.26123        -0.21245         0.27948
| 25>    S        1.26828        -1.12250        -0.79049
| 26>    C        1.96202         2.65030        -1.41968
| 27>    C        1.72152         4.00891        -1.13041
| 28>    C        0.86593         4.50029        -0.19060
| 29>    C        0.66961         5.86919         0.05353
| 30>    C       -0.19776         6.40601         1.02456
| 31>    C       -0.19329         7.83211         1.06451
| 32>    N       -0.97690         8.49758         1.92792
| 33>    C       -1.72708         7.78466         2.72869
| 34>    C       -1.72237         6.35385         2.69667
| 35>    N       -0.97100         5.68628         1.85378
| 36>    C       -2.58051         5.55824         3.62303
| 37>    C       -2.59346         8.53928         3.67902
| 38>    C        0.67777         8.39216         0.12327
| 39>    S        1.46966         7.15025        -0.79905
| 40>    C        0.98668         9.73063        -0.19881
| 41>    N        1.81025         9.90669        -1.22863
| 42>    N        2.18199        11.07282        -1.66566
| 43>    C        1.79296        12.21964        -1.14236
| 44>    C        0.91940        12.17873        -0.01166
| 45>    C        0.49676        10.88833         0.48195
| 46>    N       -0.27997        11.09644         1.51959
| 47>    O       -0.35010        12.41478         1.67316
| 48>    N        0.36424        13.08927         0.76125
| 49>    C        2.28021        13.44588        -1.75009
| 50>    C        1.95400        14.70071        -1.19798
| 51>    C        2.40198        15.87826        -1.74898
| 52>    C        3.19721        15.79531        -2.88879
| 53>    C        3.51916        14.53180        -3.44136
| 54>    C        3.07760        13.34966        -2.89306
| 55>    O        4.28994        14.75302        -4.53101
| 56>    C        4.40874        16.09840        -4.60385
| 57>    N        3.78721        16.75243        -3.66225
| 58>    C        5.17331        16.73532        -5.65225
| 59>    C        5.32367        18.10888        -5.62637
| 60>    C        6.05493        18.78115        -6.61034
| 61>    C        6.64734        18.09310        -7.63560
| 62>    C        6.51529        16.69232        -7.70329
| 63>    N        7.09998        16.02260        -8.71994
| 64>    C        6.95225        14.72653        -8.75181
| 65>    C        6.20900        14.03746        -7.77192
| 66>    N        5.63467        14.65652        -6.77707
| 67>    C        5.77140        15.99379        -6.70841
| 68>    H        5.19044         2.88052        -4.79323
| 69>    H        3.70429         3.98598        -3.21404
| 70>    H        3.58570        -1.12037        -3.20264
| 71>    H       -0.15662         1.82615         0.76377
| 72>    H       -0.39029        -0.74690         0.94300
| 73>    H        2.27725         4.73186        -1.71495
| 74>    H        0.28164         3.84448         0.43503
| 75>    H       -3.62939         5.81970         3.49003
| 76>    H       -2.31200         5.76298         4.65885
| 77>    H       -2.44422         4.49967         3.42001
| 78>    H       -2.42114         9.60208         3.53693
| 79>    H       -2.36092         8.26626         4.70708
| 80>    H       -3.64369         8.31352         3.49969
| 81>    H        1.33398        14.72531        -0.31549
| 82>    H        2.15189        16.83540        -1.32233
| 83>    H        3.32056        12.38628        -3.30780
| 84>    H        4.85953        18.65432        -4.81959
| 85>    H        6.14987        19.85502        -6.55191
| 86>    H        7.21914        18.58732        -8.40531
| 87>    H        7.42669        14.20289        -9.57136
| 88>    H        6.08471        12.96333        -7.80919
| 89> *
| 90>
| 91>                          ****END OF INPUT****

CARTESIAN COORDINATES (ANGSTROEM)
---------------------------------
  C      4.550960    2.315050   -4.137060
  C      3.716330    2.905970   -3.251000
  C      2.871610    2.187200   -2.384450
  C      2.859670    0.722900   -2.405300
  C      3.622580   -0.042770   -3.218430
  S      4.727880    0.606880   -4.358820
  C      1.907190    0.344030   -1.418700
  C      1.359830    1.477870   -0.819250
  C      0.405240    1.134380    0.164260
  C      0.261230   -0.212450    0.279480
  S      1.268280   -1.122500   -0.790490
  C      1.962020    2.650300   -1.419680
  C      1.721520    4.008910   -1.130410
  C      0.865930    4.500290   -0.190600
  C      0.669610    5.869190    0.053530
  C     -0.197760    6.406010    1.024560
  C     -0.193290    7.832110    1.064510
  N     -0.976900    8.497580    1.927920
  C     -1.727080    7.784660    2.728690
  C     -1.722370    6.353850    2.696670
  N     -0.971000    5.686280    1.853780
  C     -2.580510    5.558240    3.623030
  C     -2.593460    8.539280    3.679020
  C      0.677770    8.392160    0.123270
  S      1.469660    7.150250   -0.799050
  C      0.986680    9.730630   -0.198810
  N      1.810250    9.906690   -1.228630
  N      2.181990   11.072820   -1.665660
  C      1.792960   12.219640   -1.142360
  C      0.919400   12.178730   -0.011660
  C      0.496760   10.888330    0.481950
  N     -0.279970   11.096440    1.519590
  O     -0.350100   12.414780    1.673160
  N      0.364240   13.089270    0.761250
  C      2.280210   13.445880   -1.750090
  C      1.954000   14.700710   -1.197980
  C      2.401980   15.878260   -1.748980
  C      3.197210   15.795310   -2.888790
  C      3.519160   14.531800   -3.441360
  C      3.077600   13.349660   -2.893060
  O      4.289940   14.753020   -4.531010
  C      4.408740   16.098400   -4.603850
  N      3.787210   16.752430   -3.662250
  C      5.173310   16.735320   -5.652250
  C      5.323670   18.108880   -5.626370
  C      6.054930   18.781150   -6.610340
  C      6.647340   18.093100   -7.635600
  C      6.515290   16.692320   -7.703290
  N      7.099980   16.022600   -8.719940
  C      6.952250   14.726530   -8.751810
  C      6.209000   14.037460   -7.771920
  N      5.634670   14.656520   -6.777070
  C      5.771400   15.993790   -6.708410
  H      5.190440    2.880520   -4.793230
  H      3.704290    3.985980   -3.214040
  H      3.585700   -1.120370   -3.202640
  H     -0.156620    1.826150    0.763770
  H     -0.390290   -0.746900    0.943000
  H      2.277250    4.731860   -1.714950
  H      0.281640    3.844480    0.435030
  H     -3.629390    5.819700    3.490030
  H     -2.312000    5.762980    4.658850
  H     -2.444220    4.499670    3.420010
  H     -2.421140    9.602080    3.536930
  H     -2.360920    8.266260    4.707080
  H     -3.643690    8.313520    3.499690
  H      1.333980   14.725310   -0.315490
  H      2.151890   16.835400   -1.322330
  H      3.320560   12.386280   -3.307800
  H      4.859530   18.654320   -4.819590
  H      6.149870   19.855020   -6.551910
  H      7.219140   18.587320   -8.405310
  H      7.426690   14.202890   -9.571360
  H      6.084710   12.963330   -7.809190

 Total Charge           Charge          ....    0
 Multiplicity           Mult            ....    1
 Number of Electrons    NEL             ....  382
 Basis Dimension        Dim             ....  859

ORBITAL ENERGIES
----------------

  NO   OCC          E(Eh)            E(eV)
   0   2.0000     -88.977359     -2421.1970
   1   2.0000     -88.960368     -2420.7347
   2   2.0000     -88.955038     -2420.5896
   3   2.0000     -19.351507      -526.5813
   4   2.0000     -19.280312      -524.6440
   5   2.0000     -14.478047      -393.9677
   6   2.0000     -14.477707      -393.9584
   7   2.0000     -14.429417      -392.6444
   8   2.0000     -14.425201      -392.5297
   9   2.0000     -14.417342      -392.3158
  10   2.0000     -14.414175      -392.2296
  11   2.0000     -14.413952      -392.2236
  12   2.0000     -14.404256      -391.9597
  13   2.0000     -14.393785      -391.6748
  14   2.0000     -10.360760      -281.9306
  15   2.0000     -10.331270      -281.1281
  16   2.0000     -10.327626      -281.0290
  17   2.0000     -10.324138      -280.9341
  18   2.0000     -10.323769      -280.9240
  19   2.0000     -10.319149      -280.7983
  20   2.0000     -10.316381      -280.7230
  21   2.0000     -10.315522      -280.6996
  22   2.0000     -10.315315      -280.6940
  23   2.0000     -10.314852      -280.6814
  24   2.0000     -10.313214      -280.6368
  25   2.0000     -10.311728      -280.5964
  26   2.0000     -10.311366      -280.5865
  27   2.0000     -10.310196      -280.5547
  28   2.0000     -10.306648      -280.4581
  29   2.0000     -10.305778      -280.4345
  30   2.0000     -10.299444      -280.2621
  31   2.0000     -10.298761      -280.2435
  32   2.0000     -10.296900      -280.1929
  33   2.0000     -10.293807      -280.1087
  34   2.0000     -10.293637      -280.1041
  35   2.0000     -10.290460      -280.0177
  36   2.0000     -10.288910      -279.9755
  37   2.0000     -10.287203      -279.9290
  38   2.0000     -10.284466      -279.8545
  39   2.0000     -10.281630      -279.7774
  40   2.0000     -10.281235      -279.7666
  41   2.0000     -10.280063      -279.7347
  42   2.0000     -10.278144      -279.6825
  43   2.0000     -10.273579      -279.5583
  44   2.0000     -10.273538      -279.5572
  45   2.0000     -10.273011      -279.5429
  46   2.0000     -10.272166      -279.5198
  47   2.0000     -10.270726      -279.4807
  48   2.0000     -10.265235      -279.3313
  49   2.0000     -10.265005      -279.3250
  50   2.0000     -10.262039      -279.2443
  51   2.0000     -10.260922      -279.2139
  52   2.0000     -10.259135      -279.1652
  53   2.0000      -8.073160      -219.6819
  54   2.0000      -8.054147      -219.1645
  55   2.0000      -8.050402      -219.0626
  56   2.0000      -6.042643      -164.4287
  57   2.0000      -6.037939      -164.3007
  58   2.0000      -6.035339      -164.2299
  59   2.0000      -6.023196      -163.8995
  60   2.0000      -6.019790      -163.8068
  61   2.0000      -6.019132      -163.7889
  62   2.0000      -6.016899      -163.7282
  63   2.0000      -6.015616      -163.6932
  64   2.0000      -6.012520      -163.6090
  65   2.0000      -1.303312       -35.4649
  66   2.0000      -1.213944       -33.0331
  67   2.0000      -1.109421       -30.1889
  68   2.0000      -1.073172       -29.2025
  69   2.0000      -1.070861       -29.1396
  70   2.0000      -1.010156       -27.4877
  71   2.0000      -1.006157       -27.3789
  72   2.0000      -1.004446       -27.3324
  73   2.0000      -0.995980       -27.1020
  74   2.0000      -0.994403       -27.0591
  75   2.0000      -0.977977       -26.6121
  76   2.0000      -0.968919       -26.3656
  77   2.0000      -0.968051       -26.3420
  78   2.0000      -0.954487       -25.9729
  79   2.0000      -0.945016       -25.7152
  80   2.0000      -0.926354       -25.2074
  81   2.0000      -0.919143       -25.0112
  82   2.0000      -0.890700       -24.2372
  83   2.0000      -0.878723       -23.9113
  84   2.0000      -0.875172       -23.8146
  85   2.0000      -0.866297       -23.5731
  86   2.0000      -0.850847       -23.1527
  87   2.0000      -0.847525       -23.0623
  88   2.0000      -0.833225       -22.6732
  89   2.0000      -0.828581       -22.5468
  90   2.0000      -0.820575       -22.3290
  91   2.0000      -0.803782       -21.8720
  92   2.0000      -0.798993       -21.7417
  93   2.0000      -0.793852       -21.6018
  94   2.0000      -0.789847       -21.4928
  95   2.0000      -0.768875       -20.9222
  96   2.0000      -0.760869       -20.7043
  97   2.0000      -0.752484       -20.4761
  98   2.0000      -0.740874       -20.1602
  99   2.0000      -0.734820       -19.9955
 100   2.0000      -0.727280       -19.7903
 101   2.0000      -0.715303       -19.4644
 102   2.0000      -0.706835       -19.2340
 103   2.0000      -0.705100       -19.1867
 104   2.0000      -0.692311       -18.8387
 105   2.0000      -0.680413       -18.5150
 106   2.0000      -0.672069       -18.2879
 107   2.0000      -0.666949       -18.1486
 108   2.0000      -0.650447       -17.6996
 109   2.0000      -0.648097       -17.6356
 110   2.0000      -0.643387       -17.5074
 111   2.0000      -0.634159       -17.2564
 112   2.0000      -0.631733       -17.1903
 113   2.0000      -0.625563       -17.0224
 114   2.0000      -0.621793       -16.9198
 115   2.0000      -0.616535       -16.7768
 116   2.0000      -0.608081       -16.5467
 117   2.0000      -0.605520       -16.4770
 118   2.0000      -0.603166       -16.4130
 119   2.0000      -0.588571       -16.0158
 120   2.0000      -0.582542       -15.8518
 121   2.0000      -0.577405       -15.7120
 122   2.0000      -0.573163       -15.5966
 123   2.0000      -0.563346       -15.3294
 124   2.0000      -0.561669       -15.2838
 125   2.0000      -0.559163       -15.2156
 126   2.0000      -0.551708       -15.0127
 127   2.0000      -0.547038       -14.8857
 128   2.0000      -0.544905       -14.8276
 129   2.0000      -0.543585       -14.7917
 130   2.0000      -0.540590       -14.7102
 131   2.0000      -0.524781       -14.2800
 132   2.0000      -0.521140       -14.1810
 133   2.0000      -0.519096       -14.1253
 134   2.0000      -0.517093       -14.0708
 135   2.0000      -0.513018       -13.9599
 136   2.0000      -0.509065       -13.8524
 137   2.0000      -0.508998       -13.8505
 138   2.0000      -0.507404       -13.8072
 139   2.0000      -0.505706       -13.7610
 140   2.0000      -0.501615       -13.6496
 141   2.0000      -0.496784       -13.5182
 142   2.0000      -0.494300       -13.4506
 143   2.0000      -0.490939       -13.3591
 144   2.0000      -0.486467       -13.2374
 145   2.0000      -0.485624       -13.2145
 146   2.0000      -0.474152       -12.9023
 147   2.0000      -0.470220       -12.7953
 148   2.0000      -0.466304       -12.6888
 149   2.0000      -0.459172       -12.4947
 150   2.0000      -0.457238       -12.4421
 151   2.0000      -0.453962       -12.3529
 152   2.0000      -0.453468       -12.3395
 153   2.0000      -0.451727       -12.2921
 154   2.0000      -0.450040       -12.2462
 155   2.0000      -0.442030       -12.0283
 156   2.0000      -0.440102       -11.9758
 157   2.0000      -0.438200       -11.9240
 158   2.0000      -0.433363       -11.7924
 159   2.0000      -0.432245       -11.7620
 160   2.0000      -0.424745       -11.5579
 161   2.0000      -0.423744       -11.5307
 162   2.0000      -0.422625       -11.5002
 163   2.0000      -0.416806       -11.3419
 164   2.0000      -0.416341       -11.3292
 165   2.0000      -0.412098       -11.2138
 166   2.0000      -0.409128       -11.1329
 167   2.0000      -0.405134       -11.0243
 168   2.0000      -0.402006       -10.9391
 169   2.0000      -0.395451       -10.7608
 170   2.0000      -0.393954       -10.7200
 171   2.0000      -0.390053       -10.6139
 172   2.0000      -0.386484       -10.5168
 173   2.0000      -0.383544       -10.4368
 174   2.0000      -0.374506       -10.1908
 175   2.0000      -0.366635        -9.9766
 176   2.0000      -0.363181        -9.8827
 177   2.0000      -0.352142        -9.5823
 178   2.0000      -0.347350        -9.4519
 179   2.0000      -0.330694        -8.9987
 180   2.0000      -0.324693        -8.8353
 181   2.0000      -0.317453        -8.6383
 182   2.0000      -0.311587        -8.4787
 183   2.0000      -0.308858        -8.4045
 184   2.0000      -0.305638        -8.3168
 185   2.0000      -0.302006        -8.2180
 186   2.0000      -0.291153        -7.9227
 187   2.0000      -0.285566        -7.7706
 188   2.0000      -0.278774        -7.5858
 189   2.0000      -0.258107        -7.0235
 190   2.0000      -0.216527        -5.8920
 191   0.0000      -0.087076        -2.3695
 192   0.0000      -0.051563        -1.4031
 193   0.0000      -0.043638        -1.1875
 194   0.0000      -0.030738        -0.8364
 195   0.0000      -0.006983        -0.1900

MULLIKEN ATOMIC CHARGES
-----------------------
   0 C :   -0.100477
   1 C :    0.038455
   2 C :    0.017245
   3 C :    0.072624
   4 C :   -0.145445
   5 S :    0.133862
   6 C :   -0.120624
   7 C :    0.060384
   8 C :   -0.010101
   9 C :   -0.068925
  10 S :    0.125084
  11 C :    0.101576
  12 C :   -0.016324
  13 C :   -0.026301
  14 C :   -0.099635
  15 C :   -0.016545
  16 C :    0.070650
  17 N :    0.036201
  18 C :   -0.173890
  19 C :   -0.179279
  20 N :    0.016843
  21 C :    0.126606
  22 C :    0.122233
  23 C :   -0.218918
  24 S :    0.201113
  25 C :   -0.022377
  26 N :   -0.087337
  27 N :   -0.043204
  28 C :   -0.020375
  29 C :   -0.032201
  30 C :   -0.017413
  31 N :    0.103462
  32 O :   -0.090242
  33 N :    0.050454
  34 C :    0.066385
  35 C :   -0.031656
  36 C :   -0.055967
  37 C :    0.041357
  38 C :    0.262147
  39 C :   -0.167991
  40 O :   -0.159859
  41 C :    0.068370
  42 N :   -0.054147
  43 C :    0.031240
  44 C :   -0.000171
  45 C :    0.042022
  46 C :    0.019375
  47 C :   -0.037567
  48 N :   -0.019392
  49 C :    0.022213
  50 C :    0.020642
  51 N :    0.012731
  52 C :   -0.016820
  53 H :    0.047859
  54 H :   -0.004310
  55 H :    0.036642
  56 H :   -0.003882
  57 H :    0.024664
  58 H :   -0.027434
  59 H :   -0.027046
  60 H :    0.023186
  61 H :    0.024863
  62 H :    0.022340
  63 H :    0.041986
  64 H :    0.021974
  65 H :    0.023858
  66 H :   -0.008199
  67 H :   -0.026352
  68 H :   -0.004595
  69 H :    0.003712
  70 H :   -0.002050
  71 H :   -0.020742
  72 H :    0.010507
  73 H :    0.012925
Sum of atomic charges:   -0.0000000

LOEWDIN ATOMIC CHARGES
----------------------
   0 C :   -0.180200
   1 C :   -0.025468
   2 C :   -0.013097
   3 C :   -0.045570
   4 C :   -0.144203
   5 S :    0.459004
   6 C :   -0.204626
   7 C :   -0.035112
   8 C :   -0.063838
   9 C :   -0.167156
  10 S :    0.421308
  11 C :   -0.056282
  12 C :    0.002152
  13 C :   -0.057612
  14 C :   -0.149353
  15 C :   -0.061902
  16 C :   -0.034617
  17 N :   -0.036746
  18 C :    0.007323
  19 C :   -0.010456
  20 N :   -0.045818
  21 C :   -0.053582
  22 C :   -0.052877
  23 C :   -0.214282
  24 S :    0.511736
  25 C :   -0.016954
  26 N :   -0.091088
  27 N :   -0.040249
  28 C :   -0.014677
  29 C :   -0.057051
  30 C :   -0.065305
  31 N :    0.016290
  32 O :    0.073961
  33 N :   -0.021211
  34 C :   -0.041189
  35 C :   -0.019686
  36 C :   -0.025143
  37 C :   -0.026098
  38 C :    0.027540
  39 C :   -0.011101
  40 O :    0.019815
  41 C :    0.074027
  42 N :   -0.109143
  43 C :   -0.048931
  44 C :    0.023091
  45 C :   -0.017226
  46 C :   -0.001390
  47 C :   -0.014354
  48 N :   -0.039439
  49 C :    0.000383
  50 C :    0.004509
  51 N :   -0.032210
  52 C :   -0.005137
  53 H :    0.032814
  54 H :    0.041160
  55 H :    0.035576
  56 H :    0.032003
  57 H :    0.023201
  58 H :    0.020548
  59 H :    0.032864
  60 H :    0.036212
  61 H :    0.036925
  62 H :    0.036403
  63 H :    0.044292
  64 H :    0.036525
  65 H :    0.036939
  66 H :    0.028582
  67 H :    0.034030
  68 H :    0.039616
  69 H :    0.039423
  70 H :    0.034409
  71 H :    0.036230
  72 H :    0.025151
  73 H :    0.026340

  Mayer bond orders larger than 0.100000
B(  0-C ,  1-C ) :   1.6496 B(  0-C ,  5-S ) :   1.1069 B(  0-C , 53-H ) :   0.9387
B(  1-C ,  2-C ) :   1.2185 B(  1-C , 54-H ) :   0.9689 B(  2-C ,  3-C ) :   1.0593
B(  2-C , 11-C ) :   1.3961 B(  3-C ,  4-C ) :   1.5954 B(  3-C ,  6-C ) :   1.1828
B(  4-C ,  5-S ) :   1.1456 B(  4-C , 55-H ) :   0.9421 B(  6-C ,  7-C ) :   1.4616
B(  6-C , 10-S ) :   1.0768 B(  7-C ,  8-C ) :   1.2182 B(  7-C , 11-C ) :   1.0687
B(  8-C ,  9-C ) :   1.5852 B(  8-C , 56-H ) :   1.0018 B(  9-C , 10-S ) :   1.1572
B(  9-C , 57-H ) :   0.9639 B( 11-C , 12-C ) :   1.1906 B( 12-C , 13-C ) :   1.5207
B( 12-C , 58-H ) :   0.9656 B( 13-C , 14-C ) :   1.2384 B( 13-C , 59-H ) :   0.9848
B( 14-C , 15-C ) :   1.3045 B( 14-C , 23-C ) :   0.1415 B( 14-C , 24-S ) :   1.1383
B( 15-C , 16-C ) :   1.2301 B( 15-C , 20-N ) :   1.4145 B( 16-C , 17-N ) :   1.4423
B( 16-C , 23-C ) :   1.3287 B( 17-N , 18-C ) :   1.7182 B( 18-C , 19-C ) :   1.1303
B( 18-C , 22-C ) :   1.0929 B( 19-C , 20-N ) :   1.7231 B( 19-C , 21-C ) :   1.0950
B( 21-C , 60-H ) :   0.9417 B( 21-C , 61-H ) :   0.9423 B( 21-C , 62-H ) :   0.9424
B( 22-C , 63-H ) :   0.9424 B( 22-C , 64-H ) :   0.9401 B( 22-C , 65-H ) :   0.9411
B( 23-C , 24-S ) :   1.1321 B( 23-C , 25-C ) :   1.2357 B( 25-C , 26-N ) :   1.7093
B( 25-C , 28-C ) :   0.1078 B( 25-C , 30-C ) :   1.0700 B( 26-N , 27-N ) :   1.2030
B( 27-N , 28-C ) :   1.7301 B( 28-C , 29-C ) :   1.0599 B( 28-C , 34-C ) :   1.0694
B( 29-C , 30-C ) :   1.1510 B( 29-C , 33-N ) :   1.6152 B( 30-C , 31-N ) :   1.6372
B( 31-N , 32-O ) :   1.0594 B( 31-N , 33-N ) :   0.1769 B( 32-O , 33-N ) :   1.0472
B( 34-C , 35-C ) :   1.3160 B( 34-C , 39-C ) :   1.3062 B( 35-C , 36-C ) :   1.3910
B( 35-C , 66-H ) :   0.9670 B( 36-C , 37-C ) :   1.2872 B( 36-C , 39-C ) :   0.1045
B( 36-C , 67-H ) :   1.0201 B( 37-C , 38-C ) :   1.2552 B( 37-C , 42-N ) :   1.3048
B( 38-C , 39-C ) :   1.2589 B( 38-C , 40-O ) :   1.1073 B( 39-C , 68-H ) :   1.0421
B( 40-O , 41-C ) :   1.2014 B( 41-C , 42-N ) :   1.7650 B( 41-C , 43-C ) :   0.9810
B( 43-C , 44-C ) :   1.5175 B( 43-C , 46-C ) :   0.1127 B( 43-C , 52-C ) :   1.1953
B( 44-C , 45-C ) :   1.2265 B( 44-C , 69-H ) :   0.9920 B( 45-C , 46-C ) :   1.4282
B( 45-C , 70-H ) :   0.9909 B( 46-C , 47-C ) :   1.2593 B( 46-C , 71-H ) :   1.0090
B( 47-C , 48-N ) :   1.4246 B( 47-C , 52-C ) :   1.2379 B( 48-N , 49-C ) :   1.6751
B( 49-C , 50-C ) :   1.2234 B( 49-C , 72-H ) :   0.9737 B( 50-C , 51-N ) :   1.6647
B( 50-C , 73-H ) :   0.9748 B( 51-N , 52-C ) :   1.5000

-----------------------------------------------------------------------------
         ABSORPTION SPECTRUM VIA TRANSITION ELECTRIC DIPOLE MOMENTS
-----------------------------------------------------------------------------
State   Energy  Wavelength   fosc         T2         TX        TY        TZ
        (cm-1)    (nm)                  (au**2)     (au)      (au)      (au)
-----------------------------------------------------------------------------
   0   13432.2    744.5   1.083715298  26.56103  -0.34686   5.13085   0.33932
   1   20477.4    488.3   0.000588741   0.00947  -0.06895  -0.02606   0.06349
   2   21309.4    469.3   0.352129770   5.44010  -1.50178  -0.59557   1.68228
   3   22697.7    440.6   0.360299282   5.22584   1.40798   0.57636  -1.70624
   4   23244.4    430.2   0.046509269   0.65871  -0.24184  -0.70810   0.31437
   5   25912.9    385.9   0.001434342   0.01822   0.03210   0.00568   0.13100
   6   26576.2    376.3   0.172777752   2.14028   0.76066   0.62857  -1.08008
   7   27138.9    368.5   0.089424954   1.08478   0.58450  -0.41342  -0.75646
   8   28553.2    350.2   0.196988098   2.27123   0.85769  -0.64233  -1.05972
   9   29146.7    343.1   0.176631965   1.99506  -0.58433   1.17187   0.52948
  10   29443.6    339.6   0.004819712   0.05389   0.18583  -0.04723   0.13087
  11   30729.9    325.4   0.092043964   0.98608  -0.65904   0.28321   0.68668
  12   30925.1    323.4   0.004103075   0.04368  -0.02624  -0.20669  -0.01638
  13   31619.4    316.3   0.028839478   0.30027   0.41044   0.00298  -0.36304
  14   31774.5    314.7   0.039469828   0.40894  -0.28375   0.07905   0.56761
  15   32722.9    305.6   0.127412446   1.28185   0.51719   0.66486  -0.75652
  16   33756.1    296.2   0.006852966   0.06683  -0.09226  -0.13028  -0.20335
  17   34403.1    290.7   0.142129351   1.36007  -0.72899   0.48402   0.77096
  18   34766.9    287.6   0.300370844   2.84425   0.73560   1.17441  -0.96119
  19   35285.5    283.4   0.050692912   0.47296  -0.05916   0.67022   0.14236
  20   35816.0    279.2   0.078554629   0.72205   0.52476   0.37272  -0.55476
  21   36542.4    273.7   0.098709540   0.88928  -0.66817  -0.00034   0.66545
  22   37762.4    264.8   0.073363025   0.63958  -0.38262  -0.52345   0.46816
  23   38062.5    262.7   0.026081069   0.22558   0.32982  -0.24587  -0.23737
  24   38178.7    261.9   0.037395012   0.32245  -0.20979   0.19727   0.48941
  25   38417.5    260.3   0.056898888   0.48758   0.45970  -0.08716  -0.51833
  26   38721.2    258.3   0.000552468   0.00470  -0.05974  -0.00577  -0.03309
  27   39118.1    255.6   0.020183369   0.16986  -0.26965  -0.04088   0.30900
  28   39470.5    253.4   0.176275272   1.47026  -0.74812  -0.09240   0.94976
  29   40106.0    249.3   0.000099747   0.00082   0.02379  -0.01118  -0.01131

FINAL SINGLE POINT ENERGY     -3333.404953059823

DIPOLE MOMENT
-------------
                                X             Y             Z
Electronic contribution:     11.46310      -1.19231     -11.31577
Nuclear contribution   :    -11.25124      -1.22691      10.96858
                        -----------------------------------------
Total Dipole Moment    :      0.21186      -2.41923      -0.34719
                        -----------------------------------------
Magnitude (a.u.)       :      2.45318
Magnitude (Debye)      :      6.23548

Rotational constants in cm-1:     0.001894     0.000556     0.000431
Rotational constants in MHz :    56.784735    16.679701    12.917932

                             ****ORCA TERMINATED NORMALLY****
TOTAL RUN TIME: 0 days 0 hours 5 minutes 13 seconds 729 msec
