                         Program Version 4.2.0 -  RELEASE  -
|  1> # ORCA input file
|  2> # SCF done       -184.571766855035          0.000519456646
|  3> ! CAM-B3LYP def2-SVP def2/J RIJCOSX Grid4 TightSCF
|  4> %maxcore 5000
|  5> %tddft
|  6>     Mode sTDDFT
|  7>     Ethresh 5.0
|  8>     maxcore 5000
|  9> end
| 10>
| 11> %pal
| 12>   nprocs 6
| 13>   end
| 14> * xyz 0 1
| 15>    C        1.11794        -0.80096        -2.25174
| 16>    C        0.49053         0.32765        -1.85010
| 17>    C       -0.74860         0.33787        -1.17784
| 18>    C       -1.47145        -0.92681        -0.96743
| 19>    C       -0.99705        -2.15180        -1.28621
| 20>    S        0.53354        -2.41401        -2.01494
| 21>    C       -2.71521        -0.56097        -0.38296
| 22>    C       -2.77077         0.82184        -0.23668
| 23>    C       -3.98375         1.24894         0.34560
| 24>    C       -4.80201         0.19842         0.61797
| 25>    S       -4.13896        -1.34117         0.18601
| 26>    C       -1.53285         1.39796        -0.70896
| 27>    C       -1.27873         2.79312        -0.64270
| 28>    C       -0.07034         3.40896        -0.69200
| 29>    C        0.11692         4.81266        -0.62416
| 30>    C       -0.82398         5.83107        -0.58044
| 31>    C       -0.23472         7.09120        -0.52056
| 32>    C        1.17131         7.04477        -0.51816
| 33>    S        1.76087         5.44218        -0.59213
| 34>    C        1.66533         8.36707        -0.45694
| 35>    C        0.57469         9.25666        -0.42618
| 36>    C       -0.65385         8.48371        -0.45854
| 37>    C       -1.93334         8.95945        -0.42376
| 38>    C       -3.05230         8.10263        -0.44355
| 39>    N       -3.96542         7.40811        -0.45603
| 40>    C       -2.22007        10.33819        -0.35859
| 41>    N       -2.45786        11.45893        -0.30209
| 42>    C        0.96462        10.59356        -0.36461
| 43>    C        2.34014        10.73724        -0.33942
| 44>    S        3.16635         9.17713        -0.40037
| 45>    C        3.09460        11.94143        -0.26532
| 46>    C        4.46394        11.95178        -0.14705
| 47>    C        5.25088        13.09647        -0.05674
| 48>    C        4.65092        14.43235        -0.09346
| 49>    C        3.32540        14.66348        -0.20750
| 50>    S        2.14426        13.42336        -0.32648
| 51>    C        5.74397        15.33396         0.02694
| 52>    C        6.94243        14.62587         0.14236
| 53>    C        8.04954        15.49786         0.25379
| 54>    C        7.67092        16.80257         0.22547
| 55>    S        5.96530        17.03697         0.06177
| 56>    C        6.64908        13.21330         0.09562
| 57>    C        7.52504        12.11331         0.19328
| 58>    C        8.86251        12.15200         0.44582
| 59>    C        9.67365        10.99956         0.55036
| 60>    C        9.32972         9.66441         0.37513
| 61>    C       10.40552         8.80956         0.58116
| 62>    C       11.59406         9.48197         0.91926
| 63>    S       11.37428        11.17837         0.97411
| 64>    C       12.61087         8.52149         1.11642
| 65>    C       12.07243         7.23942         0.90019
| 66>    C       10.67218         7.37706         0.55372
| 67>    C        9.78215         6.38274         0.26197
| 68>    C        8.43473         6.65125        -0.05208
| 69>    N        7.33606         6.86463        -0.30564
| 70>    C       10.14762         5.02134         0.25455
| 71>    N       10.43913         3.91183         0.24445
| 72>    C       13.00660         6.21790         1.08449
| 73>    C       14.25042         6.70134         1.43823
| 74>    S       14.26486         8.46395         1.54386
| 75>    C       15.43491         5.95829         1.71829
| 76>    C       16.62643         6.55038         2.04406
| 77>    C       17.81371         5.86884         2.32984
| 78>    C       17.87983         4.40034         2.20543
| 79>    C       16.82257         3.61580         1.91180
| 80>    S       15.23809         4.20734         1.62392
| 81>    C       19.23625         4.06383         2.45643
| 82>    C       19.96175         5.22693         2.72208
| 83>    C       21.32300         4.95496         2.98824
| 84>    C       21.58992         3.62549         2.91644
| 85>    S       20.21093         2.64894         2.52929
| 86>    C       19.07808         6.35776         2.66546
| 87>    C       19.51112         7.70490         2.92823
| 88>    C       18.76350         8.71165         3.37766
| 89>    H        2.06184        -0.78060        -2.76947
| 90>    H        0.96108         1.26912        -2.09068
| 91>    H       -1.55673        -3.05418        -1.09757
| 92>    H       -4.24529         2.27070         0.55319
| 93>    H       -5.78022         0.22421         1.05701
| 94>    H       -2.15821         3.40443        -0.48866
| 95>    H        0.83514         2.82305        -0.74617
| 96>    H       -1.88333         5.65509        -0.59709
| 97>    H        0.28983        11.43013        -0.33282
| 98>    H        4.94928        10.98509        -0.11607
| 99>    H        2.90652        15.65711        -0.22774
|100>    H        9.07760        15.19957         0.34422
|101>    H        8.30027        17.66858         0.29108
|102>    H        7.06530        11.14263         0.07082
|103>    H        9.35683        13.09801         0.60188
|104>    H        8.34109         9.34109         0.10804
|105>    H       12.79866         5.16929         0.96946
|106>    H       16.64555         7.63173         2.05204
|107>    H       16.89703         2.54180         1.84260
|108>    H       22.06592         5.69666         3.22025
|109>    H       22.53099         3.13421         3.06999
|110>    H       20.57097         7.87044         2.77194
|111>    H       17.72181         8.59742         3.62132
|112>    H       19.18746         9.68625         3.54891
|113> *
|114>
|115>                          ****END OF INPUT****

CARTESIAN COORDINATES (ANGSTROEM)
---------------------------------
  C      1.117940   -0.800960   -2.251740
  C      0.490530    0.327650   -1.850100
  C     -0.748600    0.337870   -1.177840
  C     -1.471450   -0.926810   -0.967430
  C     -0.997050   -2.151800   -1.286210
  S      0.533540   -2.414010   -2.014940
  C     -2.715210   -0.560970   -0.382960
  C     -2.770770    0.821840   -0.236680
  C     -3.983750    1.248940    0.345600
  C     -4.802010    0.198420    0.617970
  S     -4.138960   -1.341170    0.186010
  C     -1.532850    1.397960   -0.708960
  C     -1.278730    2.793120   -0.642700
  C     -0.070340    3.408960   -0.692000
  C      0.116920    4.812660   -0.624160
  C     -0.823980    5.831070   -0.580440
  C     -0.234720    7.091200   -0.520560
  C      1.171310    7.044770   -0.518160
  S      1.760870    5.442180   -0.592130
  C      1.665330    8.367070   -0.456940
  C      0.574690    9.256660   -0.426180
  C     -0.653850    8.483710   -0.458540
  C     -1.933340    8.959450   -0.423760
  C     -3.052300    8.102630   -0.443550
  N     -3.965420    7.408110   -0.456030
  C     -2.220070   10.338190   -0.358590
  N     -2.457860   11.458930   -0.302090
  C      0.964620   10.593560   -0.364610
  C      2.340140   10.737240   -0.339420
  S      3.166350    9.177130   -0.400370
  C      3.094600   11.941430   -0.265320
  C      4.463940   11.951780   -0.147050
  C      5.250880   13.096470   -0.056740
  C      4.650920   14.432350   -0.093460
  C      3.325400   14.663480   -0.207500
  S      2.144260   13.423360   -0.326480
  C      5.743970   15.333960    0.026940
  C      6.942430   14.625870    0.142360
  C      8.049540   15.497860    0.253790
  C      7.670920   16.802570    0.225470
  S      5.965300   17.036970    0.061770
  C      6.649080   13.213300    0.095620
  C      7.525040   12.113310    0.193280
  C      8.862510   12.152000    0.445820
  C      9.673650   10.999560    0.550360
  C      9.329720    9.664410    0.375130
  C     10.405520    8.809560    0.581160
  C     11.594060    9.481970    0.919260
  S     11.374280   11.178370    0.974110
  C     12.610870    8.521490    1.116420
  C     12.072430    7.239420    0.900190
  C     10.672180    7.377060    0.553720
  C      9.782150    6.382740    0.261970
  C      8.434730    6.651250   -0.052080
  N      7.336060    6.864630   -0.305640
  C     10.147620    5.021340    0.254550
  N     10.439130    3.911830    0.244450
  C     13.006600    6.217900    1.084490
  C     14.250420    6.701340    1.438230
  S     14.264860    8.463950    1.543860
  C     15.434910    5.958290    1.718290
  C     16.626430    6.550380    2.044060
  C     17.813710    5.868840    2.329840
  C     17.879830    4.400340    2.205430
  C     16.822570    3.615800    1.911800
  S     15.238090    4.207340    1.623920
  C     19.236250    4.063830    2.456430
  C     19.961750    5.226930    2.722080
  C     21.323000    4.954960    2.988240
  C     21.589920    3.625490    2.916440
  S     20.210930    2.648940    2.529290
  C     19.078080    6.357760    2.665460
  C     19.511120    7.704900    2.928230
  C     18.763500    8.711650    3.377660
  H      2.061840   -0.780600   -2.769470
  H      0.961080    1.269120   -2.090680
  H     -1.556730   -3.054180   -1.097570
  H     -4.245290    2.270700    0.553190
  H     -5.780220    0.224210    1.057010
  H     -2.158210    3.404430   -0.488660
  H      0.835140    2.823050   -0.746170
  H     -1.883330    5.655090   -0.597090
  H      0.289830   11.430130   -0.332820
  H      4.949280   10.985090   -0.116070
  H      2.906520   15.657110   -0.227740
  H      9.077600   15.199570    0.344220
  H      8.300270   17.668580    0.291080
  H      7.065300   11.142630    0.070820
  H      9.356830   13.098010    0.601880
  H      8.341090    9.341090    0.108040
  H     12.798660    5.169290    0.969460
  H     16.645550    7.631730    2.052040
  H     16.897030    2.541800    1.842600
  H     22.065920    5.696660    3.220250
  H     22.530990    3.134210    3.069990
  H     20.570970    7.870440    2.771940
  H     17.721810    8.597420    3.621320
  H     19.187460    9.686250    3.548910

 Total Charge           Charge          ....    0
 Multiplicity           Mult            ....    1
 Number of Electrons    NEL             ....  572
 Basis Dimension        Dim             .... 1196

ORBITAL ENERGIES
----------------

  NO   OCC          E(Eh)            E(eV)
   0   2.0000     -88.982657     -2421.3412
   1   2.0000     -88.981036     -2421.2971
   2   2.0000     -88.977092     -2421.1898
   3   2.0000     -88.976412     -2421.1713
   4   2.0000     -88.975295     -2421.1409
   5   2.0000     -88.972374     -2421.0614
   6   2.0000     -88.966605     -2420.9044
   7   2.0000     -88.956165     -2420.6203
   8   2.0000     -88.950349     -2420.4620
   9   2.0000     -88.948383     -2420.4086
  10   2.0000     -14.426342      -392.5607
  11   2.0000     -14.424452      -392.5093
  12   2.0000     -14.424081      -392.4992
  13   2.0000     -14.423833      -392.4925
  14   2.0000     -10.356700      -281.8201
  15   2.0000     -10.356528      -281.8155
  16   2.0000     -10.344809      -281.4966
  17   2.0000     -10.344480      -281.4876
  18   2.0000     -10.328352      -281.0487
  19   2.0000     -10.327653      -281.0297
  20   2.0000     -10.327133      -281.0156
  21   2.0000     -10.326418      -280.9961
  22   2.0000     -10.325196      -280.9629
  23   2.0000     -10.324758      -280.9509
  24   2.0000     -10.324749      -280.9507
  25   2.0000     -10.324641      -280.9478
  26   2.0000     -10.322657      -280.8938
  27   2.0000     -10.319500      -280.8079
  28   2.0000     -10.319122      -280.7976
  29   2.0000     -10.319081      -280.7965
  30   2.0000     -10.316884      -280.7367
  31   2.0000     -10.316599      -280.7289
  32   2.0000     -10.316016      -280.7131
  33   2.0000     -10.312866      -280.6273
  34   2.0000     -10.312392      -280.6144
  35   2.0000     -10.310063      -280.5511
  36   2.0000     -10.296903      -280.1930
  37   2.0000     -10.295611      -280.1578
  38   2.0000     -10.295543      -280.1560
  39   2.0000     -10.295220      -280.1472
  40   2.0000     -10.294226      -280.1201
  41   2.0000     -10.294005      -280.1141
  42   2.0000     -10.293503      -280.1005
  43   2.0000     -10.293033      -280.0877
  44   2.0000     -10.292017      -280.0600
  45   2.0000     -10.291829      -280.0549
  46   2.0000     -10.291133      -280.0360
  47   2.0000     -10.290488      -280.0184
  48   2.0000     -10.288804      -279.9726
  49   2.0000     -10.288382      -279.9611
  50   2.0000     -10.287230      -279.9297
  51   2.0000     -10.286507      -279.9101
  52   2.0000     -10.286278      -279.9038
  53   2.0000     -10.286116      -279.8995
  54   2.0000     -10.286051      -279.8977
  55   2.0000     -10.281587      -279.7762
  56   2.0000     -10.280536      -279.7476
  57   2.0000     -10.279601      -279.7222
  58   2.0000     -10.278528      -279.6930
  59   2.0000     -10.278257      -279.6856
  60   2.0000     -10.278120      -279.6819
  61   2.0000     -10.276927      -279.6494
  62   2.0000     -10.275033      -279.5979
  63   2.0000     -10.274679      -279.5882
  64   2.0000     -10.274289      -279.5776
  65   2.0000     -10.274027      -279.5705
  66   2.0000     -10.268950      -279.4323
  67   2.0000     -10.268642      -279.4240
  68   2.0000     -10.268159      -279.4108
  69   2.0000     -10.267118      -279.3825
  70   2.0000     -10.266197      -279.3574
  71   2.0000     -10.263897      -279.2948
  72   2.0000     -10.263312      -279.2789
  73   2.0000     -10.255996      -279.0799
  74   2.0000      -8.076888      -219.7833
  75   2.0000      -8.075286      -219.7397
  76   2.0000      -8.071671      -219.6413
  77   2.0000      -8.071195      -219.6284
  78   2.0000      -8.070391      -219.6065
  79   2.0000      -8.068239      -219.5479
  80   2.0000      -8.061832      -219.3736
  81   2.0000      -8.051616      -219.0956
  82   2.0000      -8.045657      -218.9335
  83   2.0000      -8.043708      -218.8804
  84   2.0000      -6.046204      -164.5256
  85   2.0000      -6.044614      -164.4823
  86   2.0000      -6.042065      -164.4129
  87   2.0000      -6.040864      -164.3803
  88   2.0000      -6.040483      -164.3699
  89   2.0000      -6.040386      -164.3673
  90   2.0000      -6.040026      -164.3575
  91   2.0000      -6.039111      -164.3326
  92   2.0000      -6.037702      -164.2942
  93   2.0000      -6.037522      -164.2893
  94   2.0000      -6.036816      -164.2701
  95   2.0000      -6.036269      -164.2552
  96   2.0000      -6.035457      -164.2331
  97   2.0000      -6.034088      -164.1959
  98   2.0000      -6.033602      -164.1826
  99   2.0000      -6.033076      -164.1684
 100   2.0000      -6.032197      -164.1444
 101   2.0000      -6.031524      -164.1261
 102   2.0000      -6.030374      -164.0948
 103   2.0000      -6.026950      -164.0017
 104   2.0000      -6.023509      -163.9080
 105   2.0000      -6.021015      -163.8402
 106   2.0000      -6.016800      -163.7255
 107   2.0000      -6.015139      -163.6802
 108   2.0000      -6.013696      -163.6410
 109   2.0000      -6.013193      -163.6273
 110   2.0000      -6.010883      -163.5644
 111   2.0000      -6.008935      -163.5114
 112   2.0000      -6.007673      -163.4771
 113   2.0000      -6.005701      -163.4234
 114   2.0000      -1.035378       -28.1741
 115   2.0000      -1.034690       -28.1554
 116   2.0000      -1.016071       -27.6487
 117   2.0000      -1.015273       -27.6270
 118   2.0000      -1.005856       -27.3707
 119   2.0000      -1.002902       -27.2904
 120   2.0000      -1.001534       -27.2531
 121   2.0000      -0.999525       -27.1985
 122   2.0000      -0.997761       -27.1505
 123   2.0000      -0.990293       -26.9473
 124   2.0000      -0.987247       -26.8644
 125   2.0000      -0.968746       -26.3609
 126   2.0000      -0.963369       -26.2146
 127   2.0000      -0.962991       -26.2043
 128   2.0000      -0.949491       -25.8370
 129   2.0000      -0.947739       -25.7893
 130   2.0000      -0.927886       -25.2491
 131   2.0000      -0.922039       -25.0899
 132   2.0000      -0.918966       -25.0063
 133   2.0000      -0.910831       -24.7850
 134   2.0000      -0.906208       -24.6592
 135   2.0000      -0.891510       -24.2592
 136   2.0000      -0.884491       -24.0682
 137   2.0000      -0.878826       -23.9141
 138   2.0000      -0.872820       -23.7506
 139   2.0000      -0.868338       -23.6287
 140   2.0000      -0.857972       -23.3466
 141   2.0000      -0.856795       -23.3146
 142   2.0000      -0.854907       -23.2632
 143   2.0000      -0.844417       -22.9778
 144   2.0000      -0.842534       -22.9265
 145   2.0000      -0.838152       -22.8073
 146   2.0000      -0.836269       -22.7560
 147   2.0000      -0.827030       -22.5046
 148   2.0000      -0.815336       -22.1864
 149   2.0000      -0.810183       -22.0462
 150   2.0000      -0.799577       -21.7576
 151   2.0000      -0.796257       -21.6673
 152   2.0000      -0.789005       -21.4699
 153   2.0000      -0.778519       -21.1846
 154   2.0000      -0.773324       -21.0432
 155   2.0000      -0.766065       -20.8457
 156   2.0000      -0.760848       -20.7037
 157   2.0000      -0.752190       -20.4681
 158   2.0000      -0.737413       -20.0660
 159   2.0000      -0.732879       -19.9426
 160   2.0000      -0.716274       -19.4908
 161   2.0000      -0.713437       -19.4136
 162   2.0000      -0.707991       -19.2654
 163   2.0000      -0.705905       -19.2086
 164   2.0000      -0.695966       -18.9382
 165   2.0000      -0.689013       -18.7490
 166   2.0000      -0.682272       -18.5656
 167   2.0000      -0.674485       -18.3537
 168   2.0000      -0.668227       -18.1834
 169   2.0000      -0.666693       -18.1416
 170   2.0000      -0.659951       -17.9582
 171   2.0000      -0.652321       -17.7506
 172   2.0000      -0.650198       -17.6928
 173   2.0000      -0.645702       -17.5704
 174   2.0000      -0.638258       -17.3679
 175   2.0000      -0.629096       -17.1186
 176   2.0000      -0.626144       -17.0382
 177   2.0000      -0.624881       -17.0039
 178   2.0000      -0.623101       -16.9554
 179   2.0000      -0.620370       -16.8811
 180   2.0000      -0.611209       -16.6318
 181   2.0000      -0.607767       -16.5382
 182   2.0000      -0.606571       -16.5056
 183   2.0000      -0.604875       -16.4595
 184   2.0000      -0.602174       -16.3860
 185   2.0000      -0.591294       -16.0899
 186   2.0000      -0.587419       -15.9845
 187   2.0000      -0.583196       -15.8696
 188   2.0000      -0.576148       -15.6778
 189   2.0000      -0.572023       -15.5655
 190   2.0000      -0.566161       -15.4060
 191   2.0000      -0.561487       -15.2788
 192   2.0000      -0.560196       -15.2437
 193   2.0000      -0.555169       -15.1069
 194   2.0000      -0.549449       -14.9513
 195   2.0000      -0.543957       -14.8018
 196   2.0000      -0.541043       -14.7225
 197   2.0000      -0.538757       -14.6603
 198   2.0000      -0.538169       -14.6443
 199   2.0000      -0.536381       -14.5957
 200   2.0000      -0.531249       -14.4560
 201   2.0000      -0.523460       -14.2441
 202   2.0000      -0.520970       -14.1763
 203   2.0000      -0.517802       -14.0901
 204   2.0000      -0.512349       -13.9417
 205   2.0000      -0.510712       -13.8972
 206   2.0000      -0.507313       -13.8047
 207   2.0000      -0.504135       -13.7182
 208   2.0000      -0.503693       -13.7062
 209   2.0000      -0.503655       -13.7051
 210   2.0000      -0.502587       -13.6761
 211   2.0000      -0.499696       -13.5974
 212   2.0000      -0.497727       -13.5438
 213   2.0000      -0.496843       -13.5198
 214   2.0000      -0.496508       -13.5107
 215   2.0000      -0.495158       -13.4739
 216   2.0000      -0.491413       -13.3720
 217   2.0000      -0.484465       -13.1830
 218   2.0000      -0.483861       -13.1665
 219   2.0000      -0.482583       -13.1317
 220   2.0000      -0.480044       -13.0627
 221   2.0000      -0.475108       -12.9283
 222   2.0000      -0.469442       -12.7742
 223   2.0000      -0.466555       -12.6956
 224   2.0000      -0.464715       -12.6455
 225   2.0000      -0.460175       -12.5220
 226   2.0000      -0.458366       -12.4728
 227   2.0000      -0.457654       -12.4534
 228   2.0000      -0.455886       -12.4053
 229   2.0000      -0.454946       -12.3797
 230   2.0000      -0.453998       -12.3539
 231   2.0000      -0.452953       -12.3255
 232   2.0000      -0.452545       -12.3144
 233   2.0000      -0.451311       -12.2808
 234   2.0000      -0.450993       -12.2722
 235   2.0000      -0.447561       -12.1787
 236   2.0000      -0.445062       -12.1108
 237   2.0000      -0.441978       -12.0268
 238   2.0000      -0.439597       -11.9620
 239   2.0000      -0.438636       -11.9359
 240   2.0000      -0.436028       -11.8649
 241   2.0000      -0.434522       -11.8240
 242   2.0000      -0.434252       -11.8166
 243   2.0000      -0.433145       -11.7865
 244   2.0000      -0.432633       -11.7725
 245   2.0000      -0.431038       -11.7291
 246   2.0000      -0.429690       -11.6925
 247   2.0000      -0.428721       -11.6661
 248   2.0000      -0.428144       -11.6504
 249   2.0000      -0.425779       -11.5860
 250   2.0000      -0.423185       -11.5155
 251   2.0000      -0.422128       -11.4867
 252   2.0000      -0.420946       -11.4545
 253   2.0000      -0.419220       -11.4075
 254   2.0000      -0.416598       -11.3362
 255   2.0000      -0.415963       -11.3189
 256   2.0000      -0.409866       -11.1530
 257   2.0000      -0.409269       -11.1368
 258   2.0000      -0.408711       -11.1216
 259   2.0000      -0.407424       -11.0866
 260   2.0000      -0.403687       -10.9849
 261   2.0000      -0.401673       -10.9301
 262   2.0000      -0.398243       -10.8367
 263   2.0000      -0.390724       -10.6321
 264   2.0000      -0.387970       -10.5572
 265   2.0000      -0.379942       -10.3388
 266   2.0000      -0.375185       -10.2093
 267   2.0000      -0.373531       -10.1643
 268   2.0000      -0.349140        -9.5006
 269   2.0000      -0.344127        -9.3642
 270   2.0000      -0.341834        -9.3018
 271   2.0000      -0.339039        -9.2257
 272   2.0000      -0.337187        -9.1753
 273   2.0000      -0.323761        -8.8100
 274   2.0000      -0.321949        -8.7607
 275   2.0000      -0.319079        -8.6826
 276   2.0000      -0.313855        -8.5404
 277   2.0000      -0.313469        -8.5299
 278   2.0000      -0.288507        -7.8507
 279   2.0000      -0.286275        -7.7899
 280   2.0000      -0.276381        -7.5207
 281   2.0000      -0.269497        -7.3334
 282   2.0000      -0.260780        -7.0962
 283   2.0000      -0.235774        -6.4157
 284   2.0000      -0.223716        -6.0876
 285   2.0000      -0.209075        -5.6892
 286   0.0000      -0.099453        -2.7063
 287   0.0000      -0.096338        -2.6215
 288   0.0000      -0.064188        -1.7466
 289   0.0000      -0.050253        -1.3675
 290   0.0000      -0.044850        -1.2204

MULLIKEN ATOMIC CHARGES
-----------------------
   0 C :   -0.102316
   1 C :    0.029604
   2 C :    0.015853
   3 C :    0.062191
   4 C :   -0.147167
   5 S :    0.131248
   6 C :   -0.111789
   7 C :    0.052640
   8 C :    0.001832
   9 C :   -0.065852
  10 S :    0.121980
  11 C :    0.072802
  12 C :   -0.016490
  13 C :    0.021319
  14 C :   -0.074567
  15 C :   -0.042031
  16 C :    0.007142
  17 C :   -0.110612
  18 S :    0.185773
  19 C :   -0.087905
  20 C :    0.008921
  21 C :    0.304408
  22 C :   -0.299868
  23 C :   -0.184987
  24 N :    0.167934
  25 C :   -0.190129
  26 N :    0.168006
  27 C :   -0.055133
  28 C :   -0.071459
  29 S :    0.175076
  30 C :   -0.015816
  31 C :   -0.099048
  32 C :    0.060017
  33 C :    0.061873
  34 C :   -0.121426
  35 S :    0.133444
  36 C :   -0.115194
  37 C :    0.054990
  38 C :   -0.008771
  39 C :   -0.069663
  40 S :    0.129401
  41 C :    0.092782
  42 C :   -0.013552
  43 C :    0.034084
  44 C :   -0.068578
  45 C :   -0.049353
  46 C :    0.009157
  47 C :   -0.110608
  48 S :    0.175795
  49 C :   -0.091803
  50 C :    0.006676
  51 C :    0.309935
  52 C :   -0.307525
  53 C :   -0.173977
  54 N :    0.152143
  55 C :   -0.190897
  56 N :    0.167853
  57 C :   -0.058519
  58 C :   -0.060959
  59 S :    0.161611
  60 C :   -0.020727
  61 C :   -0.103996
  62 C :    0.053917
  63 C :    0.058861
  64 C :   -0.124593
  65 S :    0.118087
  66 C :   -0.110110
  67 C :    0.050693
  68 C :    0.009086
  69 C :   -0.071442
  70 S :    0.121886
  71 C :    0.044484
  72 C :   -0.033880
  73 C :   -0.031394
  74 H :    0.044870
  75 H :   -0.012968
  76 H :    0.034748
  77 H :   -0.013711
  78 H :    0.025040
  79 H :   -0.016680
  80 H :   -0.024435
  81 H :    0.004279
  82 H :    0.018421
  83 H :   -0.004199
  84 H :    0.037355
  85 H :   -0.014175
  86 H :    0.025145
  87 H :   -0.037874
  88 H :   -0.050527
  89 H :    0.000339
  90 H :    0.017660
  91 H :   -0.011653
  92 H :    0.035953
  93 H :   -0.019460
  94 H :    0.023009
  95 H :   -0.013580
  96 H :    0.013776
  97 H :    0.017297
Sum of atomic charges:   -0.0000000

LOEWDIN ATOMIC CHARGES
----------------------
   0 C :   -0.183694
   1 C :   -0.029528
   2 C :   -0.020545
   3 C :   -0.043163
   4 C :   -0.145435
   5 S :    0.454291
   6 C :   -0.209269
   7 C :   -0.038904
   8 C :   -0.064734
   9 C :   -0.165399
  10 S :    0.416211
  11 C :   -0.059968
  12 C :    0.001030
  13 C :   -0.068097
  14 C :   -0.150943
  15 C :   -0.038893
  16 C :   -0.062411
  17 C :   -0.199506
  18 S :    0.472644
  19 C :   -0.165788
  20 C :   -0.079529
  21 C :    0.085941
  22 C :   -0.106879
  23 C :   -0.015128
  24 N :   -0.038780
  25 C :   -0.016100
  26 N :   -0.037485
  27 C :   -0.037176
  28 C :   -0.188609
  29 S :    0.481104
  30 C :   -0.174367
  31 C :   -0.038370
  32 C :   -0.013695
  33 C :   -0.050203
  34 C :   -0.139099
  35 S :    0.460969
  36 C :   -0.201469
  37 C :   -0.037375
  38 C :   -0.067413
  39 C :   -0.167093
  40 S :    0.424635
  41 C :   -0.055420
  42 C :   -0.002428
  43 C :   -0.070298
  44 C :   -0.150634
  45 C :   -0.040794
  46 C :   -0.063260
  47 C :   -0.201502
  48 S :    0.463441
  49 C :   -0.168246
  50 C :   -0.081330
  51 C :    0.088250
  52 C :   -0.110021
  53 C :   -0.011700
  54 N :   -0.048124
  55 C :   -0.016792
  56 N :   -0.038045
  57 C :   -0.042531
  58 C :   -0.182124
  59 S :    0.469076
  60 C :   -0.182966
  61 C :   -0.035336
  62 C :   -0.024430
  63 C :   -0.049050
  64 C :   -0.140377
  65 S :    0.448416
  66 C :   -0.205500
  67 C :   -0.041068
  68 C :   -0.065069
  69 C :   -0.167938
  70 S :    0.414967
  71 C :   -0.053403
  72 C :   -0.019603
  73 C :   -0.057475
  74 H :    0.031364
  75 H :    0.037486
  76 H :    0.034939
  77 H :    0.031058
  78 H :    0.022984
  79 H :    0.031213
  80 H :    0.023136
  81 H :    0.037037
  82 H :    0.034421
  83 H :    0.026108
  84 H :    0.037290
  85 H :    0.027623
  86 H :    0.023279
  87 H :    0.027286
  88 H :    0.023054
  89 H :    0.034848
  90 H :    0.033802
  91 H :    0.026084
  92 H :    0.036310
  93 H :    0.029418
  94 H :    0.021786
  95 H :    0.028910
  96 H :    0.017414
  97 H :    0.022683

  Mayer bond orders larger than 0.100000
B(  0-C ,  1-C ) :   1.6524 B(  0-C ,  5-S ) :   1.1045 B(  0-C , 74-H ) :   0.9400
B(  1-C ,  2-C ) :   1.2003 B(  1-C , 75-H ) :   0.9702 B(  2-C ,  3-C ) :   1.0584
B(  2-C , 11-C ) :   1.4324 B(  3-C ,  4-C ) :   1.6018 B(  3-C ,  6-C ) :   1.1842
B(  4-C ,  5-S ) :   1.1436 B(  4-C , 76-H ) :   0.9420 B(  6-C ,  7-C ) :   1.4514
B(  6-C , 10-S ) :   1.0697 B(  7-C ,  8-C ) :   1.2221 B(  7-C , 11-C ) :   1.0926
B(  8-C ,  9-C ) :   1.5848 B(  8-C , 77-H ) :   0.9985 B(  9-C , 10-S ) :   1.1571
B(  9-C , 78-H ) :   0.9654 B( 11-C , 12-C ) :   1.1531 B( 12-C , 13-C ) :   1.6548
B( 12-C , 79-H ) :   0.9606 B( 13-C , 14-C ) :   1.1243 B( 13-C , 80-H ) :   0.9595
B( 14-C , 15-C ) :   1.4433 B( 14-C , 18-S ) :   1.1119 B( 15-C , 16-C ) :   1.3063
B( 15-C , 81-H ) :   0.9899 B( 16-C , 17-C ) :   1.4338 B( 16-C , 21-C ) :   0.9966
B( 17-C , 18-S ) :   1.1066 B( 17-C , 19-C ) :   1.2012 B( 19-C , 20-C ) :   1.4309
B( 19-C , 29-S ) :   1.1346 B( 20-C , 21-C ) :   1.0051 B( 20-C , 27-C ) :   1.2998
B( 21-C , 22-C ) :   1.7044 B( 22-C , 23-C ) :   1.1346 B( 22-C , 25-C ) :   1.1347
B( 23-C , 24-N ) :   2.9880 B( 25-C , 26-N ) :   2.9911 B( 27-C , 28-C ) :   1.4616
B( 27-C , 82-H ) :   0.9798 B( 28-C , 29-S ) :   1.0900 B( 28-C , 30-C ) :   1.1658
B( 30-C , 31-C ) :   1.5260 B( 30-C , 35-S ) :   1.0580 B( 31-C , 32-C ) :   1.2510
B( 31-C , 83-H ) :   0.9597 B( 32-C , 33-C ) :   1.0537 B( 32-C , 41-C ) :   1.3690
B( 33-C , 34-C ) :   1.6118 B( 33-C , 36-C ) :   1.1729 B( 34-C , 35-S ) :   1.1349
B( 34-C , 84-H ) :   0.9405 B( 36-C , 37-C ) :   1.4564 B( 36-C , 40-S ) :   1.0783
B( 37-C , 38-C ) :   1.2113 B( 37-C , 41-C ) :   1.0695 B( 38-C , 39-C ) :   1.5860
B( 38-C , 85-H ) :   1.0008 B( 39-C , 40-S ) :   1.1579 B( 39-C , 86-H ) :   0.9648
B( 41-C , 42-C ) :   1.1983 B( 42-C , 43-C ) :   1.6179 B( 42-C , 87-H ) :   0.9562
B( 43-C , 44-C ) :   1.1346 B( 43-C , 88-H ) :   0.9664 B( 44-C , 45-C ) :   1.4327
B( 44-C , 48-S ) :   1.1113 B( 45-C , 46-C ) :   1.3121 B( 45-C , 89-H ) :   0.9867
B( 46-C , 47-C ) :   1.4331 B( 46-C , 51-C ) :   0.9939 B( 47-C , 48-S ) :   1.0998
B( 47-C , 49-C ) :   1.2027 B( 49-C , 50-C ) :   1.4381 B( 49-C , 59-S ) :   1.1252
B( 50-C , 51-C ) :   1.0100 B( 50-C , 57-C ) :   1.2842 B( 51-C , 52-C ) :   1.6988
B( 52-C , 53-C ) :   1.1366 B( 52-C , 55-C ) :   1.1334 B( 53-C , 54-N ) :   2.9772
B( 55-C , 56-N ) :   2.9932 B( 57-C , 58-C ) :   1.4774 B( 57-C , 90-H ) :   0.9804
B( 58-C , 59-S ) :   1.0887 B( 58-C , 60-C ) :   1.1621 B( 60-C , 61-C ) :   1.5429
B( 60-C , 65-S ) :   1.0467 B( 61-C , 62-C ) :   1.2208 B( 61-C , 91-H ) :   0.9593
B( 62-C , 63-C ) :   1.0436 B( 62-C , 71-C ) :   1.4507 B( 63-C , 64-C ) :   1.6204
B( 63-C , 66-C ) :   1.1778 B( 64-C , 65-S ) :   1.1307 B( 64-C , 92-H ) :   0.9407
B( 66-C , 67-C ) :   1.4411 B( 66-C , 70-S ) :   1.0722 B( 67-C , 68-C ) :   1.2138
B( 67-C , 71-C ) :   1.1193 B( 68-C , 69-C ) :   1.5866 B( 68-C , 93-H ) :   0.9971
B( 69-C , 70-S ) :   1.1521 B( 69-C , 94-H ) :   0.9666 B( 71-C , 72-C ) :   1.0975
B( 72-C , 73-C ) :   1.9255 B( 72-C , 95-H ) :   0.9546 B( 73-C , 96-H ) :   0.9570
B( 73-C , 97-H ) :   0.9465

-----------------------------------------------------------------------------
         ABSORPTION SPECTRUM VIA TRANSITION ELECTRIC DIPOLE MOMENTS
-----------------------------------------------------------------------------
State   Energy  Wavelength   fosc         T2         TX        TY        TZ
        (cm-1)    (nm)                  (au**2)     (au)      (au)      (au)
-----------------------------------------------------------------------------
   0    8064.1   1240.1   0.178932581   7.30482   2.61965  -0.49081   0.44872
   1    9127.9   1095.5   0.143092614   5.16085  -0.69914  -2.15677  -0.14277
   2   14604.1    684.7   0.042766206   0.96406  -0.27027   0.94391  -0.00620
   3   14915.9    670.4   0.070594972   1.55811   1.24096   0.04770   0.12595
   4   17031.1    587.2   1.001151991  19.35230   4.16192   1.21154   0.75025
   5   18488.5    540.9   0.156139514   2.78027  -1.62813   0.24102  -0.26719
   6   20162.9    496.0   0.169789394   2.77225   0.75575  -1.48029  -0.09920
   7   20881.2    478.9   0.806295969  12.71201  -2.26225   2.73260  -0.35659
   8   21134.6    473.2   0.227882722   3.54971  -0.59961  -1.70201  -0.54162
   9   21685.7    461.1   0.009352656   0.14198   0.29273  -0.23097   0.05426
  10   22441.5    445.6   0.125790527   1.84532   1.26326  -0.46372  -0.18562
  11   22711.4    440.3   0.145099942   2.10329   1.32041  -0.59526   0.07400
  12   23715.7    421.7   0.459696152   6.38131  -0.59168   2.43957  -0.28233
  13   24774.1    403.6   0.203753755   2.70759   0.81211  -1.38796   0.34876
  14   25402.2    393.7   0.006616268   0.08575  -0.02341   0.29149   0.01526
  15   25979.8    384.9   0.412033115   5.22122  -0.55407  -2.19204  -0.33044
  16   26481.2    377.6   0.007864183   0.09777  -0.12001  -0.28324  -0.05604
  17   26685.7    374.7   0.168666038   2.08078  -0.05912  -1.43989  -0.06313
  18   27062.4    369.5   0.072656834   0.88386  -0.23103   0.91114  -0.01777
  19   27608.0    362.2   0.039373024   0.46950   0.53689   0.42299   0.04827
  20   27845.7    359.1   0.011393715   0.13470  -0.33267  -0.14275   0.06049
  21   28612.7    349.5   0.144571539   1.66341  -0.75710  -1.00614  -0.27910
  22   28976.8    345.1   0.035025832   0.39794  -0.59325  -0.20935  -0.04659
  23   29738.4    336.3   0.045958277   0.50877  -0.48297   0.52297  -0.04482
  24   29878.2    334.7   0.054434721   0.59979   0.68464   0.36121   0.02417
  25   30425.5    328.7   0.232144000   2.51186  -0.00404   1.58140  -0.10496
  26   30869.7    323.9   0.056648805   0.60414  -0.41433   0.65760   0.00597
  27   31264.3    319.9   0.153353686   1.61481  -0.34521  -1.21360  -0.15102
  28   31679.8    315.7   0.961879925   9.99571  -3.11344   0.49730  -0.23423
  29   31737.7    315.1   0.322721123   3.34755   0.30032   1.76137   0.39363
  30   31998.2    312.5   0.066220724   0.68131   0.67906   0.42363   0.20179
  31   32146.0    311.1   0.278616347   2.85335  -1.00560  -1.33544  -0.24230
  32   32185.7    310.7   0.063395742   0.64844  -0.05162  -0.80248  -0.04255
  33   32501.1    307.7   0.017170618   0.17393   0.27091  -0.31408   0.04348
  34   32646.6    306.3   0.174006259   1.75470  -1.23533  -0.42224  -0.22443
  35   32988.7    303.1   0.105210635   1.04995  -0.63164   0.73725  -0.32778
  36   33063.5    302.4   0.085257465   0.84891   0.91906  -0.06474   0.00649
  37   33146.3    301.7   0.302800763   3.00744   1.59035   0.65751   0.21429
  38   33852.3    295.4   0.046666799   0.45383   0.10574   0.64754  -0.15276
  39   34023.0    293.9   0.028412977   0.27493   0.46773  -0.14020   0.19105
  40   34627.8    288.8   0.092942160   0.88362  -0.15253   0.92282  -0.09353
  41   34874.9    286.7   0.001406881   0.01328  -0.09705   0.05753  -0.02351
  42   34965.5    286.0   0.156493742   1.47344  -0.34337  -1.16109   0.08612
  43   35458.5    282.0   0.026907447   0.24982   0.40175   0.29705  -0.01324
  44   35554.2    281.3   0.121225867   1.12248  -1.05482  -0.02772  -0.09520
  45   36041.9    277.5   0.008866144   0.08098  -0.28042   0.03238  -0.03608
  46   36232.8    276.0   0.166128703   1.50945  -1.19963  -0.25019  -0.08799
  47   36314.5    275.4   0.081109404   0.73530   0.79479   0.14243   0.28868
  48   36625.2    273.0   0.007749637   0.06966  -0.10133   0.23818  -0.05157
  49   37023.4    270.1   0.046201210   0.41082  -0.57092   0.27075  -0.10751
  50   37222.3    268.7   0.007006085   0.06197  -0.19099   0.15784  -0.02399
  51   37657.1    265.6   0.032140103   0.28098  -0.46291  -0.21100  -0.14892
  52   37887.4    263.9   0.133265928   1.15798   0.77930   0.71858   0.18523
  53   38012.3    263.1   0.000177238   0.00154  -0.01044  -0.03776   0.00057
  54   38371.3    260.6   0.054048603   0.46372  -0.62271   0.17393   0.21377
  55   38553.6    259.4   0.022344976   0.19081  -0.00500   0.41680  -0.13061
  56   39025.0    256.2   0.050240853   0.42383  -0.17938  -0.56679  -0.26533
  57   39054.6    256.1   0.175944710   1.48313   1.20681  -0.02733   0.16125
  58   39137.1    255.5   0.039152099   0.32934   0.20718  -0.51727   0.13729
  59   39400.6    253.8   0.051834106   0.43310   0.44475   0.46854   0.12558
  60   39680.2    252.0   0.119473213   0.99122   0.40946   0.90283   0.09195
  61   39834.4    251.0   0.018423890   0.15226  -0.18770  -0.34207  -0.00469
  62   39979.6    250.1   0.014588007   0.12012   0.11379   0.32300   0.05338
  63   40206.5    248.7   0.012736489   0.10429  -0.31636   0.04337   0.04819
  64   40249.0    248.5   0.004277481   0.03499   0.09812  -0.08922   0.13191

FINAL SINGLE POINT ENERGY     -6497.071387189174

DIPOLE MOMENT
-------------
                                X             Y             Z
Electronic contribution:    -22.94895       2.82890      -6.52347
Nuclear contribution   :     24.58052      -3.00328       6.46900
                        -----------------------------------------
Total Dipole Moment    :      1.63158      -0.17438      -0.05448
                        -----------------------------------------
Magnitude (a.u.)       :      1.64177
Magnitude (Debye)      :      4.17305

Rotational constants in cm-1:     0.000615     0.000252     0.000180
Rotational constants in MHz :    18.427207     7.546909     5.401393

                             ****ORCA TERMINATED NORMALLY****
TOTAL RUN TIME: 0 days 0 hours 16 minutes 34 seconds 939 msec
