                         Program Version 4.2.0 -  RELEASE  -
|  1> # ORCA input file
|  2> # SCF done       -192.590279443596          0.000480734602
|  3> ! CAM-B3LYP def2-SVP def2/J RIJCOSX Grid4 TightSCF
|  4> %maxcore 5000
|  5> %tddft
|  6>     Mode sTDDFT
|  7>     Ethresh 5.0
|  8>     maxcore 5000
|  9> end
| 10>
| 11> %pal
| 12>   nprocs 6
| 13>   end
| 14> * xyz 0 1
| 15>    C        1.49166        -0.63617         1.02635
| 16>    C        1.09520         0.65848         1.02370
| 17>    C        0.21161         1.19545         0.06974
| 18>    C       -0.32471         0.35404        -1.00101
| 19>    C       -0.03963        -0.95880        -1.16488
| 20>    S        1.00207        -1.83361        -0.12076
| 21>    C       -1.16653         1.20919        -1.76491
| 22>    C       -1.17434         2.49161        -1.21545
| 23>    C       -2.03320         3.35356        -1.93465
| 24>    C       -2.61662         2.72544        -2.99028
| 25>    S       -2.16862         1.06775        -3.15419
| 26>    C       -0.29307         2.50064        -0.06438
| 27>    C        0.04713         3.58193         0.77455
| 28>    C       -0.35885         4.87071         0.59074
| 29>    C       -0.04166         5.98079         1.39148
| 30>    S       -0.68231         7.52072         0.88193
| 31>    C        0.03873         8.40100         2.22050
| 32>    C        0.74355         7.50533         3.00384
| 33>    C        0.70808         6.15046         2.56310
| 34>    C        1.44849         5.31096         3.42358
| 35>    C        2.01929         5.99229         4.45870
| 36>    C        2.85057         5.41184         5.50769
| 37>    O        3.13303         4.23960         5.58395
| 38>    O        3.26521         6.34533         6.37729
| 39>    C        4.08849         5.88740         7.43750
| 40>    S        1.68147         7.70960         4.44595
| 41>    C       -0.13281         9.80263         2.31384
| 42>    C       -0.91551        10.47138         1.39340
| 43>    C       -1.08801        11.84341         1.32411
| 44>    C       -0.56119        12.71419         2.38003
| 45>    C        0.21024        12.27355         3.39903
| 46>    S        0.70940        10.63960         3.60427
| 47>    C       -1.05368        14.01434         2.07422
| 48>    C       -1.81704        13.96936         0.90735
| 49>    C       -2.31751        15.23876         0.54762
| 50>    C       -1.93393        16.19440         1.43486
| 51>    S       -0.95117        15.60007         2.72965
| 52>    C       -1.82753        12.62083         0.39767
| 53>    C       -2.44858        12.21543        -0.79451
| 54>    C       -2.19897        11.04294        -1.46006
| 55>    C       -2.89221        10.56541        -2.57365
| 56>    S       -4.22096        11.38876        -3.33798
| 57>    C       -4.47379        10.10869        -4.52436
| 58>    C       -3.56453         9.08466        -4.27111
| 59>    C       -2.66470         9.33180        -3.20917
| 60>    C       -1.76026         8.26819        -3.01542
| 61>    C       -1.96907         7.25056        -3.90357
| 62>    C       -1.22674         6.00190        -4.03920
| 63>    O       -1.49597         5.12727        -4.82671
| 64>    O       -0.20117         5.94830        -3.16659
| 65>    C        0.65831         4.82049        -3.24430
| 66>    S       -3.28723         7.55530        -5.02041
| 67>    C       -5.50328        10.09934        -5.46797
| 68>    C       -6.32556        11.12398        -5.86723
| 69>    C       -7.66133        10.82040        -6.42808
| 70>    O       -8.07620         9.74067        -6.79111
| 71>    C       -8.39747        12.10312        -6.38843
| 72>    C       -9.70206        12.35706        -6.69425
| 73>    C      -10.20055        13.67283        -6.55282
| 74>    C       -9.33115        14.70281        -6.09099
| 75>    C       -9.83658        16.00919        -5.94617
| 76>    C      -11.14424        16.26143        -6.25437
| 77>    C      -12.01429        15.26376        -6.71213
| 78>    C      -11.53999        13.98921        -6.85642
| 79>    F      -11.62863        17.51157        -6.11690
| 80>    C       -7.97909        14.41191        -5.79068
| 81>    C       -7.52005        13.13297        -5.94225
| 82>    C       -6.19200        12.55164        -5.75771
| 83>    C       -5.01162        13.25848        -5.76780
| 84>    C       -4.93449        14.66021        -5.69683
| 85>    N       -4.81607        15.79986        -5.60804
| 86>    C       -3.75762        12.64478        -5.95226
| 87>    N       -2.72963        12.17611        -6.16096
| 88>    H        2.16361        -1.02975         1.76994
| 89>    H        1.48018         1.30032         1.80340
| 90>    H       -0.45594        -1.54481        -1.96849
| 91>    H       -2.23577         4.38396        -1.70657
| 92>    H       -3.28765         3.15022        -3.71057
| 93>    H        0.69211         3.35415         1.60956
| 94>    H       -0.98044         5.10234        -0.26060
| 95>    H        1.57495         4.25029         3.31639
| 96>    H        4.32414         6.76220         8.03760
| 97>    H        5.00018         5.43563         7.04078
| 98>    H        3.55847         5.14204         8.03419
| 99>    H       -1.44501         9.84501         0.69157
|100>    H        0.58966        12.93055         4.16543
|101>    H       -2.92512        15.43987        -0.31568
|102>    H       -2.16695        17.24098         1.41380
|103>    H       -3.16719        12.90070        -1.22841
|104>    H       -1.38363        10.41214        -1.14206
|105>    H       -0.99066         8.23726        -2.26609
|106>    H        0.85730         4.48586        -2.22710
|107>    H        1.59039         5.11800        -3.72812
|108>    H        0.18185         4.02645        -3.82198
|109>    H       -5.74600         9.12100        -5.87343
|110>    H      -10.34884        11.56539        -7.04182
|111>    H       -9.19384        16.80352        -5.59987
|112>    H      -13.03630        15.52159        -6.94057
|113>    H      -12.19140        13.20297        -7.20767
|114>    H       -7.34162        15.20836        -5.44008
|115> *
|116>
|117>                          ****END OF INPUT****

CARTESIAN COORDINATES (ANGSTROEM)
---------------------------------
  C      1.491660   -0.636170    1.026350
  C      1.095200    0.658480    1.023700
  C      0.211610    1.195450    0.069740
  C     -0.324710    0.354040   -1.001010
  C     -0.039630   -0.958800   -1.164880
  S      1.002070   -1.833610   -0.120760
  C     -1.166530    1.209190   -1.764910
  C     -1.174340    2.491610   -1.215450
  C     -2.033200    3.353560   -1.934650
  C     -2.616620    2.725440   -2.990280
  S     -2.168620    1.067750   -3.154190
  C     -0.293070    2.500640   -0.064380
  C      0.047130    3.581930    0.774550
  C     -0.358850    4.870710    0.590740
  C     -0.041660    5.980790    1.391480
  S     -0.682310    7.520720    0.881930
  C      0.038730    8.401000    2.220500
  C      0.743550    7.505330    3.003840
  C      0.708080    6.150460    2.563100
  C      1.448490    5.310960    3.423580
  C      2.019290    5.992290    4.458700
  C      2.850570    5.411840    5.507690
  O      3.133030    4.239600    5.583950
  O      3.265210    6.345330    6.377290
  C      4.088490    5.887400    7.437500
  S      1.681470    7.709600    4.445950
  C     -0.132810    9.802630    2.313840
  C     -0.915510   10.471380    1.393400
  C     -1.088010   11.843410    1.324110
  C     -0.561190   12.714190    2.380030
  C      0.210240   12.273550    3.399030
  S      0.709400   10.639600    3.604270
  C     -1.053680   14.014340    2.074220
  C     -1.817040   13.969360    0.907350
  C     -2.317510   15.238760    0.547620
  C     -1.933930   16.194400    1.434860
  S     -0.951170   15.600070    2.729650
  C     -1.827530   12.620830    0.397670
  C     -2.448580   12.215430   -0.794510
  C     -2.198970   11.042940   -1.460060
  C     -2.892210   10.565410   -2.573650
  S     -4.220960   11.388760   -3.337980
  C     -4.473790   10.108690   -4.524360
  C     -3.564530    9.084660   -4.271110
  C     -2.664700    9.331800   -3.209170
  C     -1.760260    8.268190   -3.015420
  C     -1.969070    7.250560   -3.903570
  C     -1.226740    6.001900   -4.039200
  O     -1.495970    5.127270   -4.826710
  O     -0.201170    5.948300   -3.166590
  C      0.658310    4.820490   -3.244300
  S     -3.287230    7.555300   -5.020410
  C     -5.503280   10.099340   -5.467970
  C     -6.325560   11.123980   -5.867230
  C     -7.661330   10.820400   -6.428080
  O     -8.076200    9.740670   -6.791110
  C     -8.397470   12.103120   -6.388430
  C     -9.702060   12.357060   -6.694250
  C    -10.200550   13.672830   -6.552820
  C     -9.331150   14.702810   -6.090990
  C     -9.836580   16.009190   -5.946170
  C    -11.144240   16.261430   -6.254370
  C    -12.014290   15.263760   -6.712130
  C    -11.539990   13.989210   -6.856420
  F    -11.628630   17.511570   -6.116900
  C     -7.979090   14.411910   -5.790680
  C     -7.520050   13.132970   -5.942250
  C     -6.192000   12.551640   -5.757710
  C     -5.011620   13.258480   -5.767800
  C     -4.934490   14.660210   -5.696830
  N     -4.816070   15.799860   -5.608040
  C     -3.757620   12.644780   -5.952260
  N     -2.729630   12.176110   -6.160960
  H      2.163610   -1.029750    1.769940
  H      1.480180    1.300320    1.803400
  H     -0.455940   -1.544810   -1.968490
  H     -2.235770    4.383960   -1.706570
  H     -3.287650    3.150220   -3.710570
  H      0.692110    3.354150    1.609560
  H     -0.980440    5.102340   -0.260600
  H      1.574950    4.250290    3.316390
  H      4.324140    6.762200    8.037600
  H      5.000180    5.435630    7.040780
  H      3.558470    5.142040    8.034190
  H     -1.445010    9.845010    0.691570
  H      0.589660   12.930550    4.165430
  H     -2.925120   15.439870   -0.315680
  H     -2.166950   17.240980    1.413800
  H     -3.167190   12.900700   -1.228410
  H     -1.383630   10.412140   -1.142060
  H     -0.990660    8.237260   -2.266090
  H      0.857300    4.485860   -2.227100
  H      1.590390    5.118000   -3.728120
  H      0.181850    4.026450   -3.821980
  H     -5.746000    9.121000   -5.873430
  H    -10.348840   11.565390   -7.041820
  H     -9.193840   16.803520   -5.599870
  H    -13.036300   15.521590   -6.940570
  H    -12.191400   13.202970   -7.207670
  H     -7.341620   15.208360   -5.440080

 Total Charge           Charge          ....    0
 Multiplicity           Mult            ....    1
 Number of Electrons    NEL             ....  560
 Basis Dimension        Dim             .... 1189

ORBITAL ENERGIES
----------------

  NO   OCC          E(Eh)            E(eV)
   0   2.0000     -88.988258     -2421.4936
   1   2.0000     -88.985208     -2421.4106
   2   2.0000     -88.975229     -2421.1391
   3   2.0000     -88.967418     -2420.9265
   4   2.0000     -88.961135     -2420.7556
   5   2.0000     -88.959881     -2420.7214
   6   2.0000     -88.958623     -2420.6872
   7   2.0000     -88.957895     -2420.6674
   8   2.0000     -24.772908      -674.1051
   9   2.0000     -19.269584      -524.3520
  10   2.0000     -19.258820      -524.0591
  11   2.0000     -19.210273      -522.7381
  12   2.0000     -19.203557      -522.5553
  13   2.0000     -19.190583      -522.2023
  14   2.0000     -14.395747      -391.7282
  15   2.0000     -14.391059      -391.6006
  16   2.0000     -10.410803      -283.2924
  17   2.0000     -10.404178      -283.1121
  18   2.0000     -10.355149      -281.7779
  19   2.0000     -10.343246      -281.4540
  20   2.0000     -10.340595      -281.3819
  21   2.0000     -10.334293      -281.2104
  22   2.0000     -10.333378      -281.1855
  23   2.0000     -10.329702      -281.0855
  24   2.0000     -10.328726      -281.0589
  25   2.0000     -10.325366      -280.9675
  26   2.0000     -10.323401      -280.9140
  27   2.0000     -10.321790      -280.8702
  28   2.0000     -10.320155      -280.8257
  29   2.0000     -10.319235      -280.8007
  30   2.0000     -10.317654      -280.7576
  31   2.0000     -10.314237      -280.6647
  32   2.0000     -10.314198      -280.6636
  33   2.0000     -10.313514      -280.6450
  34   2.0000     -10.306635      -280.4578
  35   2.0000     -10.306024      -280.4412
  36   2.0000     -10.305819      -280.4356
  37   2.0000     -10.305239      -280.4198
  38   2.0000     -10.304803      -280.4079
  39   2.0000     -10.302532      -280.3462
  40   2.0000     -10.301588      -280.3205
  41   2.0000     -10.299776      -280.2711
  42   2.0000     -10.299041      -280.2511
  43   2.0000     -10.298487      -280.2361
  44   2.0000     -10.298133      -280.2265
  45   2.0000     -10.297338      -280.2048
  46   2.0000     -10.296671      -280.1867
  47   2.0000     -10.295722      -280.1608
  48   2.0000     -10.295373      -280.1513
  49   2.0000     -10.295357      -280.1509
  50   2.0000     -10.294460      -280.1265
  51   2.0000     -10.293989      -280.1137
  52   2.0000     -10.290042      -280.0063
  53   2.0000     -10.289414      -279.9892
  54   2.0000     -10.288462      -279.9633
  55   2.0000     -10.287477      -279.9365
  56   2.0000     -10.286649      -279.9139
  57   2.0000     -10.285326      -279.8779
  58   2.0000     -10.284940      -279.8675
  59   2.0000     -10.283434      -279.8265
  60   2.0000     -10.282360      -279.7972
  61   2.0000     -10.281974      -279.7867
  62   2.0000     -10.280395      -279.7438
  63   2.0000     -10.280336      -279.7422
  64   2.0000     -10.280157      -279.7373
  65   2.0000     -10.279644      -279.7233
  66   2.0000     -10.277867      -279.6750
  67   2.0000     -10.276952      -279.6501
  68   2.0000     -10.275223      -279.6030
  69   2.0000     -10.275194      -279.6022
  70   2.0000     -10.274893      -279.5940
  71   2.0000     -10.271423      -279.4996
  72   2.0000     -10.270411      -279.4721
  73   2.0000      -8.083208      -219.9553
  74   2.0000      -8.080992      -219.8950
  75   2.0000      -8.069793      -219.5902
  76   2.0000      -8.062380      -219.3885
  77   2.0000      -8.055630      -219.2048
  78   2.0000      -8.054990      -219.1874
  79   2.0000      -8.054069      -219.1624
  80   2.0000      -8.053346      -219.1427
  81   2.0000      -6.052742      -164.7035
  82   2.0000      -6.050401      -164.6398
  83   2.0000      -6.048185      -164.5795
  84   2.0000      -6.045764      -164.5136
  85   2.0000      -6.045212      -164.4986
  86   2.0000      -6.043256      -164.4453
  87   2.0000      -6.039272      -164.3370
  88   2.0000      -6.035085      -164.2230
  89   2.0000      -6.032159      -164.1434
  90   2.0000      -6.031732      -164.1318
  91   2.0000      -6.027809      -164.0250
  92   2.0000      -6.025066      -163.9504
  93   2.0000      -6.024639      -163.9388
  94   2.0000      -6.023658      -163.9121
  95   2.0000      -6.023462      -163.9067
  96   2.0000      -6.022814      -163.8891
  97   2.0000      -6.021010      -163.8400
  98   2.0000      -6.020422      -163.8240
  99   2.0000      -6.019216      -163.7912
 100   2.0000      -6.018551      -163.7731
 101   2.0000      -6.017412      -163.7421
 102   2.0000      -6.016398      -163.7145
 103   2.0000      -6.016179      -163.7085
 104   2.0000      -6.015322      -163.6852
 105   2.0000      -1.287061       -35.0227
 106   2.0000      -1.199727       -32.6462
 107   2.0000      -1.187628       -32.3170
 108   2.0000      -1.105421       -30.0800
 109   2.0000      -1.104120       -30.0446
 110   2.0000      -1.097034       -29.8518
 111   2.0000      -1.024302       -27.8727
 112   2.0000      -1.012628       -27.5550
 113   2.0000      -1.011203       -27.5162
 114   2.0000      -1.009377       -27.4665
 115   2.0000      -0.997374       -27.1399
 116   2.0000      -0.981740       -26.7145
 117   2.0000      -0.979338       -26.6491
 118   2.0000      -0.974669       -26.5221
 119   2.0000      -0.972623       -26.4664
 120   2.0000      -0.960464       -26.1355
 121   2.0000      -0.958818       -26.0908
 122   2.0000      -0.951437       -25.8899
 123   2.0000      -0.936171       -25.4745
 124   2.0000      -0.932300       -25.3692
 125   2.0000      -0.916936       -24.9511
 126   2.0000      -0.911118       -24.7928
 127   2.0000      -0.900857       -24.5136
 128   2.0000      -0.892717       -24.2921
 129   2.0000      -0.883460       -24.0402
 130   2.0000      -0.878816       -23.9138
 131   2.0000      -0.871016       -23.7016
 132   2.0000      -0.865339       -23.5471
 133   2.0000      -0.862415       -23.4675
 134   2.0000      -0.855987       -23.2926
 135   2.0000      -0.851387       -23.1674
 136   2.0000      -0.843626       -22.9562
 137   2.0000      -0.839720       -22.8499
 138   2.0000      -0.835542       -22.7363
 139   2.0000      -0.821557       -22.3557
 140   2.0000      -0.818245       -22.2656
 141   2.0000      -0.809966       -22.0403
 142   2.0000      -0.809177       -22.0188
 143   2.0000      -0.808014       -21.9872
 144   2.0000      -0.804237       -21.8844
 145   2.0000      -0.793528       -21.5930
 146   2.0000      -0.788797       -21.4643
 147   2.0000      -0.775079       -21.0910
 148   2.0000      -0.756479       -20.5848
 149   2.0000      -0.743867       -20.2416
 150   2.0000      -0.740489       -20.1497
 151   2.0000      -0.733262       -19.9531
 152   2.0000      -0.720678       -19.6107
 153   2.0000      -0.719671       -19.5832
 154   2.0000      -0.713918       -19.4267
 155   2.0000      -0.707831       -19.2611
 156   2.0000      -0.702750       -19.1228
 157   2.0000      -0.692502       -18.8439
 158   2.0000      -0.689481       -18.7617
 159   2.0000      -0.677995       -18.4492
 160   2.0000      -0.670792       -18.2532
 161   2.0000      -0.661933       -18.0121
 162   2.0000      -0.660980       -17.9862
 163   2.0000      -0.654025       -17.7969
 164   2.0000      -0.650119       -17.6906
 165   2.0000      -0.645298       -17.5595
 166   2.0000      -0.640734       -17.4353
 167   2.0000      -0.637326       -17.3425
 168   2.0000      -0.632509       -17.2115
 169   2.0000      -0.627919       -17.0865
 170   2.0000      -0.624146       -16.9839
 171   2.0000      -0.619220       -16.8498
 172   2.0000      -0.615991       -16.7620
 173   2.0000      -0.611016       -16.6266
 174   2.0000      -0.607267       -16.5246
 175   2.0000      -0.604561       -16.4509
 176   2.0000      -0.596679       -16.2365
 177   2.0000      -0.588016       -16.0007
 178   2.0000      -0.580782       -15.8039
 179   2.0000      -0.579890       -15.7796
 180   2.0000      -0.579317       -15.7640
 181   2.0000      -0.576481       -15.6868
 182   2.0000      -0.573006       -15.5923
 183   2.0000      -0.569378       -15.4936
 184   2.0000      -0.567925       -15.4540
 185   2.0000      -0.566813       -15.4238
 186   2.0000      -0.565382       -15.3848
 187   2.0000      -0.562449       -15.3050
 188   2.0000      -0.556499       -15.1431
 189   2.0000      -0.552449       -15.0329
 190   2.0000      -0.549572       -14.9546
 191   2.0000      -0.548665       -14.9299
 192   2.0000      -0.545017       -14.8307
 193   2.0000      -0.543242       -14.7824
 194   2.0000      -0.539515       -14.6809
 195   2.0000      -0.535959       -14.5842
 196   2.0000      -0.529841       -14.4177
 197   2.0000      -0.527929       -14.3657
 198   2.0000      -0.523323       -14.2404
 199   2.0000      -0.521185       -14.1822
 200   2.0000      -0.516866       -14.0646
 201   2.0000      -0.516262       -14.0482
 202   2.0000      -0.515136       -14.0176
 203   2.0000      -0.512891       -13.9565
 204   2.0000      -0.511301       -13.9132
 205   2.0000      -0.509814       -13.8727
 206   2.0000      -0.508198       -13.8288
 207   2.0000      -0.507859       -13.8195
 208   2.0000      -0.507569       -13.8116
 209   2.0000      -0.501907       -13.6576
 210   2.0000      -0.499197       -13.5839
 211   2.0000      -0.496534       -13.5114
 212   2.0000      -0.492738       -13.4081
 213   2.0000      -0.490217       -13.3395
 214   2.0000      -0.488937       -13.3047
 215   2.0000      -0.486248       -13.2315
 216   2.0000      -0.482107       -13.1188
 217   2.0000      -0.478320       -13.0158
 218   2.0000      -0.476216       -12.9585
 219   2.0000      -0.474489       -12.9115
 220   2.0000      -0.468938       -12.7605
 221   2.0000      -0.468546       -12.7498
 222   2.0000      -0.465319       -12.6620
 223   2.0000      -0.464602       -12.6425
 224   2.0000      -0.464546       -12.6409
 225   2.0000      -0.460647       -12.5349
 226   2.0000      -0.455518       -12.3953
 227   2.0000      -0.454675       -12.3723
 228   2.0000      -0.451826       -12.2948
 229   2.0000      -0.448207       -12.1963
 230   2.0000      -0.445088       -12.1115
 231   2.0000      -0.441483       -12.0134
 232   2.0000      -0.441127       -12.0037
 233   2.0000      -0.440192       -11.9782
 234   2.0000      -0.437900       -11.9159
 235   2.0000      -0.436197       -11.8695
 236   2.0000      -0.433237       -11.7890
 237   2.0000      -0.432481       -11.7684
 238   2.0000      -0.429772       -11.6947
 239   2.0000      -0.426522       -11.6063
 240   2.0000      -0.426087       -11.5944
 241   2.0000      -0.425363       -11.5747
 242   2.0000      -0.423695       -11.5293
 243   2.0000      -0.423113       -11.5135
 244   2.0000      -0.421869       -11.4796
 245   2.0000      -0.419961       -11.4277
 246   2.0000      -0.418602       -11.3908
 247   2.0000      -0.416678       -11.3384
 248   2.0000      -0.413159       -11.2426
 249   2.0000      -0.410663       -11.1747
 250   2.0000      -0.409440       -11.1414
 251   2.0000      -0.409287       -11.1373
 252   2.0000      -0.405463       -11.0332
 253   2.0000      -0.400508       -10.8984
 254   2.0000      -0.398419       -10.8415
 255   2.0000      -0.390000       -10.6124
 256   2.0000      -0.386835       -10.5263
 257   2.0000      -0.386062       -10.5053
 258   2.0000      -0.374362       -10.1869
 259   2.0000      -0.371143       -10.0993
 260   2.0000      -0.368744       -10.0340
 261   2.0000      -0.363573        -9.8933
 262   2.0000      -0.361581        -9.8391
 263   2.0000      -0.358756        -9.7622
 264   2.0000      -0.352888        -9.6026
 265   2.0000      -0.352477        -9.5914
 266   2.0000      -0.330802        -9.0016
 267   2.0000      -0.328467        -8.9380
 268   2.0000      -0.324606        -8.8330
 269   2.0000      -0.321907        -8.7595
 270   2.0000      -0.313791        -8.5387
 271   2.0000      -0.308012        -8.3814
 272   2.0000      -0.297350        -8.0913
 273   2.0000      -0.295803        -8.0492
 274   2.0000      -0.286850        -7.8056
 275   2.0000      -0.284080        -7.7302
 276   2.0000      -0.280961        -7.6453
 277   2.0000      -0.265206        -7.2166
 278   2.0000      -0.237687        -6.4678
 279   2.0000      -0.212809        -5.7908
 280   0.0000      -0.098108        -2.6697
 281   0.0000      -0.075989        -2.0678
 282   0.0000      -0.054646        -1.4870
 283   0.0000      -0.038573        -1.0496
 284   0.0000      -0.036819        -1.0019

MULLIKEN ATOMIC CHARGES
-----------------------
   0 C :   -0.097893
   1 C :    0.035133
   2 C :    0.022952
   3 C :    0.070216
   4 C :   -0.146036
   5 S :    0.143887
   6 C :   -0.118013
   7 C :    0.050077
   8 C :   -0.030474
   9 C :   -0.051710
  10 S :    0.133633
  11 C :    0.071886
  12 C :    0.001310
  13 C :    0.049518
  14 C :   -0.083952
  15 S :    0.114985
  16 C :   -0.128261
  17 C :   -0.062158
  18 C :    0.130869
  19 C :   -0.021355
  20 C :   -0.116615
  21 C :    0.196854
  22 O :   -0.205097
  23 O :   -0.310061
  24 C :    0.190229
  25 S :    0.162200
  26 C :   -0.023578
  27 C :   -0.124529
  28 C :    0.079971
  29 C :    0.062372
  30 C :   -0.126523
  31 S :    0.146730
  32 C :   -0.114644
  33 C :    0.064220
  34 C :    0.008449
  35 C :   -0.066163
  36 S :    0.129871
  37 C :    0.067747
  38 C :   -0.000603
  39 C :   -0.066289
  40 C :   -0.023429
  41 S :    0.146474
  42 C :   -0.155848
  43 C :    0.026962
  44 C :    0.107307
  45 C :    0.008286
  46 C :   -0.158589
  47 C :    0.209369
  48 O :   -0.203996
  49 O :   -0.319900
  50 C :    0.170219
  51 S :    0.189822
  52 C :    0.021799
  53 C :   -0.157531
  54 C :    0.138632
  55 O :   -0.155769
  56 C :    0.009820
  57 C :   -0.085547
  58 C :    0.098248
  59 C :    0.100819
  60 C :   -0.097393
  61 C :    0.300066
  62 C :   -0.032900
  63 C :   -0.010815
  64 F :   -0.196282
  65 C :   -0.089259
  66 C :    0.042450
  67 C :    0.260423
  68 C :   -0.339736
  69 C :   -0.172738
  70 N :    0.132675
  71 C :   -0.218348
  72 N :    0.161165
  73 H :    0.050844
  74 H :   -0.006243
  75 H :    0.040011
  76 H :   -0.000404
  77 H :    0.039209
  78 H :   -0.063596
  79 H :   -0.051207
  80 H :    0.004675
  81 H :    0.037263
  82 H :    0.034658
  83 H :    0.035575
  84 H :    0.003935
  85 H :    0.039334
  86 H :   -0.009218
  87 H :    0.030986
  88 H :   -0.007352
  89 H :   -0.013477
  90 H :   -0.003872
  91 H :    0.034169
  92 H :    0.035240
  93 H :    0.057114
  94 H :    0.016541
  95 H :   -0.017386
  96 H :   -0.006627
  97 H :   -0.001788
  98 H :   -0.013311
  99 H :   -0.010683
Sum of atomic charges:   -0.0000000

LOEWDIN ATOMIC CHARGES
----------------------
   0 C :   -0.177457
   1 C :   -0.028342
   2 C :   -0.009432
   3 C :   -0.045289
   4 C :   -0.143278
   5 S :    0.467964
   6 C :   -0.207476
   7 C :   -0.039340
   8 C :   -0.074158
   9 C :   -0.149527
  10 S :    0.431448
  11 C :   -0.062880
  12 C :    0.007792
  13 C :   -0.077148
  14 C :   -0.130579
  15 S :    0.458830
  16 C :   -0.226704
  17 C :   -0.178750
  18 C :   -0.088979
  19 C :   -0.004335
  20 C :   -0.207547
  21 C :    0.067493
  22 O :   -0.181278
  23 O :   -0.100050
  24 C :    0.083324
  25 S :    0.419824
  26 C :   -0.164704
  27 C :   -0.047347
  28 C :    0.008465
  29 C :   -0.041250
  30 C :   -0.145895
  31 S :    0.467231
  32 C :   -0.211322
  33 C :   -0.032915
  34 C :   -0.062001
  35 C :   -0.159425
  36 S :    0.422741
  37 C :   -0.070186
  38 C :    0.025917
  39 C :   -0.081899
  40 C :   -0.107671
  41 S :    0.470011
  42 C :   -0.211022
  43 C :   -0.143012
  44 C :   -0.095889
  45 C :   -0.006875
  46 C :   -0.212732
  47 C :    0.066253
  48 O :   -0.180602
  49 O :   -0.097483
  50 C :    0.077702
  51 S :    0.452895
  52 C :    0.045538
  53 C :   -0.122840
  54 C :    0.078223
  55 O :   -0.160275
  56 C :   -0.055525
  57 C :    0.027598
  58 C :   -0.020822
  59 C :    0.001751
  60 C :   -0.044373
  61 C :    0.089972
  62 C :   -0.042641
  63 C :    0.002484
  64 F :   -0.070440
  65 C :    0.003975
  66 C :   -0.013529
  67 C :    0.059236
  68 C :   -0.162920
  69 C :   -0.019644
  70 N :   -0.071175
  71 C :   -0.038712
  72 N :   -0.062152
  73 H :    0.034331
  74 H :    0.039800
  75 H :    0.037106
  76 H :    0.027212
  77 H :    0.028511
  78 H :    0.025408
  79 H :    0.025494
  80 H :    0.036439
  81 H :    0.027502
  82 H :    0.024628
  83 H :    0.024837
  84 H :    0.024881
  85 H :    0.037734
  86 H :    0.033751
  87 H :    0.025357
  88 H :    0.030208
  89 H :    0.030864
  90 H :    0.030859
  91 H :    0.023104
  92 H :    0.022761
  93 H :    0.026316
  94 H :    0.046539
  95 H :    0.037365
  96 H :    0.041392
  97 H :    0.039523
  98 H :    0.034012
  99 H :    0.037222

  Mayer bond orders larger than 0.100000
B(  0-C ,  1-C ) :   1.6436 B(  0-C ,  5-S ) :   1.1156 B(  0-C , 73-H ) :   0.9384
B(  1-C ,  2-C ) :   1.2191 B(  1-C , 74-H ) :   0.9710 B(  2-C ,  3-C ) :   1.0642
B(  2-C , 11-C ) :   1.3813 B(  3-C ,  4-C ) :   1.5903 B(  3-C ,  6-C ) :   1.1827
B(  4-C ,  5-S ) :   1.1500 B(  4-C , 75-H ) :   0.9415 B(  6-C ,  7-C ) :   1.4636
B(  6-C , 10-S ) :   1.0772 B(  7-C ,  8-C ) :   1.2173 B(  7-C , 11-C ) :   1.0543
B(  8-C ,  9-C ) :   1.5850 B(  8-C , 76-H ) :   0.9958 B(  9-C , 10-S ) :   1.1647
B(  9-C , 77-H ) :   0.9587 B( 11-C , 12-C ) :   1.2208 B( 12-C , 13-C ) :   1.5601
B( 12-C , 78-H ) :   0.9571 B( 13-C , 14-C ) :   1.2014 B( 13-C , 79-H ) :   0.9462
B( 14-C , 15-S ) :   1.1477 B( 14-C , 18-C ) :   1.3203 B( 15-S , 16-C ) :   1.0935
B( 16-C , 17-C ) :   1.4647 B( 16-C , 26-C ) :   1.2159 B( 17-C , 18-C ) :   1.2544
B( 17-C , 25-S ) :   1.0577 B( 18-C , 19-C ) :   1.1447 B( 19-C , 20-C ) :   1.6323
B( 19-C , 80-H ) :   1.0002 B( 20-C , 21-C ) :   0.9660 B( 20-C , 25-S ) :   1.0431
B( 21-C , 22-O ) :   2.1245 B( 21-C , 23-O ) :   1.2338 B( 23-O , 24-C ) :   0.9196
B( 24-C , 81-H ) :   0.9812 B( 24-C , 82-H ) :   0.9769 B( 24-C , 83-H ) :   0.9768
B( 26-C , 27-C ) :   1.4462 B( 26-C , 31-S ) :   1.0761 B( 27-C , 28-C ) :   1.2928
B( 27-C , 84-H ) :   0.9564 B( 28-C , 29-C ) :   1.0736 B( 28-C , 37-C ) :   1.3085
B( 29-C , 30-C ) :   1.6040 B( 29-C , 32-C ) :   1.1673 B( 30-C , 31-S ) :   1.1367
B( 30-C , 85-H ) :   0.9389 B( 32-C , 33-C ) :   1.4501 B( 32-C , 36-S ) :   1.0721
B( 33-C , 34-C ) :   1.2283 B( 33-C , 37-C ) :   1.0801 B( 34-C , 35-C ) :   1.5800
B( 34-C , 86-H ) :   0.9991 B( 35-C , 36-S ) :   1.1609 B( 35-C , 87-H ) :   0.9660
B( 37-C , 38-C ) :   1.2469 B( 38-C , 39-C ) :   1.4858 B( 38-C , 88-H ) :   0.9650
B( 39-C , 40-C ) :   1.2802 B( 39-C , 89-H ) :   0.9615 B( 40-C , 41-S ) :   1.1469
B( 40-C , 44-C ) :   1.2697 B( 41-S , 42-C ) :   1.0584 B( 42-C , 43-C ) :   1.3828
B( 42-C , 52-C ) :   1.2690 B( 43-C , 44-C ) :   1.2865 B( 43-C , 51-S ) :   1.0991
B( 44-C , 45-C ) :   1.1633 B( 45-C , 46-C ) :   1.5938 B( 45-C , 90-H ) :   0.9952
B( 46-C , 47-C ) :   0.9768 B( 46-C , 51-S ) :   1.0645 B( 47-C , 48-O ) :   2.1207
B( 47-C , 49-O ) :   1.2194 B( 49-O , 50-C ) :   0.9100 B( 50-C , 91-H ) :   0.9802
B( 50-C , 92-H ) :   0.9786 B( 50-C , 93-H ) :   0.9599 B( 52-C , 53-C ) :   1.5138
B( 52-C , 94-H ) :   0.9452 B( 53-C , 54-C ) :   0.9668 B( 53-C , 67-C ) :   1.0905
B( 54-C , 55-O ) :   2.2631 B( 54-C , 56-C ) :   0.9132 B( 56-C , 57-C ) :   1.4833
B( 56-C , 66-C ) :   1.2211 B( 57-C , 58-C ) :   1.1831 B( 57-C , 95-H ) :   1.0135
B( 58-C , 59-C ) :   1.2625 B( 58-C , 63-C ) :   1.2397 B( 59-C , 60-C ) :   1.2047
B( 59-C , 65-C ) :   1.1952 B( 60-C , 61-C ) :   1.4404 B( 60-C , 96-H ) :   1.0052
B( 61-C , 62-C ) :   1.2605 B( 61-C , 64-F ) :   1.0826 B( 62-C , 63-C ) :   1.4569
B( 62-C , 97-H ) :   0.9921 B( 63-C , 98-H ) :   0.9950 B( 65-C , 66-C ) :   1.4737
B( 65-C , 99-H ) :   0.9926 B( 66-C , 67-C ) :   0.9953 B( 67-C , 68-C ) :   1.5987
B( 68-C , 69-C ) :   1.1455 B( 68-C , 71-C ) :   1.1569 B( 69-C , 70-N ) :   2.9757
B( 71-C , 72-N ) :   3.0268

-----------------------------------------------------------------------------
         ABSORPTION SPECTRUM VIA TRANSITION ELECTRIC DIPOLE MOMENTS
-----------------------------------------------------------------------------
State   Energy  Wavelength   fosc         T2         TX        TY        TZ
        (cm-1)    (nm)                  (au**2)     (au)      (au)      (au)
-----------------------------------------------------------------------------
   0   10124.3    987.7   0.849922406  27.63694  -2.70124   3.26253  -3.11387
   1   16243.6    615.6   0.720356447  14.59963   1.20384   2.67282   2.45081
   2   16969.1    589.3   0.079916177   1.55043  -0.54571  -0.64372  -0.91556
   3   19544.2    511.7   0.221656563   3.73369   0.19889  -1.81037  -0.64553
   4   21180.9    472.1   0.285062343   4.43068  -0.03308   1.93767   0.82159
   5   22086.0    452.8   0.012735571   0.18984  -0.02814   0.36714   0.23292
   6   22832.9    438.0   0.112028327   1.61526  -0.20773  -1.02627  -0.72033
   7   23043.9    434.0   0.217856830   3.11237   0.67896   1.00810   1.27872
   8   24683.3    405.1   0.068280502   0.91069   0.84699  -0.42468   0.11376
   9   25572.1    391.1   0.433174450   5.57663   0.64564   1.97540   1.12142
  10   25993.2    384.7   0.286379237   3.62708   1.10063  -1.50557   0.38596
  11   26425.4    378.4   0.015888378   0.19794  -0.04369   0.29227   0.33258
  12   26848.4    372.5   0.030106206   0.36916   0.58796   0.15076  -0.02706
  13   26948.0    371.1   0.012005232   0.14666  -0.07125   0.18790   0.32601
  14   27793.5    359.8   0.067098181   0.79477  -0.39642  -0.78326  -0.15532
  15   28090.1    356.0   0.097888441   1.14724   0.63901  -0.84922   0.13317
  16   28717.0    348.2   0.065406394   0.74982   0.35583  -0.73518  -0.28760
  17   28969.1    345.2   0.127024285   1.44354   0.65323  -0.99786  -0.14522
  18   29284.7    341.5   0.068095359   0.76551   0.12540  -0.83991  -0.21057
  19   29478.1    339.2   0.028825647   0.32192   0.52244   0.10742   0.19350
  20   30454.9    328.4   0.085210765   0.92111   0.38933  -0.84557   0.23355
  21   30821.4    324.4   0.026413770   0.28213   0.30032  -0.19376   0.39294
  22   31447.9    318.0   0.071268492   0.74607   0.51167   0.55431   0.42072
  23   31610.4    316.4   0.060517622   0.63027  -0.49347   0.52673  -0.33062
  24   31835.3    314.1   0.044421956   0.45937   0.54546   0.36372   0.17192
  25   32152.6    311.0   0.064551363   0.66095   0.60085   0.26045   0.48175
  26   32423.9    308.4   0.073707914   0.74838   0.43432  -0.60205  -0.44417
  27   32745.2    305.4   0.011613124   0.11676   0.01686  -0.34101   0.01345
  28   33242.4    300.8   0.051830868   0.51330   0.03158   0.71575   0.00118
  29   33388.8    299.5   0.046071516   0.45426  -0.19490   0.20985  -0.61011
  30   33570.4    297.9   0.559762732   5.48938   1.94666  -1.25864   0.34016
  31   33900.7    295.0   0.097460625   0.94645  -0.37563   0.04581  -0.89624
  32   34114.1    293.1   0.124273631   1.19928  -0.81403   0.68494   0.25977
  33   34343.9    291.2   0.134755717   1.29173  -0.53645   1.00100   0.04421
  34   35214.1    284.0   0.138090713   1.29099  -0.06908   1.11379   0.21377
  35   35380.3    282.6   0.010839241   0.10086  -0.04732   0.29738   0.10091
  36   35448.3    282.1   0.028397593   0.26373   0.10672   0.22520   0.44903
  37   35499.7    281.7   0.009386097   0.08704  -0.18667   0.22165   0.05542
  38   35838.2    279.0   0.022498956   0.20668   0.09361  -0.44258  -0.04516
  39   35915.0    278.4   0.008245552   0.07558   0.00640   0.24411   0.12630
  40   36322.1    275.3   0.206026402   1.86736  -0.20591   1.29105  -0.39767
  41   36727.3    272.3   0.001217437   0.01091  -0.07908   0.01491  -0.06661
  42   36989.6    270.3   0.122754461   1.09253   0.66456  -0.68531  -0.42572
  43   37253.3    268.4   0.520339394   4.59830   2.00045  -0.43300   0.63954
  44   37831.3    264.3   0.025109918   0.21851  -0.41982   0.07556  -0.19119
  45   38002.8    263.1   0.060652066   0.52542  -0.31654   0.63721  -0.13852
  46   38385.5    260.5   0.044658498   0.38301   0.08798  -0.61078   0.04706
  47   38764.1    258.0   0.023455747   0.19920  -0.44546   0.02245  -0.01632
  48   38978.9    256.5   0.150140305   1.26807  -0.46149   0.91082  -0.47487
  49   39153.9    255.4   0.045042636   0.37873   0.23051   0.57046   0.01293
  50   39321.8    254.3   0.326390819   2.73262  -0.30681   1.58640  -0.34904
  51   39404.7    253.8   0.389717181   3.25594   1.23501  -0.98989   0.86649
  52   39457.3    253.4   0.030609236   0.25539  -0.22823  -0.32172   0.31590
  53   39696.8    251.9   0.007480391   0.06204  -0.10005  -0.16713  -0.15522
  54   40134.5    249.2   0.033272176   0.27292   0.06917  -0.51692  -0.03043

FINAL SINGLE POINT ENERGY     -5954.809342805484

DIPOLE MOMENT
-------------
                                X             Y             Z
Electronic contribution:    -16.49786      21.38645     -13.20710
Nuclear contribution   :     18.41047     -24.35587      17.51883
                        -----------------------------------------
Total Dipole Moment    :      1.91261      -2.96942       4.31173
                        -----------------------------------------
Magnitude (a.u.)       :      5.57374
Magnitude (Debye)      :     14.16732

Rotational constants in cm-1:     0.000957     0.000383     0.000287
Rotational constants in MHz :    28.680953    11.470948     8.600737

                             ****ORCA TERMINATED NORMALLY****
TOTAL RUN TIME: 0 days 0 hours 11 minutes 46 seconds 854 msec
