                         Program Version 4.2.0 -  RELEASE  -
|  1> # ORCA input file
|  2> # SCF done       -173.470520317548          0.000872876149
|  3> ! CAM-B3LYP def2-SVP def2/J RIJCOSX Grid4 TightSCF
|  4> %maxcore 5000
|  5> %tddft
|  6>     Mode sTDDFT
|  7>     Ethresh 5.0
|  8>     maxcore 5000
|  9> end
| 10>
| 11> %pal
| 12>   nprocs 6
| 13>   end
| 14> * xyz 0 1
| 15>    C       -8.77901        10.21221        -1.16284
| 16>    C       -7.69726         9.49291        -0.78609
| 17>    C       -7.77940         8.20404        -0.22459
| 18>    C       -9.08389         7.56897        -0.01709
| 19>    C      -10.27361         8.13020        -0.33052
| 20>    S      -10.42501         9.69114        -1.02610
| 21>    C       -8.79298         6.30083         0.55664
| 22>    C       -7.41429         6.14441         0.70147
| 23>    C       -7.09384         4.88922         1.26614
| 24>    C       -8.20617         4.15208         1.52588
| 25>    S       -9.68552         4.93751         1.10248
| 26>    C       -6.76394         7.34109         0.21114
| 27>    C       -5.38167         7.63354         0.15070
| 28>    C       -4.36323         6.83813         0.56701
| 29>    C       -2.99470         7.17769         0.46243
| 30>    C       -1.91878         6.39249         0.85283
| 31>    C       -0.69522         7.00389         0.59478
| 32>    C       -0.82821         8.27227         0.00498
| 33>    S       -2.46629         8.70823        -0.22970
| 34>    C        0.46273         8.79654        -0.23570
| 35>    C        1.41865         7.85793         0.19805
| 36>    C        0.72410         6.70653         0.74207
| 37>    C        1.27875         5.58205         1.28074
| 38>    C        0.49323         4.52453         1.78343
| 39>    N       -0.14304         3.66648         2.20129
| 40>    C        2.67481         5.40297         1.37135
| 41>    N        3.80924         5.25495         1.45113
| 42>    C        2.73035         8.27808        -0.02211
| 43>    C        2.78492         9.52525        -0.61306
| 44>    S        1.18087        10.19690        -0.89887
| 45>    C        3.93747        10.24827        -1.00732
| 46>    C        4.00539        11.51109        -1.55641
| 47>    C        5.30517        11.93880        -1.84926
| 48>    C        5.57931        13.24851        -2.45459
| 49>    C        6.36550        14.18520        -1.79722
| 50>    C        6.60150        15.42555        -2.38430
| 51>    C        6.03886        15.73299        -3.61759
| 52>    C        5.25735        14.78844        -4.27697
| 53>    C        5.01918        13.54967        -3.68634
| 54>    O        4.68335        14.98595        -5.48771
| 55>    C        4.96958        16.17661        -6.18912
| 56>    O        7.40469        16.26874        -1.67886
| 57>    C        7.66196        17.55041        -2.20136
| 58>    C        6.26341        10.97671        -1.55000
| 59>    S        5.52167         9.55106        -0.85913
| 60>    C        7.64873        10.95139        -1.83624
| 61>    C        8.47890         9.83740        -1.75214
| 62>    C        9.77269        10.08090        -2.16926
| 63>    C        9.98425        11.38731        -2.60314
| 64>    S        8.51839        12.32471        -2.42824
| 65>    C       11.22011        11.91717        -3.00118
| 66>    C       11.54974        13.16239        -3.46674
| 67>    C       12.94935        13.62465        -3.31075
| 68>    O       13.92141        12.95205        -3.05345
| 69>    C       12.88841        15.09650        -3.48013
| 70>    C       11.58019        15.47116        -3.83548
| 71>    C       10.77173        14.26011        -3.98349
| 72>    C        9.62504        14.17424        -4.73511
| 73>    C        9.08019        12.95340        -5.18426
| 74>    N        8.65813        11.98912        -5.64207
| 75>    C        8.94248        15.28953        -5.24558
| 76>    N        8.33807        16.17765        -5.65559
| 77>    C       11.27747        16.81060        -4.02011
| 78>    C       12.28013        17.75354        -3.84881
| 79>    C       13.56718        17.36006        -3.51007
| 80>    C       13.89572        16.02429        -3.31931
| 81>   Br       14.91137        18.68712        -3.30024
| 82>    H       -8.69653        11.19673        -1.59095
| 83>    H       -6.72319         9.93975        -0.92767
| 84>    H      -11.21316         7.62839        -0.16217
| 85>    H       -6.10536         4.52573         1.47745
| 86>    H       -8.25408         3.16878         1.95145
| 87>    H       -5.11925         8.59368        -0.27778
| 88>    H       -4.56457         5.87376         1.00617
| 89>    H       -2.04190         5.42163         1.29739
| 90>    H        3.61372         7.71717         0.22550
| 91>    H        3.13469        12.11733        -1.73483
| 92>    H        6.78819        13.98014        -0.82690
| 93>    H        6.21669        16.69183        -4.07129
| 94>    H        4.41618        12.82905        -4.21419
| 95>    H        4.48286        16.06901        -7.15688
| 96>    H        6.04598        16.30471        -6.33357
| 97>    H        4.55865        17.05148        -5.67459
| 98>    H        8.35817        18.01707        -1.50616
| 99>    H        6.74818        18.15089        -2.25604
|100>    H        8.11920        17.49755        -3.19396
|101>    H        8.12148         8.88324        -1.40729
|102>    H       10.55007         9.33791        -2.18544
|103>    H       12.07555        11.27603        -2.80564
|104>    H       10.28482        17.13441        -4.28552
|105>    H       12.06064        18.80179        -3.98231
|106>    H       14.89565        15.71491        -3.05760
|107> *
|108>
|109>                          ****END OF INPUT****

CARTESIAN COORDINATES (ANGSTROEM)
---------------------------------
  C     -8.779010   10.212210   -1.162840
  C     -7.697260    9.492910   -0.786090
  C     -7.779400    8.204040   -0.224590
  C     -9.083890    7.568970   -0.017090
  C    -10.273610    8.130200   -0.330520
  S    -10.425010    9.691140   -1.026100
  C     -8.792980    6.300830    0.556640
  C     -7.414290    6.144410    0.701470
  C     -7.093840    4.889220    1.266140
  C     -8.206170    4.152080    1.525880
  S     -9.685520    4.937510    1.102480
  C     -6.763940    7.341090    0.211140
  C     -5.381670    7.633540    0.150700
  C     -4.363230    6.838130    0.567010
  C     -2.994700    7.177690    0.462430
  C     -1.918780    6.392490    0.852830
  C     -0.695220    7.003890    0.594780
  C     -0.828210    8.272270    0.004980
  S     -2.466290    8.708230   -0.229700
  C      0.462730    8.796540   -0.235700
  C      1.418650    7.857930    0.198050
  C      0.724100    6.706530    0.742070
  C      1.278750    5.582050    1.280740
  C      0.493230    4.524530    1.783430
  N     -0.143040    3.666480    2.201290
  C      2.674810    5.402970    1.371350
  N      3.809240    5.254950    1.451130
  C      2.730350    8.278080   -0.022110
  C      2.784920    9.525250   -0.613060
  S      1.180870   10.196900   -0.898870
  C      3.937470   10.248270   -1.007320
  C      4.005390   11.511090   -1.556410
  C      5.305170   11.938800   -1.849260
  C      5.579310   13.248510   -2.454590
  C      6.365500   14.185200   -1.797220
  C      6.601500   15.425550   -2.384300
  C      6.038860   15.732990   -3.617590
  C      5.257350   14.788440   -4.276970
  C      5.019180   13.549670   -3.686340
  O      4.683350   14.985950   -5.487710
  C      4.969580   16.176610   -6.189120
  O      7.404690   16.268740   -1.678860
  C      7.661960   17.550410   -2.201360
  C      6.263410   10.976710   -1.550000
  S      5.521670    9.551060   -0.859130
  C      7.648730   10.951390   -1.836240
  C      8.478900    9.837400   -1.752140
  C      9.772690   10.080900   -2.169260
  C      9.984250   11.387310   -2.603140
  S      8.518390   12.324710   -2.428240
  C     11.220110   11.917170   -3.001180
  C     11.549740   13.162390   -3.466740
  C     12.949350   13.624650   -3.310750
  O     13.921410   12.952050   -3.053450
  C     12.888410   15.096500   -3.480130
  C     11.580190   15.471160   -3.835480
  C     10.771730   14.260110   -3.983490
  C      9.625040   14.174240   -4.735110
  C      9.080190   12.953400   -5.184260
  N      8.658130   11.989120   -5.642070
  C      8.942480   15.289530   -5.245580
  N      8.338070   16.177650   -5.655590
  C     11.277470   16.810600   -4.020110
  C     12.280130   17.753540   -3.848810
  C     13.567180   17.360060   -3.510070
  C     13.895720   16.024290   -3.319310
  Br    14.911370   18.687120   -3.300240
  H     -8.696530   11.196730   -1.590950
  H     -6.723190    9.939750   -0.927670
  H    -11.213160    7.628390   -0.162170
  H     -6.105360    4.525730    1.477450
  H     -8.254080    3.168780    1.951450
  H     -5.119250    8.593680   -0.277780
  H     -4.564570    5.873760    1.006170
  H     -2.041900    5.421630    1.297390
  H      3.613720    7.717170    0.225500
  H      3.134690   12.117330   -1.734830
  H      6.788190   13.980140   -0.826900
  H      6.216690   16.691830   -4.071290
  H      4.416180   12.829050   -4.214190
  H      4.482860   16.069010   -7.156880
  H      6.045980   16.304710   -6.333570
  H      4.558650   17.051480   -5.674590
  H      8.358170   18.017070   -1.506160
  H      6.748180   18.150890   -2.256040
  H      8.119200   17.497550   -3.193960
  H      8.121480    8.883240   -1.407290
  H     10.550070    9.337910   -2.185440
  H     12.075550   11.276030   -2.805640
  H     10.284820   17.134410   -4.285520
  H     12.060640   18.801790   -3.982310
  H     14.895650   15.714910   -3.057600

 Total Charge           Charge          ....    0
 Multiplicity           Mult            ....    1
 Number of Electrons    NEL             ....  526
 Basis Dimension        Dim             .... 1105

ORBITAL ENERGIES
----------------

  NO   OCC          E(Eh)            E(eV)
   0   2.0000    -482.869673    -13139.5518
   1   2.0000     -88.985489     -2421.4183
   2   2.0000     -88.978685     -2421.2331
   3   2.0000     -88.976330     -2421.1690
   4   2.0000     -88.965095     -2420.8633
   5   2.0000     -88.964494     -2420.8470
   6   2.0000     -88.955813     -2420.6107
   7   2.0000     -62.547378     -1702.0007
   8   2.0000     -56.381208     -1534.2107
   9   2.0000     -56.378695     -1534.1423
  10   2.0000     -56.378688     -1534.1421
  11   2.0000     -19.240544      -523.5618
  12   2.0000     -19.233985      -523.3833
  13   2.0000     -19.210912      -522.7555
  14   2.0000     -14.425661      -392.5422
  15   2.0000     -14.425309      -392.5326
  16   2.0000     -14.420052      -392.3896
  17   2.0000     -14.406023      -392.0078
  18   2.0000     -10.362350      -281.9739
  19   2.0000     -10.358785      -281.8769
  20   2.0000     -10.346190      -281.5341
  21   2.0000     -10.341447      -281.4051
  22   2.0000     -10.339469      -281.3512
  23   2.0000     -10.338043      -281.3125
  24   2.0000     -10.328806      -281.0611
  25   2.0000     -10.328424      -281.0507
  26   2.0000     -10.327521      -281.0261
  27   2.0000     -10.326983      -281.0115
  28   2.0000     -10.326641      -281.0022
  29   2.0000     -10.326176      -280.9895
  30   2.0000     -10.325910      -280.9823
  31   2.0000     -10.324754      -280.9508
  32   2.0000     -10.321279      -280.8563
  33   2.0000     -10.320752      -280.8419
  34   2.0000     -10.320256      -280.8284
  35   2.0000     -10.319449      -280.8065
  36   2.0000     -10.316289      -280.7205
  37   2.0000     -10.315018      -280.6859
  38   2.0000     -10.314160      -280.6626
  39   2.0000     -10.313549      -280.6459
  40   2.0000     -10.308668      -280.5131
  41   2.0000     -10.307462      -280.4803
  42   2.0000     -10.306475      -280.4535
  43   2.0000     -10.305478      -280.4263
  44   2.0000     -10.301690      -280.3232
  45   2.0000     -10.301016      -280.3049
  46   2.0000     -10.300769      -280.2982
  47   2.0000     -10.298420      -280.2343
  48   2.0000     -10.297790      -280.2171
  49   2.0000     -10.297608      -280.2121
  50   2.0000     -10.295838      -280.1640
  51   2.0000     -10.295284      -280.1489
  52   2.0000     -10.295251      -280.1480
  53   2.0000     -10.294936      -280.1394
  54   2.0000     -10.293968      -280.1131
  55   2.0000     -10.293652      -280.1045
  56   2.0000     -10.288589      -279.9668
  57   2.0000     -10.287626      -279.9405
  58   2.0000     -10.286068      -279.8982
  59   2.0000     -10.285118      -279.8723
  60   2.0000     -10.282790      -279.8089
  61   2.0000     -10.281967      -279.7866
  62   2.0000     -10.281763      -279.7810
  63   2.0000     -10.281167      -279.7648
  64   2.0000     -10.278931      -279.7039
  65   2.0000     -10.274665      -279.5879
  66   2.0000     -10.274483      -279.5829
  67   2.0000     -10.274109      -279.5727
  68   2.0000     -10.260170      -279.1934
  69   2.0000     -10.256149      -279.0840
  70   2.0000     -10.253999      -279.0255
  71   2.0000      -8.776649      -238.8248
  72   2.0000      -8.079958      -219.8668
  73   2.0000      -8.073067      -219.6793
  74   2.0000      -8.072283      -219.6580
  75   2.0000      -8.060442      -219.3358
  76   2.0000      -8.058295      -219.2774
  77   2.0000      -8.051307      -219.0872
  78   2.0000      -6.612454      -179.9340
  79   2.0000      -6.598756      -179.5613
  80   2.0000      -6.598375      -179.5509
  81   2.0000      -6.049240      -164.6082
  82   2.0000      -6.045112      -164.4959
  83   2.0000      -6.042271      -164.4185
  84   2.0000      -6.042240      -164.4177
  85   2.0000      -6.041771      -164.4049
  86   2.0000      -6.038269      -164.3097
  87   2.0000      -6.037118      -164.2783
  88   2.0000      -6.035440      -164.2327
  89   2.0000      -6.034360      -164.2033
  90   2.0000      -6.029891      -164.0817
  91   2.0000      -6.027683      -164.0216
  92   2.0000      -6.025779      -163.9698
  93   2.0000      -6.023382      -163.9045
  94   2.0000      -6.022192      -163.8722
  95   2.0000      -6.020716      -163.8320
  96   2.0000      -6.020422      -163.8240
  97   2.0000      -6.016497      -163.7172
  98   2.0000      -6.013370      -163.6321
  99   2.0000      -2.728442       -74.2447
 100   2.0000      -2.724617       -74.1406
 101   2.0000      -2.724322       -74.1326
 102   2.0000      -2.713455       -73.8369
 103   2.0000      -2.713445       -73.8366
 104   2.0000      -1.144566       -31.1452
 105   2.0000      -1.138810       -30.9886
 106   2.0000      -1.126141       -30.6439
 107   2.0000      -1.037544       -28.2330
 108   2.0000      -1.018615       -27.7179
 109   2.0000      -1.016998       -27.6739
 110   2.0000      -1.008188       -27.4342
 111   2.0000      -1.004952       -27.3461
 112   2.0000      -1.003011       -27.2933
 113   2.0000      -1.000216       -27.2173
 114   2.0000      -0.993196       -27.0262
 115   2.0000      -0.988561       -26.9001
 116   2.0000      -0.979549       -26.6549
 117   2.0000      -0.968415       -26.3519
 118   2.0000      -0.959897       -26.1201
 119   2.0000      -0.952968       -25.9316
 120   2.0000      -0.943023       -25.6610
 121   2.0000      -0.927084       -25.2272
 122   2.0000      -0.912900       -24.8413
 123   2.0000      -0.907502       -24.6944
 124   2.0000      -0.903011       -24.5722
 125   2.0000      -0.888369       -24.1737
 126   2.0000      -0.882012       -24.0008
 127   2.0000      -0.875831       -23.8326
 128   2.0000      -0.872803       -23.7502
 129   2.0000      -0.861443       -23.4411
 130   2.0000      -0.857804       -23.3420
 131   2.0000      -0.849495       -23.1159
 132   2.0000      -0.846594       -23.0370
 133   2.0000      -0.844302       -22.9746
 134   2.0000      -0.840101       -22.8603
 135   2.0000      -0.835054       -22.7230
 136   2.0000      -0.814890       -22.1743
 137   2.0000      -0.811590       -22.0845
 138   2.0000      -0.804460       -21.8905
 139   2.0000      -0.796031       -21.6611
 140   2.0000      -0.793751       -21.5991
 141   2.0000      -0.777169       -21.1479
 142   2.0000      -0.767893       -20.8954
 143   2.0000      -0.762971       -20.7615
 144   2.0000      -0.758723       -20.6459
 145   2.0000      -0.757208       -20.6047
 146   2.0000      -0.735417       -20.0117
 147   2.0000      -0.718251       -19.5446
 148   2.0000      -0.711953       -19.3732
 149   2.0000      -0.701144       -19.0791
 150   2.0000      -0.697395       -18.9771
 151   2.0000      -0.689907       -18.7733
 152   2.0000      -0.687553       -18.7093
 153   2.0000      -0.680087       -18.5061
 154   2.0000      -0.677096       -18.4247
 155   2.0000      -0.673793       -18.3348
 156   2.0000      -0.666617       -18.1396
 157   2.0000      -0.656756       -17.8712
 158   2.0000      -0.650399       -17.6983
 159   2.0000      -0.644620       -17.5410
 160   2.0000      -0.634374       -17.2622
 161   2.0000      -0.630182       -17.1481
 162   2.0000      -0.626225       -17.0404
 163   2.0000      -0.621481       -16.9114
 164   2.0000      -0.619911       -16.8686
 165   2.0000      -0.615977       -16.7616
 166   2.0000      -0.611705       -16.6453
 167   2.0000      -0.609010       -16.5720
 168   2.0000      -0.602169       -16.3859
 169   2.0000      -0.593372       -16.1465
 170   2.0000      -0.586826       -15.9683
 171   2.0000      -0.582545       -15.8519
 172   2.0000      -0.577397       -15.7118
 173   2.0000      -0.574549       -15.6343
 174   2.0000      -0.564076       -15.3493
 175   2.0000      -0.561189       -15.2707
 176   2.0000      -0.560327       -15.2473
 177   2.0000      -0.558221       -15.1900
 178   2.0000      -0.553836       -15.0706
 179   2.0000      -0.549266       -14.9463
 180   2.0000      -0.546263       -14.8646
 181   2.0000      -0.545667       -14.8483
 182   2.0000      -0.541878       -14.7453
 183   2.0000      -0.540604       -14.7106
 184   2.0000      -0.538063       -14.6414
 185   2.0000      -0.533329       -14.5126
 186   2.0000      -0.532944       -14.5021
 187   2.0000      -0.524279       -14.2664
 188   2.0000      -0.519886       -14.1468
 189   2.0000      -0.517322       -14.0770
 190   2.0000      -0.511084       -13.9073
 191   2.0000      -0.509560       -13.8658
 192   2.0000      -0.508050       -13.8247
 193   2.0000      -0.507857       -13.8195
 194   2.0000      -0.505358       -13.7515
 195   2.0000      -0.502181       -13.6650
 196   2.0000      -0.499361       -13.5883
 197   2.0000      -0.497318       -13.5327
 198   2.0000      -0.494507       -13.4562
 199   2.0000      -0.492314       -13.3965
 200   2.0000      -0.487320       -13.2606
 201   2.0000      -0.486373       -13.2349
 202   2.0000      -0.484713       -13.1897
 203   2.0000      -0.483933       -13.1685
 204   2.0000      -0.478970       -13.0334
 205   2.0000      -0.477457       -12.9923
 206   2.0000      -0.471452       -12.8289
 207   2.0000      -0.470482       -12.8025
 208   2.0000      -0.465991       -12.6803
 209   2.0000      -0.464209       -12.6318
 210   2.0000      -0.461565       -12.5598
 211   2.0000      -0.459594       -12.5062
 212   2.0000      -0.458222       -12.4689
 213   2.0000      -0.457001       -12.4356
 214   2.0000      -0.456131       -12.4120
 215   2.0000      -0.455357       -12.3909
 216   2.0000      -0.452828       -12.3221
 217   2.0000      -0.450714       -12.2646
 218   2.0000      -0.449505       -12.2316
 219   2.0000      -0.447526       -12.1778
 220   2.0000      -0.444631       -12.0990
 221   2.0000      -0.438160       -11.9229
 222   2.0000      -0.435880       -11.8609
 223   2.0000      -0.434338       -11.8189
 224   2.0000      -0.433823       -11.8049
 225   2.0000      -0.432958       -11.7814
 226   2.0000      -0.429811       -11.6958
 227   2.0000      -0.429109       -11.6767
 228   2.0000      -0.428583       -11.6623
 229   2.0000      -0.423702       -11.5295
 230   2.0000      -0.422707       -11.5025
 231   2.0000      -0.421248       -11.4627
 232   2.0000      -0.418408       -11.3855
 233   2.0000      -0.417516       -11.3612
 234   2.0000      -0.417032       -11.3480
 235   2.0000      -0.413029       -11.2391
 236   2.0000      -0.412941       -11.2367
 237   2.0000      -0.409741       -11.1496
 238   2.0000      -0.406506       -11.0616
 239   2.0000      -0.404930       -11.0187
 240   2.0000      -0.394978       -10.7479
 241   2.0000      -0.393448       -10.7063
 242   2.0000      -0.385756       -10.4970
 243   2.0000      -0.382121       -10.3980
 244   2.0000      -0.371697       -10.1144
 245   2.0000      -0.364891        -9.9292
 246   2.0000      -0.364042        -9.9061
 247   2.0000      -0.353094        -9.6082
 248   2.0000      -0.348068        -9.4714
 249   2.0000      -0.342823        -9.3287
 250   2.0000      -0.336526        -9.1573
 251   2.0000      -0.332135        -9.0379
 252   2.0000      -0.330821        -9.0021
 253   2.0000      -0.326698        -8.8899
 254   2.0000      -0.318646        -8.6708
 255   2.0000      -0.312567        -8.5054
 256   2.0000      -0.305895        -8.3238
 257   2.0000      -0.296155        -8.0588
 258   2.0000      -0.284764        -7.7488
 259   2.0000      -0.278528        -7.5791
 260   2.0000      -0.269682        -7.3384
 261   2.0000      -0.250354        -6.8125
 262   2.0000      -0.221118        -6.0169
 263   0.0000      -0.101517        -2.7624
 264   0.0000      -0.090012        -2.4493
 265   0.0000      -0.060736        -1.6527
 266   0.0000      -0.052412        -1.4262
 267   0.0000      -0.033810        -0.9200

MULLIKEN ATOMIC CHARGES
-----------------------
   0 C :   -0.098197
   1 C :    0.033777
   2 C :    0.018239
   3 C :    0.068711
   4 C :   -0.144235
   5 S :    0.130769
   6 C :   -0.118452
   7 C :    0.062921
   8 C :   -0.017700
   9 C :   -0.063440
  10 S :    0.126799
  11 C :    0.088091
  12 C :   -0.025771
  13 C :    0.007666
  14 C :   -0.036843
  15 C :   -0.049881
  16 C :    0.024919
  17 C :   -0.105734
  18 S :    0.153394
  19 C :   -0.091698
  20 C :    0.007272
  21 C :    0.299675
  22 C :   -0.298099
  23 C :   -0.188200
  24 N :    0.170145
  25 C :   -0.189010
  26 N :    0.169639
  27 C :   -0.058095
  28 C :   -0.040327
  29 S :    0.184477
  30 C :   -0.028770
  31 C :   -0.054560
  32 C :    0.097023
  33 C :   -0.023707
  34 C :   -0.029320
  35 C :    0.231106
  36 C :   -0.183860
  37 C :    0.247045
  38 C :   -0.039495
  39 O :   -0.308454
  40 C :    0.173970
  41 O :   -0.313518
  42 C :    0.174129
  43 C :   -0.074269
  44 S :    0.128059
  45 C :   -0.032861
  46 C :   -0.013056
  47 C :    0.067116
  48 C :   -0.058500
  49 S :    0.138547
  50 C :    0.059326
  51 C :   -0.148338
  52 C :    0.138775
  53 O :   -0.145235
  54 C :   -0.010661
  55 C :    0.031658
  56 C :    0.261957
  57 C :   -0.325390
  58 C :   -0.218209
  59 N :    0.179557
  60 C :   -0.116304
  61 N :    0.108438
  62 C :   -0.026750
  63 C :    0.046872
  64 C :   -0.005830
  65 C :   -0.011412
  66 Br:   -0.025145
  67 H :    0.043891
  68 H :   -0.013572
  69 H :    0.035053
  70 H :   -0.010705
  71 H :    0.024864
  72 H :   -0.033251
  73 H :   -0.036308
  74 H :    0.000489
  75 H :    0.012689
  76 H :   -0.010817
  77 H :   -0.027849
  78 H :   -0.033304
  79 H :   -0.031410
  80 H :    0.029816
  81 H :    0.034938
  82 H :    0.012128
  83 H :    0.034666
  84 H :    0.020838
  85 H :    0.023480
  86 H :    0.000206
  87 H :   -0.001202
  88 H :    0.020970
  89 H :   -0.010428
  90 H :    0.000749
  91 H :    0.003323
Sum of atomic charges:   -0.0000000

LOEWDIN ATOMIC CHARGES
----------------------
   0 C :   -0.183508
   1 C :   -0.028057
   2 C :   -0.019494
   3 C :   -0.046644
   4 C :   -0.143854
   5 S :    0.454022
   6 C :   -0.204162
   7 C :   -0.036682
   8 C :   -0.067114
   9 C :   -0.166204
  10 S :    0.422850
  11 C :   -0.056747
  12 C :   -0.015931
  13 C :   -0.061425
  14 C :   -0.147285
  15 C :   -0.039402
  16 C :   -0.065589
  17 C :   -0.193621
  18 S :    0.458656
  19 C :   -0.169232
  20 C :   -0.077597
  21 C :    0.084817
  22 C :   -0.104379
  23 C :   -0.015563
  24 N :   -0.035996
  25 C :   -0.016233
  26 N :   -0.035744
  27 C :   -0.029414
  28 C :   -0.185441
  29 S :    0.474424
  30 C :   -0.168073
  31 C :   -0.059285
  32 C :   -0.021483
  33 C :   -0.028884
  34 C :   -0.082545
  35 C :    0.062774
  36 C :   -0.110178
  37 C :    0.070598
  38 C :   -0.060327
  39 O :   -0.099239
  40 C :    0.072427
  41 O :   -0.104387
  42 C :    0.073331
  43 C :   -0.188969
  44 S :    0.448496
  45 C :   -0.142974
  46 C :   -0.072448
  47 C :    0.000967
  48 C :   -0.195951
  49 S :    0.525114
  50 C :    0.060782
  51 C :   -0.118606
  52 C :    0.083452
  53 O :   -0.144314
  54 C :   -0.036853
  55 C :   -0.010645
  56 C :    0.067957
  57 C :   -0.152541
  58 C :   -0.043781
  59 N :   -0.044913
  60 C :    0.006870
  61 N :   -0.072288
  62 C :   -0.000333
  63 C :   -0.017150
  64 C :   -0.100647
  65 C :   -0.000030
  66 Br:    0.111031
  67 H :    0.031407
  68 H :    0.037815
  69 H :    0.035177
  70 H :    0.028608
  71 H :    0.023750
  72 H :    0.016509
  73 H :    0.033344
  74 H :    0.038972
  75 H :    0.036949
  76 H :    0.028899
  77 H :    0.025904
  78 H :    0.028208
  79 H :    0.031762
  80 H :    0.026843
  81 H :    0.017253
  82 H :    0.011376
  83 H :    0.027759
  84 H :    0.015617
  85 H :    0.011325
  86 H :    0.028429
  87 H :    0.037856
  88 H :    0.051570
  89 H :    0.035944
  90 H :    0.038197
  91 H :    0.044119

  Mayer bond orders larger than 0.100000
B(  0-C ,  1-C ) :   1.6585 B(  0-C ,  5-S ) :   1.1026 B(  0-C , 67-H ) :   0.9382
B(  1-C ,  2-C ) :   1.2072 B(  1-C , 68-H ) :   0.9698 B(  2-C ,  3-C ) :   1.0541
B(  2-C , 11-C ) :   1.4167 B(  3-C ,  4-C ) :   1.6016 B(  3-C ,  6-C ) :   1.1846
B(  4-C ,  5-S ) :   1.1431 B(  4-C , 69-H ) :   0.9421 B(  6-C ,  7-C ) :   1.4591
B(  6-C , 10-S ) :   1.0768 B(  7-C ,  8-C ) :   1.2113 B(  7-C , 11-C ) :   1.0695
B(  8-C ,  9-C ) :   1.5886 B(  8-C , 70-H ) :   1.0015 B(  9-C , 10-S ) :   1.1593
B(  9-C , 71-H ) :   0.9634 B( 11-C , 12-C ) :   1.1889 B( 12-C , 13-C ) :   1.5991
B( 12-C , 72-H ) :   0.9518 B( 13-C , 14-C ) :   1.1686 B( 13-C , 73-H ) :   0.9805
B( 14-C , 15-C ) :   1.4253 B( 14-C , 18-S ) :   1.0943 B( 15-C , 16-C ) :   1.2805
B( 15-C , 74-H ) :   1.0032 B( 16-C , 17-C ) :   1.4413 B( 16-C , 21-C ) :   0.9912
B( 17-C , 18-S ) :   1.1035 B( 17-C , 19-C ) :   1.1994 B( 19-C , 20-C ) :   1.4321
B( 19-C , 29-S ) :   1.1282 B( 20-C , 21-C ) :   1.0011 B( 20-C , 27-C ) :   1.2934
B( 21-C , 22-C ) :   1.7103 B( 22-C , 23-C ) :   1.1346 B( 22-C , 25-C ) :   1.1312
B( 23-C , 24-N ) :   2.9927 B( 25-C , 26-N ) :   2.9940 B( 27-C , 28-C ) :   1.4609
B( 27-C , 75-H ) :   0.9894 B( 28-C , 29-S ) :   1.0914 B( 28-C , 30-C ) :   1.1646
B( 30-C , 31-C ) :   1.4581 B( 30-C , 44-S ) :   1.1373 B( 31-C , 32-C ) :   1.2990
B( 31-C , 76-H ) :   0.9986 B( 32-C , 33-C ) :   0.9518 B( 32-C , 43-C ) :   1.4958
B( 33-C , 34-C ) :   1.3355 B( 33-C , 38-C ) :   1.3660 B( 34-C , 35-C ) :   1.3637
B( 34-C , 77-H ) :   1.0004 B( 35-C , 36-C ) :   1.2912 B( 35-C , 41-O ) :   1.1378
B( 36-C , 37-C ) :   1.2770 B( 36-C , 78-H ) :   0.9927 B( 37-C , 38-C ) :   1.3487
B( 37-C , 39-O ) :   1.1553 B( 38-C , 79-H ) :   1.0072 B( 39-O , 40-C ) :   0.9562
B( 40-C , 80-H ) :   0.9752 B( 40-C , 81-H ) :   0.9611 B( 40-C , 82-H ) :   0.9662
B( 41-O , 42-C ) :   0.9677 B( 42-C , 83-H ) :   0.9768 B( 42-C , 84-H ) :   0.9671
B( 42-C , 85-H ) :   0.9647 B( 43-C , 44-S ) :   1.0930 B( 43-C , 45-C ) :   1.1722
B( 45-C , 46-C ) :   1.3991 B( 45-C , 49-S ) :   1.1865 B( 46-C , 47-C ) :   1.3483
B( 46-C , 86-H ) :   0.9879 B( 47-C , 48-C ) :   1.3690 B( 47-C , 87-H ) :   1.0002
B( 48-C , 49-S ) :   1.0728 B( 48-C , 50-C ) :   1.2253 B( 50-C , 51-C ) :   1.5523
B( 50-C , 88-H ) :   0.9440 B( 51-C , 52-C ) :   0.9633 B( 51-C , 56-C ) :   1.0634
B( 52-C , 53-O ) :   2.2573 B( 52-C , 54-C ) :   0.9175 B( 54-C , 55-C ) :   1.3371
B( 54-C , 65-C ) :   1.3897 B( 55-C , 56-C ) :   1.0069 B( 55-C , 62-C ) :   1.3727
B( 56-C , 57-C ) :   1.6218 B( 57-C , 58-C ) :   1.1456 B( 57-C , 60-C ) :   1.1640
B( 58-C , 59-N ) :   3.0314 B( 60-C , 61-N ) :   2.8559 B( 62-C , 63-C ) :   1.3752
B( 62-C , 89-H ) :   0.9878 B( 63-C , 64-C ) :   1.3964 B( 63-C , 90-H ) :   0.9859
B( 64-C , 65-C ) :   1.3367 B( 64-C , 66-Br) :   0.9890 B( 65-C , 91-H ) :   1.0069

-----------------------------------------------------------------------------
         ABSORPTION SPECTRUM VIA TRANSITION ELECTRIC DIPOLE MOMENTS
-----------------------------------------------------------------------------
State   Energy  Wavelength   fosc         T2         TX        TY        TZ
        (cm-1)    (nm)                  (au**2)     (au)      (au)      (au)
-----------------------------------------------------------------------------
   0    9435.4   1059.8   0.238349694   8.31631   2.79309   0.63497  -0.33434
   1   16156.2    619.0   1.203165024  24.51660  -4.25206  -2.04129   1.50656
   2   18340.9    545.2   0.040156257   0.72079  -0.51952   0.51346  -0.43271
   3   20603.1    485.4   0.001691003   0.02702   0.13855   0.01955  -0.08627
   4   21176.8    472.2   0.454454402   7.06489   2.40970  -0.92791   0.63026
   5   22255.6    449.3   0.009630113   0.14245   0.31307   0.05147   0.20443
   6   23725.2    421.5   0.658205079   9.13330  -2.85678  -0.84819   0.50267
   7   24800.1    403.2   0.016183565   0.21483   0.21115  -0.32810   0.25019
   8   25962.1    385.2   0.399410828   5.06471  -2.24500  -0.07927  -0.13560
   9   26093.7    383.2   0.022986834   0.29001   0.52668  -0.07564   0.08310
  10   26803.5    373.1   0.095205566   1.16935   0.65959  -0.70050   0.49357
  11   27196.0    367.7   0.001285853   0.01557  -0.06924  -0.08526   0.05917
  12   28531.9    350.5   0.105296945   1.21496   0.98056   0.50157   0.04345
  13   28808.4    347.1   0.089280898   1.02027   0.43795  -0.89783   0.14959
  14   29376.9    340.4   0.008454728   0.09475  -0.16463   0.16806  -0.19849
  15   29569.8    338.2   0.089065487   0.99160  -0.43751   0.63718  -0.62784
  16   30184.0    331.3   0.149815602   1.63402  -1.01636  -0.77113   0.08000
  17   30895.8    323.7   0.073041007   0.77829   0.02024  -0.78820   0.39575
  18   31050.8    322.1   0.071175608   0.75463  -0.41767   0.67421  -0.35442
  19   31411.6    318.4   0.110316903   1.15619  -0.62617  -0.85403  -0.18633
  20   31711.5    315.3   0.366445692   3.80424   1.22684  -1.36779   0.65442
  21   31919.4    313.3   0.084861442   0.87525  -0.87352  -0.01400  -0.33470
  22   32151.4    311.0   0.159577650   1.63398   0.99793  -0.71628   0.35363
  23   32332.3    309.3   0.065824220   0.67023  -0.72675  -0.37014  -0.07111
  24   32975.6    303.3   0.235076365   2.34689   1.27860   0.80236  -0.26133
  25   33056.0    302.5   0.028024165   0.27910  -0.48582   0.04767   0.20201
  26   34357.3    291.1   0.111832555   1.07158   0.03226  -0.93651   0.43988
  27   34679.4    288.4   0.243555860   2.31208   1.18086   0.94050   0.18197
  28   35102.5    284.9   0.052410966   0.49154   0.62413   0.14557   0.28428
  29   35217.2    284.0   0.082886073   0.77482   0.69041   0.28019   0.46866
  30   35225.7    283.9   0.065362828   0.61087  -0.70620   0.03468  -0.33309
  31   35337.9    283.0   0.018927164   0.17633  -0.19736   0.35280  -0.11361
  32   35741.8    279.8   0.090033148   0.82928   0.20175   0.86679  -0.19299
  33   36303.3    275.5   0.004010966   0.03637  -0.07952  -0.16111   0.06397
  34   36429.2    274.5   0.072074772   0.65134   0.01122   0.72845  -0.34724
  35   36940.2    270.7   0.039414539   0.35126   0.35485  -0.40886   0.24120
  36   37232.6    268.6   0.027975090   0.24736   0.44652   0.18340   0.11977
  37   37349.1    267.7   0.110243701   0.97174  -0.15424   0.95391  -0.19495
  38   37645.9    265.6   0.050734771   0.44367  -0.64854   0.01203  -0.15142
  39   38104.6    262.4   0.062995247   0.54426  -0.66392  -0.29308  -0.13258
  40   38391.3    260.5   0.018587432   0.15939   0.35231  -0.10131  -0.15814
  41   38487.5    259.8   0.132982376   1.13750  -0.99341   0.22689  -0.31490
  42   38707.1    258.4   0.080728882   0.68662   0.25628  -0.75888   0.21223
  43   39414.8    253.7   0.027467909   0.22943   0.40618   0.25255  -0.02565
  44   39908.8    250.6   0.013246719   0.10927   0.23898   0.06733   0.21824

FINAL SINGLE POINT ENERGY     -7438.456240783339

DIPOLE MOMENT
-------------
                                X             Y             Z
Electronic contribution:    112.30949      49.72642      -5.24152
Nuclear contribution   :   -115.53400     -47.56070       5.41005
                        -----------------------------------------
Total Dipole Moment    :     -3.22451       2.16572       0.16853
                        -----------------------------------------
Magnitude (a.u.)       :      3.88796
Magnitude (Debye)      :      9.88240

Rotational constants in cm-1:     0.002165     0.000217     0.000202
Rotational constants in MHz :    64.896474     6.507265     6.049251

                             ****ORCA TERMINATED NORMALLY****
TOTAL RUN TIME: 0 days 0 hours 10 minutes 13 seconds 540 msec
