                         Program Version 4.2.0 -  RELEASE  -
|  1> # ORCA input file
|  2> # SCF done       -183.175597851352          0.000433702617
|  3> ! CAM-B3LYP def2-SVP def2/J RIJCOSX Grid4 TightSCF
|  4> %maxcore 5000
|  5> %tddft
|  6>     Mode sTDDFT
|  7>     Ethresh 5.0
|  8>     maxcore 5000
|  9> end
| 10>
| 11> %pal
| 12>   nprocs 6
| 13>   end
| 14> * xyz 0 1
| 15>    C        6.45068         6.59649         3.82090
| 16>    C        5.17541         6.94024         3.52859
| 17>    C        4.48332         7.99083         4.16397
| 18>    C        5.12119         8.71549         5.27390
| 19>    C        6.39120         8.52147         5.69597
| 20>    S        7.45392         7.36898         5.00125
| 21>    C        4.13114         9.61250         5.76158
| 22>    C        2.96355         9.46402         5.01898
| 23>    C        1.94204        10.33744         5.45006
| 24>    C        2.35323        11.10831         6.49152
| 25>    S        3.98511        10.81223         6.98581
| 26>    C        3.17676         8.46606         3.99644
| 27>    C        2.17493         8.12906         3.05108
| 28>    C        2.34574         7.52403         1.84801
| 29>    C        1.29990         7.21271         0.93532
| 30>    C        1.57363         6.70340        -0.31793
| 31>    C        0.62954         6.37869        -1.28752
| 32>    C       -0.80386         6.46267        -0.98015
| 33>    C       -1.30750         6.93936         0.17864
| 34>    S       -0.34536         7.51002         1.47772
| 35>    C       -1.47580         5.95007        -2.12455
| 36>    C       -0.54128         5.58166        -3.08773
| 37>    C       -1.15153         5.06801        -4.25298
| 38>    C       -2.50591         5.05802        -4.14268
| 39>    S       -3.09392         5.67165        -2.63415
| 40>    C        0.78712         5.86865        -2.59932
| 41>    C        1.92850         5.66514        -3.39557
| 42>    C        3.19533         6.13124        -3.17480
| 43>    C        4.31153         5.90926        -3.99555
| 44>    S        5.81119         6.69320        -3.54819
| 45>    C        6.69101         6.04819        -4.91374
| 46>    C        5.83664         5.25789        -5.66476
| 47>    C        4.50693         5.16087        -5.16645
| 48>    C        3.71378         4.32382        -5.98168
| 49>    C        4.40335         3.82152        -7.04677
| 50>    C        3.86879         2.93294        -8.07390
| 51>    O        2.72859         2.53403        -8.10702
| 52>    O        4.80605         2.61701        -8.97829
| 53>    C        4.39975         1.75735       -10.02986
| 54>    S        6.07141         4.33863        -7.11500
| 55>    C        8.05256         6.34720        -5.12014
| 56>    C        8.86226         5.92945        -6.16896
| 57>    C       10.15899         6.41646        -6.04720
| 58>    C       10.34940         7.20984        -4.90125
| 59>    S        8.91936         7.35732        -3.97154
| 60>    C       11.69088         7.64775        -4.87309
| 61>    C       12.35809         7.13525        -6.00279
| 62>    C       11.42021         6.34694        -6.77645
| 63>    C       11.66133         5.67845        -7.94260
| 64>    C       10.66385         4.93954        -8.61090
| 65>    N        9.86164         4.33517        -9.16478
| 66>    C       12.92945         5.68323        -8.55878
| 67>    N       13.96007         5.68174        -9.06247
| 68>    C       13.69967         7.51871        -6.05943
| 69>    C       14.05892         8.31284        -4.98884
| 70>    S       12.71313         8.59579        -3.88558
| 71>    C       15.32516         8.88603        -4.71081
| 72>    C       15.67192         9.67247        -3.62754
| 73>    C       17.00957        10.06583        -3.67613
| 74>    C       17.68381         9.57698        -4.80204
| 75>    S       16.67501         8.62927        -5.80605
| 76>    C       19.03005        10.03627        -4.75461
| 77>    C       19.19867        10.81194        -3.60038
| 78>    C       17.94207        10.85864        -2.88148
| 79>    C       17.67583        11.50302        -1.70751
| 80>    C       16.40293        11.46825        -1.10253
| 81>    N       15.37015        11.44280        -0.60374
| 82>    C       18.65592        12.24648        -1.01847
| 83>    N       19.44759        12.85201        -0.45074
| 84>    C       20.51051        11.31040        -3.47468
| 85>    C       21.29419        10.91182        -4.51304
| 86>    S       20.46465         9.92161        -5.67185
| 87>    H        6.95518         5.78535         3.32376
| 88>    H        4.65915         6.35034         2.78596
| 89>    H        6.82281         9.08890         6.50519
| 90>    H        0.95826        10.39859         5.02096
| 91>    H        1.79129        11.85492         7.01799
| 92>    H        1.17384         8.44570         3.32023
| 93>    H        3.34084         7.28967         1.49910
| 94>    H        2.61786         6.53311        -0.53436
| 95>    H       -2.36753         7.00086         0.36753
| 96>    H       -0.62967         4.72076        -5.12625
| 97>    H       -3.22137         4.72205        -4.86750
| 98>    H        1.74589         5.11651        -4.30772
| 99>    H        3.38687         6.77060        -2.32607
|100>    H        2.68299         4.07178        -5.81901
|101>    H        5.27396         1.61781       -10.66010
|102>    H        3.58402         2.21139       -10.59667
|103>    H        4.05791         0.80141        -9.62713
|104>    H        8.50625         5.30662        -6.96851
|105>    H       14.39116         7.24056        -6.83466
|106>    H       14.97409         9.93515        -2.85276
|107>    H       20.85802        11.92730        -2.66620
|108>    H       22.32800        11.13717        -4.68186
|109> *
|110>
|111>                          ****END OF INPUT****

CARTESIAN COORDINATES (ANGSTROEM)
---------------------------------
  C      6.450680    6.596490    3.820900
  C      5.175410    6.940240    3.528590
  C      4.483320    7.990830    4.163970
  C      5.121190    8.715490    5.273900
  C      6.391200    8.521470    5.695970
  S      7.453920    7.368980    5.001250
  C      4.131140    9.612500    5.761580
  C      2.963550    9.464020    5.018980
  C      1.942040   10.337440    5.450060
  C      2.353230   11.108310    6.491520
  S      3.985110   10.812230    6.985810
  C      3.176760    8.466060    3.996440
  C      2.174930    8.129060    3.051080
  C      2.345740    7.524030    1.848010
  C      1.299900    7.212710    0.935320
  C      1.573630    6.703400   -0.317930
  C      0.629540    6.378690   -1.287520
  C     -0.803860    6.462670   -0.980150
  C     -1.307500    6.939360    0.178640
  S     -0.345360    7.510020    1.477720
  C     -1.475800    5.950070   -2.124550
  C     -0.541280    5.581660   -3.087730
  C     -1.151530    5.068010   -4.252980
  C     -2.505910    5.058020   -4.142680
  S     -3.093920    5.671650   -2.634150
  C      0.787120    5.868650   -2.599320
  C      1.928500    5.665140   -3.395570
  C      3.195330    6.131240   -3.174800
  C      4.311530    5.909260   -3.995550
  S      5.811190    6.693200   -3.548190
  C      6.691010    6.048190   -4.913740
  C      5.836640    5.257890   -5.664760
  C      4.506930    5.160870   -5.166450
  C      3.713780    4.323820   -5.981680
  C      4.403350    3.821520   -7.046770
  C      3.868790    2.932940   -8.073900
  O      2.728590    2.534030   -8.107020
  O      4.806050    2.617010   -8.978290
  C      4.399750    1.757350  -10.029860
  S      6.071410    4.338630   -7.115000
  C      8.052560    6.347200   -5.120140
  C      8.862260    5.929450   -6.168960
  C     10.158990    6.416460   -6.047200
  C     10.349400    7.209840   -4.901250
  S      8.919360    7.357320   -3.971540
  C     11.690880    7.647750   -4.873090
  C     12.358090    7.135250   -6.002790
  C     11.420210    6.346940   -6.776450
  C     11.661330    5.678450   -7.942600
  C     10.663850    4.939540   -8.610900
  N      9.861640    4.335170   -9.164780
  C     12.929450    5.683230   -8.558780
  N     13.960070    5.681740   -9.062470
  C     13.699670    7.518710   -6.059430
  C     14.058920    8.312840   -4.988840
  S     12.713130    8.595790   -3.885580
  C     15.325160    8.886030   -4.710810
  C     15.671920    9.672470   -3.627540
  C     17.009570   10.065830   -3.676130
  C     17.683810    9.576980   -4.802040
  S     16.675010    8.629270   -5.806050
  C     19.030050   10.036270   -4.754610
  C     19.198670   10.811940   -3.600380
  C     17.942070   10.858640   -2.881480
  C     17.675830   11.503020   -1.707510
  C     16.402930   11.468250   -1.102530
  N     15.370150   11.442800   -0.603740
  C     18.655920   12.246480   -1.018470
  N     19.447590   12.852010   -0.450740
  C     20.510510   11.310400   -3.474680
  C     21.294190   10.911820   -4.513040
  S     20.464650    9.921610   -5.671850
  H      6.955180    5.785350    3.323760
  H      4.659150    6.350340    2.785960
  H      6.822810    9.088900    6.505190
  H      0.958260   10.398590    5.020960
  H      1.791290   11.854920    7.017990
  H      1.173840    8.445700    3.320230
  H      3.340840    7.289670    1.499100
  H      2.617860    6.533110   -0.534360
  H     -2.367530    7.000860    0.367530
  H     -0.629670    4.720760   -5.126250
  H     -3.221370    4.722050   -4.867500
  H      1.745890    5.116510   -4.307720
  H      3.386870    6.770600   -2.326070
  H      2.682990    4.071780   -5.819010
  H      5.273960    1.617810  -10.660100
  H      3.584020    2.211390  -10.596670
  H      4.057910    0.801410   -9.627130
  H      8.506250    5.306620   -6.968510
  H     14.391160    7.240560   -6.834660
  H     14.974090    9.935150   -2.852760
  H     20.858020   11.927300   -2.666200
  H     22.328000   11.137170   -4.681860

 Total Charge           Charge          ....    0
 Multiplicity           Mult            ....    1
 Number of Electrons    NEL             ....  562
 Basis Dimension        Dim             .... 1158

ORBITAL ENERGIES
----------------

  NO   OCC          E(Eh)            E(eV)
   0   2.0000     -88.985730     -2421.4248
   1   2.0000     -88.984263     -2421.3849
   2   2.0000     -88.983046     -2421.3518
   3   2.0000     -88.980511     -2421.2828
   4   2.0000     -88.975686     -2421.1515
   5   2.0000     -88.970630     -2421.0139
   6   2.0000     -88.963595     -2420.8225
   7   2.0000     -88.954025     -2420.5621
   8   2.0000     -88.953930     -2420.5595
   9   2.0000     -88.951716     -2420.4992
  10   2.0000     -19.257301      -524.0178
  11   2.0000     -19.198156      -522.4084
  12   2.0000     -14.426518      -392.5655
  13   2.0000     -14.425566      -392.5396
  14   2.0000     -14.425434      -392.5360
  15   2.0000     -14.423817      -392.4920
  16   2.0000     -10.398667      -282.9621
  17   2.0000     -10.358912      -281.8803
  18   2.0000     -10.358053      -281.8569
  19   2.0000     -10.346897      -281.5534
  20   2.0000     -10.345440      -281.5137
  21   2.0000     -10.327326      -281.0208
  22   2.0000     -10.327259      -281.0190
  23   2.0000     -10.326157      -280.9890
  24   2.0000     -10.325947      -280.9833
  25   2.0000     -10.325882      -280.9815
  26   2.0000     -10.325520      -280.9717
  27   2.0000     -10.324621      -280.9472
  28   2.0000     -10.324488      -280.9436
  29   2.0000     -10.324147      -280.9343
  30   2.0000     -10.322716      -280.8954
  31   2.0000     -10.322118      -280.8791
  32   2.0000     -10.321285      -280.8564
  33   2.0000     -10.318702      -280.7862
  34   2.0000     -10.318462      -280.7796
  35   2.0000     -10.317909      -280.7646
  36   2.0000     -10.315056      -280.6869
  37   2.0000     -10.313270      -280.6383
  38   2.0000     -10.310338      -280.5586
  39   2.0000     -10.306756      -280.4611
  40   2.0000     -10.305012      -280.4136
  41   2.0000     -10.301994      -280.3315
  42   2.0000     -10.297627      -280.2127
  43   2.0000     -10.297547      -280.2105
  44   2.0000     -10.296492      -280.1818
  45   2.0000     -10.296023      -280.1690
  46   2.0000     -10.295882      -280.1652
  47   2.0000     -10.295199      -280.1466
  48   2.0000     -10.294488      -280.1273
  49   2.0000     -10.294235      -280.1204
  50   2.0000     -10.294116      -280.1171
  51   2.0000     -10.293773      -280.1078
  52   2.0000     -10.293148      -280.0908
  53   2.0000     -10.291554      -280.0474
  54   2.0000     -10.290336      -280.0143
  55   2.0000     -10.288970      -279.9771
  56   2.0000     -10.288566      -279.9661
  57   2.0000     -10.285073      -279.8711
  58   2.0000     -10.284594      -279.8580
  59   2.0000     -10.284418      -279.8532
  60   2.0000     -10.282983      -279.8142
  61   2.0000     -10.282118      -279.7907
  62   2.0000     -10.281199      -279.7656
  63   2.0000     -10.280402      -279.7440
  64   2.0000     -10.280249      -279.7398
  65   2.0000     -10.277440      -279.6633
  66   2.0000     -10.272820      -279.5376
  67   2.0000     -10.272283      -279.5230
  68   2.0000     -10.270585      -279.4768
  69   2.0000     -10.269873      -279.4574
  70   2.0000     -10.269856      -279.4570
  71   2.0000     -10.267549      -279.3942
  72   2.0000      -8.080028      -219.8688
  73   2.0000      -8.078609      -219.8301
  74   2.0000      -8.078030      -219.8144
  75   2.0000      -8.075162      -219.7363
  76   2.0000      -8.071507      -219.6369
  77   2.0000      -8.065955      -219.4858
  78   2.0000      -8.058917      -219.2943
  79   2.0000      -8.049309      -219.0328
  80   2.0000      -8.048692      -219.0160
  81   2.0000      -8.047003      -218.9701
  82   2.0000      -6.049341      -164.6109
  83   2.0000      -6.047934      -164.5727
  84   2.0000      -6.047290      -164.5551
  85   2.0000      -6.045192      -164.4980
  86   2.0000      -6.044532      -164.4801
  87   2.0000      -6.043790      -164.4599
  88   2.0000      -6.042836      -164.4339
  89   2.0000      -6.042314      -164.4197
  90   2.0000      -6.040998      -164.3839
  91   2.0000      -6.040851      -164.3799
  92   2.0000      -6.040646      -164.3743
  93   2.0000      -6.040343      -164.3661
  94   2.0000      -6.037316      -164.2837
  95   2.0000      -6.036308      -164.2563
  96   2.0000      -6.035397      -164.2315
  97   2.0000      -6.033661      -164.1843
  98   2.0000      -6.030978      -164.1112
  99   2.0000      -6.028323      -164.0390
 100   2.0000      -6.027981      -164.0297
 101   2.0000      -6.024203      -163.9269
 102   2.0000      -6.020828      -163.8351
 103   2.0000      -6.018771      -163.7791
 104   2.0000      -6.018453      -163.7704
 105   2.0000      -6.016487      -163.7169
 106   2.0000      -6.014552      -163.6643
 107   2.0000      -6.014165      -163.6538
 108   2.0000      -6.012211      -163.6006
 109   2.0000      -6.011330      -163.5766
 110   2.0000      -6.010002      -163.5405
 111   2.0000      -6.009040      -163.5143
 112   2.0000      -1.187797       -32.3216
 113   2.0000      -1.092024       -29.7155
 114   2.0000      -1.039254       -28.2795
 115   2.0000      -1.036096       -28.1936
 116   2.0000      -1.017547       -27.6889
 117   2.0000      -1.016218       -27.6527
 118   2.0000      -1.009670       -27.4745
 119   2.0000      -1.003459       -27.3055
 120   2.0000      -1.003150       -27.2971
 121   2.0000      -1.002080       -27.2680
 122   2.0000      -1.000680       -27.2299
 123   2.0000      -0.995389       -27.0859
 124   2.0000      -0.981820       -26.7167
 125   2.0000      -0.968594       -26.3568
 126   2.0000      -0.966927       -26.3114
 127   2.0000      -0.956604       -26.0305
 128   2.0000      -0.949492       -25.8370
 129   2.0000      -0.945388       -25.7253
 130   2.0000      -0.928763       -25.2729
 131   2.0000      -0.921481       -25.0748
 132   2.0000      -0.913423       -24.8555
 133   2.0000      -0.903525       -24.5862
 134   2.0000      -0.897568       -24.4241
 135   2.0000      -0.885393       -24.0928
 136   2.0000      -0.879295       -23.9268
 137   2.0000      -0.864439       -23.5226
 138   2.0000      -0.862549       -23.4711
 139   2.0000      -0.859865       -23.3981
 140   2.0000      -0.854202       -23.2440
 141   2.0000      -0.849893       -23.1268
 142   2.0000      -0.846020       -23.0214
 143   2.0000      -0.842699       -22.9310
 144   2.0000      -0.837341       -22.7852
 145   2.0000      -0.831528       -22.6270
 146   2.0000      -0.823664       -22.4130
 147   2.0000      -0.804043       -21.8791
 148   2.0000      -0.803672       -21.8690
 149   2.0000      -0.800185       -21.7742
 150   2.0000      -0.797721       -21.7071
 151   2.0000      -0.783903       -21.3311
 152   2.0000      -0.773580       -21.0502
 153   2.0000      -0.768332       -20.9074
 154   2.0000      -0.767599       -20.8874
 155   2.0000      -0.755593       -20.5607
 156   2.0000      -0.741249       -20.1704
 157   2.0000      -0.727053       -19.7841
 158   2.0000      -0.716065       -19.4851
 159   2.0000      -0.709959       -19.3190
 160   2.0000      -0.709356       -19.3026
 161   2.0000      -0.698807       -19.0155
 162   2.0000      -0.697059       -18.9679
 163   2.0000      -0.690084       -18.7781
 164   2.0000      -0.680685       -18.5224
 165   2.0000      -0.676248       -18.4016
 166   2.0000      -0.671561       -18.2741
 167   2.0000      -0.668887       -18.2014
 168   2.0000      -0.653087       -17.7714
 169   2.0000      -0.650850       -17.7105
 170   2.0000      -0.646480       -17.5916
 171   2.0000      -0.636330       -17.3154
 172   2.0000      -0.631843       -17.1933
 173   2.0000      -0.628454       -17.1011
 174   2.0000      -0.626168       -17.0389
 175   2.0000      -0.622813       -16.9476
 176   2.0000      -0.621843       -16.9212
 177   2.0000      -0.616371       -16.7723
 178   2.0000      -0.615060       -16.7366
 179   2.0000      -0.611258       -16.6332
 180   2.0000      -0.604097       -16.4383
 181   2.0000      -0.599197       -16.3050
 182   2.0000      -0.590479       -16.0678
 183   2.0000      -0.589030       -16.0283
 184   2.0000      -0.578567       -15.7436
 185   2.0000      -0.574115       -15.6225
 186   2.0000      -0.571105       -15.5406
 187   2.0000      -0.567405       -15.4399
 188   2.0000      -0.564864       -15.3707
 189   2.0000      -0.560578       -15.2541
 190   2.0000      -0.559554       -15.2262
 191   2.0000      -0.550774       -14.9873
 192   2.0000      -0.546207       -14.8630
 193   2.0000      -0.544071       -14.8049
 194   2.0000      -0.542572       -14.7641
 195   2.0000      -0.540187       -14.6992
 196   2.0000      -0.539548       -14.6818
 197   2.0000      -0.538624       -14.6567
 198   2.0000      -0.527887       -14.3645
 199   2.0000      -0.521577       -14.1928
 200   2.0000      -0.515065       -14.0156
 201   2.0000      -0.512383       -13.9427
 202   2.0000      -0.509279       -13.8582
 203   2.0000      -0.508422       -13.8349
 204   2.0000      -0.508037       -13.8244
 205   2.0000      -0.505948       -13.7676
 206   2.0000      -0.504196       -13.7199
 207   2.0000      -0.503183       -13.6923
 208   2.0000      -0.499678       -13.5969
 209   2.0000      -0.498439       -13.5632
 210   2.0000      -0.496310       -13.5053
 211   2.0000      -0.496063       -13.4986
 212   2.0000      -0.493291       -13.4231
 213   2.0000      -0.490579       -13.3493
 214   2.0000      -0.486206       -13.2303
 215   2.0000      -0.484857       -13.1936
 216   2.0000      -0.482128       -13.1194
 217   2.0000      -0.478747       -13.0274
 218   2.0000      -0.476464       -12.9652
 219   2.0000      -0.474190       -12.9034
 220   2.0000      -0.467989       -12.7346
 221   2.0000      -0.465200       -12.6587
 222   2.0000      -0.462477       -12.5847
 223   2.0000      -0.462178       -12.5765
 224   2.0000      -0.461215       -12.5503
 225   2.0000      -0.458894       -12.4871
 226   2.0000      -0.457757       -12.4562
 227   2.0000      -0.456574       -12.4240
 228   2.0000      -0.456353       -12.4180
 229   2.0000      -0.453442       -12.3388
 230   2.0000      -0.452268       -12.3068
 231   2.0000      -0.450321       -12.2538
 232   2.0000      -0.448424       -12.2022
 233   2.0000      -0.444245       -12.0885
 234   2.0000      -0.442735       -12.0474
 235   2.0000      -0.437787       -11.9128
 236   2.0000      -0.437765       -11.9122
 237   2.0000      -0.436343       -11.8735
 238   2.0000      -0.435972       -11.8634
 239   2.0000      -0.435510       -11.8508
 240   2.0000      -0.434946       -11.8355
 241   2.0000      -0.433036       -11.7835
 242   2.0000      -0.431618       -11.7449
 243   2.0000      -0.430626       -11.7179
 244   2.0000      -0.427304       -11.6275
 245   2.0000      -0.426211       -11.5978
 246   2.0000      -0.423702       -11.5295
 247   2.0000      -0.422606       -11.4997
 248   2.0000      -0.422176       -11.4880
 249   2.0000      -0.420510       -11.4427
 250   2.0000      -0.419016       -11.4020
 251   2.0000      -0.415926       -11.3179
 252   2.0000      -0.415097       -11.2954
 253   2.0000      -0.410135       -11.1603
 254   2.0000      -0.407952       -11.1009
 255   2.0000      -0.406470       -11.0606
 256   2.0000      -0.401366       -10.9217
 257   2.0000      -0.400958       -10.9106
 258   2.0000      -0.394716       -10.7408
 259   2.0000      -0.389233       -10.5916
 260   2.0000      -0.381511       -10.3815
 261   2.0000      -0.377253       -10.2656
 262   2.0000      -0.374400       -10.1880
 263   2.0000      -0.352214        -9.5842
 264   2.0000      -0.351496        -9.5647
 265   2.0000      -0.346572        -9.4307
 266   2.0000      -0.345156        -9.3922
 267   2.0000      -0.341321        -9.2878
 268   2.0000      -0.338238        -9.2039
 269   2.0000      -0.323961        -8.8154
 270   2.0000      -0.321664        -8.7529
 271   2.0000      -0.317133        -8.6296
 272   2.0000      -0.315971        -8.5980
 273   2.0000      -0.310168        -8.4401
 274   2.0000      -0.301461        -8.2032
 275   2.0000      -0.282307        -7.6820
 276   2.0000      -0.278498        -7.5783
 277   2.0000      -0.270493        -7.3605
 278   2.0000      -0.250494        -6.8163
 279   2.0000      -0.233401        -6.3512
 280   2.0000      -0.204716        -5.5706
 281   0.0000      -0.101547        -2.7632
 282   0.0000      -0.096804        -2.6342
 283   0.0000      -0.076385        -2.0785
 284   0.0000      -0.046496        -1.2652
 285   0.0000      -0.033416        -0.9093

MULLIKEN ATOMIC CHARGES
-----------------------
   0 C :   -0.104311
   1 C :    0.030127
   2 C :    0.010297
   3 C :    0.067950
   4 C :   -0.148083
   5 S :    0.135385
   6 C :   -0.114156
   7 C :    0.048569
   8 C :    0.007306
   9 C :   -0.070127
  10 S :    0.125191
  11 C :    0.078743
  12 C :   -0.016944
  13 C :   -0.038925
  14 C :   -0.020238
  15 C :   -0.069442
  16 C :    0.064627
  17 C :    0.058112
  18 C :   -0.125999
  19 S :    0.112213
  20 C :   -0.107697
  21 C :    0.050436
  22 C :    0.005041
  23 C :   -0.067295
  24 S :    0.123294
  25 C :    0.078317
  26 C :   -0.012202
  27 C :    0.031957
  28 C :   -0.098367
  29 S :    0.127112
  30 C :   -0.128275
  31 C :   -0.050699
  32 C :    0.124784
  33 C :   -0.023198
  34 C :   -0.113678
  35 C :    0.199255
  36 O :   -0.206337
  37 O :   -0.306573
  38 C :    0.190354
  39 S :    0.153486
  40 C :   -0.056269
  41 C :   -0.071807
  42 C :    0.013231
  43 C :   -0.106963
  44 S :    0.175911
  45 C :   -0.094610
  46 C :    0.007449
  47 C :    0.304816
  48 C :   -0.302031
  49 C :   -0.186191
  50 N :    0.174296
  51 C :   -0.190319
  52 N :    0.167339
  53 C :   -0.066067
  54 C :   -0.053774
  55 S :    0.183880
  56 C :   -0.048014
  57 C :   -0.072495
  58 C :    0.017882
  59 C :   -0.104441
  60 S :    0.190210
  61 C :   -0.115230
  62 C :   -0.037233
  63 C :    0.298364
  64 C :   -0.300885
  65 C :   -0.186230
  66 N :    0.166268
  67 C :   -0.191630
  68 N :    0.173720
  69 C :    0.038984
  70 C :   -0.083648
  71 S :    0.181147
  72 H :    0.045975
  73 H :   -0.010376
  74 H :    0.036202
  75 H :   -0.019450
  76 H :    0.025699
  77 H :   -0.007998
  78 H :   -0.015495
  79 H :   -0.025972
  80 H :    0.034378
  81 H :   -0.012971
  82 H :    0.026023
  83 H :   -0.052821
  84 H :   -0.033683
  85 H :    0.007384
  86 H :    0.041193
  87 H :    0.032898
  88 H :    0.032568
  89 H :    0.007969
  90 H :    0.007963
  91 H :    0.009363
  92 H :    0.010885
  93 H :    0.034592
Sum of atomic charges:   -0.0000000

LOEWDIN ATOMIC CHARGES
----------------------
   0 C :   -0.183383
   1 C :   -0.029672
   2 C :   -0.019991
   3 C :   -0.043226
   4 C :   -0.144550
   5 S :    0.458165
   6 C :   -0.209016
   7 C :   -0.039137
   8 C :   -0.066088
   9 C :   -0.166235
  10 S :    0.418451
  11 C :   -0.060631
  12 C :   -0.016415
  13 C :   -0.063337
  14 C :   -0.151516
  15 C :   -0.033967
  16 C :   -0.012205
  17 C :   -0.046245
  18 C :   -0.144205
  19 S :    0.454287
  20 C :   -0.207920
  21 C :   -0.038659
  22 C :   -0.064968
  23 C :   -0.165025
  24 S :    0.417743
  25 C :   -0.059636
  26 C :    0.000713
  27 C :   -0.074234
  28 C :   -0.140380
  29 S :    0.431483
  30 C :   -0.231012
  31 C :   -0.174921
  32 C :   -0.086690
  33 C :   -0.006840
  34 C :   -0.206275
  35 C :    0.067087
  36 O :   -0.182572
  37 O :   -0.097077
  38 C :    0.083374
  39 S :    0.434241
  40 C :   -0.169897
  41 C :   -0.045211
  42 C :   -0.061349
  43 C :   -0.198661
  44 S :    0.457665
  45 C :   -0.169280
  46 C :   -0.079559
  47 C :    0.084871
  48 C :   -0.104284
  49 C :   -0.017816
  50 N :   -0.032458
  51 C :   -0.015285
  52 N :   -0.037892
  53 C :   -0.037559
  54 C :   -0.186274
  55 S :    0.475460
  56 C :   -0.177763
  57 C :   -0.045193
  58 C :   -0.068150
  59 C :   -0.185214
  60 S :    0.480270
  61 C :   -0.180623
  62 C :   -0.081291
  63 C :    0.085278
  64 C :   -0.106394
  65 C :   -0.015564
  66 N :   -0.038535
  67 C :   -0.016936
  68 N :   -0.035243
  69 C :   -0.033965
  70 C :   -0.180314
  71 S :    0.476504
  72 H :    0.031674
  73 H :    0.038093
  74 H :    0.035524
  75 H :    0.029194
  76 H :    0.022841
  77 H :    0.020328
  78 H :    0.029346
  79 H :    0.033142
  80 H :    0.035464
  81 H :    0.030972
  82 H :    0.023332
  83 H :    0.029047
  84 H :    0.021919
  85 H :    0.036663
  86 H :    0.028996
  87 H :    0.023825
  88 H :    0.023758
  89 H :    0.029097
  90 H :    0.034939
  91 H :    0.033921
  92 H :    0.042159
  93 H :    0.026914

  Mayer bond orders larger than 0.100000
B(  0-C ,  1-C ) :   1.6489 B(  0-C ,  5-S ) :   1.1066 B(  0-C , 72-H ) :   0.9408
B(  1-C ,  2-C ) :   1.2045 B(  1-C , 73-H ) :   0.9698 B(  2-C ,  3-C ) :   1.0590
B(  2-C , 11-C ) :   1.4281 B(  3-C ,  4-C ) :   1.5974 B(  3-C ,  6-C ) :   1.1839
B(  4-C ,  5-S ) :   1.1457 B(  4-C , 74-H ) :   0.9429 B(  6-C ,  7-C ) :   1.4532
B(  6-C , 10-S ) :   1.0701 B(  7-C ,  8-C ) :   1.2242 B(  7-C , 11-C ) :   1.0949
B(  8-C ,  9-C ) :   1.5826 B(  8-C , 75-H ) :   0.9966 B(  9-C , 10-S ) :   1.1587
B(  9-C , 76-H ) :   0.9663 B( 11-C , 12-C ) :   1.1655 B( 12-C , 13-C ) :   1.6026
B( 12-C , 77-H ) :   0.9469 B( 13-C , 14-C ) :   1.1598 B( 13-C , 78-H ) :   0.9873
B( 14-C , 15-C ) :   1.4920 B( 14-C , 19-S ) :   1.0547 B( 15-C , 16-C ) :   1.2216
B( 15-C , 79-H ) :   0.9786 B( 16-C , 17-C ) :   1.0661 B( 16-C , 25-C ) :   1.3419
B( 17-C , 18-C ) :   1.6058 B( 17-C , 20-C ) :   1.1693 B( 18-C , 19-S ) :   1.1360
B( 18-C , 80-H ) :   0.9422 B( 20-C , 21-C ) :   1.4536 B( 20-C , 24-S ) :   1.0718
B( 21-C , 22-C ) :   1.2220 B( 21-C , 25-C ) :   1.0870 B( 22-C , 23-C ) :   1.5853
B( 22-C , 81-H ) :   0.9966 B( 23-C , 24-S ) :   1.1560 B( 23-C , 82-H ) :   0.9652
B( 25-C , 26-C ) :   1.2275 B( 26-C , 27-C ) :   1.5538 B( 26-C , 83-H ) :   0.9567
B( 27-C , 28-C ) :   1.2020 B( 27-C , 84-H ) :   0.9449 B( 28-C , 29-S ) :   1.1274
B( 28-C , 30-C ) :   0.1065 B( 28-C , 32-C ) :   1.3307 B( 29-S , 30-C ) :   1.0932
B( 30-C , 31-C ) :   1.5188 B( 30-C , 40-C ) :   1.1801 B( 31-C , 32-C ) :   1.2514
B( 31-C , 39-S ) :   1.0630 B( 32-C , 33-C ) :   1.1392 B( 33-C , 34-C ) :   1.6331
B( 33-C , 85-H ) :   0.9995 B( 34-C , 35-C ) :   0.9617 B( 34-C , 39-S ) :   1.0499
B( 35-C , 36-O ) :   2.1240 B( 35-C , 37-O ) :   1.2360 B( 37-O , 38-C ) :   0.9200
B( 38-C , 86-H ) :   0.9813 B( 38-C , 87-H ) :   0.9767 B( 38-C , 88-H ) :   0.9768
B( 40-C , 41-C ) :   1.4485 B( 40-C , 44-S ) :   1.1006 B( 41-C , 42-C ) :   1.3167
B( 41-C , 89-H ) :   0.9821 B( 42-C , 43-C ) :   1.4434 B( 42-C , 47-C ) :   0.9865
B( 43-C , 44-S ) :   1.0960 B( 43-C , 45-C ) :   1.2025 B( 45-C , 46-C ) :   1.4338
B( 45-C , 55-S ) :   1.1234 B( 46-C , 47-C ) :   1.0031 B( 46-C , 53-C ) :   1.2911
B( 47-C , 48-C ) :   1.7059 B( 48-C , 49-C ) :   1.1355 B( 48-C , 51-C ) :   1.1358
B( 49-C , 50-N ) :   2.9881 B( 51-C , 52-N ) :   2.9912 B( 53-C , 54-C ) :   1.4720
B( 53-C , 90-H ) :   0.9866 B( 54-C , 55-S ) :   1.0919 B( 54-C , 56-C ) :   1.1668
B( 56-C , 57-C ) :   1.4634 B( 56-C , 60-S ) :   1.1116 B( 57-C , 58-C ) :   1.2951
B( 57-C , 91-H ) :   0.9863 B( 58-C , 59-C ) :   1.4681 B( 58-C , 63-C ) :   0.9899
B( 59-C , 60-S ) :   1.1154 B( 59-C , 61-C ) :   1.1812 B( 61-C , 62-C ) :   1.4560
B( 61-C , 71-S ) :   1.1392 B( 62-C , 63-C ) :   1.0201 B( 62-C , 69-C ) :   1.2739
B( 63-C , 64-C ) :   1.7064 B( 64-C , 65-C ) :   1.1349 B( 64-C , 67-C ) :   1.1307
B( 65-C , 66-N ) :   2.9890 B( 67-C , 68-N ) :   3.0037 B( 69-C , 70-C ) :   1.5531
B( 69-C , 92-H ) :   0.9955 B( 70-C , 71-S ) :   1.1452 B( 70-C , 93-H ) :   0.9642

-----------------------------------------------------------------------------
         ABSORPTION SPECTRUM VIA TRANSITION ELECTRIC DIPOLE MOMENTS
-----------------------------------------------------------------------------
State   Energy  Wavelength   fosc         T2         TX        TY        TZ
        (cm-1)    (nm)                  (au**2)     (au)      (au)      (au)
-----------------------------------------------------------------------------
   0    8010.1   1248.4   0.251946152  10.35494  -2.96580  -0.47919   1.15298
   1   11805.8    847.0   0.135876388   3.78899   1.82467   0.45029  -0.50678
   2   13467.2    742.5   0.660262054  16.14039   1.15276  -0.88221  -3.74610
   3   15889.9    629.3   0.040062937   0.83004  -0.56558   0.04833   0.71261
   4   17260.5    579.4   0.005252602   0.10018   0.27031   0.09391   0.13527
   5   19462.8    513.8   0.315230603   5.33211   2.28968   0.28073   0.10334
   6   20656.0    484.1   0.448915729   7.15475  -2.63700  -0.05020  -0.44547
   7   21159.8    472.6   0.595569748   9.26608  -3.02983  -0.29365  -0.00137
   8   21750.9    459.8   0.011554514   0.17488  -0.25212  -0.08595   0.32239
   9   22846.5    437.7   0.045290490   0.65262  -0.55602  -0.47838  -0.33856
  10   23951.6    417.5   0.623913467   8.57563  -2.26884  -1.31671  -1.30165
  11   24153.3    414.0   0.010044886   0.13691  -0.15905   0.31616   0.10796
  12   24856.6    402.3   0.373835362   4.95125   1.80597   1.20425   0.48938
  13   25870.7    386.5   0.069777520   0.88794   0.83639   0.18918   0.39064
  14   26928.7    371.4   0.052424352   0.64091   0.06233  -0.39249  -0.69496
  15   27238.4    367.1   0.010344703   0.12503   0.22883  -0.04604  -0.26560
  16   28219.2    354.4   0.080497067   0.93910   0.55253   0.14805   0.78224
  17   28417.7    351.9   0.008152662   0.09445  -0.28815   0.08468  -0.06515
  18   28917.6    345.8   0.136308919   1.55181  -0.50887  -0.51311  -1.01468
  19   29272.4    341.6   0.104107803   1.17085   0.31316  -0.80314  -0.65402
  20   29791.3    335.7   0.016202006   0.17904  -0.39458  -0.09611  -0.11880
  21   30058.3    332.7   0.083322335   0.91258  -0.75778   0.13618   0.56552
  22   30958.8    323.0   0.404512704   4.30154   1.38693   0.71837   1.36452
  23   31018.8    322.4   0.026704750   0.28343   0.20659   0.04588   0.48851
  24   31272.2    319.8   0.007497921   0.07893   0.11268  -0.16286  -0.19928
  25   31377.2    318.7   0.037318978   0.39155   0.12248   0.35954   0.49728
  26   31494.4    317.5   0.047748273   0.49911  -0.54446  -0.19142  -0.40748
  27   31844.7    314.0   0.030753167   0.31793   0.36217  -0.09880  -0.42071
  28   32098.9    311.5   0.324968692   3.33294  -0.62566  -1.17687  -1.24758
  29   32284.6    309.7   0.091154313   0.92952   0.62780   0.15303   0.71552
  30   32438.4    308.3   0.883013218   8.96156   1.81213  -0.85147  -2.22547
  31   32833.0    304.6   0.024229670   0.24295  -0.46117  -0.11726   0.12852
  32   33013.6    302.9   0.060753599   0.60584   0.37330  -0.24564  -0.63730
  33   33059.0    302.5   0.397414966   3.95758   1.22517   0.90743   1.27793
  34   33502.7    298.5   0.106705121   1.04853   0.96836   0.33286  -0.00443
  35   33655.6    297.1   0.094144129   0.92090  -0.62092  -0.53195  -0.50238
  36   34167.2    292.7   0.031907126   0.30744   0.34233   0.30536   0.31145
  37   34365.2    291.0   0.021972789   0.21049   0.43361   0.14197   0.04822
  38   34652.2    288.6   0.030915704   0.29371  -0.40279  -0.27928  -0.23126
  39   34771.5    287.6   0.067454332   0.63865  -0.12263  -0.42561  -0.66518
  40   35491.3    281.8   0.032436137   0.30087   0.43129  -0.13059   0.31275
  41   35852.7    278.9   0.063335300   0.58157   0.13360   0.57098   0.48754
  42   35895.3    278.6   0.154223756   1.41446  -0.96031  -0.18761  -0.67607
  43   36153.3    276.6   0.089092402   0.81128  -0.89904   0.05211   0.01702
  44   36638.4    272.9   0.238367787   2.14184  -0.68613  -0.76802  -1.03982
  45   36952.3    270.6   0.095892485   0.85432  -0.50320   0.19465   0.75048
  46   37137.9    269.3   0.020444227   0.18123   0.28006  -0.12444  -0.29549
  47   37718.3    265.1   0.047977737   0.41876   0.62969  -0.01732   0.14814
  48   37776.5    264.7   0.022271136   0.19409  -0.30489   0.22659  -0.22312
  49   37893.0    263.9   0.053496343   0.46477  -0.35837  -0.30262  -0.49473
  50   38377.7    260.6   0.031283283   0.26835   0.31746   0.34457   0.22102
  51   38582.2    259.2   0.045807333   0.39086   0.23411   0.24867   0.52366
  52   38795.5    257.8   0.029754783   0.25249   0.23410  -0.20686  -0.39357
  53   38985.0    256.5   0.132588118   1.11965  -0.46799  -0.32995  -0.88981
  54   39322.8    254.3   0.018652254   0.15616   0.19055   0.17085   0.30110
  55   39459.2    253.4   0.003288120   0.02743   0.05061   0.15539   0.02697
  56   39770.5    251.4   0.107956551   0.89364   0.48963  -0.39996  -0.70280
  57   39988.6    250.1   0.016967555   0.13969   0.18067  -0.06136  -0.32137
  58   40117.2    249.3   0.148712151   1.22037  -0.70193   0.36084   0.77296
  59   40235.8    248.5   0.040920513   0.33481   0.45060  -0.15156  -0.32985

FINAL SINGLE POINT ENERGY     -6493.985163406913

DIPOLE MOMENT
-------------
                                X             Y             Z
Electronic contribution:     48.53450      14.43139      -6.40992
Nuclear contribution   :    -49.31689     -14.42687       7.85438
                        -----------------------------------------
Total Dipole Moment    :     -0.78239       0.00452       1.44446
                        -----------------------------------------
Magnitude (a.u.)       :      1.64274
Magnitude (Debye)      :      4.17552

Rotational constants in cm-1:     0.000707     0.000303     0.000217
Rotational constants in MHz :    21.190997     9.072183     6.493114

                             ****ORCA TERMINATED NORMALLY****
TOTAL RUN TIME: 0 days 0 hours 8 minutes 36 seconds 579 msec
