                         Program Version 4.2.0 -  RELEASE  -
|  1> # ORCA input file
|  2> # SCF done       -180.815003351444          0.000454870906
|  3> ! CAM-B3LYP def2-SVP def2/J RIJCOSX Grid4 TightSCF
|  4> %maxcore 5000
|  5> %tddft
|  6>     Mode sTDDFT
|  7>     Ethresh 5.0
|  8>     maxcore 5000
|  9> end
| 10>
| 11> %pal
| 12>   nprocs 6
| 13>   end
| 14> * xyz 0 1
| 15>    C        5.87121         1.21225         0.08510
| 16>    C        4.80108         2.00692         0.31034
| 17>    C        3.69808         1.62323         1.09898
| 18>    C        3.66775         0.29957         1.72913
| 19>    C        4.64338        -0.62992         1.62240
| 20>    S        6.08007        -0.38937         0.71440
| 21>    C        2.43550         0.25412         2.43640
| 22>    C        1.74201         1.45308         2.27145
| 23>    C        0.50683         1.43220         2.95856
| 24>    C        0.30799         0.25505         3.60857
| 25>    S        1.59741        -0.87955         3.41975
| 26>    C        2.53328         2.32715         1.43088
| 27>    C        2.25027         3.65038         1.01228
| 28>    C        1.17594         4.39307         1.38143
| 29>    C        0.91606         5.74017         0.99814
| 30>    C        1.68144         6.49608         0.14086
| 31>    C        1.45242         7.83450        -0.17323
| 32>    C        0.38993         8.59889         0.49704
| 33>    C       -0.51963         8.05511         1.33398
| 34>    S       -0.53095         6.39548         1.76396
| 35>    C        0.56653         9.94465         0.07455
| 36>    C        1.65548        10.02417        -0.79247
| 37>    C        1.87937        11.34205        -1.24834
| 38>    C        0.97646        12.21086        -0.72372
| 39>    S       -0.17972        11.47235         0.33428
| 40>    C        2.19942         8.70588        -0.98911
| 41>    C        3.27135         8.42593        -1.87074
| 42>    C        3.50994         7.23730        -2.48696
| 43>    C        4.60232         6.99728        -3.35542
| 44>    C        5.75629         7.74459        -3.53936
| 45>    C        6.60101         7.18758        -4.49531
| 46>    C        6.09002         6.00805        -5.06793
| 47>    S        4.57773         5.57178        -4.39243
| 48>    C        7.00851         5.54224        -6.03302
| 49>    C        8.11700         6.40987        -6.05787
| 50>    C        7.89648         7.47104        -5.09487
| 51>    C        8.72551         8.52018        -4.81156
| 52>    C        8.39295         9.50328        -3.85900
| 53>    N        8.12319        10.30960        -3.08828
| 54>    C        9.96806         8.69045        -5.45385
| 55>    N       10.98320         8.83430        -5.96893
| 56>    C        9.08238         6.03541        -6.99270
| 57>    C        8.71596         4.90914        -7.70323
| 58>    S        7.14683         4.28453        -7.18430
| 59>    C        9.43703         4.25772        -8.74495
| 60>    C        8.86095         3.32844        -9.57505
| 61>    C        9.50677         2.67027       -10.62217
| 62>    C       10.90745         2.99011       -10.94275
| 63>    C       11.67061         3.86306       -10.25206
| 64>    S       11.12401         4.74562        -8.88581
| 65>    C       11.21638         2.22826       -12.10236
| 66>    C       10.09604         1.49772       -12.49121
| 67>    C       10.34072         0.72394       -13.64740
| 68>    C       11.61246         0.88652       -14.09686
| 69>    S       12.56247         1.97604       -13.14236
| 70>    C        9.01850         1.74832       -11.56650
| 71>    C        7.74365         1.14765       -11.71710
| 72>    C        6.75462         1.05839       -10.79114
| 73>    C        5.45597         0.51021       -11.00758
| 74>    C        4.95163         0.09175       -12.21330
| 75>    C        3.66808        -0.42137       -12.41840
| 76>    C        2.75387        -0.64544       -11.28244
| 77>    C        3.02736        -0.29114       -10.00907
| 78>    S        4.49223         0.45764        -9.52840
| 79>    C        1.60787        -1.26927       -11.84040
| 80>    C        1.78377        -1.41832       -13.21785
| 81>    C        0.66593        -2.02658       -13.83364
| 82>    C       -0.30446        -2.31956       -12.93055
| 83>    S        0.08786        -1.87016       -11.30240
| 84>    C        3.05683        -0.87246       -13.59257
| 85>    C        3.52399        -0.83336       -14.95298
| 86>    C        4.37905         0.04221       -15.47980
| 87>    H        6.70451         1.52380        -0.52144
| 88>    H        4.80303         2.98762        -0.14468
| 89>    H        4.58301        -1.59172         2.10632
| 90>    H       -0.21575         2.22683         2.98391
| 91>    H       -0.53799        -0.02872         4.20371
| 92>    H        2.98801         4.09175         0.35649
| 93>    H        0.44700         3.96212         2.05015
| 94>    H        2.55284         6.02394        -0.28709
| 95>    H       -1.30713         8.63120         1.79347
| 96>    H        2.66254        11.63676        -1.92308
| 97>    H        0.90677        13.26792        -0.89139
| 98>    H        3.90567         9.26852        -2.11388
| 99>    H        2.80026         6.42838        -2.38405
|100>    H        5.96774         8.63999        -2.98478
|101>    H       10.00342         6.56137        -7.16926
|102>    H        7.80991         3.13878        -9.41177
|103>    H       12.69478         4.07319       -10.51735
|104>    H        9.62358         0.08075       -14.12491
|105>    H       12.07227         0.42619       -14.94955
|106>    H        7.58344         0.69495       -12.68726
|107>    H        6.93717         1.39696        -9.78186
|108>    H        5.60744         0.14822       -13.06859
|109>    H        2.33234        -0.44841        -9.19909
|110>    H        0.57997        -2.23678       -14.88460
|111>    H       -1.25506        -2.78204       -13.11253
|112>    H        3.08088        -1.58279       -15.59903
|113>    H        4.79621         0.85681       -14.91378
|114>    H        4.66057        -0.00911       -16.51775
|115> *
|116>
|117>                          ****END OF INPUT****

CARTESIAN COORDINATES (ANGSTROEM)
---------------------------------
  C      5.871210    1.212250    0.085100
  C      4.801080    2.006920    0.310340
  C      3.698080    1.623230    1.098980
  C      3.667750    0.299570    1.729130
  C      4.643380   -0.629920    1.622400
  S      6.080070   -0.389370    0.714400
  C      2.435500    0.254120    2.436400
  C      1.742010    1.453080    2.271450
  C      0.506830    1.432200    2.958560
  C      0.307990    0.255050    3.608570
  S      1.597410   -0.879550    3.419750
  C      2.533280    2.327150    1.430880
  C      2.250270    3.650380    1.012280
  C      1.175940    4.393070    1.381430
  C      0.916060    5.740170    0.998140
  C      1.681440    6.496080    0.140860
  C      1.452420    7.834500   -0.173230
  C      0.389930    8.598890    0.497040
  C     -0.519630    8.055110    1.333980
  S     -0.530950    6.395480    1.763960
  C      0.566530    9.944650    0.074550
  C      1.655480   10.024170   -0.792470
  C      1.879370   11.342050   -1.248340
  C      0.976460   12.210860   -0.723720
  S     -0.179720   11.472350    0.334280
  C      2.199420    8.705880   -0.989110
  C      3.271350    8.425930   -1.870740
  C      3.509940    7.237300   -2.486960
  C      4.602320    6.997280   -3.355420
  C      5.756290    7.744590   -3.539360
  C      6.601010    7.187580   -4.495310
  C      6.090020    6.008050   -5.067930
  S      4.577730    5.571780   -4.392430
  C      7.008510    5.542240   -6.033020
  C      8.117000    6.409870   -6.057870
  C      7.896480    7.471040   -5.094870
  C      8.725510    8.520180   -4.811560
  C      8.392950    9.503280   -3.859000
  N      8.123190   10.309600   -3.088280
  C      9.968060    8.690450   -5.453850
  N     10.983200    8.834300   -5.968930
  C      9.082380    6.035410   -6.992700
  C      8.715960    4.909140   -7.703230
  S      7.146830    4.284530   -7.184300
  C      9.437030    4.257720   -8.744950
  C      8.860950    3.328440   -9.575050
  C      9.506770    2.670270  -10.622170
  C     10.907450    2.990110  -10.942750
  C     11.670610    3.863060  -10.252060
  S     11.124010    4.745620   -8.885810
  C     11.216380    2.228260  -12.102360
  C     10.096040    1.497720  -12.491210
  C     10.340720    0.723940  -13.647400
  C     11.612460    0.886520  -14.096860
  S     12.562470    1.976040  -13.142360
  C      9.018500    1.748320  -11.566500
  C      7.743650    1.147650  -11.717100
  C      6.754620    1.058390  -10.791140
  C      5.455970    0.510210  -11.007580
  C      4.951630    0.091750  -12.213300
  C      3.668080   -0.421370  -12.418400
  C      2.753870   -0.645440  -11.282440
  C      3.027360   -0.291140  -10.009070
  S      4.492230    0.457640   -9.528400
  C      1.607870   -1.269270  -11.840400
  C      1.783770   -1.418320  -13.217850
  C      0.665930   -2.026580  -13.833640
  C     -0.304460   -2.319560  -12.930550
  S      0.087860   -1.870160  -11.302400
  C      3.056830   -0.872460  -13.592570
  C      3.523990   -0.833360  -14.952980
  C      4.379050    0.042210  -15.479800
  H      6.704510    1.523800   -0.521440
  H      4.803030    2.987620   -0.144680
  H      4.583010   -1.591720    2.106320
  H     -0.215750    2.226830    2.983910
  H     -0.537990   -0.028720    4.203710
  H      2.988010    4.091750    0.356490
  H      0.447000    3.962120    2.050150
  H      2.552840    6.023940   -0.287090
  H     -1.307130    8.631200    1.793470
  H      2.662540   11.636760   -1.923080
  H      0.906770   13.267920   -0.891390
  H      3.905670    9.268520   -2.113880
  H      2.800260    6.428380   -2.384050
  H      5.967740    8.639990   -2.984780
  H     10.003420    6.561370   -7.169260
  H      7.809910    3.138780   -9.411770
  H     12.694780    4.073190  -10.517350
  H      9.623580    0.080750  -14.124910
  H     12.072270    0.426190  -14.949550
  H      7.583440    0.694950  -12.687260
  H      6.937170    1.396960   -9.781860
  H      5.607440    0.148220  -13.068590
  H      2.332340   -0.448410   -9.199090
  H      0.579970   -2.236780  -14.884600
  H     -1.255060   -2.782040  -13.112530
  H      3.080880   -1.582790  -15.599030
  H      4.796210    0.856810  -14.913780
  H      4.660570   -0.009110  -16.517750

 Total Charge           Charge          ....    0
 Multiplicity           Mult            ....    1
 Number of Electrons    NEL             ....  562
 Basis Dimension        Dim             .... 1188

ORBITAL ENERGIES
----------------

  NO   OCC          E(Eh)            E(eV)
   0   2.0000     -88.982821     -2421.3457
   1   2.0000     -88.976611     -2421.1767
   2   2.0000     -88.975427     -2421.1445
   3   2.0000     -88.970936     -2421.0223
   4   2.0000     -88.966685     -2420.9066
   5   2.0000     -88.958237     -2420.6767
   6   2.0000     -88.956125     -2420.6192
   7   2.0000     -88.950992     -2420.4795
   8   2.0000     -88.948324     -2420.4070
   9   2.0000     -88.942857     -2420.2582
  10   2.0000     -14.423969      -392.4961
  11   2.0000     -14.423713      -392.4892
  12   2.0000     -10.356467      -281.8138
  13   2.0000     -10.343989      -281.4742
  14   2.0000     -10.326936      -281.0102
  15   2.0000     -10.325896      -280.9819
  16   2.0000     -10.324519      -280.9445
  17   2.0000     -10.324403      -280.9413
  18   2.0000     -10.323522      -280.9173
  19   2.0000     -10.321815      -280.8709
  20   2.0000     -10.319375      -280.8045
  21   2.0000     -10.318160      -280.7714
  22   2.0000     -10.316179      -280.7175
  23   2.0000     -10.314447      -280.6704
  24   2.0000     -10.314112      -280.6613
  25   2.0000     -10.312292      -280.6117
  26   2.0000     -10.312280      -280.6114
  27   2.0000     -10.304546      -280.4010
  28   2.0000     -10.297801      -280.2174
  29   2.0000     -10.296702      -280.1875
  30   2.0000     -10.295324      -280.1500
  31   2.0000     -10.293646      -280.1043
  32   2.0000     -10.293609      -280.1034
  33   2.0000     -10.292670      -280.0778
  34   2.0000     -10.292179      -280.0644
  35   2.0000     -10.291349      -280.0419
  36   2.0000     -10.291021      -280.0329
  37   2.0000     -10.290411      -280.0163
  38   2.0000     -10.289219      -279.9839
  39   2.0000     -10.285506      -279.8828
  40   2.0000     -10.285319      -279.8778
  41   2.0000     -10.285043      -279.8703
  42   2.0000     -10.284113      -279.8449
  43   2.0000     -10.283174      -279.8194
  44   2.0000     -10.281757      -279.7808
  45   2.0000     -10.281649      -279.7779
  46   2.0000     -10.280396      -279.7438
  47   2.0000     -10.280143      -279.7369
  48   2.0000     -10.279702      -279.7249
  49   2.0000     -10.278380      -279.6889
  50   2.0000     -10.277295      -279.6594
  51   2.0000     -10.276928      -279.6494
  52   2.0000     -10.275525      -279.6112
  53   2.0000     -10.274863      -279.5932
  54   2.0000     -10.274656      -279.5876
  55   2.0000     -10.274586      -279.5857
  56   2.0000     -10.274070      -279.5717
  57   2.0000     -10.273976      -279.5691
  58   2.0000     -10.273914      -279.5674
  59   2.0000     -10.270204      -279.4665
  60   2.0000     -10.269543      -279.4485
  61   2.0000     -10.269273      -279.4411
  62   2.0000     -10.267751      -279.3997
  63   2.0000     -10.267013      -279.3796
  64   2.0000     -10.266440      -279.3640
  65   2.0000     -10.264808      -279.3196
  66   2.0000     -10.264233      -279.3040
  67   2.0000     -10.261964      -279.2422
  68   2.0000     -10.261368      -279.2260
  69   2.0000     -10.257405      -279.1182
  70   2.0000     -10.254412      -279.0367
  71   2.0000     -10.248298      -278.8704
  72   2.0000      -8.076982      -219.7859
  73   2.0000      -8.071324      -219.6319
  74   2.0000      -8.071243      -219.6297
  75   2.0000      -8.066187      -219.4921
  76   2.0000      -8.062217      -219.3841
  77   2.0000      -8.053764      -219.1541
  78   2.0000      -8.051505      -219.0926
  79   2.0000      -8.046320      -218.9515
  80   2.0000      -8.043698      -218.8801
  81   2.0000      -8.038084      -218.7274
  82   2.0000      -6.046299      -164.5282
  83   2.0000      -6.042214      -164.4170
  84   2.0000      -6.040807      -164.3787
  85   2.0000      -6.040459      -164.3692
  86   2.0000      -6.039241      -164.3361
  87   2.0000      -6.036384      -164.2584
  88   2.0000      -6.036183      -164.2529
  89   2.0000      -6.035858      -164.2440
  90   2.0000      -6.033647      -164.1839
  91   2.0000      -6.033396      -164.1770
  92   2.0000      -6.031672      -164.1301
  93   2.0000      -6.031253      -164.1187
  94   2.0000      -6.027913      -164.0278
  95   2.0000      -6.027252      -164.0099
  96   2.0000      -6.024199      -163.9268
  97   2.0000      -6.023278      -163.9017
  98   2.0000      -6.020917      -163.8375
  99   2.0000      -6.018868      -163.7817
 100   2.0000      -6.016692      -163.7225
 101   2.0000      -6.015786      -163.6979
 102   2.0000      -6.015668      -163.6946
 103   2.0000      -6.013614      -163.6388
 104   2.0000      -6.013192      -163.6273
 105   2.0000      -6.011548      -163.5825
 106   2.0000      -6.008931      -163.5113
 107   2.0000      -6.008334      -163.4951
 108   2.0000      -6.007586      -163.4747
 109   2.0000      -6.005666      -163.4225
 110   2.0000      -6.003343      -163.3593
 111   2.0000      -6.000093      -163.2708
 112   2.0000      -1.034775       -28.1576
 113   2.0000      -1.014828       -27.6149
 114   2.0000      -1.004579       -27.3360
 115   2.0000      -1.001460       -27.2511
 116   2.0000      -1.000681       -27.2299
 117   2.0000      -0.997342       -27.1391
 118   2.0000      -0.989199       -26.9175
 119   2.0000      -0.988297       -26.8929
 120   2.0000      -0.967750       -26.3338
 121   2.0000      -0.965308       -26.2674
 122   2.0000      -0.964262       -26.2389
 123   2.0000      -0.956653       -26.0319
 124   2.0000      -0.948087       -25.7988
 125   2.0000      -0.927483       -25.2381
 126   2.0000      -0.923272       -25.1235
 127   2.0000      -0.920616       -25.0512
 128   2.0000      -0.912607       -24.8333
 129   2.0000      -0.907850       -24.7039
 130   2.0000      -0.898606       -24.4523
 131   2.0000      -0.890731       -24.2380
 132   2.0000      -0.883082       -24.0299
 133   2.0000      -0.879891       -23.9431
 134   2.0000      -0.870868       -23.6975
 135   2.0000      -0.858694       -23.3663
 136   2.0000      -0.856163       -23.2974
 137   2.0000      -0.853544       -23.2261
 138   2.0000      -0.846211       -23.0266
 139   2.0000      -0.841797       -22.9065
 140   2.0000      -0.835312       -22.7300
 141   2.0000      -0.832935       -22.6653
 142   2.0000      -0.829131       -22.5618
 143   2.0000      -0.820681       -22.3319
 144   2.0000      -0.810789       -22.0627
 145   2.0000      -0.805022       -21.9058
 146   2.0000      -0.802685       -21.8422
 147   2.0000      -0.796733       -21.6802
 148   2.0000      -0.789834       -21.4925
 149   2.0000      -0.778789       -21.1919
 150   2.0000      -0.773886       -21.0585
 151   2.0000      -0.766086       -20.8463
 152   2.0000      -0.756766       -20.5927
 153   2.0000      -0.747099       -20.3296
 154   2.0000      -0.733932       -19.9713
 155   2.0000      -0.728210       -19.8156
 156   2.0000      -0.727280       -19.7903
 157   2.0000      -0.713128       -19.4052
 158   2.0000      -0.710191       -19.3253
 159   2.0000      -0.707664       -19.2565
 160   2.0000      -0.693784       -18.8788
 161   2.0000      -0.688772       -18.7424
 162   2.0000      -0.681074       -18.5330
 163   2.0000      -0.672477       -18.2990
 164   2.0000      -0.664765       -18.0892
 165   2.0000      -0.660925       -17.9847
 166   2.0000      -0.658668       -17.9233
 167   2.0000      -0.650613       -17.7041
 168   2.0000      -0.645744       -17.5716
 169   2.0000      -0.645368       -17.5614
 170   2.0000      -0.638199       -17.3663
 171   2.0000      -0.631727       -17.1902
 172   2.0000      -0.628619       -17.1056
 173   2.0000      -0.620953       -16.8970
 174   2.0000      -0.619528       -16.8582
 175   2.0000      -0.616843       -16.7852
 176   2.0000      -0.615218       -16.7409
 177   2.0000      -0.606095       -16.4927
 178   2.0000      -0.602978       -16.4079
 179   2.0000      -0.599664       -16.3177
 180   2.0000      -0.592475       -16.1221
 181   2.0000      -0.590134       -16.0584
 182   2.0000      -0.582993       -15.8641
 183   2.0000      -0.577316       -15.7096
 184   2.0000      -0.573837       -15.6149
 185   2.0000      -0.570608       -15.5270
 186   2.0000      -0.567660       -15.4468
 187   2.0000      -0.560831       -15.2610
 188   2.0000      -0.559652       -15.2289
 189   2.0000      -0.557208       -15.1624
 190   2.0000      -0.553091       -15.0504
 191   2.0000      -0.548309       -14.9202
 192   2.0000      -0.544246       -14.8097
 193   2.0000      -0.541128       -14.7248
 194   2.0000      -0.538559       -14.6549
 195   2.0000      -0.535452       -14.5704
 196   2.0000      -0.531382       -14.4596
 197   2.0000      -0.528642       -14.3851
 198   2.0000      -0.520522       -14.1641
 199   2.0000      -0.511483       -13.9182
 200   2.0000      -0.511172       -13.9097
 201   2.0000      -0.509230       -13.8568
 202   2.0000      -0.508548       -13.8383
 203   2.0000      -0.506655       -13.7868
 204   2.0000      -0.503796       -13.7090
 205   2.0000      -0.502439       -13.6721
 206   2.0000      -0.501814       -13.6550
 207   2.0000      -0.500350       -13.6152
 208   2.0000      -0.498418       -13.5626
 209   2.0000      -0.497247       -13.5308
 210   2.0000      -0.496483       -13.5100
 211   2.0000      -0.492485       -13.4012
 212   2.0000      -0.492139       -13.3918
 213   2.0000      -0.490086       -13.3359
 214   2.0000      -0.483805       -13.1650
 215   2.0000      -0.480159       -13.0658
 216   2.0000      -0.477742       -13.0000
 217   2.0000      -0.473105       -12.8739
 218   2.0000      -0.465239       -12.6598
 219   2.0000      -0.463527       -12.6132
 220   2.0000      -0.461619       -12.5613
 221   2.0000      -0.458640       -12.4802
 222   2.0000      -0.455930       -12.4065
 223   2.0000      -0.455433       -12.3930
 224   2.0000      -0.455205       -12.3868
 225   2.0000      -0.453483       -12.3399
 226   2.0000      -0.452653       -12.3173
 227   2.0000      -0.450986       -12.2720
 228   2.0000      -0.449454       -12.2303
 229   2.0000      -0.446276       -12.1438
 230   2.0000      -0.442997       -12.0546
 231   2.0000      -0.441957       -12.0262
 232   2.0000      -0.441443       -12.0123
 233   2.0000      -0.437352       -11.9010
 234   2.0000      -0.435795       -11.8586
 235   2.0000      -0.434066       -11.8115
 236   2.0000      -0.432381       -11.7657
 237   2.0000      -0.431906       -11.7528
 238   2.0000      -0.431613       -11.7448
 239   2.0000      -0.427361       -11.6291
 240   2.0000      -0.425832       -11.5875
 241   2.0000      -0.425547       -11.5797
 242   2.0000      -0.422070       -11.4851
 243   2.0000      -0.420574       -11.4444
 244   2.0000      -0.420396       -11.4396
 245   2.0000      -0.419291       -11.4095
 246   2.0000      -0.417877       -11.3710
 247   2.0000      -0.416170       -11.3246
 248   2.0000      -0.415363       -11.3026
 249   2.0000      -0.411452       -11.1962
 250   2.0000      -0.410132       -11.1603
 251   2.0000      -0.404406       -11.0044
 252   2.0000      -0.403919       -10.9912
 253   2.0000      -0.402668       -10.9572
 254   2.0000      -0.399799       -10.8791
 255   2.0000      -0.394678       -10.7397
 256   2.0000      -0.393431       -10.7058
 257   2.0000      -0.391285       -10.6474
 258   2.0000      -0.389366       -10.5952
 259   2.0000      -0.385245       -10.4830
 260   2.0000      -0.382989       -10.4217
 261   2.0000      -0.372031       -10.1235
 262   2.0000      -0.348461        -9.4821
 263   2.0000      -0.345647        -9.4055
 264   2.0000      -0.340780        -9.2731
 265   2.0000      -0.339752        -9.2451
 266   2.0000      -0.336133        -9.1466
 267   2.0000      -0.322851        -8.7852
 268   2.0000      -0.319580        -8.6962
 269   2.0000      -0.317889        -8.6502
 270   2.0000      -0.313336        -8.5263
 271   2.0000      -0.312618        -8.5068
 272   2.0000      -0.284864        -7.7516
 273   2.0000      -0.282443        -7.6857
 274   2.0000      -0.275766        -7.5040
 275   2.0000      -0.272137        -7.4052
 276   2.0000      -0.263329        -7.1655
 277   2.0000      -0.247322        -6.7300
 278   2.0000      -0.236904        -6.4465
 279   2.0000      -0.213801        -5.8178
 280   2.0000      -0.204352        -5.5607
 281   0.0000      -0.098325        -2.6756
 282   0.0000      -0.065959        -1.7948
 283   0.0000      -0.059364        -1.6154
 284   0.0000      -0.038360        -1.0438
 285   0.0000      -0.028450        -0.7742

MULLIKEN ATOMIC CHARGES
-----------------------
   0 C :   -0.103398
   1 C :    0.041010
   2 C :    0.014314
   3 C :    0.072263
   4 C :   -0.143724
   5 S :    0.130795
   6 C :   -0.121708
   7 C :    0.060759
   8 C :   -0.016406
   9 C :   -0.067962
  10 S :    0.126435
  11 C :    0.085712
  12 C :    0.005617
  13 C :    0.031517
  14 C :   -0.070959
  15 C :   -0.047761
  16 C :    0.050963
  17 C :    0.060677
  18 C :   -0.134522
  19 S :    0.124523
  20 C :   -0.114252
  21 C :    0.056929
  22 C :    0.006249
  23 C :   -0.070075
  24 S :    0.120394
  25 C :    0.064258
  26 C :   -0.029905
  27 C :    0.014542
  28 C :   -0.077682
  29 C :   -0.040725
  30 C :    0.007389
  31 C :   -0.114174
  32 S :    0.171788
  33 C :   -0.095038
  34 C :   -0.000729
  35 C :    0.307074
  36 C :   -0.301185
  37 C :   -0.185001
  38 N :    0.163888
  39 C :   -0.187980
  40 N :    0.170055
  41 C :   -0.045610
  42 C :   -0.071078
  43 S :    0.165996
  44 C :   -0.029854
  45 C :   -0.093433
  46 C :    0.051718
  47 C :    0.057735
  48 C :   -0.128686
  49 S :    0.132144
  50 C :   -0.106960
  51 C :    0.045205
  52 C :    0.004723
  53 C :   -0.068931
  54 S :    0.124949
  55 C :    0.081332
  56 C :   -0.009961
  57 C :    0.017868
  58 C :   -0.077263
  59 C :   -0.044830
  60 C :    0.048382
  61 C :    0.063198
  62 C :   -0.135067
  63 S :    0.108925
  64 C :   -0.114726
  65 C :    0.052860
  66 C :    0.010038
  67 C :   -0.070960
  68 S :    0.113737
  69 C :    0.035386
  70 C :   -0.036868
  71 C :   -0.034933
  72 H :    0.045988
  73 H :   -0.012817
  74 H :    0.034761
  75 H :   -0.009385
  76 H :    0.024117
  77 H :   -0.039531
  78 H :   -0.047739
  79 H :   -0.032372
  80 H :    0.032393
  81 H :   -0.016847
  82 H :    0.025186
  83 H :   -0.013363
  84 H :   -0.015710
  85 H :    0.004400
  86 H :    0.015925
  87 H :   -0.013705
  88 H :    0.035605
  89 H :   -0.015153
  90 H :    0.024813
  91 H :   -0.021958
  92 H :   -0.023412
  93 H :   -0.031896
  94 H :    0.029102
  95 H :   -0.021516
  96 H :    0.020282
  97 H :   -0.016439
  98 H :    0.015903
  99 H :    0.014363
Sum of atomic charges:   -0.0000000

LOEWDIN ATOMIC CHARGES
----------------------
   0 C :   -0.182292
   1 C :   -0.027909
   2 C :   -0.019374
   3 C :   -0.046983
   4 C :   -0.143552
   5 S :    0.453209
   6 C :   -0.203636
   7 C :   -0.037135
   8 C :   -0.067969
   9 C :   -0.167733
  10 S :    0.422305
  11 C :   -0.056527
  12 C :   -0.001112
  13 C :   -0.071369
  14 C :   -0.156146
  15 C :   -0.032959
  16 C :   -0.009990
  17 C :   -0.048462
  18 C :   -0.146302
  19 S :    0.447047
  20 C :   -0.209190
  21 C :   -0.037735
  22 C :   -0.065089
  23 C :   -0.165662
  24 S :    0.414018
  25 C :   -0.067926
  26 C :    0.003388
  27 C :   -0.077387
  28 C :   -0.150776
  29 C :   -0.041660
  30 C :   -0.063036
  31 C :   -0.202478
  32 S :    0.457624
  33 C :   -0.168708
  34 C :   -0.080672
  35 C :    0.085487
  36 C :   -0.106456
  37 C :   -0.015480
  38 N :   -0.037927
  39 C :   -0.016406
  40 N :   -0.036686
  41 C :   -0.038693
  42 C :   -0.186119
  43 S :    0.466900
  44 C :   -0.178924
  45 C :   -0.037897
  46 C :   -0.021998
  47 C :   -0.045771
  48 C :   -0.142652
  49 S :    0.456142
  50 C :   -0.205711
  51 C :   -0.039537
  52 C :   -0.065486
  53 C :   -0.166206
  54 S :    0.417944
  55 C :   -0.053560
  56 C :   -0.009178
  57 C :   -0.063791
  58 C :   -0.165604
  59 C :   -0.026004
  60 C :   -0.020036
  61 C :   -0.049665
  62 C :   -0.147469
  63 S :    0.432076
  64 C :   -0.209016
  65 C :   -0.039446
  66 C :   -0.066143
  67 C :   -0.168848
  68 S :    0.408214
  69 C :   -0.062657
  70 C :   -0.019371
  71 C :   -0.064086
  72 H :    0.032067
  73 H :    0.037931
  74 H :    0.035077
  75 H :    0.028093
  76 H :    0.023158
  77 H :    0.024583
  78 H :    0.020751
  79 H :    0.032169
  80 H :    0.034785
  81 H :    0.030432
  82 H :    0.022625
  83 H :    0.030707
  84 H :    0.024857
  85 H :    0.037444
  86 H :    0.034602
  87 H :    0.024840
  88 H :    0.036388
  89 H :    0.030068
  90 H :    0.022634
  91 H :    0.028762
  92 H :    0.017954
  93 H :    0.033421
  94 H :    0.033141
  95 H :    0.028621
  96 H :    0.020737
  97 H :    0.027524
  98 H :    0.017878
  99 H :    0.020993

  Mayer bond orders larger than 0.100000
B(  0-C ,  1-C ) :   1.6613 B(  0-C ,  5-S ) :   1.1019 B(  0-C , 72-H ) :   0.9382
B(  1-C ,  2-C ) :   1.2054 B(  1-C , 73-H ) :   0.9690 B(  2-C ,  3-C ) :   1.0555
B(  2-C , 11-C ) :   1.4154 B(  3-C ,  4-C ) :   1.6041 B(  3-C ,  6-C ) :   1.1848
B(  4-C ,  5-S ) :   1.1425 B(  4-C , 74-H ) :   0.9411 B(  6-C ,  7-C ) :   1.4615
B(  6-C , 10-S ) :   1.0764 B(  7-C ,  8-C ) :   1.2135 B(  7-C , 11-C ) :   1.0640
B(  8-C ,  9-C ) :   1.5880 B(  8-C , 75-H ) :   0.9994 B(  9-C , 10-S ) :   1.1594
B(  9-C , 76-H ) :   0.9637 B( 11-C , 12-C ) :   1.1877 B( 12-C , 13-C ) :   1.6493
B( 12-C , 77-H ) :   0.9524 B( 13-C , 14-C ) :   1.1108 B( 13-C , 78-H ) :   0.9639
B( 14-C , 15-C ) :   1.5260 B( 14-C , 19-S ) :   1.0613 B( 15-C , 16-C ) :   1.2514
B( 15-C , 79-H ) :   0.9627 B( 16-C , 17-C ) :   1.0539 B( 16-C , 25-C ) :   1.3764
B( 17-C , 18-C ) :   1.6056 B( 17-C , 20-C ) :   1.1795 B( 18-C , 19-S ) :   1.1386
B( 18-C , 80-H ) :   0.9416 B( 20-C , 21-C ) :   1.4455 B( 20-C , 24-S ) :   1.0679
B( 21-C , 22-C ) :   1.2189 B( 21-C , 25-C ) :   1.1027 B( 22-C , 23-C ) :   1.5844
B( 22-C , 81-H ) :   0.9986 B( 23-C , 24-S ) :   1.1551 B( 23-C , 82-H ) :   0.9664
B( 25-C , 26-C ) :   1.1611 B( 26-C , 27-C ) :   1.6434 B( 26-C , 83-H ) :   0.9604
B( 27-C , 28-C ) :   1.1285 B( 27-C , 84-H ) :   0.9573 B( 28-C , 29-C ) :   1.4407
B( 28-C , 32-S ) :   1.1071 B( 29-C , 30-C ) :   1.3025 B( 29-C , 85-H ) :   0.9916
B( 30-C , 31-C ) :   1.4345 B( 30-C , 35-C ) :   0.9940 B( 31-C , 32-S ) :   1.0968
B( 31-C , 33-C ) :   1.2060 B( 33-C , 34-C ) :   1.4343 B( 33-C , 43-S ) :   1.1270
B( 34-C , 35-C ) :   1.0076 B( 34-C , 41-C ) :   1.2948 B( 35-C , 36-C ) :   1.7023
B( 36-C , 37-C ) :   1.1348 B( 36-C , 39-C ) :   1.1340 B( 37-C , 38-N ) :   2.9875
B( 39-C , 40-N ) :   2.9911 B( 41-C , 42-C ) :   1.4673 B( 41-C , 86-H ) :   0.9809
B( 42-C , 43-S ) :   1.0896 B( 42-C , 44-C ) :   1.1483 B( 44-C , 45-C ) :   1.5314
B( 44-C , 49-S ) :   1.0585 B( 45-C , 46-C ) :   1.2353 B( 45-C , 87-H ) :   0.9598
B( 46-C , 47-C ) :   1.0516 B( 46-C , 55-C ) :   1.3917 B( 47-C , 48-C ) :   1.6169
B( 47-C , 50-C ) :   1.1733 B( 48-C , 49-S ) :   1.1289 B( 48-C , 88-H ) :   0.9411
B( 50-C , 51-C ) :   1.4491 B( 50-C , 54-S ) :   1.0716 B( 51-C , 52-C ) :   1.2180
B( 51-C , 55-C ) :   1.0961 B( 52-C , 53-C ) :   1.5850 B( 52-C , 89-H ) :   0.9973
B( 53-C , 54-S ) :   1.1551 B( 53-C , 90-H ) :   0.9662 B( 55-C , 56-C ) :   1.1683
B( 56-C , 57-C ) :   1.6579 B( 56-C , 91-H ) :   0.9530 B( 57-C , 58-C ) :   1.1020
B( 57-C , 92-H ) :   0.9580 B( 58-C , 59-C ) :   1.5487 B( 58-C , 63-S ) :   1.0456
B( 59-C , 60-C ) :   1.2277 B( 59-C , 93-H ) :   0.9616 B( 60-C , 61-C ) :   1.0404
B( 60-C , 69-C ) :   1.4378 B( 61-C , 62-C ) :   1.6154 B( 61-C , 64-C ) :   1.1863
B( 62-C , 63-S ) :   1.1347 B( 62-C , 94-H ) :   0.9402 B( 64-C , 65-C ) :   1.4369
B( 64-C , 68-S ) :   1.0655 B( 65-C , 66-C ) :   1.2126 B( 65-C , 69-C ) :   1.1254
B( 66-C , 67-C ) :   1.5870 B( 66-C , 95-H ) :   0.9969 B( 67-C , 68-S ) :   1.1515
B( 67-C , 96-H ) :   0.9663 B( 69-C , 70-C ) :   1.0975 B( 70-C , 71-C ) :   1.9243
B( 70-C , 97-H ) :   0.9548 B( 71-C , 98-H ) :   0.9564 B( 71-C , 99-H ) :   0.9467

-----------------------------------------------------------------------------
         ABSORPTION SPECTRUM VIA TRANSITION ELECTRIC DIPOLE MOMENTS
-----------------------------------------------------------------------------
State   Energy  Wavelength   fosc         T2         TX        TY        TZ
        (cm-1)    (nm)                  (au**2)     (au)      (au)      (au)
-----------------------------------------------------------------------------
   0    7930.7   1260.9   0.147101162   6.10635  -1.11544   0.54241   2.13727
   1   12663.8    789.7   0.048220833   1.25356   0.72209   0.82803  -0.21567
   2   15651.5    638.9   0.473739731   9.96461   0.52019   0.08093   3.11247
   3   17182.0    582.0   0.261268773   5.00599  -0.27483  -1.38958  -1.73191
   4   17683.8    565.5   0.685523572  12.76213   1.35785   3.30331   0.08061
   5   20130.3    496.8   0.014600684   0.23878  -0.33085   0.33150   0.13938
   6   20530.7    487.1   0.023564127   0.37785  -0.61159  -0.03014   0.05384
   7   21033.4    475.4   0.027185286   0.42550   0.58422   0.25800   0.13274
   8   21494.9    465.2   0.173311591   2.65441  -1.61936  -0.17287   0.04670
   9   21918.5    456.2   0.582495514   8.74898   2.16351  -1.42656  -1.42589
  10   22746.9    439.6   0.029652011   0.42915   0.57207  -0.12015   0.29572
  11   22848.1    437.7   0.159621954   2.29995   1.40753   0.48266  -0.29299
  12   23357.8    428.1   0.158410049   2.23268  -0.58449   1.33453  -0.33177
  13   24734.5    404.3   0.045351558   0.60362   0.00267  -0.60512  -0.48729
  14   25007.4    399.9   0.082837518   1.09052  -0.92937   0.47205   0.06287
  15   26104.6    383.1   0.193060976   2.43474   1.29962  -0.46016  -0.73073
  16   26644.7    375.3   0.629748503   7.78093   2.33824  -0.89322  -1.23115
  17   27038.1    369.8   0.111561892   1.35836   0.99862  -0.54408  -0.25515
  18   27584.2    362.5   0.023659937   0.28238   0.26129   0.45819   0.06454
  19   28179.6    354.9   0.344694462   4.02694  -1.53501   0.87608   0.95035
  20   28280.3    353.6   0.098849172   1.15071  -0.38511   0.98393   0.18513
  21   28575.8    349.9   0.072504398   0.83530   0.76082  -0.10376  -0.49566
  22   29145.8    343.1   0.068014772   0.76825   0.02443   0.82959   0.28183
  23   29585.3    338.0   0.036246100   0.40333   0.19978  -0.59827   0.07408
  24   29891.9    334.5   0.146760394   1.61633   1.24706  -0.18284   0.16657
  25   30330.4    329.7   0.012566489   0.13640   0.32247   0.03094   0.17736
  26   30653.9    326.2   0.156392183   1.67960  -1.28801   0.13510  -0.04873
  27   30891.8    323.7   0.032361028   0.34487  -0.11374   0.45998   0.34692
  28   31035.2    322.2   0.215278150   2.28360  -0.71937  -1.32089   0.14618
  29   31237.7    320.1   0.499778829   5.26714  -1.06545  -2.00402  -0.34040
  30   31367.7    318.8   0.230384442   2.41794  -0.51535  -0.92441  -1.13922
  31   31891.0    313.6   0.077549397   0.80055  -0.49622   0.38415  -0.63776
  32   31917.1    313.3   0.056940638   0.58732  -0.10411  -0.39124   0.65070
  33   32390.5    308.7   0.361521634   3.67444   0.04247  -1.40965  -1.29828
  34   32452.2    308.1   0.064200445   0.65128   0.68004  -0.41946  -0.11346
  35   32661.4    306.2   0.127108881   1.28120   0.58499  -0.96128  -0.12213
  36   32933.8    303.6   0.037396316   0.37382  -0.57620  -0.20441  -0.00569
  37   33490.4    298.6   0.041110744   0.40412   0.39887   0.10342   0.48407
  38   33717.9    296.6   0.056328802   0.54998   0.40621   0.12680  -0.60737
  39   33999.7    294.1   0.231530385   2.24186   0.66381  -1.20208  -0.59683
  40   34650.0    288.6   0.086029483   0.81737   0.78678   0.44157   0.05798
  41   34690.8    288.3   0.197213060   1.87153  -1.02182  -0.65244   0.63383
  42   34955.5    286.1   0.014845890   0.13982   0.20979   0.07325  -0.30073
  43   35218.3    283.9   0.099223083   0.92751   0.82456  -0.43791  -0.23630
  44   36053.2    277.4   0.343914622   3.14038   0.98140   0.64476   1.32722
  45   36144.3    276.7   0.124541105   1.13435   0.36620   0.95791   0.28751
  46   36512.9    273.9   0.024739034   0.22306   0.44547   0.06976   0.14051
  47   36796.2    271.8   0.110650793   0.98998  -0.15088  -0.92020  -0.34706
  48   36934.5    270.7   0.160332336   1.42911   0.54596  -0.99835   0.36651
  49   37054.3    269.9   0.015249861   0.13549  -0.19848  -0.12477   0.28377
  50   37197.6    268.8   0.051381289   0.45474  -0.53770   0.28828   0.28725
  51   37370.0    267.6   0.027525779   0.24249  -0.11508   0.47731  -0.03767
  52   37710.1    265.2   0.102343854   0.89347   0.35218   0.04342  -0.87610
  53   37822.8    264.4   0.085075271   0.74050  -0.69491   0.50505  -0.05028
  54   38059.3    262.7   0.054749948   0.47359  -0.42268  -0.46936   0.27317
  55   38220.3    261.6   0.103261972   0.88945  -0.54667   0.17072   0.74931
  56   38447.8    260.1   0.013237762   0.11335   0.09648  -0.08048  -0.31235
  57   38528.8    259.5   0.016874789   0.14419  -0.26149   0.27450   0.02145
  58   38680.8    258.5   0.047028798   0.40026   0.30000  -0.34302  -0.43886
  59   39110.2    255.7   0.078659503   0.66212   0.56285   0.02976  -0.58689
  60   39147.0    255.4   0.064441970   0.54193   0.18791   0.24497  -0.66829
  61   39399.4    253.8   0.094356049   0.78842   0.72568   0.32393  -0.39607
  62   39653.7    252.2   0.040440590   0.33575   0.27684   0.50704  -0.04486
  63   39717.4    251.8   0.047690137   0.39530  -0.18160   0.41980   0.43137
  64   40115.0    249.3   0.072698288   0.59661   0.52961   0.10064  -0.55317
  65   40257.0    248.4   0.025041632   0.20478  -0.15227  -0.41648   0.09022

FINAL SINGLE POINT ENERGY     -6390.120794763407

DIPOLE MOMENT
-------------
                                X             Y             Z
Electronic contribution:     13.70379      13.53998      23.06828
Nuclear contribution   :    -14.69010     -15.34153     -21.98104
                        -----------------------------------------
Total Dipole Moment    :     -0.98631      -1.80155       1.08724
                        -----------------------------------------
Magnitude (a.u.)       :      2.32389
Magnitude (Debye)      :      5.90687

Rotational constants in cm-1:     0.000687     0.000316     0.000272
Rotational constants in MHz :    20.592812     9.480139     8.154486

                             ****ORCA TERMINATED NORMALLY****
TOTAL RUN TIME: 0 days 0 hours 10 minutes 16 seconds 673 msec
