                         Program Version 4.2.0 -  RELEASE  -
|  1> # ORCA input file
|  2> # SCF done       -177.065082925968          0.000657014965
|  3> ! CAM-B3LYP def2-SVP def2/J RIJCOSX Grid4 TightSCF
|  4> %maxcore 5000
|  5> %tddft
|  6>     Mode sTDDFT
|  7>     Ethresh 5.0
|  8>     maxcore 5000
|  9> end
| 10>
| 11> %pal
| 12>   nprocs 6
| 13>   end
| 14> * xyz 0 1
| 15>    C        8.41807        12.56766        -1.72479
| 16>    C        7.09746        12.51115        -1.44275
| 17>    C        6.39434        13.54770        -0.79617
| 18>    C        7.09384        14.76976        -0.38633
| 19>    C        8.40965        15.00940        -0.58108
| 20>    S        9.46738        13.89645        -1.34991
| 21>    C        6.09830        15.57858         0.22711
| 22>    C        4.86768        14.92257         0.20830
| 23>    C        3.85550        15.70611         0.80760
| 24>    C        4.33420        16.89786         1.25278
| 25>    S        6.02323        17.12795         0.96823
| 26>    C        5.04381        13.63831        -0.43540
| 27>    C        4.08361        12.62763        -0.68178
| 28>    C        2.77638        12.64464        -0.31604
| 29>    C        1.83249        11.60758        -0.56915
| 30>    C        2.08107        10.47338        -1.30631
| 31>    C        1.17896         9.43736        -1.53663
| 32>    C       -0.21218         9.54344        -1.07124
| 33>    C       -0.69128        10.56766        -0.33251
| 34>    S        0.26226        11.89970         0.17521
| 35>    C       -0.87084         8.38725        -1.57075
| 36>    C        0.03420         7.60653        -2.28568
| 37>    C       -0.56488         6.43726        -2.80483
| 38>    C       -1.88157         6.36423        -2.47783
| 39>    S       -2.44727         7.69875        -1.52978
| 40>    C        1.33289         8.23380        -2.25570
| 41>    C        2.46584         7.63321        -2.84986
| 42>    C        3.77428         7.96860        -2.67959
| 43>    C        4.88870         7.33836        -3.29697
| 44>    C        4.83181         6.24321        -4.12883
| 45>    C        5.92152         5.60774        -4.71734
| 46>    C        7.29089         6.07437        -4.44380
| 47>    C        7.59807         7.13998        -3.67470
| 48>    S        6.42212         8.11089        -2.88813
| 49>    C        8.14803         5.17351        -5.13237
| 50>    C        7.38385         4.21396        -5.78936
| 51>    C        8.18443         3.27846        -6.48260
| 52>    C        9.50760         3.54922        -6.33605
| 53>    S        9.83812         4.94134        -5.35964
| 54>    C        5.98296         4.47511        -5.55720
| 55>    C        4.98775         3.65473        -6.13271
| 56>    C        3.63347         3.79303        -6.10964
| 57>    C        2.70828         2.89144        -6.70476
| 58>    C        3.04079         1.82973        -7.51309
| 59>    C        2.14703         0.91438        -8.06359
| 60>    C        0.69518         1.10523        -7.91817
| 61>    C        0.12787         2.08427        -7.18215
| 62>    S        1.02808         3.24517        -6.29445
| 63>    C        0.09929         0.08548        -8.70886
| 64>    C        1.09467        -0.69226        -9.29781
| 65>    C        0.55789        -1.73134       -10.09003
| 66>    C       -0.80046        -1.71391       -10.08485
| 67>    S       -1.48420        -0.44755        -9.12091
| 68>    C        2.38577        -0.20417        -8.88534
| 69>    C        3.60702        -0.80558        -9.28041
| 70>    C        4.81179        -0.64355        -8.67428
| 71>    C        6.06221        -1.18320        -9.09325
| 72>    C        6.27932        -1.99216       -10.17916
| 73>    C        7.52176        -2.49954       -10.57267
| 74>    C        8.74381        -2.17859        -9.81755
| 75>    C        8.77979        -1.39622        -8.71920
| 76>    S        7.38636        -0.66041        -8.04410
| 77>    C        9.78765        -2.85596       -10.49840
| 78>    C        9.27159        -3.54816       -11.59718
| 79>    C       10.28990        -4.24460       -12.29017
| 80>    C       11.50860        -4.06462       -11.71893
| 81>    S       11.48729        -3.04783       -10.31880
| 82>    C        7.84930        -3.32769       -11.65315
| 83>    C        6.90850        -3.83741       -12.60704
| 84>    C        7.18123        -4.55977       -13.69477
| 85>    H        8.93711        11.76460        -2.21956
| 86>    H        6.56539        11.61588        -1.73332
| 87>    H        8.88616        15.92315        -0.26350
| 88>    H        2.82314        15.42847         0.91402
| 89>    H        3.78880        17.67987         1.74412
| 90>    H        4.46392        11.76431        -1.20987
| 91>    H        2.39384        13.48988         0.23484
| 92>    H        3.05368        10.40823        -1.76561
| 93>    H       -1.71639        10.61430        -0.00033
| 94>    H       -0.06144         5.68838        -3.38981
| 95>    H       -2.58090         5.59305        -2.73593
| 96>    H        2.22957         6.78709        -3.48193
| 97>    H        4.03347         8.76509        -1.99903
| 98>    H        3.84938         5.83787        -4.30352
| 99>    H        8.61420         7.45621        -3.49940
|100>    H        7.81512         2.44562        -7.05422
|101>    H       10.33849         3.00995        -6.74726
|102>    H        5.39637         2.80624        -6.66624
|103>    H        3.18038         4.62704        -5.59739
|104>    H        4.08369         1.73152        -7.76708
|105>    H       -0.94058         2.20051        -7.09137
|106>    H        1.13696        -2.45423       -10.63610
|107>    H       -1.46905        -2.37913       -10.59576
|108>    H        3.53125        -1.47201       -10.12992
|109>    H        4.86213        -0.06846        -7.76135
|110>    H        5.41311        -2.25806       -10.76790
|111>    H        9.69206        -1.17737        -8.18669
|112>    H       10.14969        -4.85491       -13.16300
|113>    H       12.44856        -4.47345       -12.03528
|114>    H        5.87357        -3.59258       -12.40124
|115>    H        8.18218        -4.83370       -13.97211
|116>    H        6.39680        -4.89775       -14.34981
|117> *
|118>
|119>                          ****END OF INPUT****

CARTESIAN COORDINATES (ANGSTROEM)
---------------------------------
  C      8.418070   12.567660   -1.724790
  C      7.097460   12.511150   -1.442750
  C      6.394340   13.547700   -0.796170
  C      7.093840   14.769760   -0.386330
  C      8.409650   15.009400   -0.581080
  S      9.467380   13.896450   -1.349910
  C      6.098300   15.578580    0.227110
  C      4.867680   14.922570    0.208300
  C      3.855500   15.706110    0.807600
  C      4.334200   16.897860    1.252780
  S      6.023230   17.127950    0.968230
  C      5.043810   13.638310   -0.435400
  C      4.083610   12.627630   -0.681780
  C      2.776380   12.644640   -0.316040
  C      1.832490   11.607580   -0.569150
  C      2.081070   10.473380   -1.306310
  C      1.178960    9.437360   -1.536630
  C     -0.212180    9.543440   -1.071240
  C     -0.691280   10.567660   -0.332510
  S      0.262260   11.899700    0.175210
  C     -0.870840    8.387250   -1.570750
  C      0.034200    7.606530   -2.285680
  C     -0.564880    6.437260   -2.804830
  C     -1.881570    6.364230   -2.477830
  S     -2.447270    7.698750   -1.529780
  C      1.332890    8.233800   -2.255700
  C      2.465840    7.633210   -2.849860
  C      3.774280    7.968600   -2.679590
  C      4.888700    7.338360   -3.296970
  C      4.831810    6.243210   -4.128830
  C      5.921520    5.607740   -4.717340
  C      7.290890    6.074370   -4.443800
  C      7.598070    7.139980   -3.674700
  S      6.422120    8.110890   -2.888130
  C      8.148030    5.173510   -5.132370
  C      7.383850    4.213960   -5.789360
  C      8.184430    3.278460   -6.482600
  C      9.507600    3.549220   -6.336050
  S      9.838120    4.941340   -5.359640
  C      5.982960    4.475110   -5.557200
  C      4.987750    3.654730   -6.132710
  C      3.633470    3.793030   -6.109640
  C      2.708280    2.891440   -6.704760
  C      3.040790    1.829730   -7.513090
  C      2.147030    0.914380   -8.063590
  C      0.695180    1.105230   -7.918170
  C      0.127870    2.084270   -7.182150
  S      1.028080    3.245170   -6.294450
  C      0.099290    0.085480   -8.708860
  C      1.094670   -0.692260   -9.297810
  C      0.557890   -1.731340  -10.090030
  C     -0.800460   -1.713910  -10.084850
  S     -1.484200   -0.447550   -9.120910
  C      2.385770   -0.204170   -8.885340
  C      3.607020   -0.805580   -9.280410
  C      4.811790   -0.643550   -8.674280
  C      6.062210   -1.183200   -9.093250
  C      6.279320   -1.992160  -10.179160
  C      7.521760   -2.499540  -10.572670
  C      8.743810   -2.178590   -9.817550
  C      8.779790   -1.396220   -8.719200
  S      7.386360   -0.660410   -8.044100
  C      9.787650   -2.855960  -10.498400
  C      9.271590   -3.548160  -11.597180
  C     10.289900   -4.244600  -12.290170
  C     11.508600   -4.064620  -11.718930
  S     11.487290   -3.047830  -10.318800
  C      7.849300   -3.327690  -11.653150
  C      6.908500   -3.837410  -12.607040
  C      7.181230   -4.559770  -13.694770
  H      8.937110   11.764600   -2.219560
  H      6.565390   11.615880   -1.733320
  H      8.886160   15.923150   -0.263500
  H      2.823140   15.428470    0.914020
  H      3.788800   17.679870    1.744120
  H      4.463920   11.764310   -1.209870
  H      2.393840   13.489880    0.234840
  H      3.053680   10.408230   -1.765610
  H     -1.716390   10.614300   -0.000330
  H     -0.061440    5.688380   -3.389810
  H     -2.580900    5.593050   -2.735930
  H      2.229570    6.787090   -3.481930
  H      4.033470    8.765090   -1.999030
  H      3.849380    5.837870   -4.303520
  H      8.614200    7.456210   -3.499400
  H      7.815120    2.445620   -7.054220
  H     10.338490    3.009950   -6.747260
  H      5.396370    2.806240   -6.666240
  H      3.180380    4.627040   -5.597390
  H      4.083690    1.731520   -7.767080
  H     -0.940580    2.200510   -7.091370
  H      1.136960   -2.454230  -10.636100
  H     -1.469050   -2.379130  -10.595760
  H      3.531250   -1.472010  -10.129920
  H      4.862130   -0.068460   -7.761350
  H      5.413110   -2.258060  -10.767900
  H      9.692060   -1.177370   -8.186690
  H     10.149690   -4.854910  -13.163000
  H     12.448560   -4.473450  -12.035280
  H      5.873570   -3.592580  -12.401240
  H      8.182180   -4.833700  -13.972110
  H      6.396800   -4.897750  -14.349810

 Total Charge           Charge          ....    0
 Multiplicity           Mult            ....    1
 Number of Electrons    NEL             ....  552
 Basis Dimension        Dim             .... 1180

ORBITAL ENERGIES
----------------

  NO   OCC          E(Eh)            E(eV)
   0   2.0000     -88.977586     -2421.2032
   1   2.0000     -88.969805     -2420.9915
   2   2.0000     -88.968267     -2420.9496
   3   2.0000     -88.960647     -2420.7423
   4   2.0000     -88.957120     -2420.6463
   5   2.0000     -88.954236     -2420.5678
   6   2.0000     -88.949940     -2420.4509
   7   2.0000     -88.946995     -2420.3708
   8   2.0000     -88.943024     -2420.2627
   9   2.0000     -88.938750     -2420.1464
  10   2.0000     -10.328847      -281.0622
  11   2.0000     -10.321033      -280.8496
  12   2.0000     -10.318194      -280.7723
  13   2.0000     -10.317782      -280.7611
  14   2.0000     -10.316220      -280.7186
  15   2.0000     -10.314775      -280.6793
  16   2.0000     -10.312468      -280.6165
  17   2.0000     -10.307434      -280.4795
  18   2.0000     -10.307036      -280.4687
  19   2.0000     -10.300083      -280.2795
  20   2.0000     -10.299545      -280.2649
  21   2.0000     -10.298333      -280.2319
  22   2.0000     -10.296636      -280.1857
  23   2.0000     -10.292816      -280.0818
  24   2.0000     -10.291305      -280.0406
  25   2.0000     -10.290008      -280.0054
  26   2.0000     -10.287853      -279.9467
  27   2.0000     -10.287740      -279.9436
  28   2.0000     -10.286434      -279.9081
  29   2.0000     -10.284782      -279.8632
  30   2.0000     -10.284253      -279.8487
  31   2.0000     -10.284207      -279.8475
  32   2.0000     -10.283574      -279.8303
  33   2.0000     -10.282764      -279.8082
  34   2.0000     -10.280620      -279.7499
  35   2.0000     -10.279839      -279.7286
  36   2.0000     -10.279270      -279.7132
  37   2.0000     -10.278905      -279.7032
  38   2.0000     -10.278847      -279.7016
  39   2.0000     -10.278228      -279.6848
  40   2.0000     -10.276787      -279.6456
  41   2.0000     -10.276037      -279.6252
  42   2.0000     -10.275696      -279.6159
  43   2.0000     -10.275371      -279.6071
  44   2.0000     -10.274495      -279.5832
  45   2.0000     -10.273882      -279.5666
  46   2.0000     -10.272978      -279.5419
  47   2.0000     -10.272901      -279.5398
  48   2.0000     -10.271303      -279.4964
  49   2.0000     -10.270344      -279.4703
  50   2.0000     -10.269636      -279.4510
  51   2.0000     -10.269296      -279.4418
  52   2.0000     -10.268340      -279.4157
  53   2.0000     -10.267862      -279.4027
  54   2.0000     -10.266512      -279.3660
  55   2.0000     -10.266185      -279.3571
  56   2.0000     -10.266089      -279.3545
  57   2.0000     -10.264867      -279.3212
  58   2.0000     -10.263244      -279.2771
  59   2.0000     -10.263194      -279.2757
  60   2.0000     -10.262486      -279.2564
  61   2.0000     -10.262233      -279.2496
  62   2.0000     -10.262000      -279.2432
  63   2.0000     -10.258349      -279.1439
  64   2.0000     -10.257169      -279.1117
  65   2.0000     -10.255992      -279.0797
  66   2.0000     -10.254627      -279.0426
  67   2.0000     -10.253387      -279.0088
  68   2.0000     -10.249153      -278.8936
  69   2.0000     -10.239051      -278.6188
  70   2.0000      -8.073383      -219.6879
  71   2.0000      -8.065306      -219.4681
  72   2.0000      -8.063502      -219.4190
  73   2.0000      -8.055891      -219.2120
  74   2.0000      -8.052646      -219.1236
  75   2.0000      -8.049415      -219.0357
  76   2.0000      -8.045392      -218.9263
  77   2.0000      -8.042308      -218.8423
  78   2.0000      -8.038334      -218.7342
  79   2.0000      -8.034181      -218.6212
  80   2.0000      -6.042872      -164.4349
  81   2.0000      -6.038237      -164.3088
  82   2.0000      -6.035488      -164.2340
  83   2.0000      -6.034728      -164.2133
  84   2.0000      -6.032947      -164.1648
  85   2.0000      -6.030327      -164.0935
  86   2.0000      -6.028633      -164.0475
  87   2.0000      -6.027339      -164.0122
  88   2.0000      -6.025532      -163.9631
  89   2.0000      -6.025358      -163.9583
  90   2.0000      -6.022063      -163.8687
  91   2.0000      -6.021023      -163.8404
  92   2.0000      -6.018959      -163.7842
  93   2.0000      -6.017890      -163.7551
  94   2.0000      -6.017836      -163.7536
  95   2.0000      -6.014864      -163.6728
  96   2.0000      -6.014682      -163.6678
  97   2.0000      -6.014528      -163.6636
  98   2.0000      -6.011789      -163.5891
  99   2.0000      -6.011335      -163.5767
 100   2.0000      -6.010643      -163.5579
 101   2.0000      -6.007802      -163.4806
 102   2.0000      -6.007576      -163.4745
 103   2.0000      -6.007332      -163.4678
 104   2.0000      -6.004275      -163.3846
 105   2.0000      -6.003618      -163.3667
 106   2.0000      -6.003596      -163.3662
 107   2.0000      -6.000333      -163.2774
 108   2.0000      -5.999436      -163.2529
 109   2.0000      -5.996197      -163.1648
 110   2.0000      -1.006170       -27.3793
 111   2.0000      -0.999085       -27.1865
 112   2.0000      -0.995344       -27.0847
 113   2.0000      -0.990184       -26.9443
 114   2.0000      -0.984570       -26.7915
 115   2.0000      -0.969286       -26.3756
 116   2.0000      -0.966537       -26.3008
 117   2.0000      -0.963203       -26.2101
 118   2.0000      -0.957233       -26.0476
 119   2.0000      -0.951604       -25.8945
 120   2.0000      -0.929226       -25.2855
 121   2.0000      -0.923402       -25.1270
 122   2.0000      -0.918711       -24.9994
 123   2.0000      -0.914027       -24.8719
 124   2.0000      -0.906808       -24.6755
 125   2.0000      -0.902581       -24.5605
 126   2.0000      -0.894627       -24.3440
 127   2.0000      -0.887966       -24.1628
 128   2.0000      -0.882204       -24.0060
 129   2.0000      -0.879127       -23.9223
 130   2.0000      -0.861207       -23.4346
 131   2.0000      -0.854600       -23.2548
 132   2.0000      -0.850183       -23.1346
 133   2.0000      -0.845565       -23.0090
 134   2.0000      -0.838777       -22.8243
 135   2.0000      -0.835034       -22.7224
 136   2.0000      -0.831554       -22.6277
 137   2.0000      -0.826521       -22.4908
 138   2.0000      -0.821827       -22.3631
 139   2.0000      -0.812647       -22.1133
 140   2.0000      -0.806654       -21.9502
 141   2.0000      -0.804514       -21.8919
 142   2.0000      -0.800250       -21.7759
 143   2.0000      -0.795268       -21.6403
 144   2.0000      -0.790098       -21.4997
 145   2.0000      -0.781110       -21.2551
 146   2.0000      -0.771199       -20.9854
 147   2.0000      -0.763026       -20.7630
 148   2.0000      -0.753362       -20.5000
 149   2.0000      -0.741707       -20.1829
 150   2.0000      -0.732359       -19.9285
 151   2.0000      -0.729422       -19.8486
 152   2.0000      -0.726010       -19.7557
 153   2.0000      -0.719081       -19.5672
 154   2.0000      -0.714142       -19.4328
 155   2.0000      -0.702629       -19.1195
 156   2.0000      -0.696891       -18.9634
 157   2.0000      -0.685488       -18.6531
 158   2.0000      -0.676138       -18.3987
 159   2.0000      -0.662932       -18.0393
 160   2.0000      -0.662570       -18.0294
 161   2.0000      -0.658074       -17.9071
 162   2.0000      -0.653237       -17.7755
 163   2.0000      -0.647511       -17.6197
 164   2.0000      -0.646877       -17.6024
 165   2.0000      -0.640460       -17.4278
 166   2.0000      -0.635831       -17.3018
 167   2.0000      -0.631193       -17.1756
 168   2.0000      -0.628966       -17.1150
 169   2.0000      -0.627048       -17.0629
 170   2.0000      -0.619162       -16.8483
 171   2.0000      -0.615829       -16.7576
 172   2.0000      -0.609964       -16.5980
 173   2.0000      -0.603260       -16.4155
 174   2.0000      -0.598639       -16.2898
 175   2.0000      -0.597294       -16.2532
 176   2.0000      -0.587411       -15.9843
 177   2.0000      -0.582617       -15.8538
 178   2.0000      -0.578821       -15.7505
 179   2.0000      -0.574803       -15.6412
 180   2.0000      -0.572081       -15.5671
 181   2.0000      -0.567168       -15.4334
 182   2.0000      -0.562973       -15.3193
 183   2.0000      -0.561903       -15.2901
 184   2.0000      -0.556858       -15.1529
 185   2.0000      -0.555960       -15.1284
 186   2.0000      -0.550156       -14.9705
 187   2.0000      -0.547895       -14.9090
 188   2.0000      -0.545534       -14.8447
 189   2.0000      -0.542604       -14.7650
 190   2.0000      -0.537356       -14.6222
 191   2.0000      -0.534638       -14.5482
 192   2.0000      -0.531892       -14.4735
 193   2.0000      -0.526823       -14.3356
 194   2.0000      -0.523204       -14.2371
 195   2.0000      -0.513228       -13.9656
 196   2.0000      -0.511325       -13.9139
 197   2.0000      -0.510829       -13.9004
 198   2.0000      -0.507001       -13.7962
 199   2.0000      -0.505357       -13.7515
 200   2.0000      -0.503771       -13.7083
 201   2.0000      -0.502017       -13.6606
 202   2.0000      -0.500752       -13.6262
 203   2.0000      -0.499468       -13.5912
 204   2.0000      -0.498284       -13.5590
 205   2.0000      -0.497596       -13.5403
 206   2.0000      -0.493320       -13.4239
 207   2.0000      -0.492657       -13.4059
 208   2.0000      -0.489770       -13.3273
 209   2.0000      -0.488734       -13.2991
 210   2.0000      -0.480269       -13.0688
 211   2.0000      -0.479902       -13.0588
 212   2.0000      -0.471249       -12.8233
 213   2.0000      -0.466707       -12.6998
 214   2.0000      -0.463489       -12.6122
 215   2.0000      -0.460260       -12.5243
 216   2.0000      -0.459897       -12.5144
 217   2.0000      -0.458736       -12.4828
 218   2.0000      -0.455599       -12.3975
 219   2.0000      -0.452955       -12.3255
 220   2.0000      -0.450616       -12.2619
 221   2.0000      -0.448858       -12.2141
 222   2.0000      -0.448292       -12.1986
 223   2.0000      -0.444299       -12.0900
 224   2.0000      -0.443412       -12.0659
 225   2.0000      -0.440709       -11.9923
 226   2.0000      -0.438791       -11.9401
 227   2.0000      -0.436660       -11.8821
 228   2.0000      -0.433840       -11.8054
 229   2.0000      -0.433456       -11.7949
 230   2.0000      -0.428244       -11.6531
 231   2.0000      -0.427804       -11.6411
 232   2.0000      -0.425921       -11.5899
 233   2.0000      -0.423191       -11.5156
 234   2.0000      -0.422166       -11.4877
 235   2.0000      -0.419706       -11.4208
 236   2.0000      -0.418375       -11.3846
 237   2.0000      -0.417723       -11.3668
 238   2.0000      -0.416339       -11.3292
 239   2.0000      -0.413454       -11.2507
 240   2.0000      -0.412705       -11.2303
 241   2.0000      -0.411811       -11.2059
 242   2.0000      -0.409980       -11.1561
 243   2.0000      -0.409011       -11.1298
 244   2.0000      -0.404810       -11.0154
 245   2.0000      -0.401963       -10.9380
 246   2.0000      -0.399119       -10.8606
 247   2.0000      -0.396218       -10.7816
 248   2.0000      -0.395575       -10.7641
 249   2.0000      -0.393722       -10.7137
 250   2.0000      -0.392029       -10.6676
 251   2.0000      -0.389971       -10.6117
 252   2.0000      -0.389147       -10.5892
 253   2.0000      -0.385017       -10.4768
 254   2.0000      -0.384462       -10.4617
 255   2.0000      -0.378958       -10.3120
 256   2.0000      -0.351272        -9.5586
 257   2.0000      -0.345404        -9.3989
 258   2.0000      -0.340723        -9.2715
 259   2.0000      -0.338319        -9.2061
 260   2.0000      -0.331584        -9.0229
 261   2.0000      -0.323425        -8.8008
 262   2.0000      -0.318170        -8.6579
 263   2.0000      -0.313830        -8.5397
 264   2.0000      -0.310408        -8.4466
 265   2.0000      -0.306391        -8.3373
 266   2.0000      -0.284102        -7.7308
 267   2.0000      -0.279190        -7.5971
 268   2.0000      -0.275133        -7.4868
 269   2.0000      -0.270248        -7.3538
 270   2.0000      -0.264127        -7.1873
 271   2.0000      -0.253346        -6.8939
 272   2.0000      -0.241757        -6.5785
 273   2.0000      -0.227177        -6.1818
 274   2.0000      -0.210439        -5.7263
 275   2.0000      -0.192778        -5.2458
 276   0.0000      -0.074297        -2.0217
 277   0.0000      -0.055367        -1.5066
 278   0.0000      -0.040696        -1.1074
 279   0.0000      -0.032484        -0.8839
 280   0.0000      -0.023488        -0.6391

MULLIKEN ATOMIC CHARGES
-----------------------
   0 C :   -0.100368
   1 C :    0.041515
   2 C :    0.016482
   3 C :    0.073293
   4 C :   -0.144832
   5 S :    0.131040
   6 C :   -0.119529
   7 C :    0.057339
   8 C :   -0.014985
   9 C :   -0.067412
  10 S :    0.126720
  11 C :    0.088834
  12 C :    0.010893
  13 C :    0.029045
  14 C :   -0.064783
  15 C :   -0.057560
  16 C :    0.055968
  17 C :    0.059245
  18 C :   -0.137362
  19 S :    0.130480
  20 C :   -0.111282
  21 C :    0.053124
  22 C :    0.004259
  23 C :   -0.069408
  24 S :    0.120433
  25 C :    0.072754
  26 C :    0.005780
  27 C :    0.007788
  28 C :   -0.062002
  29 C :   -0.046704
  30 C :    0.062535
  31 C :    0.059788
  32 C :   -0.138234
  33 S :    0.110970
  34 C :   -0.114454
  35 C :    0.050541
  36 C :    0.007225
  37 C :   -0.066843
  38 S :    0.115545
  39 C :    0.079009
  40 C :    0.008223
  41 C :    0.014752
  42 C :   -0.061943
  43 C :   -0.063070
  44 C :    0.051780
  45 C :    0.062300
  46 C :   -0.136916
  47 S :    0.111228
  48 C :   -0.117048
  49 C :    0.056821
  50 C :    0.005769
  51 C :   -0.070969
  52 S :    0.115955
  53 C :    0.065688
  54 C :   -0.003079
  55 C :    0.011084
  56 C :   -0.073619
  57 C :   -0.040676
  58 C :    0.055940
  59 C :    0.067059
  60 C :   -0.135801
  61 S :    0.109455
  62 C :   -0.123368
  63 C :    0.061248
  64 C :   -0.008703
  65 C :   -0.070453
  66 S :    0.111667
  67 C :    0.046132
  68 C :   -0.012537
  69 C :   -0.032266
  70 H :    0.042887
  71 H :   -0.017265
  72 H :    0.035486
  73 H :   -0.010896
  74 H :    0.025082
  75 H :   -0.041991
  76 H :   -0.047499
  77 H :   -0.032764
  78 H :    0.032480
  79 H :   -0.020048
  80 H :    0.023733
  81 H :   -0.028757
  82 H :   -0.031735
  83 H :   -0.045707
  84 H :    0.027024
  85 H :   -0.026190
  86 H :    0.020963
  87 H :   -0.033784
  88 H :   -0.041187
  89 H :   -0.025399
  90 H :    0.029549
  91 H :   -0.021136
  92 H :    0.022064
  93 H :   -0.025731
  94 H :   -0.022132
  95 H :   -0.032428
  96 H :    0.025798
  97 H :   -0.019092
  98 H :    0.017457
  99 H :   -0.038208
 100 H :   -0.009532
 101 H :    0.009456
Sum of atomic charges:   -0.0000000

LOEWDIN ATOMIC CHARGES
----------------------
   0 C :   -0.181199
   1 C :   -0.027767
   2 C :   -0.017180
   3 C :   -0.046926
   4 C :   -0.142634
   5 S :    0.453965
   6 C :   -0.203381
   7 C :   -0.037054
   8 C :   -0.067561
   9 C :   -0.167100
  10 S :    0.422474
  11 C :   -0.056968
  12 C :    0.002266
  13 C :   -0.072187
  14 C :   -0.151599
  15 C :   -0.033973
  16 C :   -0.007495
  17 C :   -0.045584
  18 C :   -0.147740
  19 S :    0.451297
  20 C :   -0.210105
  21 C :   -0.036827
  22 C :   -0.067314
  23 C :   -0.165744
  24 S :    0.414303
  25 C :   -0.068633
  26 C :    0.005434
  27 C :   -0.082188
  28 C :   -0.148712
  29 C :   -0.035251
  30 C :   -0.009075
  31 C :   -0.043206
  32 C :   -0.152490
  33 S :    0.434150
  34 C :   -0.211506
  35 C :   -0.035467
  36 C :   -0.066758
  37 C :   -0.166168
  38 S :    0.410157
  39 C :   -0.067826
  40 C :    0.002020
  41 C :   -0.079164
  42 C :   -0.152307
  43 C :   -0.036292
  44 C :   -0.011322
  45 C :   -0.046632
  46 C :   -0.149641
  47 S :    0.434928
  48 C :   -0.210718
  49 C :   -0.037515
  50 C :   -0.067022
  51 C :   -0.168346
  52 S :    0.410549
  53 C :   -0.068146
  54 C :   -0.002318
  55 C :   -0.076737
  56 C :   -0.158903
  57 C :   -0.033070
  58 C :   -0.018678
  59 C :   -0.050604
  60 C :   -0.149651
  61 S :    0.431149
  62 C :   -0.206243
  63 C :   -0.034453
  64 C :   -0.066411
  65 C :   -0.171971
  66 S :    0.409039
  67 C :   -0.062792
  68 C :   -0.020655
  69 C :   -0.070296
  70 H :    0.030997
  71 H :    0.035715
  72 H :    0.035289
  73 H :    0.028136
  74 H :    0.023398
  75 H :    0.024477
  76 H :    0.021065
  77 H :    0.031011
  78 H :    0.034918
  79 H :    0.027580
  80 H :    0.022275
  81 H :    0.027986
  82 H :    0.016641
  83 H :    0.031092
  84 H :    0.032476
  85 H :    0.022987
  86 H :    0.021369
  87 H :    0.028688
  88 H :    0.015294
  89 H :    0.032508
  90 H :    0.033240
  91 H :    0.028182
  92 H :    0.021335
  93 H :    0.026450
  94 H :    0.018954
  95 H :    0.031832
  96 H :    0.032028
  97 H :    0.027508
  98 H :    0.020107
  99 H :    0.023725
 100 H :    0.014487
 101 H :    0.020023

  Mayer bond orders larger than 0.100000
B(  0-C ,  1-C ) :   1.6611 B(  0-C ,  5-S ) :   1.1025 B(  0-C , 70-H ) :   0.9380
B(  1-C ,  2-C ) :   1.2059 B(  1-C , 71-H ) :   0.9669 B(  2-C ,  3-C ) :   1.0539
B(  2-C , 11-C ) :   1.4125 B(  3-C ,  4-C ) :   1.6011 B(  3-C ,  6-C ) :   1.1837
B(  4-C ,  5-S ) :   1.1442 B(  4-C , 72-H ) :   0.9419 B(  6-C ,  7-C ) :   1.4645
B(  6-C , 10-S ) :   1.0758 B(  7-C ,  8-C ) :   1.2119 B(  7-C , 11-C ) :   1.0654
B(  8-C ,  9-C ) :   1.5877 B(  8-C , 73-H ) :   1.0009 B(  9-C , 10-S ) :   1.1600
B(  9-C , 74-H ) :   0.9638 B( 11-C , 12-C ) :   1.1922 B( 12-C , 13-C ) :   1.6433
B( 12-C , 75-H ) :   0.9485 B( 13-C , 14-C ) :   1.1100 B( 13-C , 76-H ) :   0.9653
B( 14-C , 15-C ) :   1.5260 B( 14-C , 19-S ) :   1.0655 B( 15-C , 16-C ) :   1.2514
B( 15-C , 77-H ) :   0.9603 B( 16-C , 17-C ) :   1.0587 B( 16-C , 25-C ) :   1.3554
B( 17-C , 18-C ) :   1.6061 B( 17-C , 20-C ) :   1.1766 B( 18-C , 19-S ) :   1.1373
B( 18-C , 78-H ) :   0.9410 B( 20-C , 21-C ) :   1.4481 B( 20-C , 24-S ) :   1.0667
B( 21-C , 22-C ) :   1.2178 B( 21-C , 25-C ) :   1.0971 B( 22-C , 23-C ) :   1.5846
B( 22-C , 79-H ) :   0.9952 B( 23-C , 24-S ) :   1.1567 B( 23-C , 80-H ) :   0.9658
B( 25-C , 26-C ) :   1.1953 B( 26-C , 27-C ) :   1.6260 B( 26-C , 81-H ) :   0.9514
B( 27-C , 28-C ) :   1.1195 B( 27-C , 82-H ) :   0.9554 B( 28-C , 29-C ) :   1.5316
B( 28-C , 33-S ) :   1.0563 B( 29-C , 30-C ) :   1.2509 B( 29-C , 83-H ) :   0.9684
B( 30-C , 31-C ) :   1.0532 B( 30-C , 39-C ) :   1.3550 B( 31-C , 32-C ) :   1.6178
B( 31-C , 34-C ) :   1.1751 B( 32-C , 33-S ) :   1.1256 B( 32-C , 84-H ) :   0.9395
B( 34-C , 35-C ) :   1.4510 B( 34-C , 38-S ) :   1.0643 B( 35-C , 36-C ) :   1.2171
B( 35-C , 39-C ) :   1.0936 B( 36-C , 37-C ) :   1.5850 B( 36-C , 85-H ) :   0.9918
B( 37-C , 38-S ) :   1.1536 B( 37-C , 86-H ) :   0.9661 B( 39-C , 40-C ) :   1.2040
B( 40-C , 41-C ) :   1.6182 B( 40-C , 87-H ) :   0.9498 B( 41-C , 42-C ) :   1.1228
B( 41-C , 88-H ) :   0.9594 B( 42-C , 43-C ) :   1.5295 B( 42-C , 47-S ) :   1.0544
B( 43-C , 44-C ) :   1.2453 B( 43-C , 89-H ) :   0.9601 B( 44-C , 45-C ) :   1.0546
B( 44-C , 53-C ) :   1.3768 B( 45-C , 46-C ) :   1.6148 B( 45-C , 48-C ) :   1.1772
B( 46-C , 47-S ) :   1.1302 B( 46-C , 90-H ) :   0.9402 B( 48-C , 49-C ) :   1.4470
B( 48-C , 52-S ) :   1.0655 B( 49-C , 50-C ) :   1.2185 B( 49-C , 53-C ) :   1.0988
B( 50-C , 51-C ) :   1.5841 B( 50-C , 91-H ) :   0.9970 B( 51-C , 52-S ) :   1.1544
B( 51-C , 92-H ) :   0.9660 B( 53-C , 54-C ) :   1.1724 B( 54-C , 55-C ) :   1.6588
B( 54-C , 93-H ) :   0.9535 B( 55-C , 56-C ) :   1.1004 B( 55-C , 94-H ) :   0.9561
B( 56-C , 57-C ) :   1.5677 B( 56-C , 61-S ) :   1.0434 B( 57-C , 58-C ) :   1.2216
B( 57-C , 95-H ) :   0.9621 B( 58-C , 59-C ) :   1.0381 B( 58-C , 67-C ) :   1.4307
B( 59-C , 60-C ) :   1.6206 B( 59-C , 62-C ) :   1.1830 B( 60-C , 61-S ) :   1.1315
B( 60-C , 96-H ) :   0.9404 B( 62-C , 63-C ) :   1.4523 B( 62-C , 66-S ) :   1.0690
B( 63-C , 64-C ) :   1.2036 B( 63-C , 67-C ) :   1.0881 B( 64-C , 65-C ) :   1.5894
B( 64-C , 97-H ) :   1.0015 B( 65-C , 66-S ) :   1.1513 B( 65-C , 98-H ) :   0.9650
B( 67-C , 68-C ) :   1.1411 B( 68-C , 69-C ) :   1.9079 B( 68-C , 99-H ) :   0.9506
B( 69-C ,100-H ) :   0.9562 B( 69-C ,101-H ) :   0.9427

-----------------------------------------------------------------------------
         ABSORPTION SPECTRUM VIA TRANSITION ELECTRIC DIPOLE MOMENTS
-----------------------------------------------------------------------------
State   Energy  Wavelength   fosc         T2         TX        TY        TZ
        (cm-1)    (nm)                  (au**2)     (au)      (au)      (au)
-----------------------------------------------------------------------------
   0   12506.0    799.6   1.331390320  35.04781  -0.36025   4.93373   3.25212
   1   16428.1    608.7   0.116714055   2.33889   1.31454  -0.14659  -0.76772
   2   17050.8    586.5   0.010014363   0.19335   0.10778  -0.36253  -0.22430
   3   18658.8    535.9   0.021463189   0.37869   0.22401   0.54970   0.16231
   4   19684.6    508.0   0.011912782   0.19923   0.14476  -0.40443  -0.12130
   5   20233.6    494.2   0.070124895   1.14097  -1.00102  -0.24577   0.28022
   6   20324.7    492.0   0.040655425   0.65852   0.42342  -0.66426  -0.19491
   7   21710.9    460.6   0.058643825   0.88924  -0.20572   0.71266   0.58227
   8   22398.9    446.4   0.034262175   0.50357   0.63104   0.28748   0.15072
   9   22987.8    435.0   0.376653455   5.39412  -1.76227   1.15807   0.97333
  10   23582.0    424.1   0.292212532   4.07938  -1.89689  -0.69151   0.05473
  11   24169.2    413.7   0.046021822   0.62687   0.65917   0.30840  -0.31186
  12   24812.6    403.0   0.022378629   0.29692  -0.36310   0.31466   0.25704
  13   25688.8    389.3   0.282849439   3.62483  -1.87321  -0.18535   0.28561
  14   26216.1    381.4   0.293518837   3.68590  -1.87724   0.28226   0.28673
  15   26584.1    376.2   0.073906393   0.91524   0.35960   0.69593   0.54919
  16   27613.4    362.1   0.305505360   3.64229   1.80063   0.60403   0.18756
  17   27896.8    358.5   0.144816131   1.70898  -1.30662   0.00289   0.04149
  18   28377.1    352.4   0.112664239   1.30706  -1.10853  -0.18755  -0.20746
  19   28594.4    349.7   0.048706548   0.56077  -0.08329   0.65111   0.36040
  20   28906.5    345.9   0.221381003   2.52128  -1.44357   0.33469   0.57040
  21   29205.0    342.4   0.042207916   0.47579   0.38145   0.31024   0.48376
  22   29568.5    338.2   0.410442919   4.56982   2.10630   0.08307  -0.35556
  23   29727.1    336.4   0.102225170   1.13209   0.81995  -0.56360  -0.37701
  24   30048.0    332.8   0.069649745   0.76310   0.31400  -0.65425  -0.48627
  25   30386.0    329.1   0.030646759   0.33204   0.54674  -0.11154  -0.14376
  26   30453.3    328.4   0.146266360   1.58120   0.97421   0.77717   0.16769
  27   30804.1    324.6   0.016516466   0.17652  -0.14424  -0.04527   0.39200
  28   31068.4    321.9   0.236306749   2.50399   1.52763   0.39644  -0.11479
  29   31125.9    321.3   0.146176284   1.54608   0.55491   0.86736   0.69702
  30   31891.0    313.6   0.264596664   2.73144   1.62958  -0.10848  -0.25324
  31   32239.6    310.2   0.019737141   0.20154   0.19797   0.32583   0.23703
  32   32286.6    309.7   0.142915226   1.45724   0.47933  -0.91132  -0.63007
  33   32838.7    304.5   0.020237741   0.20289   0.41064  -0.14368  -0.11668
  34   32957.1    303.4   0.050507179   0.50452  -0.33550  -0.61782  -0.10131
  35   33471.9    298.8   0.359216184   3.53306   1.87812  -0.02614   0.07110
  36   33763.5    296.2   0.242712749   2.36658   0.89871   1.07846   0.62915
  37   34173.7    292.6   0.255926455   2.46547  -1.37972   0.44376   0.60408
  38   34200.9    292.4   0.075636530   0.72806  -0.24243   0.70992   0.40657
  39   34628.9    288.8   0.202136024   1.92168  -0.21285  -0.96471  -0.97247
  40   35067.9    285.2   0.089930647   0.84426   0.43609   0.76175   0.27169
  41   35516.5    281.6   0.021793543   0.20201   0.37680   0.16523  -0.18092
  42   35625.0    280.7   0.136177793   1.25842   0.84413   0.56391   0.47736
  43   36039.1    277.5   0.141125414   1.28916  -1.12310  -0.04097   0.16166
  44   36225.6    276.0   0.103900967   0.94423  -0.74827   0.44238   0.43431
  45   36379.4    274.9   0.015234551   0.13786   0.34855   0.06472  -0.11040
  46   36562.8    273.5   0.116411865   1.04817  -0.25298   0.75710   0.64108
  47   36851.1    271.4   0.010635223   0.09501   0.10279   0.18006   0.22808
  48   37007.7    270.2   0.024446047   0.21747  -0.43799  -0.11537  -0.11100
  49   37161.6    269.1   0.246656557   2.18511   1.40072   0.46770  -0.06608
  50   37302.6    268.1   0.311441628   2.74861  -0.90961   1.03274   0.92448
  51   37402.5    267.4   0.145421707   1.27998  -0.10505   0.90748   0.66740
  52   37575.0    266.1   0.032535400   0.28506   0.42808   0.31823   0.02309
  53   37791.6    264.6   0.147580122   1.28561  -0.44256  -0.86655  -0.58210
  54   38040.7    262.9   0.077035090   0.66668  -0.78795  -0.08110   0.19808
  55   38177.4    261.9   0.013123473   0.11317  -0.09588  -0.17305   0.27208
  56   38299.1    261.1   0.114103254   0.98081   0.64403   0.44599   0.60591
  57   38521.7    259.6   0.089516105   0.76502  -0.85714  -0.15461   0.08019
  58   38694.9    258.4   0.025571143   0.21756   0.05238  -0.41652  -0.20329
  59   39047.6    256.1   0.022580260   0.19038  -0.28665  -0.25204  -0.21139
  60   39291.8    254.5   0.163603177   1.37077   1.12026   0.22641   0.25404
  61   39386.5    253.9   0.006534398   0.05462  -0.22268   0.01233   0.06986
  62   39624.2    252.4   0.068864189   0.57215   0.19660  -0.49828  -0.53406
  63   39656.8    252.2   0.018120712   0.15043  -0.14385  -0.34191  -0.11330
  64   40048.5    249.7   0.001002354   0.00824   0.02968  -0.07008  -0.04947
  65   40149.0    249.1   0.036285130   0.29753   0.43609  -0.26690  -0.19004

FINAL SINGLE POINT ENERGY     -6283.175115612017

DIPOLE MOMENT
-------------
                                X             Y             Z
Electronic contribution:     -1.95670      30.92955      26.30021
Nuclear contribution   :      1.98794     -27.90134     -24.37810
                        -----------------------------------------
Total Dipole Moment    :      0.03124       3.02821       1.92211
                        -----------------------------------------
Magnitude (a.u.)       :      3.58686
Magnitude (Debye)      :      9.11706

Rotational constants in cm-1:     0.001059     0.000276     0.000222
Rotational constants in MHz :    31.749188     8.266898     6.641214

                             ****ORCA TERMINATED NORMALLY****
TOTAL RUN TIME: 0 days 0 hours 10 minutes 42 seconds 144 msec
