                         Program Version 4.2.0 -  RELEASE  -
|  1> # ORCA input file
|  2> # SCF done       -145.518424352299          0.000767886171
|  3> ! CAM-B3LYP def2-SVP def2/J RIJCOSX Grid4 TightSCF
|  4> %maxcore 5000
|  5> %tddft
|  6>     Mode sTDDFT
|  7>     Ethresh 5.0
|  8>     maxcore 5000
|  9> end
| 10>
| 11> %pal
| 12>   nprocs 6
| 13>   end
| 14> * xyz 0 1
| 15>    C       -1.91522         1.09977         0.30454
| 16>    C       -1.06014         1.95897         0.90380
| 17>    C       -1.19237         2.39210         2.23882
| 18>    C       -2.25662         1.82720         3.08355
| 19>    C       -3.21112         0.97026         2.65806
| 20>    S       -3.31071         0.38803         1.04654
| 21>    C       -2.04671         2.37700         4.37860
| 22>    C       -0.94395         3.22423         4.34992
| 23>    C       -0.68546         3.80625         5.60973
| 24>    C       -1.58090         3.39028         6.54403
| 25>    S       -2.76848         2.28662         5.93800
| 26>    C       -0.40949         3.26271         3.00697
| 27>    C        0.69221         4.08665         2.66687
| 28>    C        1.06671         4.48794         1.42168
| 29>    C        2.15245         5.33937         1.11828
| 30>    C        3.29713         5.70589         1.85340
| 31>    C        4.05943         6.72822         1.21022
| 32>    C        5.22330         7.22421         1.82626
| 33>    C        5.62983         6.69993         3.02112
| 34>    C        4.91644         5.65020         3.62545
| 35>    C        3.77583         5.15366         3.05737
| 36>    C        3.53257         7.11517        -0.03559
| 37>    S        2.11135         6.18538        -0.39780
| 38>    C        3.99813         8.12769        -0.89115
| 39>    C        3.48239         8.40808        -2.11777
| 40>    C        3.90055         9.48749        -2.92823
| 41>    C        3.48098         9.80130        -4.20867
| 42>    C        4.07893        11.00553        -4.70495
| 43>    C        3.82397        11.67958        -5.89733
| 44>    C        4.58112        12.79712        -6.21825
| 45>    C        5.56081        13.28721        -5.33933
| 46>    C        5.76449        12.67658        -4.12160
| 47>    C        5.02387        11.54550        -3.81069
| 48>    S        5.10664        10.62601        -2.34173
| 49>    C        4.36749        13.43596        -7.46022
| 50>    N        4.20364        13.94290        -8.47545
| 51>    C        2.65053         8.96508        -5.04602
| 52>    C        2.94360         8.60806        -6.33973
| 53>    C        1.91946         7.79632        -6.93044
| 54>    C        1.89236         7.20694        -8.19167
| 55>    C        0.79664         6.43452        -8.55049
| 56>    C       -0.27348         6.23215        -7.66197
| 57>    C       -0.24594         6.79059        -6.40441
| 58>    C        0.84890         7.56456        -6.04362
| 59>    S        1.11030         8.32888        -4.50641
| 60>    C        0.75354         5.83654        -9.83078
| 61>    N        0.71454         5.34851       -10.86732
| 62>    C        4.17906         8.97074        -7.00153
| 63>    C        4.34261         9.62387        -8.21675
| 64>    C        5.71565         9.92396        -8.49906
| 65>    C        6.03481        10.62985        -9.68113
| 66>    C        5.03658        11.03206       -10.51566
| 67>    C        3.68202        10.75955       -10.22171
| 68>    C        3.33187        10.07101        -9.10145
| 69>    C        6.58186         9.48806        -7.49698
| 70>    S        5.69947         8.71973        -6.22227
| 71>    C        8.00402         9.63202        -7.43980
| 72>    C        8.77375         9.24200        -6.42368
| 73>    H       -1.78826         0.77927        -0.71558
| 74>    H       -0.21602         2.30349         0.32532
| 75>    H       -3.98391         0.59651         3.31091
| 76>    H        0.11352         4.49355         5.82281
| 77>    H       -1.62546         3.66576         7.57972
| 78>    H        1.22336         4.49249         3.51627
| 79>    H        0.43802         4.23885         0.57803
| 80>    H        5.79373         8.00396         1.34565
| 81>    H        6.52240         7.07376         3.50013
| 82>    H        5.28685         5.22572         4.54668
| 83>    H        3.26541         4.31884         3.50937
| 84>    H        4.81829         8.73043        -0.52278
| 85>    H        2.68576         7.78751        -2.50488
| 86>    H        3.04666        11.34427        -6.56563
| 87>    H        6.13717        14.15514        -5.62074
| 88>    H        6.48898        13.06164        -3.42132
| 89>    H        2.71296         7.34725        -8.87904
| 90>    H       -1.11128         5.62777        -7.97482
| 91>    H       -1.05376         6.63216        -5.70725
| 92>    H        7.06585        10.85477        -9.90683
| 93>    H        5.27197        11.58123       -11.41426
| 94>    H        2.92012        11.11420       -10.89876
| 95>    H        2.29559         9.87258        -8.86910
| 96>    H        8.45186        10.10461        -8.30370
| 97>    H        8.35553         8.77282        -5.54822
| 98>    H        9.83968         9.38138        -6.43752
| 99> *
|100>
|101>                          ****END OF INPUT****

CARTESIAN COORDINATES (ANGSTROEM)
---------------------------------
  C     -1.915220    1.099770    0.304540
  C     -1.060140    1.958970    0.903800
  C     -1.192370    2.392100    2.238820
  C     -2.256620    1.827200    3.083550
  C     -3.211120    0.970260    2.658060
  S     -3.310710    0.388030    1.046540
  C     -2.046710    2.377000    4.378600
  C     -0.943950    3.224230    4.349920
  C     -0.685460    3.806250    5.609730
  C     -1.580900    3.390280    6.544030
  S     -2.768480    2.286620    5.938000
  C     -0.409490    3.262710    3.006970
  C      0.692210    4.086650    2.666870
  C      1.066710    4.487940    1.421680
  C      2.152450    5.339370    1.118280
  C      3.297130    5.705890    1.853400
  C      4.059430    6.728220    1.210220
  C      5.223300    7.224210    1.826260
  C      5.629830    6.699930    3.021120
  C      4.916440    5.650200    3.625450
  C      3.775830    5.153660    3.057370
  C      3.532570    7.115170   -0.035590
  S      2.111350    6.185380   -0.397800
  C      3.998130    8.127690   -0.891150
  C      3.482390    8.408080   -2.117770
  C      3.900550    9.487490   -2.928230
  C      3.480980    9.801300   -4.208670
  C      4.078930   11.005530   -4.704950
  C      3.823970   11.679580   -5.897330
  C      4.581120   12.797120   -6.218250
  C      5.560810   13.287210   -5.339330
  C      5.764490   12.676580   -4.121600
  C      5.023870   11.545500   -3.810690
  S      5.106640   10.626010   -2.341730
  C      4.367490   13.435960   -7.460220
  N      4.203640   13.942900   -8.475450
  C      2.650530    8.965080   -5.046020
  C      2.943600    8.608060   -6.339730
  C      1.919460    7.796320   -6.930440
  C      1.892360    7.206940   -8.191670
  C      0.796640    6.434520   -8.550490
  C     -0.273480    6.232150   -7.661970
  C     -0.245940    6.790590   -6.404410
  C      0.848900    7.564560   -6.043620
  S      1.110300    8.328880   -4.506410
  C      0.753540    5.836540   -9.830780
  N      0.714540    5.348510  -10.867320
  C      4.179060    8.970740   -7.001530
  C      4.342610    9.623870   -8.216750
  C      5.715650    9.923960   -8.499060
  C      6.034810   10.629850   -9.681130
  C      5.036580   11.032060  -10.515660
  C      3.682020   10.759550  -10.221710
  C      3.331870   10.071010   -9.101450
  C      6.581860    9.488060   -7.496980
  S      5.699470    8.719730   -6.222270
  C      8.004020    9.632020   -7.439800
  C      8.773750    9.242000   -6.423680
  H     -1.788260    0.779270   -0.715580
  H     -0.216020    2.303490    0.325320
  H     -3.983910    0.596510    3.310910
  H      0.113520    4.493550    5.822810
  H     -1.625460    3.665760    7.579720
  H      1.223360    4.492490    3.516270
  H      0.438020    4.238850    0.578030
  H      5.793730    8.003960    1.345650
  H      6.522400    7.073760    3.500130
  H      5.286850    5.225720    4.546680
  H      3.265410    4.318840    3.509370
  H      4.818290    8.730430   -0.522780
  H      2.685760    7.787510   -2.504880
  H      3.046660   11.344270   -6.565630
  H      6.137170   14.155140   -5.620740
  H      6.488980   13.061640   -3.421320
  H      2.712960    7.347250   -8.879040
  H     -1.111280    5.627770   -7.974820
  H     -1.053760    6.632160   -5.707250
  H      7.065850   10.854770   -9.906830
  H      5.271970   11.581230  -11.414260
  H      2.920120   11.114200  -10.898760
  H      2.295590    9.872580   -8.869100
  H      8.451860   10.104610   -8.303700
  H      8.355530    8.772820   -5.548220
  H      9.839680    9.381380   -6.437520

 Total Charge           Charge          ....    0
 Multiplicity           Mult            ....    1
 Number of Electrons    NEL             ....  436
 Basis Dimension        Dim             ....  966

ORBITAL ENERGIES
----------------

  NO   OCC          E(Eh)            E(eV)
   0   2.0000     -88.975553     -2421.1479
   1   2.0000     -88.963494     -2420.8197
   2   2.0000     -88.962246     -2420.7858
   3   2.0000     -88.957621     -2420.6599
   4   2.0000     -88.955225     -2420.5947
   5   2.0000     -88.954349     -2420.5709
   6   2.0000     -14.395185      -391.7129
   7   2.0000     -14.390249      -391.5786
   8   2.0000     -10.326053      -280.9862
   9   2.0000     -10.316274      -280.7201
  10   2.0000     -10.315476      -280.6984
  11   2.0000     -10.313464      -280.6436
  12   2.0000     -10.313013      -280.6313
  13   2.0000     -10.309886      -280.5463
  14   2.0000     -10.308742      -280.5151
  15   2.0000     -10.307501      -280.4814
  16   2.0000     -10.301621      -280.3214
  17   2.0000     -10.299694      -280.2689
  18   2.0000     -10.297967      -280.2219
  19   2.0000     -10.296192      -280.1736
  20   2.0000     -10.295255      -280.1481
  21   2.0000     -10.295001      -280.1412
  22   2.0000     -10.294909      -280.1387
  23   2.0000     -10.293413      -280.0980
  24   2.0000     -10.293110      -280.0898
  25   2.0000     -10.292945      -280.0853
  26   2.0000     -10.292511      -280.0735
  27   2.0000     -10.292150      -280.0636
  28   2.0000     -10.291859      -280.0557
  29   2.0000     -10.291578      -280.0481
  30   2.0000     -10.290140      -280.0089
  31   2.0000     -10.289898      -280.0023
  32   2.0000     -10.287568      -279.9390
  33   2.0000     -10.285583      -279.8849
  34   2.0000     -10.285421      -279.8805
  35   2.0000     -10.284847      -279.8649
  36   2.0000     -10.284768      -279.8628
  37   2.0000     -10.284024      -279.8425
  38   2.0000     -10.282549      -279.8024
  39   2.0000     -10.281261      -279.7673
  40   2.0000     -10.281170      -279.7648
  41   2.0000     -10.280387      -279.7435
  42   2.0000     -10.279207      -279.7114
  43   2.0000     -10.276706      -279.6434
  44   2.0000     -10.275769      -279.6179
  45   2.0000     -10.275635      -279.6142
  46   2.0000     -10.274276      -279.5773
  47   2.0000     -10.273417      -279.5539
  48   2.0000     -10.273312      -279.5510
  49   2.0000     -10.272346      -279.5247
  50   2.0000     -10.271928      -279.5134
  51   2.0000     -10.271551      -279.5031
  52   2.0000     -10.270156      -279.4651
  53   2.0000     -10.265311      -279.3333
  54   2.0000     -10.264209      -279.3033
  55   2.0000     -10.262492      -279.2566
  56   2.0000     -10.261312      -279.2245
  57   2.0000     -10.260481      -279.2019
  58   2.0000      -8.071428      -219.6347
  59   2.0000      -8.058709      -219.2886
  60   2.0000      -8.057657      -219.2600
  61   2.0000      -8.051991      -219.1058
  62   2.0000      -8.051023      -219.0795
  63   2.0000      -8.049789      -219.0459
  64   2.0000      -6.040896      -164.3811
  65   2.0000      -6.036269      -164.2552
  66   2.0000      -6.033540      -164.1810
  67   2.0000      -6.027607      -164.0195
  68   2.0000      -6.027158      -164.0073
  69   2.0000      -6.023683      -163.9128
  70   2.0000      -6.023123      -163.8975
  71   2.0000      -6.021495      -163.8532
  72   2.0000      -6.020987      -163.8394
  73   2.0000      -6.020501      -163.8262
  74   2.0000      -6.019261      -163.7924
  75   2.0000      -6.019201      -163.7908
  76   2.0000      -6.016832      -163.7263
  77   2.0000      -6.016627      -163.7207
  78   2.0000      -6.015013      -163.6768
  79   2.0000      -6.014939      -163.6748
  80   2.0000      -6.012406      -163.6059
  81   2.0000      -6.011760      -163.5883
  82   2.0000      -1.013069       -27.5670
  83   2.0000      -1.003295       -27.3011
  84   2.0000      -0.997881       -27.1537
  85   2.0000      -0.995012       -27.0757
  86   2.0000      -0.986391       -26.8411
  87   2.0000      -0.980528       -26.6815
  88   2.0000      -0.976349       -26.5678
  89   2.0000      -0.966856       -26.3095
  90   2.0000      -0.945567       -25.7302
  91   2.0000      -0.937817       -25.5193
  92   2.0000      -0.930415       -25.3179
  93   2.0000      -0.924731       -25.1632
  94   2.0000      -0.918560       -24.9953
  95   2.0000      -0.906725       -24.6732
  96   2.0000      -0.896279       -24.3890
  97   2.0000      -0.884565       -24.0702
  98   2.0000      -0.879947       -23.9446
  99   2.0000      -0.872974       -23.7548
 100   2.0000      -0.867800       -23.6141
 101   2.0000      -0.854108       -23.2415
 102   2.0000      -0.846167       -23.0254
 103   2.0000      -0.837509       -22.7898
 104   2.0000      -0.836824       -22.7711
 105   2.0000      -0.831505       -22.6264
 106   2.0000      -0.826980       -22.5033
 107   2.0000      -0.824442       -22.4342
 108   2.0000      -0.815351       -22.1868
 109   2.0000      -0.809115       -22.0171
 110   2.0000      -0.803462       -21.8633
 111   2.0000      -0.793173       -21.5833
 112   2.0000      -0.770155       -20.9570
 113   2.0000      -0.764394       -20.8002
 114   2.0000      -0.741378       -20.1739
 115   2.0000      -0.727763       -19.8034
 116   2.0000      -0.717487       -19.5238
 117   2.0000      -0.712385       -19.3850
 118   2.0000      -0.709376       -19.3031
 119   2.0000      -0.705890       -19.2083
 120   2.0000      -0.703799       -19.1513
 121   2.0000      -0.702838       -19.1252
 122   2.0000      -0.694078       -18.8868
 123   2.0000      -0.682261       -18.5653
 124   2.0000      -0.673649       -18.3309
 125   2.0000      -0.666511       -18.1367
 126   2.0000      -0.656057       -17.8522
 127   2.0000      -0.653011       -17.7693
 128   2.0000      -0.648569       -17.6485
 129   2.0000      -0.631734       -17.1903
 130   2.0000      -0.630480       -17.1562
 131   2.0000      -0.622965       -16.9517
 132   2.0000      -0.619839       -16.8667
 133   2.0000      -0.615314       -16.7435
 134   2.0000      -0.604737       -16.4557
 135   2.0000      -0.602083       -16.3835
 136   2.0000      -0.592975       -16.1357
 137   2.0000      -0.580832       -15.8053
 138   2.0000      -0.575272       -15.6539
 139   2.0000      -0.571698       -15.5567
 140   2.0000      -0.564908       -15.3719
 141   2.0000      -0.559334       -15.2203
 142   2.0000      -0.555215       -15.1082
 143   2.0000      -0.554335       -15.0842
 144   2.0000      -0.550246       -14.9730
 145   2.0000      -0.549353       -14.9487
 146   2.0000      -0.548272       -14.9192
 147   2.0000      -0.542259       -14.7556
 148   2.0000      -0.539334       -14.6760
 149   2.0000      -0.534185       -14.5359
 150   2.0000      -0.529915       -14.4197
 151   2.0000      -0.521514       -14.1911
 152   2.0000      -0.521063       -14.1788
 153   2.0000      -0.519939       -14.1483
 154   2.0000      -0.513728       -13.9793
 155   2.0000      -0.513056       -13.9610
 156   2.0000      -0.510454       -13.8902
 157   2.0000      -0.508136       -13.8271
 158   2.0000      -0.507528       -13.8105
 159   2.0000      -0.505989       -13.7687
 160   2.0000      -0.503512       -13.7013
 161   2.0000      -0.500773       -13.6267
 162   2.0000      -0.494346       -13.4518
 163   2.0000      -0.494274       -13.4499
 164   2.0000      -0.486947       -13.2505
 165   2.0000      -0.482237       -13.1223
 166   2.0000      -0.479779       -13.0555
 167   2.0000      -0.476921       -12.9777
 168   2.0000      -0.470012       -12.7897
 169   2.0000      -0.469610       -12.7788
 170   2.0000      -0.459006       -12.4902
 171   2.0000      -0.457107       -12.4385
 172   2.0000      -0.455378       -12.3915
 173   2.0000      -0.454582       -12.3698
 174   2.0000      -0.453187       -12.3318
 175   2.0000      -0.450525       -12.2594
 176   2.0000      -0.446784       -12.1576
 177   2.0000      -0.442438       -12.0394
 178   2.0000      -0.435638       -11.8543
 179   2.0000      -0.434605       -11.8262
 180   2.0000      -0.431772       -11.7491
 181   2.0000      -0.430918       -11.7259
 182   2.0000      -0.429595       -11.6899
 183   2.0000      -0.428146       -11.6504
 184   2.0000      -0.425883       -11.5889
 185   2.0000      -0.423766       -11.5312
 186   2.0000      -0.422381       -11.4936
 187   2.0000      -0.421337       -11.4652
 188   2.0000      -0.419286       -11.4094
 189   2.0000      -0.415874       -11.3165
 190   2.0000      -0.414077       -11.2676
 191   2.0000      -0.411859       -11.2073
 192   2.0000      -0.407961       -11.1012
 193   2.0000      -0.406606       -11.0643
 194   2.0000      -0.404562       -11.0087
 195   2.0000      -0.400656       -10.9024
 196   2.0000      -0.399977       -10.8839
 197   2.0000      -0.397891       -10.8272
 198   2.0000      -0.393845       -10.7171
 199   2.0000      -0.388904       -10.5826
 200   2.0000      -0.385695       -10.4953
 201   2.0000      -0.381741       -10.3877
 202   2.0000      -0.366569        -9.9749
 203   2.0000      -0.355653        -9.6778
 204   2.0000      -0.351337        -9.5604
 205   2.0000      -0.342883        -9.3303
 206   2.0000      -0.328200        -8.9308
 207   2.0000      -0.325835        -8.8664
 208   2.0000      -0.316436        -8.6107
 209   2.0000      -0.315475        -8.5845
 210   2.0000      -0.309413        -8.4196
 211   2.0000      -0.298685        -8.1276
 212   2.0000      -0.293873        -7.9967
 213   2.0000      -0.282938        -7.6991
 214   2.0000      -0.279130        -7.5955
 215   2.0000      -0.257348        -7.0028
 216   2.0000      -0.237998        -6.4763
 217   2.0000      -0.213099        -5.7987
 218   0.0000      -0.077521        -2.1095
 219   0.0000      -0.042259        -1.1499
 220   0.0000      -0.038866        -1.0576
 221   0.0000      -0.020091        -0.5467
 222   0.0000      -0.009330        -0.2539

MULLIKEN ATOMIC CHARGES
-----------------------
   0 C :   -0.104964
   1 C :    0.034218
   2 C :    0.011592
   3 C :    0.066473
   4 C :   -0.147172
   5 S :    0.131084
   6 C :   -0.112545
   7 C :    0.050802
   8 C :    0.001829
   9 C :   -0.069106
  10 S :    0.123635
  11 C :    0.067754
  12 C :   -0.027652
  13 C :    0.024497
  14 C :   -0.112583
  15 C :    0.098740
  16 C :    0.120429
  17 C :   -0.041688
  18 C :    0.030819
  19 C :    0.021102
  20 C :   -0.034496
  21 C :   -0.110014
  22 S :    0.140614
  23 C :    0.000253
  24 C :   -0.040089
  25 C :   -0.056558
  26 C :    0.076946
  27 C :    0.094628
  28 C :    0.020003
  29 C :   -0.111694
  30 C :    0.041057
  31 C :   -0.007080
  32 C :   -0.048493
  33 S :    0.101060
  34 C :   -0.133059
  35 N :    0.093613
  36 C :   -0.230942
  37 C :    0.155879
  38 C :    0.085905
  39 C :   -0.051706
  40 C :   -0.101158
  41 C :    0.037422
  42 C :   -0.000296
  43 C :   -0.054779
  44 S :    0.153293
  45 C :   -0.139777
  46 N :    0.102606
  47 C :   -0.308999
  48 C :    0.171673
  49 C :    0.084331
  50 C :   -0.031075
  51 C :    0.043853
  52 C :    0.045599
  53 C :   -0.051813
  54 C :   -0.120337
  55 S :    0.186099
  56 C :    0.007228
  57 C :   -0.031752
  58 H :    0.044958
  59 H :   -0.010415
  60 H :    0.034967
  61 H :   -0.016701
  62 H :    0.025083
  63 H :   -0.023195
  64 H :   -0.023197
  65 H :   -0.026912
  66 H :   -0.013834
  67 H :   -0.015285
  68 H :   -0.020164
  69 H :   -0.001409
  70 H :   -0.010076
  71 H :   -0.014077
  72 H :   -0.008053
  73 H :   -0.019099
  74 H :    0.009662
  75 H :   -0.003667
  76 H :   -0.015623
  77 H :   -0.030701
  78 H :   -0.013683
  79 H :   -0.011503
  80 H :   -0.015598
  81 H :   -0.009399
  82 H :    0.019324
  83 H :    0.023390
Sum of atomic charges:    0.0000000

LOEWDIN ATOMIC CHARGES
----------------------
   0 C :   -0.183468
   1 C :   -0.029276
   2 C :   -0.021667
   3 C :   -0.042890
   4 C :   -0.145205
   5 S :    0.453682
   6 C :   -0.208525
   7 C :   -0.039155
   8 C :   -0.066397
   9 C :   -0.166409
  10 S :    0.417312
  11 C :   -0.059343
  12 C :   -0.008511
  13 C :   -0.065042
  14 C :   -0.152382
  15 C :   -0.052367
  16 C :   -0.031762
  17 C :   -0.019452
  18 C :   -0.019546
  19 C :   -0.030665
  20 C :   -0.013876
  21 C :   -0.194187
  22 S :    0.471599
  23 C :   -0.022679
  24 C :   -0.079245
  25 C :   -0.126753
  26 C :   -0.101836
  27 C :   -0.041939
  28 C :    0.022738
  29 C :   -0.074582
  30 C :    0.001914
  31 C :   -0.036867
  32 C :   -0.143799
  33 S :    0.404738
  34 C :   -0.024524
  35 N :   -0.067091
  36 C :   -0.146375
  37 C :   -0.075843
  38 C :   -0.038536
  39 C :    0.019493
  40 C :   -0.073927
  41 C :    0.001936
  42 C :   -0.033312
  43 C :   -0.146143
  44 S :    0.427913
  45 C :   -0.029150
  46 N :   -0.061295
  47 C :   -0.195273
  48 C :   -0.047097
  49 C :   -0.045191
  50 C :   -0.013837
  51 C :   -0.017600
  52 C :   -0.010413
  53 C :   -0.032738
  54 C :   -0.180739
  55 S :    0.504489
  56 C :   -0.036805
  57 C :   -0.054293
  58 H :    0.031220
  59 H :    0.038196
  60 H :    0.035065
  61 H :    0.029490
  62 H :    0.022826
  63 H :    0.029212
  64 H :    0.023650
  65 H :    0.027303
  66 H :    0.029486
  67 H :    0.028564
  68 H :    0.028580
  69 H :    0.026500
  70 H :    0.011969
  71 H :    0.038900
  72 H :    0.037717
  73 H :    0.032884
  74 H :    0.044791
  75 H :    0.039066
  76 H :    0.033973
  77 H :    0.026486
  78 H :    0.030620
  79 H :    0.031860
  80 H :    0.027841
  81 H :    0.033951
  82 H :    0.016186
  83 H :    0.025856

  Mayer bond orders larger than 0.100000
B(  0-C ,  1-C ) :   1.6517 B(  0-C ,  5-S ) :   1.1036 B(  0-C , 58-H ) :   0.9402
B(  1-C ,  2-C ) :   1.2014 B(  1-C , 59-H ) :   0.9693 B(  2-C ,  3-C ) :   1.0607
B(  2-C , 11-C ) :   1.4207 B(  3-C ,  4-C ) :   1.6022 B(  3-C ,  6-C ) :   1.1815
B(  4-C ,  5-S ) :   1.1424 B(  4-C , 60-H ) :   0.9421 B(  6-C ,  7-C ) :   1.4564
B(  6-C , 10-S ) :   1.0692 B(  7-C ,  8-C ) :   1.2217 B(  7-C , 11-C ) :   1.0897
B(  8-C ,  9-C ) :   1.5833 B(  8-C , 61-H ) :   0.9978 B(  9-C , 10-S ) :   1.1586
B(  9-C , 62-H ) :   0.9661 B( 11-C , 12-C ) :   1.1778 B( 12-C , 13-C ) :   1.6042
B( 12-C , 63-H ) :   0.9581 B( 13-C , 14-C ) :   1.1709 B( 13-C , 64-H ) :   0.9481
B( 14-C , 15-C ) :   1.3097 B( 14-C , 21-C ) :   0.1025 B( 14-C , 22-S ) :   1.1649
B( 15-C , 16-C ) :   1.2233 B( 15-C , 20-C ) :   1.2143 B( 16-C , 17-C ) :   1.2229
B( 16-C , 21-C ) :   1.2929 B( 17-C , 18-C ) :   1.5417 B( 17-C , 65-H ) :   0.9919
B( 18-C , 19-C ) :   1.2236 B( 18-C , 66-H ) :   0.9853 B( 19-C , 20-C ) :   1.5398
B( 19-C , 67-H ) :   0.9855 B( 20-C , 68-H ) :   0.9892 B( 21-C , 22-S ) :   1.1175
B( 21-C , 23-C ) :   1.2227 B( 23-C , 24-C ) :   1.5952 B( 23-C , 69-H ) :   0.9653
B( 24-C , 25-C ) :   1.1923 B( 24-C , 70-H ) :   0.9583 B( 25-C , 26-C ) :   1.5174
B( 25-C , 33-S ) :   1.0664 B( 26-C , 27-C ) :   1.1417 B( 26-C , 36-C ) :   1.0068
B( 27-C , 28-C ) :   1.3235 B( 27-C , 32-C ) :   1.3147 B( 28-C , 29-C ) :   1.4268
B( 28-C , 71-H ) :   0.9724 B( 29-C , 30-C ) :   1.3287 B( 29-C , 34-C ) :   1.0617
B( 30-C , 31-C ) :   1.4152 B( 30-C , 72-H ) :   0.9929 B( 31-C , 32-C ) :   1.3429
B( 31-C , 73-H ) :   0.9947 B( 32-C , 33-S ) :   1.0561 B( 34-C , 35-N ) :   3.0294
B( 36-C , 37-C ) :   1.5983 B( 36-C , 44-S ) :   1.0991 B( 37-C , 38-C ) :   1.1359
B( 37-C , 47-C ) :   1.0156 B( 38-C , 39-C ) :   1.3074 B( 38-C , 43-C ) :   1.3123
B( 39-C , 40-C ) :   1.4089 B( 39-C , 74-H ) :   0.9932 B( 40-C , 41-C ) :   1.3260
B( 40-C , 45-C ) :   1.0588 B( 41-C , 42-C ) :   1.4308 B( 41-C , 75-H ) :   0.9919
B( 42-C , 43-C ) :   1.3358 B( 42-C , 76-H ) :   0.9936 B( 43-C , 44-S ) :   1.0596
B( 45-C , 46-N ) :   3.0532 B( 47-C , 48-C ) :   1.3842 B( 47-C , 54-C ) :   0.1284
B( 47-C , 55-S ) :   1.1945 B( 48-C , 49-C ) :   1.1977 B( 48-C , 53-C ) :   1.1779
B( 49-C , 50-C ) :   1.1896 B( 49-C , 54-C ) :   1.3663 B( 50-C , 51-C ) :   1.5755
B( 50-C , 77-H ) :   0.9901 B( 51-C , 52-C ) :   1.1941 B( 51-C , 78-H ) :   0.9828
B( 52-C , 53-C ) :   1.5708 B( 52-C , 79-H ) :   0.9855 B( 53-C , 80-H ) :   0.9851
B( 54-C , 55-S ) :   1.1465 B( 54-C , 56-C ) :   1.1355 B( 56-C , 57-C ) :   1.9129
B( 56-C , 81-H ) :   0.9592 B( 57-C , 82-H ) :   0.9556 B( 57-C , 83-H ) :   0.9487

-----------------------------------------------------------------------------
         ABSORPTION SPECTRUM VIA TRANSITION ELECTRIC DIPOLE MOMENTS
-----------------------------------------------------------------------------
State   Energy  Wavelength   fosc         T2         TX        TY        TZ
        (cm-1)    (nm)                  (au**2)     (au)      (au)      (au)
-----------------------------------------------------------------------------
   0   15046.8    664.6   1.246023858  27.26199   2.47460   3.52299  -2.95414
   1   21303.6    469.4   0.037465592   0.57897  -0.01199   0.24781   0.71932
   2   21750.9    459.8   0.164196810   2.48521   0.17199  -0.16434   1.55841
   3   23770.6    420.7   0.087547345   1.21249  -0.13226  -0.14394  -1.08364
   4   24008.5    416.5   0.097041556   1.33066   0.06328  -0.62023   0.97056
   5   26479.4    377.7   0.334539975   4.15926   1.44777  -0.09880   1.43299
   6   26877.5    372.1   0.295404629   3.61830  -1.80125  -0.17220   0.58664
   7   28631.7    349.3   0.110356659   1.26890  -0.87887  -0.45024  -0.54200
   8   28926.2    345.7   0.269809540   3.07073  -1.44007  -0.56157  -0.82558
   9   29690.4    336.8   0.056500501   0.62649  -0.63779  -0.45917  -0.09419
  10   30177.4    331.4   0.019445306   0.21213   0.00672   0.06300   0.45620
  11   30619.1    326.6   0.037625226   0.40454  -0.11505  -0.61485   0.11514
  12   31430.9    318.2   0.001753988   0.01837   0.07483  -0.08116   0.07865
  13   32064.8    311.9   0.041482280   0.42590  -0.61021   0.13613  -0.18713
  14   32304.2    309.6   0.036150546   0.36841   0.30774   0.52258  -0.02487
  15   32643.5    306.3   0.064335454   0.64883   0.30618   0.63376  -0.39170
  16   32891.9    304.0   0.011006748   0.11017  -0.22208   0.02402   0.24549
  17   33106.6    302.1   0.013206054   0.13132   0.00064   0.13017  -0.33820
  18   33406.2    299.3   0.079580714   0.78425  -0.28947   0.57609  -0.60711
  19   33753.9    296.3   0.013299430   0.12971   0.23245   0.21216   0.17513
  20   34327.7    291.3   0.025962792   0.24899   0.23817   0.43591  -0.04745
  21   34636.4    288.7   0.138821821   1.31947   0.77523   0.18679   0.82680
  22   35880.8    278.7   0.045976599   0.42184   0.18635  -0.04268   0.62072
  23   36377.4    274.9   0.070340929   0.63658  -0.01794  -0.26162   0.75353
  24   36609.2    273.2   0.078537344   0.70625  -0.58181  -0.50036  -0.34263
  25   36820.5    271.6   0.084816394   0.75834  -0.63172  -0.29179  -0.52358
  26   37134.2    269.3   0.004542209   0.04027  -0.04681  -0.18600  -0.05900
  27   37588.5    266.0   0.033917162   0.29706  -0.24660  -0.00401  -0.48603
  28   37693.7    265.3   0.023906715   0.20880  -0.12771  -0.43044   0.08489
  29   38127.0    262.3   0.042138917   0.36385  -0.42974   0.25531  -0.33763
  30   38215.1    261.7   0.140645816   1.21162   0.66439   0.43183  -0.76402
  31   38789.4    257.8   0.047603450   0.40402  -0.04442   0.32662   0.54348
  32   39164.1    255.3   0.053857593   0.45273  -0.36147  -0.49998  -0.26849
  33   39844.1    251.0   0.382846314   3.16327   0.87336   1.50619   0.36317
  34   40303.2    248.1   0.040531537   0.33108  -0.36627  -0.42729  -0.11976

FINAL SINGLE POINT ENERGY     -4416.211002648857

DIPOLE MOMENT
-------------
                                X             Y             Z
Electronic contribution:    -20.04398      -6.28257       3.25839
Nuclear contribution   :     19.91239       5.05276       0.42409
                        -----------------------------------------
Total Dipole Moment    :     -0.13159      -1.22981       3.68248
                        -----------------------------------------
Magnitude (a.u.)       :      3.88464
Magnitude (Debye)      :      9.87396

Rotational constants in cm-1:     0.002151     0.000520     0.000448
Rotational constants in MHz :    64.486255    15.601416    13.422765

                             ****ORCA TERMINATED NORMALLY****
TOTAL RUN TIME: 0 days 0 hours 7 minutes 0 seconds 642 msec
