                         Program Version 4.2.0 -  RELEASE  -
|  1> # ORCA input file
|  2> # SCF done       -185.547300982856          0.000998336563
|  3> ! CAM-B3LYP def2-SVP def2/J RIJCOSX Grid4 TightSCF
|  4> %maxcore 5000
|  5> %tddft
|  6>     Mode sTDDFT
|  7>     Ethresh 5.0
|  8>     maxcore 5000
|  9> end
| 10>
| 11> %pal
| 12>   nprocs 6
| 13>   end
| 14> * xyz 0 1
| 15>    C        3.24020         0.62163         0.09782
| 16>    C        2.23649         1.50752        -0.09135
| 17>    C        1.01352         1.18476        -0.71362
| 18>    C        0.74791        -0.20654        -1.11382
| 19>    C        1.63193        -1.22388        -1.01830
| 20>    S        3.21764        -1.04354        -0.38597
| 21>    C       -0.58986        -0.21341        -1.59859
| 22>    C       -1.12054         1.06921        -1.51334
| 23>    C       -2.45015         1.13096        -1.98372
| 24>    C       -2.88646        -0.08561        -2.40322
| 25>    S       -1.70866        -1.34692        -2.25011
| 26>    C       -0.11889         1.96557        -0.98137
| 27>    C       -0.36635         3.35238        -0.82514
| 28>    C        0.55813         4.33131        -0.64356
| 29>    C        0.27656         5.71626        -0.49888
| 30>    C        1.35424         6.62610        -0.34155
| 31>    C        1.16141         8.03826        -0.23318
| 32>    N        2.23884         8.85332        -0.22099
| 33>    C        3.43639         8.34562        -0.19000
| 34>    C        3.62582         6.93036        -0.16620
| 35>    N        2.60774         6.12323        -0.27756
| 36>    C        4.98434         6.32156        -0.04675
| 37>    C        4.59115         9.29314        -0.18896
| 38>    C       -0.12740         8.61132        -0.20708
| 39>    C       -1.20749         7.71819        -0.32003
| 40>    C       -1.01469         6.29212        -0.47674
| 41>    N       -2.18091         5.64623        -0.54792
| 42>    S       -3.37951         6.71111        -0.40904
| 43>    N       -2.50157         8.03931        -0.25091
| 44>    C       -0.31631        10.03376        -0.08536
| 45>    C        0.45719        10.81391         0.79615
| 46>    C        0.32759        12.23676         0.84147
| 47>    N        1.15213        12.94028         1.63650
| 48>    C        2.02776        12.33595         2.39417
| 49>    C        2.06381        10.91181         2.43484
| 50>    N        1.29915        10.20200         1.65361
| 51>    C        2.96496        10.17896         3.37412
| 52>    C        2.94044        13.18107         3.21689
| 53>    C       -0.62314        12.96117         0.08447
| 54>    C       -1.43574        12.16959        -0.76783
| 55>    C       -1.26144        10.73274        -0.85734
| 56>    N       -2.05884        10.19147        -1.77959
| 57>    S       -2.96501        11.33510        -2.43387
| 58>    N       -2.38190        12.59107        -1.60964
| 59>    C       -0.70942        14.38669         0.17611
| 60>    C       -1.68575        15.09219        -0.49980
| 61>    C       -1.84972        16.46807        -0.49632
| 62>    C       -0.95201        17.34403         0.24625
| 63>    C        0.07090        16.87344         0.99281
| 64>    S        0.47346        15.20807         1.18908
| 65>    C       -1.42002        18.66220        -0.00815
| 66>    C       -2.54040        18.62280        -0.84460
| 67>    C       -3.02334        19.92366        -1.12325
| 68>    C       -2.28352        20.88230        -0.50965
| 69>    S       -0.96977        20.26020         0.43252
| 70>    C       -2.83263        17.24880        -1.15827
| 71>    C       -3.87085        16.70383        -1.93663
| 72>    C       -4.88111        17.38056        -2.54901
| 73>    C       -5.92056        16.77324        -3.30075
| 74>    C       -6.93030        17.51448        -3.87265
| 75>    C       -7.99977        17.00033        -4.60673
| 76>    C       -8.12582        15.55447        -4.83839
| 77>    C       -7.24944        14.63527        -4.38278
| 78>    S       -5.85775        15.01509        -3.45625
| 79>    C       -9.31174        15.40352        -5.60253
| 80>    C       -9.89007        16.65458        -5.83932
| 81>    C      -11.08932        16.53506        -6.58153
| 82>    C      -11.37374        15.24272        -6.88293
| 83>    S      -10.21139        14.10686        -6.28371
| 84>    C       -9.07107        17.66403        -5.22360
| 85>    C       -9.26836        19.08309        -5.21303
| 86>    C      -10.19308        19.76672        -5.88976
| 87>    H        4.16311         0.89127         0.58219
| 88>    H        2.38098         2.50980         0.28231
| 89>    H        1.39752        -2.22610        -1.34039
| 90>    H       -3.05274         2.02067        -2.01002
| 91>    H       -3.84813        -0.33778        -2.80561
| 92>    H       -1.40333         3.65027        -0.90163
| 93>    H        1.61280         4.10360        -0.64329
| 94>    H        5.62055         6.64624        -0.86854
| 95>    H        4.89833         5.23909        -0.06620
| 96>    H        5.45625         6.62850         0.88558
| 97>    H        4.21514        10.31222        -0.19205
| 98>    H        5.21417         9.13724        -1.06866
| 99>    H        5.20904         9.13698         0.69407
|100>    H        4.00419        10.44901         3.19215
|101>    H        2.83756         9.11033         3.22699
|102>    H        2.72659        10.43101         4.40664
|103>    H        2.71992        14.22879         3.03613
|104>    H        3.97870        12.97918         2.95655
|105>    H        2.81107        12.96065         4.27551
|106>    H       -2.36952        14.49539        -1.08507
|107>    H        0.72286        17.53096         1.54782
|108>    H       -3.86728        20.15899        -1.74532
|109>    H       -2.42395        21.94506        -0.54764
|110>    H       -3.85775        15.62596        -2.03735
|111>    H       -4.93675        18.45539        -2.46676
|112>    H       -6.87791        18.58518        -3.72628
|113>    H       -7.36414        13.57898        -4.57171
|114>    H      -11.72507        17.34809        -6.87898
|115>    H      -12.21475        14.86619        -7.43216
|116>    H       -8.57608        19.63499        -4.58946
|117>    H      -10.90100        19.29186        -6.54309
|118>    H      -10.25985        20.83819        -5.81481
|119> *
|120>
|121>                          ****END OF INPUT****

CARTESIAN COORDINATES (ANGSTROEM)
---------------------------------
  C      3.240200    0.621630    0.097820
  C      2.236490    1.507520   -0.091350
  C      1.013520    1.184760   -0.713620
  C      0.747910   -0.206540   -1.113820
  C      1.631930   -1.223880   -1.018300
  S      3.217640   -1.043540   -0.385970
  C     -0.589860   -0.213410   -1.598590
  C     -1.120540    1.069210   -1.513340
  C     -2.450150    1.130960   -1.983720
  C     -2.886460   -0.085610   -2.403220
  S     -1.708660   -1.346920   -2.250110
  C     -0.118890    1.965570   -0.981370
  C     -0.366350    3.352380   -0.825140
  C      0.558130    4.331310   -0.643560
  C      0.276560    5.716260   -0.498880
  C      1.354240    6.626100   -0.341550
  C      1.161410    8.038260   -0.233180
  N      2.238840    8.853320   -0.220990
  C      3.436390    8.345620   -0.190000
  C      3.625820    6.930360   -0.166200
  N      2.607740    6.123230   -0.277560
  C      4.984340    6.321560   -0.046750
  C      4.591150    9.293140   -0.188960
  C     -0.127400    8.611320   -0.207080
  C     -1.207490    7.718190   -0.320030
  C     -1.014690    6.292120   -0.476740
  N     -2.180910    5.646230   -0.547920
  S     -3.379510    6.711110   -0.409040
  N     -2.501570    8.039310   -0.250910
  C     -0.316310   10.033760   -0.085360
  C      0.457190   10.813910    0.796150
  C      0.327590   12.236760    0.841470
  N      1.152130   12.940280    1.636500
  C      2.027760   12.335950    2.394170
  C      2.063810   10.911810    2.434840
  N      1.299150   10.202000    1.653610
  C      2.964960   10.178960    3.374120
  C      2.940440   13.181070    3.216890
  C     -0.623140   12.961170    0.084470
  C     -1.435740   12.169590   -0.767830
  C     -1.261440   10.732740   -0.857340
  N     -2.058840   10.191470   -1.779590
  S     -2.965010   11.335100   -2.433870
  N     -2.381900   12.591070   -1.609640
  C     -0.709420   14.386690    0.176110
  C     -1.685750   15.092190   -0.499800
  C     -1.849720   16.468070   -0.496320
  C     -0.952010   17.344030    0.246250
  C      0.070900   16.873440    0.992810
  S      0.473460   15.208070    1.189080
  C     -1.420020   18.662200   -0.008150
  C     -2.540400   18.622800   -0.844600
  C     -3.023340   19.923660   -1.123250
  C     -2.283520   20.882300   -0.509650
  S     -0.969770   20.260200    0.432520
  C     -2.832630   17.248800   -1.158270
  C     -3.870850   16.703830   -1.936630
  C     -4.881110   17.380560   -2.549010
  C     -5.920560   16.773240   -3.300750
  C     -6.930300   17.514480   -3.872650
  C     -7.999770   17.000330   -4.606730
  C     -8.125820   15.554470   -4.838390
  C     -7.249440   14.635270   -4.382780
  S     -5.857750   15.015090   -3.456250
  C     -9.311740   15.403520   -5.602530
  C     -9.890070   16.654580   -5.839320
  C    -11.089320   16.535060   -6.581530
  C    -11.373740   15.242720   -6.882930
  S    -10.211390   14.106860   -6.283710
  C     -9.071070   17.664030   -5.223600
  C     -9.268360   19.083090   -5.213030
  C    -10.193080   19.766720   -5.889760
  H      4.163110    0.891270    0.582190
  H      2.380980    2.509800    0.282310
  H      1.397520   -2.226100   -1.340390
  H     -3.052740    2.020670   -2.010020
  H     -3.848130   -0.337780   -2.805610
  H     -1.403330    3.650270   -0.901630
  H      1.612800    4.103600   -0.643290
  H      5.620550    6.646240   -0.868540
  H      4.898330    5.239090   -0.066200
  H      5.456250    6.628500    0.885580
  H      4.215140   10.312220   -0.192050
  H      5.214170    9.137240   -1.068660
  H      5.209040    9.136980    0.694070
  H      4.004190   10.449010    3.192150
  H      2.837560    9.110330    3.226990
  H      2.726590   10.431010    4.406640
  H      2.719920   14.228790    3.036130
  H      3.978700   12.979180    2.956550
  H      2.811070   12.960650    4.275510
  H     -2.369520   14.495390   -1.085070
  H      0.722860   17.530960    1.547820
  H     -3.867280   20.158990   -1.745320
  H     -2.423950   21.945060   -0.547640
  H     -3.857750   15.625960   -2.037350
  H     -4.936750   18.455390   -2.466760
  H     -6.877910   18.585180   -3.726280
  H     -7.364140   13.578980   -4.571710
  H    -11.725070   17.348090   -6.878980
  H    -12.214750   14.866190   -7.432160
  H     -8.576080   19.634990   -4.589460
  H    -10.901000   19.291860   -6.543090
  H    -10.259850   20.838190   -5.814810

 Total Charge           Charge          ....    0
 Multiplicity           Mult            ....    1
 Number of Electrons    NEL             ....  552
 Basis Dimension        Dim             .... 1200

ORBITAL ENERGIES
----------------

  NO   OCC          E(Eh)            E(eV)
   0   2.0000     -89.018032     -2422.3038
   1   2.0000     -89.013924     -2422.1920
   2   2.0000     -88.968198     -2420.9477
   3   2.0000     -88.950506     -2420.4663
   4   2.0000     -88.948377     -2420.4084
   5   2.0000     -88.946243     -2420.3503
   6   2.0000     -88.942470     -2420.2476
   7   2.0000     -88.937983     -2420.1255
   8   2.0000     -14.427473      -392.5915
   9   2.0000     -14.425530      -392.5386
  10   2.0000     -14.424327      -392.5059
  11   2.0000     -14.420919      -392.4132
  12   2.0000     -14.414612      -392.2415
  13   2.0000     -14.409955      -392.1148
  14   2.0000     -14.409430      -392.1005
  15   2.0000     -14.405841      -392.0029
  16   2.0000     -10.323678      -280.9216
  17   2.0000     -10.318445      -280.7792
  18   2.0000     -10.318411      -280.7782
  19   2.0000     -10.317322      -280.7486
  20   2.0000     -10.315727      -280.7052
  21   2.0000     -10.315285      -280.6932
  22   2.0000     -10.313225      -280.6371
  23   2.0000     -10.310577      -280.5651
  24   2.0000     -10.309943      -280.5478
  25   2.0000     -10.308943      -280.5206
  26   2.0000     -10.307934      -280.4931
  27   2.0000     -10.306498      -280.4541
  28   2.0000     -10.305669      -280.4315
  29   2.0000     -10.305540      -280.4280
  30   2.0000     -10.303174      -280.3636
  31   2.0000     -10.302941      -280.3573
  32   2.0000     -10.297887      -280.2198
  33   2.0000     -10.296909      -280.1931
  34   2.0000     -10.293377      -280.0970
  35   2.0000     -10.289917      -280.0029
  36   2.0000     -10.286622      -279.9132
  37   2.0000     -10.285790      -279.8906
  38   2.0000     -10.283464      -279.8273
  39   2.0000     -10.282680      -279.8059
  40   2.0000     -10.282385      -279.7979
  41   2.0000     -10.277725      -279.6711
  42   2.0000     -10.277376      -279.6616
  43   2.0000     -10.275744      -279.6172
  44   2.0000     -10.274523      -279.5840
  45   2.0000     -10.274030      -279.5706
  46   2.0000     -10.273880      -279.5665
  47   2.0000     -10.272467      -279.5280
  48   2.0000     -10.272267      -279.5226
  49   2.0000     -10.271678      -279.5066
  50   2.0000     -10.270588      -279.4769
  51   2.0000     -10.269920      -279.4587
  52   2.0000     -10.269834      -279.4564
  53   2.0000     -10.267048      -279.3806
  54   2.0000     -10.266046      -279.3533
  55   2.0000     -10.263975      -279.2970
  56   2.0000     -10.263593      -279.2866
  57   2.0000     -10.262323      -279.2520
  58   2.0000     -10.262020      -279.2438
  59   2.0000     -10.261387      -279.2265
  60   2.0000     -10.261247      -279.2227
  61   2.0000     -10.261019      -279.2165
  62   2.0000     -10.260527      -279.2031
  63   2.0000     -10.259834      -279.1843
  64   2.0000     -10.258986      -279.1612
  65   2.0000     -10.258665      -279.1525
  66   2.0000     -10.256498      -279.0935
  67   2.0000     -10.253586      -279.0143
  68   2.0000     -10.253498      -279.0119
  69   2.0000     -10.252828      -278.9936
  70   2.0000     -10.250177      -278.9215
  71   2.0000     -10.239763      -278.6381
  72   2.0000      -8.109439      -220.6691
  73   2.0000      -8.105416      -220.5596
  74   2.0000      -8.064078      -219.4347
  75   2.0000      -8.045628      -218.9327
  76   2.0000      -8.041594      -218.8229
  77   2.0000      -8.040991      -218.8065
  78   2.0000      -8.037883      -218.7219
  79   2.0000      -8.033482      -218.6021
  80   2.0000      -6.080584      -165.4611
  81   2.0000      -6.076540      -165.3511
  82   2.0000      -6.072752      -165.2480
  83   2.0000      -6.072172      -165.2322
  84   2.0000      -6.068744      -165.1389
  85   2.0000      -6.068180      -165.1236
  86   2.0000      -6.033564      -164.1816
  87   2.0000      -6.028909      -164.0550
  88   2.0000      -6.026201      -163.9813
  89   2.0000      -6.015170      -163.6811
  90   2.0000      -6.011074      -163.5696
  91   2.0000      -6.010853      -163.5636
  92   2.0000      -6.010827      -163.5629
  93   2.0000      -6.007464      -163.4714
  94   2.0000      -6.007300      -163.4669
  95   2.0000      -6.006844      -163.4545
  96   2.0000      -6.005753      -163.4249
  97   2.0000      -6.003579      -163.3657
  98   2.0000      -6.003113      -163.3530
  99   2.0000      -6.002956      -163.3487
 100   2.0000      -6.002902      -163.3473
 101   2.0000      -5.999945      -163.2668
 102   2.0000      -5.998722      -163.2335
 103   2.0000      -5.995497      -163.1458
 104   2.0000      -1.114638       -30.3308
 105   2.0000      -1.109725       -30.1972
 106   2.0000      -1.077755       -29.3272
 107   2.0000      -1.068933       -29.0871
 108   2.0000      -1.004881       -27.3442
 109   2.0000      -0.994237       -27.0546
 110   2.0000      -0.991709       -26.9858
 111   2.0000      -0.986669       -26.8486
 112   2.0000      -0.983500       -26.7624
 113   2.0000      -0.972973       -26.4759
 114   2.0000      -0.964468       -26.2445
 115   2.0000      -0.958580       -26.0843
 116   2.0000      -0.957497       -26.0548
 117   2.0000      -0.950195       -25.8561
 118   2.0000      -0.944458       -25.7000
 119   2.0000      -0.934788       -25.4369
 120   2.0000      -0.913897       -24.8684
 121   2.0000      -0.910935       -24.7878
 122   2.0000      -0.903418       -24.5833
 123   2.0000      -0.885329       -24.0910
 124   2.0000      -0.885032       -24.0829
 125   2.0000      -0.881045       -23.9745
 126   2.0000      -0.877353       -23.8740
 127   2.0000      -0.872173       -23.7330
 128   2.0000      -0.864126       -23.5141
 129   2.0000      -0.849417       -23.1138
 130   2.0000      -0.844615       -22.9831
 131   2.0000      -0.839422       -22.8418
 132   2.0000      -0.835924       -22.7467
 133   2.0000      -0.823886       -22.4191
 134   2.0000      -0.819713       -22.3055
 135   2.0000      -0.817885       -22.2558
 136   2.0000      -0.813787       -22.1443
 137   2.0000      -0.811326       -22.0773
 138   2.0000      -0.809323       -22.0228
 139   2.0000      -0.797772       -21.7085
 140   2.0000      -0.794438       -21.6178
 141   2.0000      -0.787676       -21.4338
 142   2.0000      -0.781673       -21.2704
 143   2.0000      -0.767504       -20.8848
 144   2.0000      -0.759478       -20.6665
 145   2.0000      -0.747690       -20.3457
 146   2.0000      -0.737244       -20.0614
 147   2.0000      -0.732430       -19.9304
 148   2.0000      -0.726381       -19.7658
 149   2.0000      -0.718590       -19.5538
 150   2.0000      -0.710020       -19.3206
 151   2.0000      -0.708304       -19.2739
 152   2.0000      -0.700818       -19.0702
 153   2.0000      -0.700272       -19.0554
 154   2.0000      -0.699263       -19.0279
 155   2.0000      -0.689879       -18.7726
 156   2.0000      -0.687598       -18.7105
 157   2.0000      -0.675734       -18.3877
 158   2.0000      -0.661562       -18.0020
 159   2.0000      -0.650679       -17.7059
 160   2.0000      -0.645555       -17.5664
 161   2.0000      -0.638060       -17.3625
 162   2.0000      -0.636302       -17.3147
 163   2.0000      -0.631851       -17.1936
 164   2.0000      -0.629226       -17.1221
 165   2.0000      -0.628355       -17.0984
 166   2.0000      -0.626169       -17.0389
 167   2.0000      -0.617670       -16.8076
 168   2.0000      -0.615602       -16.7514
 169   2.0000      -0.611779       -16.6474
 170   2.0000      -0.602820       -16.4036
 171   2.0000      -0.599838       -16.3224
 172   2.0000      -0.598736       -16.2924
 173   2.0000      -0.597405       -16.2562
 174   2.0000      -0.587199       -15.9785
 175   2.0000      -0.581619       -15.8266
 176   2.0000      -0.575950       -15.6724
 177   2.0000      -0.565344       -15.3838
 178   2.0000      -0.561703       -15.2847
 179   2.0000      -0.554837       -15.0979
 180   2.0000      -0.552370       -15.0307
 181   2.0000      -0.547742       -14.9048
 182   2.0000      -0.545542       -14.8450
 183   2.0000      -0.542411       -14.7597
 184   2.0000      -0.540843       -14.7171
 185   2.0000      -0.537131       -14.6161
 186   2.0000      -0.535693       -14.5769
 187   2.0000      -0.534614       -14.5476
 188   2.0000      -0.532906       -14.5011
 189   2.0000      -0.530692       -14.4409
 190   2.0000      -0.525565       -14.3014
 191   2.0000      -0.521652       -14.1949
 192   2.0000      -0.518800       -14.1173
 193   2.0000      -0.516178       -14.0459
 194   2.0000      -0.514313       -13.9952
 195   2.0000      -0.510468       -13.8906
 196   2.0000      -0.505201       -13.7472
 197   2.0000      -0.500772       -13.6267
 198   2.0000      -0.498223       -13.5573
 199   2.0000      -0.497455       -13.5364
 200   2.0000      -0.495682       -13.4882
 201   2.0000      -0.495306       -13.4780
 202   2.0000      -0.493563       -13.4305
 203   2.0000      -0.492782       -13.4093
 204   2.0000      -0.491953       -13.3867
 205   2.0000      -0.488842       -13.3021
 206   2.0000      -0.486482       -13.2379
 207   2.0000      -0.486334       -13.2338
 208   2.0000      -0.484591       -13.1864
 209   2.0000      -0.483606       -13.1596
 210   2.0000      -0.480789       -13.0829
 211   2.0000      -0.479409       -13.0454
 212   2.0000      -0.478098       -13.0097
 213   2.0000      -0.476999       -12.9798
 214   2.0000      -0.473269       -12.8783
 215   2.0000      -0.469678       -12.7806
 216   2.0000      -0.464169       -12.6307
 217   2.0000      -0.461356       -12.5541
 218   2.0000      -0.458514       -12.4768
 219   2.0000      -0.453283       -12.3345
 220   2.0000      -0.451301       -12.2805
 221   2.0000      -0.450338       -12.2543
 222   2.0000      -0.450079       -12.2473
 223   2.0000      -0.447971       -12.1899
 224   2.0000      -0.446564       -12.1516
 225   2.0000      -0.442014       -12.0278
 226   2.0000      -0.438166       -11.9231
 227   2.0000      -0.434877       -11.8336
 228   2.0000      -0.433623       -11.7995
 229   2.0000      -0.430175       -11.7057
 230   2.0000      -0.429372       -11.6838
 231   2.0000      -0.425875       -11.5887
 232   2.0000      -0.424064       -11.5394
 233   2.0000      -0.421864       -11.4795
 234   2.0000      -0.417933       -11.3725
 235   2.0000      -0.416873       -11.3437
 236   2.0000      -0.413475       -11.2512
 237   2.0000      -0.408832       -11.1249
 238   2.0000      -0.408183       -11.1072
 239   2.0000      -0.404104       -10.9962
 240   2.0000      -0.403054       -10.9676
 241   2.0000      -0.401301       -10.9199
 242   2.0000      -0.401016       -10.9122
 243   2.0000      -0.395061       -10.7502
 244   2.0000      -0.393616       -10.7108
 245   2.0000      -0.391411       -10.6508
 246   2.0000      -0.391046       -10.6409
 247   2.0000      -0.388266       -10.5652
 248   2.0000      -0.387229       -10.5370
 249   2.0000      -0.381103       -10.3703
 250   2.0000      -0.377757       -10.2793
 251   2.0000      -0.375455       -10.2166
 252   2.0000      -0.373790       -10.1713
 253   2.0000      -0.366009        -9.9596
 254   2.0000      -0.358536        -9.7563
 255   2.0000      -0.354644        -9.6504
 256   2.0000      -0.346216        -9.4210
 257   2.0000      -0.342293        -9.3143
 258   2.0000      -0.337326        -9.1791
 259   2.0000      -0.336957        -9.1691
 260   2.0000      -0.328288        -8.9332
 261   2.0000      -0.320095        -8.7102
 262   2.0000      -0.316754        -8.6193
 263   2.0000      -0.310600        -8.4519
 264   2.0000      -0.308869        -8.4047
 265   2.0000      -0.306414        -8.3379
 266   2.0000      -0.305755        -8.3200
 267   2.0000      -0.297005        -8.0819
 268   2.0000      -0.290294        -7.8993
 269   2.0000      -0.275077        -7.4852
 270   2.0000      -0.267996        -7.2925
 271   2.0000      -0.263893        -7.1809
 272   2.0000      -0.252938        -6.8828
 273   2.0000      -0.232298        -6.3212
 274   2.0000      -0.215205        -5.8560
 275   2.0000      -0.192380        -5.2349
 276   0.0000      -0.094204        -2.5634
 277   0.0000      -0.072831        -1.9818
 278   0.0000      -0.038388        -1.0446
 279   0.0000      -0.033580        -0.9138
 280   0.0000      -0.018279        -0.4974

MULLIKEN ATOMIC CHARGES
-----------------------
   0 C :   -0.104823
   1 C :    0.035557
   2 C :    0.011429
   3 C :    0.064429
   4 C :   -0.149845
   5 S :    0.123821
   6 C :   -0.110909
   7 C :    0.052080
   8 C :    0.005772
   9 C :   -0.068991
  10 S :    0.116715
  11 C :    0.091021
  12 C :    0.001058
  13 C :   -0.118359
  14 C :    0.093734
  15 C :   -0.057763
  16 C :   -0.045453
  17 N :    0.026548
  18 C :   -0.175760
  19 C :   -0.177718
  20 N :    0.001857
  21 C :    0.127368
  22 C :    0.117606
  23 C :    0.021330
  24 C :    0.015164
  25 C :   -0.001690
  26 N :   -0.293111
  27 S :    0.506635
  28 N :   -0.265679
  29 C :    0.033444
  30 C :   -0.038357
  31 C :   -0.048027
  32 N :   -0.077096
  33 C :   -0.139907
  34 C :   -0.180382
  35 N :    0.033355
  36 C :    0.117158
  37 C :    0.115284
  38 C :    0.129198
  39 C :    0.009642
  40 C :   -0.002273
  41 N :   -0.258947
  42 S :    0.519653
  43 N :   -0.317967
  44 C :   -0.122692
  45 C :   -0.073266
  46 C :    0.059753
  47 C :    0.068466
  48 C :   -0.116617
  49 S :    0.139168
  50 C :   -0.112737
  51 C :    0.045401
  52 C :   -0.005053
  53 C :   -0.072424
  54 S :    0.115945
  55 C :    0.102179
  56 C :   -0.024570
  57 C :   -0.026515
  58 C :   -0.011693
  59 C :   -0.066211
  60 C :    0.067391
  61 C :    0.064575
  62 C :   -0.117361
  63 S :    0.080506
  64 C :   -0.119042
  65 C :    0.056610
  66 C :   -0.004346
  67 C :   -0.073919
  68 S :    0.111682
  69 C :    0.052780
  70 C :   -0.016331
  71 C :   -0.033753
  72 H :    0.039889
  73 H :   -0.003705
  74 H :    0.032434
  75 H :   -0.013251
  76 H :    0.022120
  77 H :   -0.006680
  78 H :   -0.020672
  79 H :    0.023371
  80 H :    0.022779
  81 H :    0.021261
  82 H :    0.026670
  83 H :    0.028886
  84 H :    0.017892
  85 H :    0.018138
  86 H :    0.028887
  87 H :    0.028301
  88 H :    0.034046
  89 H :    0.027094
  90 H :    0.028006
  91 H :    0.001217
  92 H :    0.017902
  93 H :   -0.017646
  94 H :    0.019962
  95 H :   -0.005163
  96 H :   -0.041544
  97 H :   -0.029882
  98 H :    0.026470
  99 H :   -0.019967
 100 H :    0.017963
 101 H :   -0.034743
 102 H :   -0.005900
 103 H :    0.011142
Sum of atomic charges:   -0.0000000

LOEWDIN ATOMIC CHARGES
----------------------
   0 C :   -0.185698
   1 C :   -0.024821
   2 C :   -0.018789
   3 C :   -0.042567
   4 C :   -0.147344
   5 S :    0.447938
   6 C :   -0.209777
   7 C :   -0.036764
   8 C :   -0.062401
   9 C :   -0.168154
  10 S :    0.411658
  11 C :   -0.054666
  12 C :    0.006940
  13 C :   -0.040230
  14 C :   -0.013408
  15 C :   -0.018642
  16 C :    0.002441
  17 N :   -0.030778
  18 C :   -0.004823
  19 C :   -0.006283
  20 N :   -0.045596
  21 C :   -0.053856
  22 C :   -0.054518
  23 C :   -0.036303
  24 C :   -0.037959
  25 C :   -0.045044
  26 N :   -0.290663
  27 S :    0.644105
  28 N :   -0.277613
  29 C :   -0.019678
  30 C :   -0.001829
  31 C :   -0.017830
  32 N :   -0.068261
  33 C :    0.007275
  34 C :   -0.007394
  35 N :   -0.023822
  36 C :   -0.054028
  37 C :   -0.052641
  38 C :   -0.045259
  39 C :   -0.036010
  40 C :   -0.038527
  41 N :   -0.268899
  42 S :    0.650411
  43 N :   -0.295056
  44 C :   -0.165066
  45 C :   -0.007773
  46 C :   -0.019049
  47 C :   -0.064570
  48 C :   -0.151356
  49 S :    0.481628
  50 C :   -0.195559
  51 C :   -0.043073
  52 C :   -0.066292
  53 C :   -0.171617
  54 S :    0.413623
  55 C :   -0.046359
  56 C :   -0.023612
  57 C :   -0.062589
  58 C :   -0.155228
  59 C :   -0.033381
  60 C :   -0.022823
  61 C :   -0.054005
  62 C :   -0.144538
  63 S :    0.434125
  64 C :   -0.203542
  65 C :   -0.037350
  66 C :   -0.065662
  67 C :   -0.173131
  68 S :    0.409469
  69 C :   -0.057387
  70 C :   -0.020771
  71 C :   -0.068261
  72 H :    0.029148
  73 H :    0.042138
  74 H :    0.033789
  75 H :    0.031772
  76 H :    0.021388
  77 H :    0.027229
  78 H :    0.021794
  79 H :    0.036822
  80 H :    0.036285
  81 H :    0.035291
  82 H :    0.037097
  83 H :    0.038256
  84 H :    0.033336
  85 H :    0.033406
  86 H :    0.038501
  87 H :    0.037843
  88 H :    0.038414
  89 H :    0.038378
  90 H :    0.039217
  91 H :    0.032284
  92 H :    0.028662
  93 H :    0.026611
  94 H :    0.021089
  95 H :    0.020331
  96 H :    0.028149
  97 H :    0.032467
  98 H :    0.032170
  99 H :    0.027445
 100 H :    0.020107
 101 H :    0.024454
 102 H :    0.015065
 103 H :    0.020376

  Mayer bond orders larger than 0.100000
B(  0-C ,  1-C ) :   1.6476 B(  0-C ,  5-S ) :   1.1004 B(  0-C , 72-H ) :   0.9402
B(  1-C ,  2-C ) :   1.2091 B(  1-C , 73-H ) :   0.9696 B(  2-C ,  3-C ) :   1.0576
B(  2-C , 11-C ) :   1.4175 B(  3-C ,  4-C ) :   1.6014 B(  3-C ,  6-C ) :   1.1798
B(  4-C ,  5-S ) :   1.1410 B(  4-C , 74-H ) :   0.9423 B(  6-C ,  7-C ) :   1.4546
B(  6-C , 10-S ) :   1.0667 B(  7-C ,  8-C ) :   1.2236 B(  7-C , 11-C ) :   1.0923
B(  8-C ,  9-C ) :   1.5817 B(  8-C , 75-H ) :   0.9985 B(  9-C , 10-S ) :   1.1547
B(  9-C , 76-H ) :   0.9658 B( 11-C , 12-C ) :   1.1430 B( 12-C , 13-C ) :   1.5413
B( 12-C , 77-H ) :   0.9488 B( 13-C , 14-C ) :   1.2271 B( 13-C , 78-H ) :   0.9584
B( 14-C , 15-C ) :   1.2422 B( 14-C , 23-C ) :   0.1401 B( 14-C , 25-C ) :   1.1545
B( 15-C , 16-C ) :   1.1413 B( 15-C , 20-N ) :   1.4166 B( 16-C , 17-N ) :   1.3878
B( 16-C , 23-C ) :   1.3678 B( 17-N , 18-C ) :   1.7383 B( 18-C , 19-C ) :   1.1153
B( 18-C , 22-C ) :   1.0887 B( 19-C , 20-N ) :   1.7493 B( 19-C , 21-C ) :   1.0925
B( 21-C , 79-H ) :   0.9402 B( 21-C , 80-H ) :   0.9426 B( 21-C , 81-H ) :   0.9434
B( 22-C , 82-H ) :   0.9443 B( 22-C , 83-H ) :   0.9439 B( 22-C , 84-H ) :   0.9398
B( 23-C , 24-C ) :   1.2707 B( 23-C , 29-C ) :   0.9618 B( 24-C , 25-C ) :   1.1096
B( 24-C , 28-N ) :   1.4975 B( 25-C , 26-N ) :   1.5006 B( 26-N , 27-S ) :   1.2654
B( 26-N , 28-N ) :   0.1586 B( 27-S , 28-N ) :   1.2876 B( 29-C , 30-C ) :   1.3700
B( 29-C , 38-C ) :   0.1298 B( 29-C , 40-C ) :   1.2780 B( 30-C , 31-C ) :   1.1389
B( 30-C , 35-N ) :   1.3951 B( 31-C , 32-N ) :   1.3532 B( 31-C , 38-C ) :   1.2523
B( 32-N , 33-C ) :   1.6804 B( 33-C , 34-C ) :   1.1325 B( 33-C , 37-C ) :   1.0986
B( 34-C , 35-N ) :   1.7290 B( 34-C , 36-C ) :   1.0907 B( 36-C , 85-H ) :   0.9401
B( 36-C , 86-H ) :   0.9440 B( 36-C , 87-H ) :   0.9444 B( 37-C , 88-H ) :   0.9457
B( 37-C , 89-H ) :   0.9421 B( 37-C , 90-H ) :   0.9391 B( 38-C , 39-C ) :   1.1794
B( 38-C , 44-C ) :   1.2023 B( 39-C , 40-C ) :   1.1077 B( 39-C , 43-N ) :   1.4841
B( 40-C , 41-N ) :   1.5021 B( 41-N , 42-S ) :   1.2929 B( 41-N , 43-N ) :   0.1547
B( 42-S , 43-N ) :   1.2521 B( 44-C , 45-C ) :   1.4905 B( 44-C , 49-S ) :   1.0447
B( 45-C , 46-C ) :   1.2595 B( 45-C , 91-H ) :   0.9409 B( 46-C , 47-C ) :   1.0673
B( 46-C , 55-C ) :   1.3249 B( 47-C , 48-C ) :   1.5828 B( 47-C , 50-C ) :   1.1666
B( 48-C , 49-S ) :   1.1163 B( 48-C , 92-H ) :   0.9385 B( 50-C , 51-C ) :   1.4428
B( 50-C , 54-S ) :   1.0770 B( 51-C , 52-C ) :   1.2044 B( 51-C , 55-C ) :   1.0884
B( 52-C , 53-C ) :   1.5931 B( 52-C , 93-H ) :   1.0003 B( 53-C , 54-S ) :   1.1462
B( 53-C , 94-H ) :   0.9649 B( 55-C , 56-C ) :   1.2244 B( 56-C , 57-C ) :   1.5614
B( 56-C , 95-H ) :   0.9424 B( 57-C , 58-C ) :   1.1628 B( 57-C , 96-H ) :   0.9958
B( 58-C , 59-C ) :   1.5177 B( 58-C , 63-S ) :   1.0313 B( 59-C , 60-C ) :   1.1968
B( 59-C , 97-H ) :   0.9780 B( 60-C , 61-C ) :   1.0430 B( 60-C , 69-C ) :   1.4229
B( 61-C , 62-C ) :   1.6192 B( 61-C , 64-C ) :   1.1771 B( 62-C , 63-S ) :   1.1335
B( 62-C , 98-H ) :   0.9400 B( 64-C , 65-C ) :   1.4524 B( 64-C , 68-S ) :   1.0726
B( 65-C , 66-C ) :   1.2042 B( 65-C , 69-C ) :   1.0906 B( 66-C , 67-C ) :   1.5891
B( 66-C , 99-H ) :   1.0008 B( 67-C , 68-S ) :   1.1495 B( 67-C ,100-H ) :   0.9653
B( 69-C , 70-C ) :   1.1439 B( 70-C , 71-C ) :   1.9046 B( 70-C ,101-H ) :   0.9508
B( 71-C ,102-H ) :   0.9563 B( 71-C ,103-H ) :   0.9435

-----------------------------------------------------------------------------
         ABSORPTION SPECTRUM VIA TRANSITION ELECTRIC DIPOLE MOMENTS
-----------------------------------------------------------------------------
State   Energy  Wavelength   fosc         T2         TX        TY        TZ
        (cm-1)    (nm)                  (au**2)     (au)      (au)      (au)
-----------------------------------------------------------------------------
   0    8453.2   1183.0   0.833298082  32.45292   2.56642  -4.96724   1.09219
   1   12895.8    775.4   0.368731333   9.41317   0.34706   2.93940   0.80786
   2   13411.8    745.6   0.003220008   0.07904   0.08645   0.25207   0.08960
   3   16884.8    592.2   0.014311941   0.27905   0.35993  -0.33876   0.18640
   4   17906.9    558.4   0.050250556   0.92384   0.53708  -0.71620   0.34991
   5   18553.5    539.0   0.584631302  10.37367   2.65083  -0.04957   1.82874
   6   20721.9    482.6   0.065497349   1.04056  -0.03909   1.01885   0.03142
   7   20959.5    477.1   0.003879898   0.06094   0.16157   0.07135   0.17247
   8   21738.9    460.0   0.063793469   0.96608   0.77521  -0.54045   0.27026
   9   22800.8    438.6   0.005810083   0.08389  -0.03367   0.27491  -0.08474
  10   23036.3    434.1   0.009908537   0.14160  -0.30848   0.21530   0.00939
  11   23667.0    422.5   0.301177621   4.18942   1.68722  -0.04193   1.15800
  12   24404.7    409.8   0.017286544   0.23319  -0.39949   0.19178  -0.19188
  13   25143.0    397.7   0.016868358   0.22087  -0.18713  -0.23734  -0.35989
  14   25367.0    394.2   0.027225380   0.35333  -0.29712  -0.45376  -0.24321
  15   26019.4    384.3   0.061329828   0.77598  -0.27659  -0.81578  -0.18433
  16   26597.6    376.0   0.127042647   1.57247  -1.00950   0.30966  -0.67638
  17   26953.1    371.0   0.131458403   1.60567  -0.14183  -1.24088  -0.21393
  18   27040.4    369.8   0.044715359   0.54440  -0.61148   0.05738  -0.40890
  19   27181.4    367.9   0.033106349   0.40097  -0.36887   0.47789  -0.19113
  20   27439.4    364.4   0.076314435   0.91560  -0.22364   0.92753   0.07263
  21   28544.9    350.3   0.110423351   1.27353  -0.16881  -1.09890  -0.19352
  22   28903.9    346.0   0.177666953   2.02361  -0.92816   0.99763  -0.40847
  23   29043.5    344.3   0.079208028   0.89783   0.33093  -0.86724  -0.19029
  24   29227.5    342.1   0.039951201   0.45000  -0.17448  -0.63569  -0.12433
  25   29449.5    339.6   0.050064210   0.55966   0.61065   0.43161  -0.02207
  26   29852.9    335.0   0.022037177   0.24302   0.46350   0.16622  -0.02367
  27   30246.4    330.6   0.048342076   0.52617  -0.68988  -0.17143  -0.14441
  28   30659.1    326.2   0.099409687   1.06744   0.51539   0.03193   0.89487
  29   30880.5    323.8   0.029873545   0.31848   0.49686   0.15052   0.22125
  30   31531.4    317.1   0.019233931   0.20082   0.21898   0.36700   0.13480
  31   31609.2    316.4   0.029644661   0.30875  -0.47631   0.11079  -0.26383
  32   31888.7    313.6   0.019961429   0.20608  -0.19889   0.40550   0.04572
  33   32211.9    310.4   0.015319413   0.15657  -0.22230  -0.30232  -0.12552
  34   32405.9    308.6   0.055004170   0.55879   0.33293  -0.64937   0.16207
  35   32684.2    306.0   0.011030435   0.11110   0.22497  -0.16725   0.18033
  36   32820.9    304.7   0.001605640   0.01611  -0.08511  -0.00044  -0.09414
  37   32972.2    303.3   0.105645099   1.05482  -0.50396   0.89230  -0.06814
  38   33028.2    302.8   0.014433020   0.14386  -0.06212  -0.18954   0.32261
  39   33144.8    301.7   0.062337922   0.61917  -0.56524  -0.47125  -0.27857
  40   33408.1    299.3   0.420493818   4.14366   1.67541  -0.38354   1.09067
  41   33802.1    295.8   0.066917940   0.65174  -0.70088  -0.03777  -0.39885
  42   33974.9    294.3   0.006441465   0.06242   0.05599  -0.24245  -0.02242
  43   34173.0    292.6   0.199255885   1.91957   0.90216   0.43428   0.95764
  44   34617.8    288.9   0.005126970   0.04876  -0.06102   0.11385   0.17909
  45   34745.1    287.8   0.007687626   0.07284   0.00256  -0.25359  -0.09234
  46   34877.0    286.7   0.083910171   0.79205  -0.70843   0.13021  -0.52271
  47   35191.2    284.2   0.014312887   0.13390   0.32092  -0.15942  -0.07411
  48   35404.5    282.4   0.038025031   0.35358  -0.38025   0.23730  -0.39074
  49   35656.7    280.5   0.329879019   3.04572  -0.02732   1.50641   0.88074
  50   35748.8    279.7   0.101744157   0.93697   0.64510  -0.71401   0.10489
  51   36139.9    276.7   0.037663876   0.34309  -0.15670   0.28776  -0.48552
  52   36489.4    274.1   0.259278428   2.33924  -0.97938   1.08551  -0.44914
  53   36691.2    272.5   0.089580862   0.80377  -0.47658   0.75721  -0.05718
  54   37033.2    270.0   0.066923609   0.59493  -0.44520  -0.62751  -0.05436
  55   37187.6    268.9   0.102121420   0.90405  -0.77199  -0.51986  -0.19452
  56   37396.9    267.4   0.457152983   4.02440  -1.91546  -0.27865  -0.52705
  57   37618.5    265.8   0.257420674   2.25277  -1.21324   0.53613  -0.70241
  58   37769.3    264.8   0.014943332   0.13025  -0.16524   0.13302   0.29198
  59   38281.0    261.2   0.291855500   2.50992   1.11229   1.03738   0.44338
  60   38452.0    260.1   0.116135668   0.99431  -0.21704  -0.93937  -0.25455
  61   38805.0    257.7   0.073618340   0.62456  -0.69457   0.17763  -0.33254
  62   38887.1    257.2   0.266366784   2.25502   0.17796   1.41641  -0.46597
  63   39210.6    255.0   0.245804222   2.06377   1.27900  -0.26140   0.59968
  64   39349.0    254.1   0.076343690   0.63873  -0.50221   0.34862  -0.51475
  65   39669.9    252.1   0.093545455   0.77631   0.83441  -0.27808  -0.05233
  66   39794.2    251.3   0.011884812   0.09832  -0.04192  -0.16266   0.26477
  67   40002.6    250.0   0.117368877   0.96592   0.74326   0.50773   0.39459
  68   40083.8    249.5   0.050514290   0.41488   0.42662  -0.47212   0.09988

FINAL SINGLE POINT ENERGY     -5772.365497951676

DIPOLE MOMENT
-------------
                                X             Y             Z
Electronic contribution:    -22.20072     -22.15844      -6.97257
Nuclear contribution   :     25.18841      20.33695       8.38766
                        -----------------------------------------
Total Dipole Moment    :      2.98769      -1.82149       1.41508
                        -----------------------------------------
Magnitude (a.u.)       :      3.77447
Magnitude (Debye)      :      9.59393

Rotational constants in cm-1:     0.001036     0.000323     0.000251
Rotational constants in MHz :    31.070077     9.678289     7.513755

                             ****ORCA TERMINATED NORMALLY****
TOTAL RUN TIME: 0 days 0 hours 12 minutes 0 seconds 334 msec
