                         Program Version 4.2.0 -  RELEASE  -
|  1> # ORCA input file
|  2> # SCF done       -169.217873109533          0.000801132629
|  3> ! CAM-B3LYP def2-SVP def2/J RIJCOSX Grid4 TightSCF
|  4> %maxcore 5000
|  5> %tddft
|  6>     Mode sTDDFT
|  7>     Ethresh 5.0
|  8>     maxcore 5000
|  9> end
| 10>
| 11> %pal
| 12>   nprocs 6
| 13>   end
| 14> * xyz 0 1
| 15>    C        4.53831        -2.34736        -3.08238
| 16>    S        4.92915        -0.86852        -3.83920
| 17>    C        4.54892         0.02789        -2.38331
| 18>    C        4.11144        -0.82596        -1.38352
| 19>    C        4.11898        -2.18113        -1.79125
| 20>    C        3.68483        -3.30197        -0.91058
| 21>    S        2.10346        -4.02495        -1.54908
| 22>    C        3.55008        -2.86224         0.54291
| 23>    C        2.82903        -1.52333         0.64096
| 24>    C        3.65286        -0.41888        -0.01980
| 25>    C        4.71957         1.43714        -2.43366
| 26>    C        4.73721         2.28942        -1.37807
| 27>    C        4.87027         3.70288        -1.47077
| 28>    C        4.88600         4.47365        -0.27728
| 29>    C        4.95548         5.90335        -0.29573
| 30>    N        5.01981         6.58485         0.86078
| 31>    C        4.99973         5.93278         1.98932
| 32>    C        4.89126         4.52876         2.00663
| 33>    N        4.83884         3.82935         0.90667
| 34>    C        4.95102         6.65294        -1.49799
| 35>    C        5.05196         5.88875        -2.67735
| 36>    C        5.00448         4.44193        -2.66684
| 37>    N        5.13865         3.94579        -3.90007
| 38>    S        5.33579         5.14536        -4.94390
| 39>    N        5.25331         6.36501        -3.90629
| 40>    C        4.89449         8.07288        -1.44006
| 41>    S        5.28249         8.87354         0.04912
| 42>    C        5.05891        10.45384        -0.65711
| 43>    C        4.63990        10.33765        -1.98211
| 44>    C        4.53606         9.00647        -2.41552
| 45>    S        3.77268         8.50107        -3.91956
| 46>    C        2.88804         9.91503        -4.53684
| 47>    O        1.91211         9.72233        -5.20716
| 48>    C        3.49324        11.28954        -4.41858
| 49>    O        3.32679        12.10603        -5.28501
| 50>    S        4.45985        11.74789        -3.01995
| 51>    C        5.25887        11.56391         0.19464
| 52>    C        5.00143        12.86939        -0.08018
| 53>    C        5.18822        13.94700         0.82688
| 54>    C        4.73824        15.24246         0.45691
| 55>    C        4.85379        16.38120         1.32123
| 56>    N        4.29021        17.55702         0.95848
| 57>    C        3.69794        17.63368        -0.19904
| 58>    C        3.66392        16.53787        -1.08707
| 59>    N        4.15950        15.38097        -0.75538
| 60>    C        5.48211        16.29065         2.58439
| 61>    C        5.91902        15.00562         2.95997
| 62>    C        5.77888        13.84898         2.10523
| 63>    N        6.27641        12.75381         2.68594
| 64>    S        6.85795        13.13731         4.13240
| 65>    N        6.51948        14.70132         4.11411
| 66>    C        5.59910        17.38937         3.49900
| 67>    S        5.40358        17.07477         5.20318
| 68>    C        5.60397        18.75675         5.60087
| 69>    C        5.81928        19.50524         4.46700
| 70>    C        5.82755        18.73465         3.28216
| 71>    C        6.27119        19.38437         2.02400
| 72>    S        8.12617        19.56265         2.13092
| 73>    C        5.67416        20.78254         1.81995
| 74>    C        5.09480        21.38418         3.10163
| 75>    C        5.91217        20.98863         4.33398
| 76>    C        5.53875        19.14132         6.98798
| 77>    C        6.13285        20.20014         7.53223
| 78>    H        4.62491        -3.26925        -3.62321
| 79>    H        4.37367        -4.14680        -0.99416
| 80>    H        1.43360        -2.87666        -1.61846
| 81>    H        4.55152        -2.76730         0.97113
| 82>    H        3.01216        -3.62822         1.10354
| 83>    H        2.65722        -1.27055         1.68811
| 84>    H        1.85320        -1.59738         0.15506
| 85>    H        4.52909        -0.20385         0.60089
| 86>    H        3.06041         0.49609        -0.08577
| 87>    H        4.87358         1.84939        -3.42178
| 88>    H        4.66044         1.92856        -0.36560
| 89>    H        5.06858         6.51748         2.89538
| 90>    H        4.85128         3.97622         2.93544
| 91>    H        5.63308        11.31215         1.17839
| 92>    H        4.58903        13.16826        -1.03140
| 93>    H        3.23983        18.58150        -0.44799
| 94>    H        3.22034        16.61498        -2.07024
| 95>    H        6.09599        18.75882         1.15197
| 96>    H        8.38502        18.26809         2.30261
| 97>    H        4.88771        20.71620         1.06703
| 98>    H        6.45630        21.43503         1.42556
| 99>    H        4.07307        21.02391         3.24168
|100>    H        5.05894        22.47029         3.00846
|101>    H        5.51481        21.48032         5.22196
|102>    H        6.95413        21.29265         4.19989
|103>    H        4.97848        18.46070         7.61694
|104>    H        6.75139        20.87130         6.96373
|105>    H        6.03122        20.41290         8.58233
|106> *
|107>
|108>                          ****END OF INPUT****

CARTESIAN COORDINATES (ANGSTROEM)
---------------------------------
  C      4.538310   -2.347360   -3.082380
  S      4.929150   -0.868520   -3.839200
  C      4.548920    0.027890   -2.383310
  C      4.111440   -0.825960   -1.383520
  C      4.118980   -2.181130   -1.791250
  C      3.684830   -3.301970   -0.910580
  S      2.103460   -4.024950   -1.549080
  C      3.550080   -2.862240    0.542910
  C      2.829030   -1.523330    0.640960
  C      3.652860   -0.418880   -0.019800
  C      4.719570    1.437140   -2.433660
  C      4.737210    2.289420   -1.378070
  C      4.870270    3.702880   -1.470770
  C      4.886000    4.473650   -0.277280
  C      4.955480    5.903350   -0.295730
  N      5.019810    6.584850    0.860780
  C      4.999730    5.932780    1.989320
  C      4.891260    4.528760    2.006630
  N      4.838840    3.829350    0.906670
  C      4.951020    6.652940   -1.497990
  C      5.051960    5.888750   -2.677350
  C      5.004480    4.441930   -2.666840
  N      5.138650    3.945790   -3.900070
  S      5.335790    5.145360   -4.943900
  N      5.253310    6.365010   -3.906290
  C      4.894490    8.072880   -1.440060
  S      5.282490    8.873540    0.049120
  C      5.058910   10.453840   -0.657110
  C      4.639900   10.337650   -1.982110
  C      4.536060    9.006470   -2.415520
  S      3.772680    8.501070   -3.919560
  C      2.888040    9.915030   -4.536840
  O      1.912110    9.722330   -5.207160
  C      3.493240   11.289540   -4.418580
  O      3.326790   12.106030   -5.285010
  S      4.459850   11.747890   -3.019950
  C      5.258870   11.563910    0.194640
  C      5.001430   12.869390   -0.080180
  C      5.188220   13.947000    0.826880
  C      4.738240   15.242460    0.456910
  C      4.853790   16.381200    1.321230
  N      4.290210   17.557020    0.958480
  C      3.697940   17.633680   -0.199040
  C      3.663920   16.537870   -1.087070
  N      4.159500   15.380970   -0.755380
  C      5.482110   16.290650    2.584390
  C      5.919020   15.005620    2.959970
  C      5.778880   13.848980    2.105230
  N      6.276410   12.753810    2.685940
  S      6.857950   13.137310    4.132400
  N      6.519480   14.701320    4.114110
  C      5.599100   17.389370    3.499000
  S      5.403580   17.074770    5.203180
  C      5.603970   18.756750    5.600870
  C      5.819280   19.505240    4.467000
  C      5.827550   18.734650    3.282160
  C      6.271190   19.384370    2.024000
  S      8.126170   19.562650    2.130920
  C      5.674160   20.782540    1.819950
  C      5.094800   21.384180    3.101630
  C      5.912170   20.988630    4.333980
  C      5.538750   19.141320    6.987980
  C      6.132850   20.200140    7.532230
  H      4.624910   -3.269250   -3.623210
  H      4.373670   -4.146800   -0.994160
  H      1.433600   -2.876660   -1.618460
  H      4.551520   -2.767300    0.971130
  H      3.012160   -3.628220    1.103540
  H      2.657220   -1.270550    1.688110
  H      1.853200   -1.597380    0.155060
  H      4.529090   -0.203850    0.600890
  H      3.060410    0.496090   -0.085770
  H      4.873580    1.849390   -3.421780
  H      4.660440    1.928560   -0.365600
  H      5.068580    6.517480    2.895380
  H      4.851280    3.976220    2.935440
  H      5.633080   11.312150    1.178390
  H      4.589030   13.168260   -1.031400
  H      3.239830   18.581500   -0.447990
  H      3.220340   16.614980   -2.070240
  H      6.095990   18.758820    1.151970
  H      8.385020   18.268090    2.302610
  H      4.887710   20.716200    1.067030
  H      6.456300   21.435030    1.425560
  H      4.073070   21.023910    3.241680
  H      5.058940   22.470290    3.008460
  H      5.514810   21.480320    5.221960
  H      6.954130   21.292650    4.199890
  H      4.978480   18.460700    7.616940
  H      6.751390   20.871300    6.963730
  H      6.031220   20.412900    8.582330

 Total Charge           Charge          ....    0
 Multiplicity           Mult            ....    1
 Number of Electrons    NEL             ....  508
 Basis Dimension        Dim             .... 1058

ORBITAL ENERGIES
----------------

  NO   OCC          E(Eh)            E(eV)
   0   2.0000     -89.036536     -2422.8073
   1   2.0000     -89.031535     -2422.6712
   2   2.0000     -88.954693     -2420.5802
   3   2.0000     -88.952000     -2420.5070
   4   2.0000     -88.950785     -2420.4739
   5   2.0000     -88.947707     -2420.3902
   6   2.0000     -88.936708     -2420.0909
   7   2.0000     -88.908270     -2419.3170
   8   2.0000     -88.900142     -2419.0958
   9   2.0000     -19.225235      -523.1452
  10   2.0000     -19.222203      -523.0627
  11   2.0000     -14.444637      -393.0586
  12   2.0000     -14.443943      -393.0397
  13   2.0000     -14.440001      -392.9324
  14   2.0000     -14.439501      -392.9188
  15   2.0000     -14.438537      -392.8926
  16   2.0000     -14.436334      -392.8326
  17   2.0000     -14.426863      -392.5749
  18   2.0000     -14.425447      -392.5364
  19   2.0000     -10.385399      -282.6011
  20   2.0000     -10.383149      -282.5399
  21   2.0000     -10.334872      -281.2262
  22   2.0000     -10.333649      -281.1929
  23   2.0000     -10.331015      -281.1212
  24   2.0000     -10.329537      -281.0810
  25   2.0000     -10.329505      -281.0801
  26   2.0000     -10.327422      -281.0234
  27   2.0000     -10.326136      -280.9884
  28   2.0000     -10.325849      -280.9806
  29   2.0000     -10.322124      -280.8793
  30   2.0000     -10.321997      -280.8758
  31   2.0000     -10.321160      -280.8530
  32   2.0000     -10.320978      -280.8481
  33   2.0000     -10.317910      -280.7646
  34   2.0000     -10.312596      -280.6200
  35   2.0000     -10.310937      -280.5749
  36   2.0000     -10.305456      -280.4257
  37   2.0000     -10.304060      -280.3877
  38   2.0000     -10.301403      -280.3154
  39   2.0000     -10.301304      -280.3127
  40   2.0000     -10.299577      -280.2657
  41   2.0000     -10.292880      -280.0835
  42   2.0000     -10.292802      -280.0814
  43   2.0000     -10.291370      -280.0424
  44   2.0000     -10.290251      -280.0120
  45   2.0000     -10.289358      -279.9877
  46   2.0000     -10.284619      -279.8587
  47   2.0000     -10.279794      -279.7274
  48   2.0000     -10.277537      -279.6660
  49   2.0000     -10.274637      -279.5871
  50   2.0000     -10.274519      -279.5839
  51   2.0000     -10.273577      -279.5582
  52   2.0000     -10.270951      -279.4868
  53   2.0000     -10.269476      -279.4467
  54   2.0000     -10.269365      -279.4436
  55   2.0000     -10.267914      -279.4041
  56   2.0000     -10.267208      -279.3849
  57   2.0000     -10.266121      -279.3554
  58   2.0000     -10.261729      -279.2359
  59   2.0000     -10.260405      -279.1998
  60   2.0000     -10.260152      -279.1929
  61   2.0000     -10.256521      -279.0941
  62   2.0000     -10.255663      -279.0708
  63   2.0000      -8.127701      -221.1660
  64   2.0000      -8.122981      -221.0375
  65   2.0000      -8.048300      -219.0054
  66   2.0000      -8.048013      -218.9976
  67   2.0000      -8.046731      -218.9627
  68   2.0000      -8.043455      -218.8735
  69   2.0000      -8.032167      -218.5664
  70   2.0000      -8.003785      -217.7941
  71   2.0000      -7.995076      -217.5571
  72   2.0000      -6.098807      -165.9570
  73   2.0000      -6.094064      -165.8279
  74   2.0000      -6.090989      -165.7442
  75   2.0000      -6.090538      -165.7320
  76   2.0000      -6.086223      -165.6146
  77   2.0000      -6.085826      -165.6037
  78   2.0000      -6.018132      -163.7617
  79   2.0000      -6.017611      -163.7475
  80   2.0000      -6.015841      -163.6993
  81   2.0000      -6.013528      -163.6364
  82   2.0000      -6.013314      -163.6306
  83   2.0000      -6.013048      -163.6233
  84   2.0000      -6.011703      -163.5867
  85   2.0000      -6.009992      -163.5402
  86   2.0000      -6.009276      -163.5207
  87   2.0000      -6.009197      -163.5186
  88   2.0000      -6.008943      -163.5117
  89   2.0000      -6.004052      -163.3786
  90   2.0000      -6.001472      -163.3084
  91   2.0000      -5.997289      -163.1945
  92   2.0000      -5.994198      -163.1104
  93   2.0000      -5.974243      -162.5674
  94   2.0000      -5.970347      -162.4614
  95   2.0000      -5.965366      -162.3259
  96   2.0000      -5.963370      -162.2715
  97   2.0000      -5.961704      -162.2262
  98   2.0000      -5.954855      -162.0399
  99   2.0000      -1.159282       -31.5457
 100   2.0000      -1.133044       -30.8317
 101   2.0000      -1.129061       -30.7233
 102   2.0000      -1.128137       -30.6982
 103   2.0000      -1.094691       -29.7880
 104   2.0000      -1.082781       -29.4640
 105   2.0000      -1.021462       -27.7954
 106   2.0000      -1.007946       -27.4276
 107   2.0000      -1.000129       -27.2149
 108   2.0000      -0.987001       -26.8577
 109   2.0000      -0.985979       -26.8299
 110   2.0000      -0.984607       -26.7925
 111   2.0000      -0.975594       -26.5473
 112   2.0000      -0.961764       -26.1709
 113   2.0000      -0.953469       -25.9452
 114   2.0000      -0.924235       -25.1497
 115   2.0000      -0.917110       -24.9558
 116   2.0000      -0.913509       -24.8578
 117   2.0000      -0.907648       -24.6984
 118   2.0000      -0.893059       -24.3014
 119   2.0000      -0.886334       -24.1184
 120   2.0000      -0.876132       -23.8408
 121   2.0000      -0.871839       -23.7239
 122   2.0000      -0.868789       -23.6410
 123   2.0000      -0.867863       -23.6157
 124   2.0000      -0.851993       -23.1839
 125   2.0000      -0.846699       -23.0399
 126   2.0000      -0.839721       -22.8500
 127   2.0000      -0.823248       -22.4017
 128   2.0000      -0.816261       -22.2116
 129   2.0000      -0.814324       -22.1589
 130   2.0000      -0.809669       -22.0322
 131   2.0000      -0.796334       -21.6694
 132   2.0000      -0.788415       -21.4539
 133   2.0000      -0.781677       -21.2705
 134   2.0000      -0.778388       -21.1810
 135   2.0000      -0.770445       -20.9649
 136   2.0000      -0.762798       -20.7568
 137   2.0000      -0.751094       -20.4383
 138   2.0000      -0.739843       -20.1322
 139   2.0000      -0.734414       -19.9844
 140   2.0000      -0.727146       -19.7867
 141   2.0000      -0.717115       -19.5137
 142   2.0000      -0.707202       -19.2439
 143   2.0000      -0.704831       -19.1794
 144   2.0000      -0.698338       -19.0028
 145   2.0000      -0.693364       -18.8674
 146   2.0000      -0.687910       -18.7190
 147   2.0000      -0.684831       -18.6352
 148   2.0000      -0.677131       -18.4257
 149   2.0000      -0.667624       -18.1670
 150   2.0000      -0.657507       -17.8917
 151   2.0000      -0.650875       -17.7112
 152   2.0000      -0.645338       -17.5605
 153   2.0000      -0.640190       -17.4205
 154   2.0000      -0.634814       -17.2742
 155   2.0000      -0.632802       -17.2194
 156   2.0000      -0.623105       -16.9555
 157   2.0000      -0.618329       -16.8256
 158   2.0000      -0.613207       -16.6862
 159   2.0000      -0.608449       -16.5567
 160   2.0000      -0.604749       -16.4561
 161   2.0000      -0.599470       -16.3124
 162   2.0000      -0.592003       -16.1092
 163   2.0000      -0.580491       -15.7960
 164   2.0000      -0.577084       -15.7032
 165   2.0000      -0.568208       -15.4617
 166   2.0000      -0.565753       -15.3949
 167   2.0000      -0.562155       -15.2970
 168   2.0000      -0.560948       -15.2642
 169   2.0000      -0.555725       -15.1220
 170   2.0000      -0.554205       -15.0807
 171   2.0000      -0.553239       -15.0544
 172   2.0000      -0.549809       -14.9611
 173   2.0000      -0.544585       -14.8189
 174   2.0000      -0.543748       -14.7961
 175   2.0000      -0.539029       -14.6677
 176   2.0000      -0.536524       -14.5996
 177   2.0000      -0.533650       -14.5214
 178   2.0000      -0.531165       -14.4537
 179   2.0000      -0.528908       -14.3923
 180   2.0000      -0.526009       -14.3134
 181   2.0000      -0.524247       -14.2655
 182   2.0000      -0.523028       -14.2323
 183   2.0000      -0.511075       -13.9070
 184   2.0000      -0.507712       -13.8155
 185   2.0000      -0.505294       -13.7498
 186   2.0000      -0.502583       -13.6760
 187   2.0000      -0.501567       -13.6483
 188   2.0000      -0.495985       -13.4964
 189   2.0000      -0.490484       -13.3467
 190   2.0000      -0.489179       -13.3112
 191   2.0000      -0.486531       -13.2392
 192   2.0000      -0.485588       -13.2135
 193   2.0000      -0.482663       -13.1339
 194   2.0000      -0.481424       -13.1002
 195   2.0000      -0.477179       -12.9847
 196   2.0000      -0.475349       -12.9349
 197   2.0000      -0.473262       -12.8781
 198   2.0000      -0.471023       -12.8172
 199   2.0000      -0.470850       -12.8125
 200   2.0000      -0.468370       -12.7450
 201   2.0000      -0.466242       -12.6871
 202   2.0000      -0.464698       -12.6451
 203   2.0000      -0.460609       -12.5338
 204   2.0000      -0.456125       -12.4118
 205   2.0000      -0.452672       -12.3178
 206   2.0000      -0.448264       -12.1979
 207   2.0000      -0.443060       -12.0563
 208   2.0000      -0.440659       -11.9910
 209   2.0000      -0.439134       -11.9494
 210   2.0000      -0.435341       -11.8462
 211   2.0000      -0.434138       -11.8135
 212   2.0000      -0.430821       -11.7232
 213   2.0000      -0.424487       -11.5509
 214   2.0000      -0.422185       -11.4882
 215   2.0000      -0.416245       -11.3266
 216   2.0000      -0.415081       -11.2949
 217   2.0000      -0.413748       -11.2586
 218   2.0000      -0.411666       -11.2020
 219   2.0000      -0.409094       -11.1320
 220   2.0000      -0.404894       -11.0177
 221   2.0000      -0.401034       -10.9127
 222   2.0000      -0.400258       -10.8916
 223   2.0000      -0.395803       -10.7704
 224   2.0000      -0.393817       -10.7163
 225   2.0000      -0.392726       -10.6866
 226   2.0000      -0.387105       -10.5337
 227   2.0000      -0.386807       -10.5255
 228   2.0000      -0.385700       -10.4954
 229   2.0000      -0.384829       -10.4717
 230   2.0000      -0.380852       -10.3635
 231   2.0000      -0.376262       -10.2386
 232   2.0000      -0.374181       -10.1820
 233   2.0000      -0.372127       -10.1261
 234   2.0000      -0.367607       -10.0031
 235   2.0000      -0.363849        -9.9008
 236   2.0000      -0.361272        -9.8307
 237   2.0000      -0.355462        -9.6726
 238   2.0000      -0.344485        -9.3739
 239   2.0000      -0.340352        -9.2615
 240   2.0000      -0.334423        -9.1001
 241   2.0000      -0.324745        -8.8368
 242   2.0000      -0.322767        -8.7829
 243   2.0000      -0.322605        -8.7785
 244   2.0000      -0.313211        -8.5229
 245   2.0000      -0.310873        -8.4593
 246   2.0000      -0.302628        -8.2349
 247   2.0000      -0.298619        -8.1258
 248   2.0000      -0.292357        -7.9554
 249   2.0000      -0.281509        -7.6602
 250   2.0000      -0.278480        -7.5778
 251   2.0000      -0.275685        -7.5018
 252   2.0000      -0.247596        -6.7374
 253   2.0000      -0.220138        -5.9903
 254   0.0000      -0.110157        -2.9975
 255   0.0000      -0.091621        -2.4931
 256   0.0000      -0.036344        -0.9890
 257   0.0000      -0.020915        -0.5691
 258   0.0000      -0.016938        -0.4609

MULLIKEN ATOMIC CHARGES
-----------------------
   0 C :   -0.101204
   1 S :    0.128391
   2 C :   -0.154315
   3 C :   -0.056556
   4 C :    0.025529
   5 C :   -0.163662
   6 S :   -0.046775
   7 C :    0.111901
   8 C :    0.028539
   9 C :    0.109027
  10 C :    0.076689
  11 C :   -0.110762
  12 C :    0.089370
  13 C :   -0.053664
  14 C :   -0.029735
  15 N :   -0.080658
  16 C :    0.051147
  17 C :    0.020206
  18 N :   -0.016450
  19 C :    0.138296
  20 C :   -0.003168
  21 C :    0.017881
  22 N :   -0.290530
  23 S :    0.546998
  24 N :   -0.307780
  25 C :   -0.208029
  26 S :    0.177541
  27 C :   -0.079313
  28 C :   -0.074432
  29 C :    0.001982
  30 S :    0.086376
  31 C :    0.067572
  32 O :   -0.139487
  33 C :    0.090119
  34 O :   -0.152897
  35 S :    0.088070
  36 C :    0.062144
  37 C :   -0.100398
  38 C :    0.071014
  39 C :   -0.040842
  40 C :   -0.079154
  41 N :   -0.030151
  42 C :    0.030485
  43 C :    0.027995
  44 N :   -0.016622
  45 C :    0.107782
  46 C :   -0.017511
  47 C :    0.014783
  48 N :   -0.291775
  49 S :    0.529952
  50 N :   -0.277231
  51 C :   -0.239794
  52 S :    0.154787
  53 C :   -0.145884
  54 C :   -0.076806
  55 C :    0.104164
  56 C :   -0.172859
  57 S :   -0.048336
  58 C :    0.109694
  59 C :    0.013229
  60 C :    0.145432
  61 C :    0.014202
  62 C :   -0.022735
  63 H :    0.016316
  64 H :    0.046044
  65 H :    0.052188
  66 H :    0.003661
  67 H :    0.010077
  68 H :    0.002177
  69 H :   -0.005270
  70 H :    0.029255
  71 H :    0.023031
  72 H :    0.000036
  73 H :   -0.017792
  74 H :    0.016355
  75 H :    0.015074
  76 H :   -0.007291
  77 H :    0.009762
  78 H :    0.014398
  79 H :    0.018620
  80 H :    0.033486
  81 H :    0.050560
  82 H :    0.008293
  83 H :    0.002465
  84 H :    0.009086
  85 H :    0.002115
  86 H :    0.000820
  87 H :    0.009505
  88 H :   -0.005168
  89 H :    0.027363
  90 H :    0.023053
Sum of atomic charges:   -0.0000000

LOEWDIN ATOMIC CHARGES
----------------------
   0 C :   -0.177409
   1 S :    0.446750
   2 C :   -0.181112
   3 C :   -0.045926
   4 C :   -0.090052
   5 C :   -0.114268
   6 S :    0.153645
   7 C :   -0.039205
   8 C :   -0.029973
   9 C :   -0.028269
  10 C :   -0.011392
  11 C :   -0.039103
  12 C :   -0.016383
  13 C :   -0.013385
  14 C :   -0.011701
  15 N :   -0.051244
  16 C :    0.020971
  17 C :    0.002756
  18 N :   -0.025432
  19 C :   -0.060434
  20 C :   -0.045648
  21 C :   -0.040758
  22 N :   -0.281328
  23 S :    0.674328
  24 N :   -0.295336
  25 C :   -0.184855
  26 S :    0.499468
  27 C :   -0.186068
  28 C :   -0.225545
  29 C :   -0.199527
  30 S :    0.397565
  31 C :   -0.117083
  32 O :   -0.108846
  33 C :   -0.117575
  34 O :   -0.120655
  35 S :    0.404573
  36 C :   -0.037406
  37 C :   -0.021857
  38 C :   -0.030755
  39 C :   -0.006514
  40 C :   -0.017139
  41 N :   -0.029624
  42 C :    0.005204
  43 C :    0.009866
  44 N :   -0.027755
  45 C :   -0.042100
  46 C :   -0.052226
  47 C :   -0.039935
  48 N :   -0.287204
  49 S :    0.662529
  50 N :   -0.289967
  51 C :   -0.173112
  52 S :    0.451677
  53 C :   -0.175275
  54 C :   -0.050534
  55 C :   -0.057351
  56 C :   -0.104137
  57 S :    0.146778
  58 C :   -0.033472
  59 C :   -0.026030
  60 C :   -0.029874
  61 C :   -0.040577
  62 C :   -0.041620
  63 H :    0.023339
  64 H :    0.032761
  65 H :   -0.037623
  66 H :    0.023838
  67 H :    0.024671
  68 H :    0.026486
  69 H :    0.016036
  70 H :    0.034840
  71 H :    0.035704
  72 H :    0.026103
  73 H :    0.027252
  74 H :    0.029157
  75 H :    0.027410
  76 H :    0.024364
  77 H :    0.014354
  78 H :    0.025828
  79 H :    0.029663
  80 H :    0.019384
  81 H :   -0.036607
  82 H :    0.028487
  83 H :    0.019985
  84 H :    0.024963
  85 H :    0.023597
  86 H :    0.028829
  87 H :    0.026537
  88 H :    0.028128
  89 H :    0.024222
  90 H :    0.025159

  Mayer bond orders larger than 0.100000
B(  0-C ,  1-S ) :   1.1829 B(  0-C ,  4-C ) :   1.5272 B(  0-C , 63-H ) :   0.9704
B(  1-S ,  2-C ) :   1.1336 B(  2-C ,  3-C ) :   1.4859 B(  2-C , 10-C ) :   1.1289
B(  3-C ,  4-C ) :   1.3256 B(  3-C ,  9-C ) :   1.0651 B(  4-C ,  5-C ) :   0.9453
B(  5-C ,  6-S ) :   1.0430 B(  5-C ,  7-C ) :   1.0202 B(  5-C , 64-H ) :   0.9217
B(  6-S , 65-H ) :   0.9524 B(  7-C ,  8-C ) :   1.0673 B(  7-C , 66-H ) :   0.9343
B(  7-C , 67-H ) :   0.9323 B(  8-C ,  9-C ) :   1.0746 B(  8-C , 68-H ) :   0.9323
B(  8-C , 69-H ) :   0.9434 B(  9-C , 70-H ) :   0.9028 B(  9-C , 71-H ) :   0.9111
B( 10-C , 11-C ) :   1.5779 B( 10-C , 72-H ) :   0.9333 B( 11-C , 12-C ) :   1.2236
B( 11-C , 73-H ) :   0.9517 B( 12-C , 13-C ) :   1.2451 B( 12-C , 19-C ) :   0.1291
B( 12-C , 21-C ) :   1.1767 B( 13-C , 14-C ) :   1.1405 B( 13-C , 18-N ) :   1.4522
B( 14-C , 15-N ) :   1.3864 B( 14-C , 19-C ) :   1.2831 B( 15-N , 16-C ) :   1.6545
B( 16-C , 17-C ) :   1.1941 B( 16-C , 74-H ) :   0.9730 B( 17-C , 18-N ) :   1.6890
B( 17-C , 75-H ) :   0.9766 B( 19-C , 20-C ) :   1.2093 B( 19-C , 25-C ) :   1.1468
B( 20-C , 21-C ) :   1.1088 B( 20-C , 24-N ) :   1.4656 B( 21-C , 22-N ) :   1.4887
B( 22-N , 23-S ) :   1.2837 B( 22-N , 24-N ) :   0.1536 B( 23-S , 24-N ) :   1.2780
B( 25-C , 26-S ) :   1.1362 B( 25-C , 27-C ) :   0.1045 B( 25-C , 29-C ) :   1.5206
B( 26-S , 27-C ) :   1.0847 B( 27-C , 28-C ) :   1.5003 B( 27-C , 36-C ) :   1.1563
B( 28-C , 29-C ) :   1.3015 B( 28-C , 35-S ) :   0.9788 B( 29-C , 30-S ) :   0.9845
B( 30-S , 31-C ) :   1.0372 B( 30-S , 32-O ) :   0.1266 B( 31-C , 32-O ) :   2.1603
B( 31-C , 33-C ) :   0.7655 B( 33-C , 34-O ) :   2.1368 B( 33-C , 35-S ) :   1.0545
B( 34-O , 35-S ) :   0.1364 B( 36-C , 37-C ) :   1.5710 B( 36-C , 76-H ) :   0.9311
B( 37-C , 38-C ) :   1.2459 B( 37-C , 77-H ) :   0.9374 B( 38-C , 39-C ) :   1.2542
B( 38-C , 45-C ) :   0.1393 B( 38-C , 47-C ) :   1.1659 B( 39-C , 40-C ) :   1.1165
B( 39-C , 44-N ) :   1.4424 B( 40-C , 41-N ) :   1.4276 B( 40-C , 45-C ) :   1.3275
B( 41-N , 42-C ) :   1.6840 B( 42-C , 43-C ) :   1.1697 B( 42-C , 78-H ) :   0.9725
B( 43-C , 44-N ) :   1.7096 B( 43-C , 79-H ) :   0.9757 B( 45-C , 46-C ) :   1.2170
B( 45-C , 51-C ) :   1.0856 B( 46-C , 47-C ) :   1.1148 B( 46-C , 50-N ) :   1.4986
B( 47-C , 48-N ) :   1.4939 B( 48-N , 49-S ) :   1.2708 B( 48-N , 50-N ) :   0.1568
B( 49-S , 50-N ) :   1.2906 B( 51-C , 52-S ) :   1.1347 B( 51-C , 53-C ) :   0.1047
B( 51-C , 55-C ) :   1.5117 B( 52-S , 53-C ) :   1.1090 B( 53-C , 54-C ) :   1.5541
B( 53-C , 61-C ) :   1.0703 B( 54-C , 55-C ) :   1.2598 B( 54-C , 60-C ) :   1.0625
B( 55-C , 56-C ) :   1.0006 B( 56-C , 57-S ) :   1.0365 B( 56-C , 58-C ) :   1.0043
B( 56-C , 80-H ) :   0.8938 B( 57-S , 81-H ) :   0.9584 B( 58-C , 59-C ) :   1.1280
B( 58-C , 82-H ) :   0.9298 B( 58-C , 83-H ) :   0.9218 B( 59-C , 60-C ) :   1.1161
B( 59-C , 84-H ) :   0.9260 B( 59-C , 85-H ) :   0.9392 B( 60-C , 86-H ) :   0.9113
B( 60-C , 87-H ) :   0.8893 B( 61-C , 62-C ) :   1.9502 B( 61-C , 88-H ) :   0.9497
B( 62-C , 89-H ) :   0.9578 B( 62-C , 90-H ) :   0.9480

-----------------------------------------------------------------------------
         ABSORPTION SPECTRUM VIA TRANSITION ELECTRIC DIPOLE MOMENTS
-----------------------------------------------------------------------------
State   Energy  Wavelength   fosc         T2         TX        TY        TZ
        (cm-1)    (nm)                  (au**2)     (au)      (au)      (au)
-----------------------------------------------------------------------------
   0    9647.4   1036.6   0.968997154  33.06662  -0.26491  -5.55393  -1.46638
   1   13066.9    765.3   0.141196146   3.55734  -0.29251  -0.94519  -1.60574
   2   16936.1    590.5   0.014302878   0.27803   0.01359   0.27559  -0.44932
   3   19770.2    505.8   0.011496702   0.19144  -0.28880  -0.05258  -0.32446
   4   20156.8    496.1   0.022529408   0.36796  -0.21645  -0.21158  -0.52569
   5   21494.4    465.2   0.020880531   0.31981   0.23205   0.23114  -0.46102
   6   23112.7    432.7   0.196453729   2.79824  -0.16652  -1.50247  -0.71630
   7   24129.1    414.4   0.035636630   0.48622  -0.03398  -0.69089  -0.08793
   8   24373.7    410.3   0.002972857   0.04015  -0.08532   0.11837   0.13734
   9   24772.1    403.7   0.002083908   0.02769  -0.15893  -0.00825  -0.04865
  10   25527.9    391.7   0.004609574   0.05945  -0.18314   0.06283  -0.14819
  11   26147.9    382.4   0.010482034   0.13197  -0.00455  -0.32135   0.16937
  12   26426.8    378.4   0.007091603   0.08834  -0.07405  -0.16923  -0.23286
  13   26711.7    374.4   0.022282635   0.27463   0.02752  -0.51948   0.06333
  14   27285.2    366.5   0.072525599   0.87506  -0.00013  -0.87310  -0.33579
  15   27597.2    362.4   0.010498614   0.12524  -0.06108   0.34857   0.00234
  16   27705.4    360.9   0.832257237   9.88938  -0.23289  -2.96643  -1.01755
  17   28379.7    352.4   0.007119666   0.08259   0.09558   0.22299   0.15404
  18   28646.0    349.1   0.051411403   0.59084   0.29182  -0.63049   0.32887
  19   29330.0    340.9   0.054474163   0.61144   0.01215  -0.63317   0.45869
  20   29876.6    334.7   0.120508310   1.32789  -0.00135  -1.00099   0.57089
  21   30253.0    330.5   0.009530949   0.10372   0.02493   0.31639  -0.05472
  22   30469.2    328.2   0.033817193   0.36539  -0.12564   0.23748  -0.54148
  23   30972.4    322.9   0.023872111   0.25374  -0.33919   0.24096  -0.28396
  24   31146.6    321.1   0.120844740   1.27730  -0.41531   1.03118  -0.20369
  25   31521.2    317.2   0.046985497   0.49072  -0.05962  -0.56628  -0.40804
  26   31942.7    313.1   0.028380660   0.29250   0.30422   0.08483   0.43904
  27   32585.7    306.9   0.031814656   0.32142   0.24205  -0.04852   0.51037
  28   32764.9    305.2   0.004806112   0.04829   0.00551   0.03408   0.21702
  29   33303.6    300.3   0.002784985   0.02753  -0.01548   0.05153  -0.15696
  30   34310.7    291.5   0.101269412   0.97168   0.14074   0.35335   0.90941
  31   34381.8    290.9   0.390719371   3.74120  -0.19060  -0.44898  -1.87171
  32   34654.7    288.6   0.003962628   0.03764  -0.03123  -0.13142  -0.13928
  33   34898.7    286.5   0.256541982   2.42005  -0.67622   0.20976  -1.38520
  34   35257.7    283.6   0.001301038   0.01215  -0.09435   0.05688  -0.00334
  35   35575.1    281.1   0.019955167   0.18466  -0.38985   0.14008  -0.11427
  36   35755.0    279.7   0.031102431   0.28637   0.09083  -0.41921  -0.31997
  37   35934.0    278.3   0.019046697   0.17450   0.00853   0.01869  -0.41722
  38   36578.4    273.4   0.142289706   1.28063   0.24177  -0.21566  -1.08428
  39   36635.3    273.0   0.072614876   0.65253  -0.15797   0.25811   0.74897
  40   36681.7    272.6   0.061635505   0.55317  -0.10205  -0.12827   0.72547
  41   37000.6    270.3   0.012442222   0.11070  -0.18853   0.24601   0.12099
  42   37447.6    267.0   0.167223131   1.47010  -0.41167   0.83119  -0.78087
  43   38048.5    262.8   0.006581186   0.05694  -0.22462  -0.06744   0.04404
  44   38139.4    262.2   0.291870924   2.51938   0.48895  -1.18600   0.93473
  45   38433.0    260.2   0.130482118   1.11769  -0.68219   0.11250  -0.79978
  46   38587.0    259.2   0.021747356   0.18554  -0.09965   0.28854  -0.30390
  47   38845.3    257.4   0.155872574   1.32101   0.01163  -0.56541  -1.00059
  48   39376.7    254.0   0.008411458   0.07032   0.09081  -0.09089   0.23199
  49   39449.1    253.5   0.055612485   0.46410  -0.03105   0.14772   0.66431
  50   39512.3    253.1   0.031683182   0.26398   0.22791  -0.45964  -0.02766
  51   39633.6    252.3   0.225297855   1.87141  -0.57882   0.39941  -1.17339
  52   39884.5    250.7   0.018284854   0.15093  -0.03592  -0.38675  -0.00752
  53   39963.5    250.2   0.054121748   0.44585   0.34551  -0.51591   0.24556

FINAL SINGLE POINT ENERGY     -5861.676171233466

DIPOLE MOMENT
-------------
                                X             Y             Z
Electronic contribution:      5.76634     -10.62382     -39.45832
Nuclear contribution   :     -5.21847       9.33464      41.75508
                        -----------------------------------------
Total Dipole Moment    :      0.54788      -1.28918       2.29675
                        -----------------------------------------
Magnitude (a.u.)       :      2.69021
Magnitude (Debye)      :      6.83798

Rotational constants in cm-1:     0.002394     0.000287     0.000263
Rotational constants in MHz :    71.757283     8.600721     7.891523

                             ****ORCA TERMINATED NORMALLY****
TOTAL RUN TIME: 0 days 0 hours 8 minutes 10 seconds 870 msec
