                         Program Version 4.2.0 -  RELEASE  -
|  1> # ORCA input file
|  2> # SCF done       -175.893632605668          0.000812061049
|  3> ! CAM-B3LYP def2-SVP def2/J RIJCOSX Grid4 TightSCF
|  4> %maxcore 5000
|  5> %tddft
|  6>     Mode sTDDFT
|  7>     Ethresh 5.0
|  8>     maxcore 5000
|  9> end
| 10>
| 11> %pal
| 12>   nprocs 6
| 13>   end
| 14> * xyz 0 1
| 15>    C       -1.58309        -0.49891         0.05642
| 16>    S       -0.55834         0.18088        -1.12961
| 17>    C        0.17541         1.24436         0.05012
| 18>    C       -0.39782         1.06520         1.29414
| 19>    C       -1.39685         0.05937         1.28843
| 20>    C       -2.18220        -0.31745         2.49726
| 21>    S       -3.94678         0.20850         2.28953
| 22>    C       -1.57862         0.26171         3.77168
| 23>    C       -1.18011         1.71886         3.57108
| 24>    C       -0.06190         1.82936         2.53594
| 25>    C        1.20020         2.11810        -0.41795
| 26>    C        2.09960         2.79320         0.33380
| 27>    C        3.07800         3.67944        -0.19504
| 28>    C        3.29985         4.08400        -1.49732
| 29>    C        4.35049         4.99726        -1.60059
| 30>    C        4.94442         5.29578        -0.35490
| 31>    S        4.20239         4.44645         0.92859
| 32>    C        5.97224         6.23481        -0.55556
| 33>    C        6.03965         6.54066        -1.93296
| 34>    C        5.00941         5.77379        -2.62863
| 35>    C        4.69418         5.80681        -3.95804
| 36>    C        3.64274         5.02867        -4.48906
| 37>    N        2.77740         4.41366        -4.92342
| 38>    C        5.32756         6.63152        -4.90684
| 39>    N        5.78570         7.29737        -5.72238
| 40>    C        7.01816         7.46694        -2.24468
| 41>    C        7.72012         7.90483        -1.11580
| 42>    S        7.12728         7.11306         0.35126
| 43>    C        8.74835         8.84388        -0.98303
| 44>    C        9.36426         9.56319        -1.98619
| 45>    C       10.36934        10.54419        -1.81896
| 46>    C       10.80005        11.11995        -2.98321
| 47>    C       10.16454        10.61214        -4.12880
| 48>    S        8.99719         9.38951        -3.68567
| 49>    C       10.30758        10.91075        -5.47723
| 50>    C       11.07590        11.87423        -6.15487
| 51>    C       10.90274        11.85611        -7.51268
| 52>    C       10.00057        10.87046        -7.97612
| 53>    S        9.38209         9.96485        -6.61182
| 54>    C        9.56773        10.66175        -9.26959
| 55>    C        8.68485         9.64650        -9.66260
| 56>    C        8.31298         8.49539        -8.96558
| 57>    C        7.33595         7.77164        -9.61958
| 58>    C        6.93522         8.34043       -10.84644
| 59>    S        7.81446         9.76827       -11.19917
| 60>    C        5.90191         7.54291       -11.38388
| 61>    C        5.63980         6.48182       -10.49292
| 62>    C        6.54012         6.57816        -9.36603
| 63>    C        6.64321         5.73562        -8.29726
| 64>    C        7.64062         5.87037        -7.30837
| 65>    N        8.47437         5.91909        -6.52160
| 66>    C        5.77715         4.63660        -8.12469
| 67>    N        5.07126         3.74580        -7.96968
| 68>    C        4.62583         5.63214       -10.93667
| 69>    C        4.11188         6.02242       -12.15435
| 70>    S        4.88948         7.48427       -12.75996
| 71>    C        3.07188         5.41715       -12.92009
| 72>    S        2.12600         6.40666       -13.98968
| 73>    C        1.14704         5.05150       -14.47082
| 74>    C        1.54703         3.90104       -13.82600
| 75>    C        2.65031         4.09951       -12.96107
| 76>    C        3.29902         2.96835       -12.22878
| 77>    S        5.13009         2.96368       -12.48203
| 78>    C        2.73497         1.61059       -12.63489
| 79>    C        1.21845         1.68852       -12.74976
| 80>    C        0.85658         2.57761       -13.93560
| 81>    C        0.09116         5.30721       -15.41515
| 82>    C       -0.55850         4.41889       -16.16388
| 83>    H       -2.27991        -1.26825        -0.21191
| 84>    H       -2.27422        -1.40405         2.57506
| 85>    H       -3.68627         1.46977         1.95416
| 86>    H       -0.69309        -0.32357         4.03389
| 87>    H       -2.29897         0.17102         4.58617
| 88>    H       -0.84360         2.14529         4.51730
| 89>    H       -2.04830         2.29345         3.23966
| 90>    H        0.86236         1.42710         2.96509
| 91>    H        0.11284         2.87909         2.28843
| 92>    H        1.25382         2.20825        -1.49449
| 93>    H        2.12195         2.66896         1.40491
| 94>    H        2.71919         3.73250        -2.32958
| 95>    H        7.21587         7.81599        -3.24029
| 96>    H        9.09455         9.03435         0.02492
| 97>    H       10.74377        10.80050        -0.84335
| 98>    H       11.55628        11.88261        -3.03986
| 99>    H       11.71860        12.56251        -5.63513
|100>    H       11.39874        12.52570        -8.19346
|101>    H        9.88659        11.36947       -10.02289
|102>    H        8.76616         8.17937        -8.04635
|103>    H        4.26584         4.79121       -10.37600
|104>    H        3.19252         3.10063       -11.14849
|105>    H        5.07329         2.84535       -13.80784
|106>    H        3.03733         0.86553       -11.89825
|107>    H        3.15018         1.31388       -13.60181
|108>    H        0.79994         2.10399       -11.83091
|109>    H        0.80109         0.69105       -12.89340
|110>    H       -0.22321         2.73633       -13.97932
|111>    H        1.16013         2.08011       -14.86267
|112>    H       -0.15557         6.35681       -15.51891
|113>    H       -0.33665         3.36816       -16.15727
|114>    H       -1.33389         4.73711       -16.83894
|115> *
|116>
|117>                          ****END OF INPUT****

CARTESIAN COORDINATES (ANGSTROEM)
---------------------------------
  C     -1.583090   -0.498910    0.056420
  S     -0.558340    0.180880   -1.129610
  C      0.175410    1.244360    0.050120
  C     -0.397820    1.065200    1.294140
  C     -1.396850    0.059370    1.288430
  C     -2.182200   -0.317450    2.497260
  S     -3.946780    0.208500    2.289530
  C     -1.578620    0.261710    3.771680
  C     -1.180110    1.718860    3.571080
  C     -0.061900    1.829360    2.535940
  C      1.200200    2.118100   -0.417950
  C      2.099600    2.793200    0.333800
  C      3.078000    3.679440   -0.195040
  C      3.299850    4.084000   -1.497320
  C      4.350490    4.997260   -1.600590
  C      4.944420    5.295780   -0.354900
  S      4.202390    4.446450    0.928590
  C      5.972240    6.234810   -0.555560
  C      6.039650    6.540660   -1.932960
  C      5.009410    5.773790   -2.628630
  C      4.694180    5.806810   -3.958040
  C      3.642740    5.028670   -4.489060
  N      2.777400    4.413660   -4.923420
  C      5.327560    6.631520   -4.906840
  N      5.785700    7.297370   -5.722380
  C      7.018160    7.466940   -2.244680
  C      7.720120    7.904830   -1.115800
  S      7.127280    7.113060    0.351260
  C      8.748350    8.843880   -0.983030
  C      9.364260    9.563190   -1.986190
  C     10.369340   10.544190   -1.818960
  C     10.800050   11.119950   -2.983210
  C     10.164540   10.612140   -4.128800
  S      8.997190    9.389510   -3.685670
  C     10.307580   10.910750   -5.477230
  C     11.075900   11.874230   -6.154870
  C     10.902740   11.856110   -7.512680
  C     10.000570   10.870460   -7.976120
  S      9.382090    9.964850   -6.611820
  C      9.567730   10.661750   -9.269590
  C      8.684850    9.646500   -9.662600
  C      8.312980    8.495390   -8.965580
  C      7.335950    7.771640   -9.619580
  C      6.935220    8.340430  -10.846440
  S      7.814460    9.768270  -11.199170
  C      5.901910    7.542910  -11.383880
  C      5.639800    6.481820  -10.492920
  C      6.540120    6.578160   -9.366030
  C      6.643210    5.735620   -8.297260
  C      7.640620    5.870370   -7.308370
  N      8.474370    5.919090   -6.521600
  C      5.777150    4.636600   -8.124690
  N      5.071260    3.745800   -7.969680
  C      4.625830    5.632140  -10.936670
  C      4.111880    6.022420  -12.154350
  S      4.889480    7.484270  -12.759960
  C      3.071880    5.417150  -12.920090
  S      2.126000    6.406660  -13.989680
  C      1.147040    5.051500  -14.470820
  C      1.547030    3.901040  -13.826000
  C      2.650310    4.099510  -12.961070
  C      3.299020    2.968350  -12.228780
  S      5.130090    2.963680  -12.482030
  C      2.734970    1.610590  -12.634890
  C      1.218450    1.688520  -12.749760
  C      0.856580    2.577610  -13.935600
  C      0.091160    5.307210  -15.415150
  C     -0.558500    4.418890  -16.163880
  H     -2.279910   -1.268250   -0.211910
  H     -2.274220   -1.404050    2.575060
  H     -3.686270    1.469770    1.954160
  H     -0.693090   -0.323570    4.033890
  H     -2.298970    0.171020    4.586170
  H     -0.843600    2.145290    4.517300
  H     -2.048300    2.293450    3.239660
  H      0.862360    1.427100    2.965090
  H      0.112840    2.879090    2.288430
  H      1.253820    2.208250   -1.494490
  H      2.121950    2.668960    1.404910
  H      2.719190    3.732500   -2.329580
  H      7.215870    7.815990   -3.240290
  H      9.094550    9.034350    0.024920
  H     10.743770   10.800500   -0.843350
  H     11.556280   11.882610   -3.039860
  H     11.718600   12.562510   -5.635130
  H     11.398740   12.525700   -8.193460
  H      9.886590   11.369470  -10.022890
  H      8.766160    8.179370   -8.046350
  H      4.265840    4.791210  -10.376000
  H      3.192520    3.100630  -11.148490
  H      5.073290    2.845350  -13.807840
  H      3.037330    0.865530  -11.898250
  H      3.150180    1.313880  -13.601810
  H      0.799940    2.103990  -11.830910
  H      0.801090    0.691050  -12.893400
  H     -0.223210    2.736330  -13.979320
  H      1.160130    2.080110  -14.862670
  H     -0.155570    6.356810  -15.518910
  H     -0.336650    3.368160  -16.157270
  H     -1.333890    4.737110  -16.838940

 Total Charge           Charge          ....    0
 Multiplicity           Mult            ....    1
 Number of Electrons    NEL             ....  544
 Basis Dimension        Dim             .... 1152

ORBITAL ENERGIES
----------------

  NO   OCC          E(Eh)            E(eV)
   0   2.0000     -88.973523     -2421.0926
   1   2.0000     -88.972329     -2421.0602
   2   2.0000     -88.970010     -2420.9971
   3   2.0000     -88.969928     -2420.9948
   4   2.0000     -88.947221     -2420.3769
   5   2.0000     -88.945671     -2420.3348
   6   2.0000     -88.941280     -2420.2153
   7   2.0000     -88.939254     -2420.1601
   8   2.0000     -88.904819     -2419.2231
   9   2.0000     -88.901902     -2419.1437
  10   2.0000     -14.420836      -392.4109
  11   2.0000     -14.416180      -392.2842
  12   2.0000     -14.413275      -392.2051
  13   2.0000     -14.407283      -392.0421
  14   2.0000     -10.351107      -281.6679
  15   2.0000     -10.343662      -281.4654
  16   2.0000     -10.338676      -281.3297
  17   2.0000     -10.329771      -281.0874
  18   2.0000     -10.321665      -280.8668
  19   2.0000     -10.316517      -280.7267
  20   2.0000     -10.316423      -280.7242
  21   2.0000     -10.314601      -280.6746
  22   2.0000     -10.313708      -280.6503
  23   2.0000     -10.312838      -280.6266
  24   2.0000     -10.312564      -280.6191
  25   2.0000     -10.310108      -280.5523
  26   2.0000     -10.309101      -280.5249
  27   2.0000     -10.307090      -280.4702
  28   2.0000     -10.306626      -280.4575
  29   2.0000     -10.306561      -280.4558
  30   2.0000     -10.305742      -280.4335
  31   2.0000     -10.305357      -280.4230
  32   2.0000     -10.305074      -280.4153
  33   2.0000     -10.304420      -280.3975
  34   2.0000     -10.300681      -280.2958
  35   2.0000     -10.299558      -280.2652
  36   2.0000     -10.299221      -280.2561
  37   2.0000     -10.290182      -280.0101
  38   2.0000     -10.289727      -279.9977
  39   2.0000     -10.288674      -279.9690
  40   2.0000     -10.287415      -279.9348
  41   2.0000     -10.285982      -279.8958
  42   2.0000     -10.285057      -279.8706
  43   2.0000     -10.284639      -279.8593
  44   2.0000     -10.284183      -279.8468
  45   2.0000     -10.284047      -279.8431
  46   2.0000     -10.283522      -279.8289
  47   2.0000     -10.283001      -279.8147
  48   2.0000     -10.282718      -279.8070
  49   2.0000     -10.282554      -279.8025
  50   2.0000     -10.282215      -279.7933
  51   2.0000     -10.281614      -279.7769
  52   2.0000     -10.281584      -279.7761
  53   2.0000     -10.280230      -279.7393
  54   2.0000     -10.280156      -279.7373
  55   2.0000     -10.278885      -279.7027
  56   2.0000     -10.277349      -279.6609
  57   2.0000     -10.274389      -279.5803
  58   2.0000     -10.271860      -279.5115
  59   2.0000     -10.271749      -279.5085
  60   2.0000     -10.270366      -279.4709
  61   2.0000     -10.269776      -279.4548
  62   2.0000     -10.266238      -279.3585
  63   2.0000     -10.264798      -279.3193
  64   2.0000     -10.264295      -279.3057
  65   2.0000     -10.261938      -279.2415
  66   2.0000     -10.261724      -279.2357
  67   2.0000     -10.259822      -279.1839
  68   2.0000      -8.068244      -219.5481
  69   2.0000      -8.066952      -219.5129
  70   2.0000      -8.064628      -219.4497
  71   2.0000      -8.064509      -219.4464
  72   2.0000      -8.043239      -218.8677
  73   2.0000      -8.041702      -218.8258
  74   2.0000      -8.037205      -218.7035
  75   2.0000      -8.035451      -218.6557
  76   2.0000      -8.000398      -217.7019
  77   2.0000      -7.996999      -217.6094
  78   2.0000      -6.037444      -164.2872
  79   2.0000      -6.036190      -164.2531
  80   2.0000      -6.033906      -164.1909
  81   2.0000      -6.033798      -164.1880
  82   2.0000      -6.033362      -164.1761
  83   2.0000      -6.032209      -164.1448
  84   2.0000      -6.030652      -164.1024
  85   2.0000      -6.029764      -164.0782
  86   2.0000      -6.029698      -164.0764
  87   2.0000      -6.029200      -164.0629
  88   2.0000      -6.026964      -164.0020
  89   2.0000      -6.026731      -163.9957
  90   2.0000      -6.012393      -163.6055
  91   2.0000      -6.010855      -163.5637
  92   2.0000      -6.008479      -163.4990
  93   2.0000      -6.006951      -163.4574
  94   2.0000      -6.006679      -163.4501
  95   2.0000      -6.005345      -163.4137
  96   2.0000      -6.005192      -163.4096
  97   2.0000      -6.004101      -163.3799
  98   2.0000      -6.002753      -163.3432
  99   2.0000      -6.000940      -163.2939
 100   2.0000      -5.998250      -163.2207
 101   2.0000      -5.996456      -163.1719
 102   2.0000      -5.970854      -162.4752
 103   2.0000      -5.967645      -162.3879
 104   2.0000      -5.966968      -162.3695
 105   2.0000      -5.963502      -162.2751
 106   2.0000      -5.959960      -162.1788
 107   2.0000      -5.956472      -162.0839
 108   2.0000      -1.028429       -27.9850
 109   2.0000      -1.024107       -27.8674
 110   2.0000      -1.010120       -27.4868
 111   2.0000      -1.002558       -27.2810
 112   2.0000      -0.995524       -27.0896
 113   2.0000      -0.994454       -27.0605
 114   2.0000      -0.989917       -26.9370
 115   2.0000      -0.986807       -26.8524
 116   2.0000      -0.982746       -26.7419
 117   2.0000      -0.979953       -26.6659
 118   2.0000      -0.973572       -26.4922
 119   2.0000      -0.966668       -26.3044
 120   2.0000      -0.944610       -25.7041
 121   2.0000      -0.937967       -25.5234
 122   2.0000      -0.921531       -25.0761
 123   2.0000      -0.919836       -25.0300
 124   2.0000      -0.908287       -24.7157
 125   2.0000      -0.902331       -24.5537
 126   2.0000      -0.889819       -24.2132
 127   2.0000      -0.883778       -24.0488
 128   2.0000      -0.875113       -23.8130
 129   2.0000      -0.864253       -23.5175
 130   2.0000      -0.861985       -23.4558
 131   2.0000      -0.856297       -23.3010
 132   2.0000      -0.851606       -23.1734
 133   2.0000      -0.842681       -22.9305
 134   2.0000      -0.841049       -22.8861
 135   2.0000      -0.839196       -22.8357
 136   2.0000      -0.836379       -22.7590
 137   2.0000      -0.819667       -22.3043
 138   2.0000      -0.819285       -22.2939
 139   2.0000      -0.815811       -22.1993
 140   2.0000      -0.813958       -22.1489
 141   2.0000      -0.805332       -21.9142
 142   2.0000      -0.795771       -21.6540
 143   2.0000      -0.777203       -21.1488
 144   2.0000      -0.773944       -21.0601
 145   2.0000      -0.768907       -20.9230
 146   2.0000      -0.761955       -20.7338
 147   2.0000      -0.755304       -20.5529
 148   2.0000      -0.745268       -20.2798
 149   2.0000      -0.732031       -19.9196
 150   2.0000      -0.712261       -19.3816
 151   2.0000      -0.704162       -19.1612
 152   2.0000      -0.698807       -19.0155
 153   2.0000      -0.696897       -18.9635
 154   2.0000      -0.691268       -18.8104
 155   2.0000      -0.687119       -18.6975
 156   2.0000      -0.681300       -18.5391
 157   2.0000      -0.674860       -18.3639
 158   2.0000      -0.670407       -18.2427
 159   2.0000      -0.665565       -18.1109
 160   2.0000      -0.661860       -18.0101
 161   2.0000      -0.655406       -17.8345
 162   2.0000      -0.645161       -17.5557
 163   2.0000      -0.637295       -17.3417
 164   2.0000      -0.632395       -17.2083
 165   2.0000      -0.624711       -16.9992
 166   2.0000      -0.623652       -16.9704
 167   2.0000      -0.619398       -16.8547
 168   2.0000      -0.616580       -16.7780
 169   2.0000      -0.615178       -16.7398
 170   2.0000      -0.611356       -16.6358
 171   2.0000      -0.600060       -16.3285
 172   2.0000      -0.598546       -16.2873
 173   2.0000      -0.592531       -16.1236
 174   2.0000      -0.591065       -16.0837
 175   2.0000      -0.586094       -15.9484
 176   2.0000      -0.578375       -15.7384
 177   2.0000      -0.571126       -15.5411
 178   2.0000      -0.563770       -15.3409
 179   2.0000      -0.556069       -15.1314
 180   2.0000      -0.553514       -15.0619
 181   2.0000      -0.544785       -14.8244
 182   2.0000      -0.540941       -14.7198
 183   2.0000      -0.535476       -14.5710
 184   2.0000      -0.532290       -14.4843
 185   2.0000      -0.527995       -14.3675
 186   2.0000      -0.527120       -14.3437
 187   2.0000      -0.526114       -14.3163
 188   2.0000      -0.519723       -14.1424
 189   2.0000      -0.514615       -14.0034
 190   2.0000      -0.510813       -13.8999
 191   2.0000      -0.504919       -13.7395
 192   2.0000      -0.503608       -13.7039
 193   2.0000      -0.502679       -13.6786
 194   2.0000      -0.501814       -13.6550
 195   2.0000      -0.498254       -13.5582
 196   2.0000      -0.496929       -13.5221
 197   2.0000      -0.494887       -13.4666
 198   2.0000      -0.491392       -13.3715
 199   2.0000      -0.490535       -13.3481
 200   2.0000      -0.489288       -13.3142
 201   2.0000      -0.486554       -13.2398
 202   2.0000      -0.485356       -13.2072
 203   2.0000      -0.484240       -13.1768
 204   2.0000      -0.483170       -13.1477
 205   2.0000      -0.482698       -13.1349
 206   2.0000      -0.480589       -13.0775
 207   2.0000      -0.480456       -13.0739
 208   2.0000      -0.476250       -12.9594
 209   2.0000      -0.474878       -12.9221
 210   2.0000      -0.472531       -12.8582
 211   2.0000      -0.465756       -12.6739
 212   2.0000      -0.463795       -12.6205
 213   2.0000      -0.461680       -12.5630
 214   2.0000      -0.455018       -12.3817
 215   2.0000      -0.453359       -12.3365
 216   2.0000      -0.452692       -12.3184
 217   2.0000      -0.451777       -12.2935
 218   2.0000      -0.449452       -12.2302
 219   2.0000      -0.446354       -12.1459
 220   2.0000      -0.445230       -12.1153
 221   2.0000      -0.443505       -12.0684
 222   2.0000      -0.438857       -11.9419
 223   2.0000      -0.437562       -11.9067
 224   2.0000      -0.437294       -11.8994
 225   2.0000      -0.434607       -11.8263
 226   2.0000      -0.433334       -11.7916
 227   2.0000      -0.431494       -11.7415
 228   2.0000      -0.428536       -11.6611
 229   2.0000      -0.427699       -11.6383
 230   2.0000      -0.425998       -11.5920
 231   2.0000      -0.424943       -11.5633
 232   2.0000      -0.423566       -11.5258
 233   2.0000      -0.422486       -11.4964
 234   2.0000      -0.419927       -11.4268
 235   2.0000      -0.419221       -11.4076
 236   2.0000      -0.418284       -11.3821
 237   2.0000      -0.413137       -11.2420
 238   2.0000      -0.411143       -11.1878
 239   2.0000      -0.409482       -11.1426
 240   2.0000      -0.408796       -11.1239
 241   2.0000      -0.407642       -11.0925
 242   2.0000      -0.406442       -11.0599
 243   2.0000      -0.404176       -10.9982
 244   2.0000      -0.402818       -10.9612
 245   2.0000      -0.399735       -10.8774
 246   2.0000      -0.397614       -10.8196
 247   2.0000      -0.394714       -10.7407
 248   2.0000      -0.386314       -10.5121
 249   2.0000      -0.384002       -10.4492
 250   2.0000      -0.383555       -10.4371
 251   2.0000      -0.379631       -10.3303
 252   2.0000      -0.376164       -10.2359
 253   2.0000      -0.369677       -10.0594
 254   2.0000      -0.360571        -9.8116
 255   2.0000      -0.344536        -9.3753
 256   2.0000      -0.335613        -9.1325
 257   2.0000      -0.333599        -9.0777
 258   2.0000      -0.329613        -8.9692
 259   2.0000      -0.324408        -8.8276
 260   2.0000      -0.315406        -8.5826
 261   2.0000      -0.308502        -8.3948
 262   2.0000      -0.308339        -8.3903
 263   2.0000      -0.306333        -8.3358
 264   2.0000      -0.301497        -8.2042
 265   2.0000      -0.298983        -8.1357
 266   2.0000      -0.289997        -7.8912
 267   2.0000      -0.281677        -7.6648
 268   2.0000      -0.273726        -7.4485
 269   2.0000      -0.249223        -6.7817
 270   2.0000      -0.231902        -6.3104
 271   2.0000      -0.196665        -5.3515
 272   0.0000      -0.096946        -2.6380
 273   0.0000      -0.088328        -2.4035
 274   0.0000      -0.070034        -1.9057
 275   0.0000      -0.032616        -0.8875
 276   0.0000      -0.022174        -0.6034

MULLIKEN ATOMIC CHARGES
-----------------------
   0 C :   -0.104520
   1 S :    0.123035
   2 C :   -0.157841
   3 C :   -0.057154
   4 C :    0.028665
   5 C :   -0.165413
   6 S :   -0.048443
   7 C :    0.110068
   8 C :    0.025271
   9 C :    0.105684
  10 C :    0.040765
  11 C :    0.028957
  12 C :   -0.080658
  13 C :   -0.030345
  14 C :   -0.008055
  15 C :   -0.102413
  16 S :    0.169901
  17 C :   -0.103991
  18 C :   -0.006776
  19 C :    0.324054
  20 C :   -0.313925
  21 C :   -0.194987
  22 N :    0.171539
  23 C :   -0.146645
  24 N :    0.152108
  25 C :   -0.036497
  26 C :   -0.101064
  27 S :    0.166677
  28 C :    0.036419
  29 C :   -0.028822
  30 C :    0.029386
  31 C :    0.026361
  32 C :   -0.023146
  33 S :    0.053243
  34 C :   -0.037626
  35 C :    0.032667
  36 C :    0.033719
  37 C :   -0.036359
  38 S :    0.065383
  39 C :    0.035121
  40 C :   -0.101293
  41 C :   -0.033952
  42 C :   -0.006191
  43 C :   -0.100769
  44 S :    0.170606
  45 C :   -0.103073
  46 C :   -0.013311
  47 C :    0.324743
  48 C :   -0.300893
  49 C :   -0.189629
  50 N :    0.173883
  51 C :   -0.199807
  52 N :    0.172630
  53 C :    0.002880
  54 C :   -0.068667
  55 S :    0.174565
  56 C :   -0.110613
  57 S :    0.117538
  58 C :   -0.145866
  59 C :   -0.078066
  60 C :    0.042461
  61 C :   -0.211692
  62 S :   -0.028006
  63 C :    0.111140
  64 C :    0.032653
  65 C :    0.091842
  66 C :    0.030319
  67 C :   -0.031773
  68 H :    0.014557
  69 H :    0.046086
  70 H :    0.052491
  71 H :    0.004508
  72 H :    0.009996
  73 H :    0.001584
  74 H :   -0.004734
  75 H :    0.021235
  76 H :    0.017784
  77 H :   -0.007208
  78 H :   -0.027009
  79 H :    0.004993
  80 H :    0.029849
  81 H :   -0.020688
  82 H :   -0.015034
  83 H :   -0.013364
  84 H :   -0.014836
  85 H :   -0.013031
  86 H :   -0.017040
  87 H :    0.034128
  88 H :   -0.007640
  89 H :    0.071901
  90 H :    0.045465
  91 H :    0.012847
  92 H :   -0.007674
  93 H :    0.011316
  94 H :    0.001223
  95 H :    0.021696
  96 H :    0.017906
  97 H :   -0.007610
  98 H :    0.016832
  99 H :    0.023468
Sum of atomic charges:   -0.0000000

LOEWDIN ATOMIC CHARGES
----------------------
   0 C :   -0.182795
   1 S :    0.442631
   2 C :   -0.180633
   3 C :   -0.056155
   4 C :   -0.089982
   5 C :   -0.113774
   6 S :    0.152318
   7 C :   -0.039701
   8 C :   -0.029856
   9 C :   -0.029229
  10 C :   -0.030164
  11 C :   -0.058425
  12 C :   -0.160682
  13 C :   -0.032101
  14 C :   -0.071210
  15 C :   -0.183289
  16 S :    0.460134
  17 C :   -0.189237
  18 C :   -0.065131
  19 C :    0.085625
  20 C :   -0.103327
  21 C :   -0.015159
  22 N :   -0.033377
  23 C :   -0.006732
  24 N :   -0.034860
  25 C :   -0.040623
  26 C :   -0.161575
  27 S :    0.457262
  28 C :   -0.083749
  29 C :   -0.147927
  30 C :   -0.034286
  31 C :   -0.037922
  32 C :   -0.179077
  33 S :    0.404690
  34 C :   -0.177597
  35 C :   -0.038336
  36 C :   -0.031770
  37 C :   -0.147835
  38 S :    0.412541
  39 C :   -0.074960
  40 C :   -0.168655
  41 C :   -0.040342
  42 C :   -0.062275
  43 C :   -0.183842
  44 S :    0.454006
  45 C :   -0.181806
  46 C :   -0.069653
  47 C :    0.084290
  48 C :   -0.097507
  49 C :   -0.017411
  50 N :   -0.041109
  51 C :   -0.015073
  52 N :   -0.040391
  53 C :   -0.028358
  54 C :   -0.180839
  55 S :    0.460042
  56 C :   -0.192599
  57 S :    0.425739
  58 C :   -0.180014
  59 C :   -0.050766
  60 C :   -0.077940
  61 C :   -0.118962
  62 S :    0.179249
  63 C :   -0.037727
  64 C :   -0.028734
  65 C :   -0.027416
  66 C :   -0.041284
  67 C :   -0.048805
  68 H :    0.022592
  69 H :    0.032658
  70 H :   -0.037559
  71 H :    0.023826
  72 H :    0.024428
  73 H :    0.025975
  74 H :    0.016325
  75 H :    0.030306
  76 H :    0.032368
  77 H :    0.030327
  78 H :    0.025406
  79 H :    0.038083
  80 H :    0.025027
  81 H :    0.031769
  82 H :    0.031879
  83 H :    0.032356
  84 H :    0.031731
  85 H :    0.032586
  86 H :    0.032670
  87 H :    0.025201
  88 H :    0.033319
  89 H :    0.034501
  90 H :   -0.037990
  91 H :    0.029555
  92 H :    0.017735
  93 H :    0.024944
  94 H :    0.025150
  95 H :    0.033983
  96 H :    0.029708
  97 H :    0.028241
  98 H :    0.021134
  99 H :    0.026224

  Mayer bond orders larger than 0.100000
B(  0-C ,  1-S ) :   1.1727 B(  0-C ,  4-C ) :   1.5424 B(  0-C , 68-H ) :   0.9711
B(  1-S ,  2-C ) :   1.1342 B(  2-C ,  3-C ) :   1.5105 B(  2-C , 10-C ) :   1.1247
B(  3-C ,  4-C ) :   1.3147 B(  3-C ,  9-C ) :   1.0592 B(  4-C ,  5-C ) :   0.9457
B(  5-C ,  6-S ) :   1.0429 B(  5-C ,  7-C ) :   1.0216 B(  5-C , 69-H ) :   0.9215
B(  6-S , 70-H ) :   0.9529 B(  7-C ,  8-C ) :   1.0684 B(  7-C , 71-H ) :   0.9339
B(  7-C , 72-H ) :   0.9321 B(  8-C ,  9-C ) :   1.0786 B(  8-C , 73-H ) :   0.9329
B(  8-C , 74-H ) :   0.9435 B(  9-C , 75-H ) :   0.9048 B(  9-C , 76-H ) :   0.9135
B( 10-C , 11-C ) :   1.7092 B( 10-C , 77-H ) :   0.9495 B( 11-C , 12-C ) :   1.1170
B( 11-C , 78-H ) :   0.9537 B( 12-C , 13-C ) :   1.4685 B( 12-C , 16-S ) :   1.0956
B( 13-C , 14-C ) :   1.2945 B( 13-C , 79-H ) :   0.9875 B( 14-C , 15-C ) :   1.4212
B( 14-C , 19-C ) :   1.0120 B( 15-C , 16-S ) :   1.1160 B( 15-C , 17-C ) :   1.2191
B( 17-C , 18-C ) :   1.4190 B( 17-C , 27-S ) :   1.1094 B( 18-C , 19-C ) :   0.9893
B( 18-C , 25-C ) :   1.3578 B( 19-C , 20-C ) :   1.6899 B( 20-C , 21-C ) :   1.1408
B( 20-C , 23-C ) :   1.1563 B( 21-C , 22-N ) :   2.9805 B( 23-C , 24-N ) :   2.8975
B( 25-C , 26-C ) :   1.3887 B( 25-C , 80-H ) :   0.9664 B( 26-C , 27-S ) :   1.0878
B( 26-C , 28-C ) :   1.1977 B( 28-C , 29-C ) :   1.5602 B( 28-C , 81-H ) :   0.9517
B( 29-C , 30-C ) :   1.1674 B( 29-C , 33-S ) :   1.0528 B( 30-C , 31-C ) :   1.5622
B( 30-C , 82-H ) :   0.9988 B( 31-C , 32-C ) :   1.2112 B( 31-C , 83-H ) :   0.9961
B( 32-C , 33-S ) :   1.0497 B( 32-C , 34-C ) :   1.4631 B( 34-C , 35-C ) :   1.2068
B( 34-C , 38-S ) :   1.0570 B( 35-C , 36-C ) :   1.5682 B( 35-C , 84-H ) :   0.9946
B( 36-C , 37-C ) :   1.1656 B( 36-C , 85-H ) :   0.9968 B( 37-C , 38-S ) :   1.0459
B( 37-C , 39-C ) :   1.5652 B( 39-C , 40-C ) :   1.1840 B( 39-C , 86-H ) :   0.9584
B( 40-C , 41-C ) :   1.3951 B( 40-C , 44-S ) :   1.0819 B( 41-C , 42-C ) :   1.3594
B( 41-C , 87-H ) :   0.9547 B( 42-C , 43-C ) :   1.4184 B( 42-C , 47-C ) :   0.9941
B( 43-C , 44-S ) :   1.1103 B( 43-C , 45-C ) :   1.2135 B( 45-C , 46-C ) :   1.4278
B( 45-C , 55-S ) :   1.1130 B( 46-C , 47-C ) :   1.0048 B( 46-C , 53-C ) :   1.2997
B( 47-C , 48-C ) :   1.7094 B( 48-C , 49-C ) :   1.1322 B( 48-C , 51-C ) :   1.1483
B( 49-C , 50-N ) :   2.9781 B( 51-C , 52-N ) :   2.9832 B( 53-C , 54-C ) :   1.4778
B( 53-C , 88-H ) :   0.9890 B( 54-C , 55-S ) :   1.0994 B( 54-C , 56-C ) :   1.0935
B( 56-C , 57-S ) :   1.1344 B( 56-C , 58-C ) :   0.1101 B( 56-C , 60-C ) :   1.5393
B( 57-S , 58-C ) :   1.1052 B( 58-C , 59-C ) :   1.5544 B( 58-C , 66-C ) :   1.0892
B( 59-C , 60-C ) :   1.3091 B( 59-C , 65-C ) :   1.0515 B( 60-C , 61-C ) :   0.9569
B( 61-C , 62-S ) :   1.0497 B( 61-C , 63-C ) :   1.0338 B( 61-C , 89-H ) :   0.8972
B( 62-S , 90-H ) :   0.9548 B( 63-C , 64-C ) :   1.0627 B( 63-C , 91-H ) :   0.9311
B( 63-C , 92-H ) :   0.9343 B( 64-C , 65-C ) :   1.0855 B( 64-C , 93-H ) :   0.9445
B( 64-C , 94-H ) :   0.9328 B( 65-C , 95-H ) :   0.9169 B( 65-C , 96-H ) :   0.9057
B( 66-C , 67-C ) :   1.9358 B( 66-C , 97-H ) :   0.9481 B( 67-C , 98-H ) :   0.9583
B( 67-C , 99-H ) :   0.9456

-----------------------------------------------------------------------------
         ABSORPTION SPECTRUM VIA TRANSITION ELECTRIC DIPOLE MOMENTS
-----------------------------------------------------------------------------
State   Energy  Wavelength   fosc         T2         TX        TY        TZ
        (cm-1)    (nm)                  (au**2)     (au)      (au)      (au)
-----------------------------------------------------------------------------
   0    6621.0   1510.4   0.145314444   7.22543  -1.04061  -1.10287   2.21951
   1    8008.5   1248.7   0.120935906   4.97140  -0.90975  -0.63456  -1.93419
   2   13013.6    768.4   0.650608636  16.45873  -0.68791  -0.88106   3.89990
   3   14755.4    677.7   0.152471220   3.40184   1.38910   1.20652   0.12871
   4   16029.8    623.8   0.042825481   0.87953   0.70402   0.61454   0.07888
   5   20534.9    487.0   0.048556063   0.77844  -0.62790  -0.60294   0.14371
   6   20989.1    476.4   0.241328953   3.78522   1.40572   1.29332   0.36948
   7   22405.0    446.3   0.003098634   0.04553  -0.16465  -0.12535   0.05204
   8   23106.8    432.8   2.078899463  29.61895  -4.08526  -3.53044  -0.68233
   9   24915.4    401.4   0.041794488   0.55224   0.52153   0.48499   0.21221
  10   25469.0    392.6   0.016137108   0.20859  -0.29130  -0.35036   0.03129
  11   25969.8    385.1   0.235893892   2.99036  -0.86053  -0.19676  -1.48699
  12   26489.7    377.5   0.010413041   0.12941   0.33654   0.12557   0.01961
  13   26938.8    371.2   0.031578066   0.38591   0.17888   0.40754  -0.43338
  14   28602.7    349.6   0.060754089   0.69927  -0.55554   0.21659  -0.58629
  15   29394.7    340.2   0.042673032   0.47793  -0.35161  -0.52405   0.28225
  16   29803.4    335.5   0.067647941   0.74725  -0.23787   0.00691  -0.83104
  17   30112.0    332.1   0.342750427   3.74727  -0.19207  -0.87940   1.71378
  18   30695.1    325.8   0.535898891   5.74763  -0.28854   0.57558  -2.30935
  19   30924.3    323.4   0.020776030   0.22118  -0.36943   0.14250  -0.25376
  20   31174.9    320.8   0.311880422   3.29351   1.25288   1.02646   0.81865
  21   31358.2    318.9   0.013585422   0.14263  -0.11967  -0.35509  -0.04708
  22   31755.7    314.9   0.129393410   1.34142   0.00034  -0.67635   0.94020
  23   31887.1    313.6   0.040938237   0.42266  -0.11863  -0.23245   0.59544
  24   32195.0    310.6   0.108053764   1.10491  -0.98138   0.16261  -0.33965
  25   32381.3    308.8   0.057499089   0.58458   0.37002   0.63309   0.21648
  26   32815.3    304.7   0.421546067   4.22907  -1.14297  -1.51998   0.78252
  27   33035.3    302.7   0.229808347   2.29014  -1.03834  -0.62992  -0.90288
  28   33164.3    301.5   0.117360150   1.16500  -0.80282  -0.30574  -0.65346
  29   33308.8    300.2   0.100741152   0.99569   0.09804   0.42709  -0.89648
  30   33750.3    296.3   0.010160875   0.09911   0.25276   0.18107  -0.04938
  31   34126.8    293.0   0.256464479   2.47404  -0.90370  -0.26276  -1.26029
  32   34158.1    292.8   0.021007690   0.20247   0.18528   0.00906   0.40995
  33   34708.0    288.1   0.059689520   0.56617   0.10524  -0.07109   0.74164
  34   34970.8    286.0   0.002725380   0.02566   0.00625   0.13946  -0.07853
  35   35383.8    282.6   0.041551044   0.38659  -0.13154  -0.56849   0.21473
  36   35661.9    280.4   0.030175659   0.27857  -0.01214   0.39631  -0.34836
  37   35879.0    278.7   0.127952190   1.17404   0.17129   0.72386  -0.78786
  38   35939.1    278.2   0.013776682   0.12620   0.19272   0.28673   0.08272
  39   36075.6    277.2   0.038448619   0.35087  -0.47320  -0.16417  -0.31622
  40   36413.5    274.6   0.021239443   0.19202   0.14635  -0.03614   0.41146
  41   36474.8    274.2   0.003757682   0.03392   0.06723   0.05187   0.16342
  42   36656.3    272.8   0.008310200   0.07463   0.19733   0.01860   0.18801
  43   36773.6    271.9   0.010567748   0.09461  -0.02239  -0.03761   0.30445
  44   37014.1    270.2   0.011600863   0.10318   0.04051  -0.16078   0.27512
  45   37091.4    269.6   0.008849902   0.07855  -0.16404  -0.02142  -0.22623
  46   37170.3    269.0   0.072510756   0.64222   0.50219   0.47170   0.40929
  47   37484.4    266.8   0.020775237   0.18246   0.28305   0.31826   0.03245
  48   37693.7    265.3   0.047078370   0.41118   0.37245   0.51746  -0.06852
  49   38182.3    261.9   0.010095872   0.08705  -0.05081  -0.23687  -0.16840
  50   38357.4    260.7   0.004198433   0.03603  -0.02728  -0.12969   0.13591
  51   38560.0    259.3   0.007013899   0.05988   0.18129   0.16160  -0.03000
  52   38719.6    258.3   0.002425273   0.02062   0.00252  -0.14107  -0.02672
  53   39184.7    255.2   0.064560166   0.54241  -0.27675  -0.02942  -0.68187
  54   39327.8    254.3   0.022558363   0.18884   0.31028   0.27707   0.12566
  55   39744.6    251.6   0.009772785   0.08095   0.13730   0.02211  -0.24821
  56   39892.3    250.7   0.036848835   0.30410   0.41047   0.32915  -0.16515
  57   40313.7    248.1   0.003036124   0.02479   0.01772  -0.12838   0.08944

FINAL SINGLE POINT ENERGY     -6273.584753178117

DIPOLE MOMENT
-------------
                                X             Y             Z
Electronic contribution:     51.74798      44.03307      -6.99101
Nuclear contribution   :    -51.31070     -42.80477       7.60700
                        -----------------------------------------
Total Dipole Moment    :      0.43727       1.22830       0.61599
                        -----------------------------------------
Magnitude (a.u.)       :      1.44201
Magnitude (Debye)      :      3.66529

Rotational constants in cm-1:     0.000722     0.000432     0.000280
Rotational constants in MHz :    21.635460    12.941942     8.389354

                             ****ORCA TERMINATED NORMALLY****
TOTAL RUN TIME: 0 days 0 hours 11 minutes 1 seconds 751 msec
