                         Program Version 4.2.0 -  RELEASE  -
|  1> # ORCA input file
|  2> # SCF done       -185.182221627811          0.000516244287
|  3> ! CAM-B3LYP def2-SVP def2/J RIJCOSX Grid4 TightSCF
|  4> %maxcore 5000
|  5> %tddft
|  6>     Mode sTDDFT
|  7>     Ethresh 5.0
|  8>     maxcore 5000
|  9> end
| 10>
| 11> %pal
| 12>   nprocs 6
| 13>   end
| 14> * xyz 0 1
| 15>    C        3.69244        -0.12868         5.39867
| 16>    N        2.79140        -0.81242         6.03087
| 17>    C        1.58846        -0.38363         5.53330
| 18>    C        1.79412         0.64025         4.50233
| 19>    C        0.50520         1.11530         3.97277
| 20>    O        0.29834         1.94670         3.12099
| 21>    C       -0.46907         0.31926         4.75559
| 22>    C        0.24789        -0.58369         5.69407
| 23>    N       -0.63983        -1.31067         6.42454
| 24>    C       -1.81688        -0.92608         6.01502
| 25>    C       -1.78448         0.09497         4.97372
| 26>    C        3.15317         0.82284         4.41019
| 27>    C        3.86889         1.72102         3.57504
| 28>    C        5.21265         1.89443         3.62510
| 29>    C        5.95056         2.80709         2.82862
| 30>    C        5.52543         3.64456         1.80544
| 31>    C        6.56848         4.40749         1.28919
| 32>    C        7.80191         4.15760         1.92666
| 33>    S        7.67156         2.97422         3.14442
| 34>    C        8.79277         4.99277         1.35892
| 35>    C        8.18278         5.77033         0.34701
| 36>    C        6.77021         5.43915         0.28094
| 37>    C        5.83224         6.01599        -0.52470
| 38>    C        4.48012         5.61063        -0.51914
| 39>    N        3.38440         5.27482        -0.52330
| 40>    C        6.15485         7.07610        -1.39769
| 41>    N        6.41671         7.95605        -2.08548
| 42>    C        9.07504         6.62565        -0.28494
| 43>    C       10.34950         6.53035         0.25609
| 44>    S       10.45348         5.32343         1.53273
| 45>    C       11.55575         7.18265        -0.08103
| 46>    N       12.68939         6.69243         0.41042
| 47>    C       13.68206         7.40311        -0.15199
| 48>    C       13.14383         8.40854        -1.07707
| 49>    C       14.23028         9.20125        -1.68320
| 50>    O       14.14327        10.11021        -2.47625
| 51>    C       15.43123         8.60853        -1.06467
| 52>    C       15.05229         7.51617        -0.14121
| 53>    N       16.14887         6.98902         0.45220
| 54>    C       17.15995         7.67442        -0.02631
| 55>    C       16.78222         8.70713        -0.96952
| 56>    C       11.77901         8.31989        -1.00620
| 57>    C       10.83810         9.17646        -1.65591
| 58>    C        9.65647         9.56958        -1.12981
| 59>    C        8.73403        10.43939        -1.77286
| 60>    C        8.78796        10.98816        -3.04472
| 61>    C        7.68820        11.79869        -3.30738
| 62>    C        6.78372        11.86932        -2.22917
| 63>    S        7.29177        10.92945        -0.90221
| 64>    C        5.72162        12.73847        -2.57775
| 65>    C        5.96104        13.22229        -3.88566
| 66>    C        7.19455        12.64081        -4.38629
| 67>    C        7.77075        12.84819        -5.60496
| 68>    C        8.96744        12.20865        -5.99283
| 69>    N        9.93451        11.68546        -6.31689
| 70>    C        7.20355        13.71944        -6.55922
| 71>    N        6.74506        14.43612        -7.32771
| 72>    C        4.98283        14.10611        -4.32154
| 73>    C        4.00299        14.30623        -3.35950
| 74>    S        4.28809        13.35696        -1.90191
| 75>    C        2.82025        15.07674        -3.35128
| 76>    N        1.95357        14.85221        -2.36469
| 77>    C        0.90497        15.65265        -2.60278
| 78>    C        1.11566        16.45227        -3.82526
| 79>    C       -0.04697        17.32901        -4.06550
| 80>    O       -0.23772        18.10366        -4.97757
| 81>    C       -0.92656        17.01878        -2.92600
| 82>    C       -0.31249        15.98977        -2.06337
| 83>    N       -1.11439        15.70782        -1.00867
| 84>    C       -2.16133        16.48432        -1.15883
| 85>    C       -2.10715        17.33176        -2.33042
| 86>    C        2.35455        16.11545        -4.30026
| 87>    C        3.09912        16.66334        -5.40314
| 88>    C        2.56931        17.47593        -6.31694
| 89>    H        4.73481        -0.28904         5.61279
| 90>    H       -2.70859        -1.35430         6.43946
| 91>    H       -2.64465         0.53898         4.51312
| 92>    H        3.26549         2.29729         2.88752
| 93>    H        5.79642         1.32326         4.33430
| 94>    H        4.50809         3.68395         1.46202
| 95>    H        8.83328         7.26111        -1.11625
| 96>    H       18.16468         7.44820         0.28594
| 97>    H       17.45649         9.37793        -1.46395
| 98>    H       11.17844         9.59392        -2.59364
| 99>    H        9.37876         9.24610        -0.13495
|100>    H        9.59061        10.80328        -3.73431
|101>    H        4.96452        14.55466        -5.29714
|102>    H       -2.96576        16.45330        -0.44438
|103>    H       -2.85790        18.03733        -2.62669
|104>    H        4.14813        16.40966        -5.45270
|105>    H        1.53126        17.76128        -6.29008
|106>    H        3.16834        17.87739        -7.11615
|107> *
|108>
|109>                          ****END OF INPUT****

CARTESIAN COORDINATES (ANGSTROEM)
---------------------------------
  C      3.692440   -0.128680    5.398670
  N      2.791400   -0.812420    6.030870
  C      1.588460   -0.383630    5.533300
  C      1.794120    0.640250    4.502330
  C      0.505200    1.115300    3.972770
  O      0.298340    1.946700    3.120990
  C     -0.469070    0.319260    4.755590
  C      0.247890   -0.583690    5.694070
  N     -0.639830   -1.310670    6.424540
  C     -1.816880   -0.926080    6.015020
  C     -1.784480    0.094970    4.973720
  C      3.153170    0.822840    4.410190
  C      3.868890    1.721020    3.575040
  C      5.212650    1.894430    3.625100
  C      5.950560    2.807090    2.828620
  C      5.525430    3.644560    1.805440
  C      6.568480    4.407490    1.289190
  C      7.801910    4.157600    1.926660
  S      7.671560    2.974220    3.144420
  C      8.792770    4.992770    1.358920
  C      8.182780    5.770330    0.347010
  C      6.770210    5.439150    0.280940
  C      5.832240    6.015990   -0.524700
  C      4.480120    5.610630   -0.519140
  N      3.384400    5.274820   -0.523300
  C      6.154850    7.076100   -1.397690
  N      6.416710    7.956050   -2.085480
  C      9.075040    6.625650   -0.284940
  C     10.349500    6.530350    0.256090
  S     10.453480    5.323430    1.532730
  C     11.555750    7.182650   -0.081030
  N     12.689390    6.692430    0.410420
  C     13.682060    7.403110   -0.151990
  C     13.143830    8.408540   -1.077070
  C     14.230280    9.201250   -1.683200
  O     14.143270   10.110210   -2.476250
  C     15.431230    8.608530   -1.064670
  C     15.052290    7.516170   -0.141210
  N     16.148870    6.989020    0.452200
  C     17.159950    7.674420   -0.026310
  C     16.782220    8.707130   -0.969520
  C     11.779010    8.319890   -1.006200
  C     10.838100    9.176460   -1.655910
  C      9.656470    9.569580   -1.129810
  C      8.734030   10.439390   -1.772860
  C      8.787960   10.988160   -3.044720
  C      7.688200   11.798690   -3.307380
  C      6.783720   11.869320   -2.229170
  S      7.291770   10.929450   -0.902210
  C      5.721620   12.738470   -2.577750
  C      5.961040   13.222290   -3.885660
  C      7.194550   12.640810   -4.386290
  C      7.770750   12.848190   -5.604960
  C      8.967440   12.208650   -5.992830
  N      9.934510   11.685460   -6.316890
  C      7.203550   13.719440   -6.559220
  N      6.745060   14.436120   -7.327710
  C      4.982830   14.106110   -4.321540
  C      4.002990   14.306230   -3.359500
  S      4.288090   13.356960   -1.901910
  C      2.820250   15.076740   -3.351280
  N      1.953570   14.852210   -2.364690
  C      0.904970   15.652650   -2.602780
  C      1.115660   16.452270   -3.825260
  C     -0.046970   17.329010   -4.065500
  O     -0.237720   18.103660   -4.977570
  C     -0.926560   17.018780   -2.926000
  C     -0.312490   15.989770   -2.063370
  N     -1.114390   15.707820   -1.008670
  C     -2.161330   16.484320   -1.158830
  C     -2.107150   17.331760   -2.330420
  C      2.354550   16.115450   -4.300260
  C      3.099120   16.663340   -5.403140
  C      2.569310   17.475930   -6.316940
  H      4.734810   -0.289040    5.612790
  H     -2.708590   -1.354300    6.439460
  H     -2.644650    0.538980    4.513120
  H      3.265490    2.297290    2.887520
  H      5.796420    1.323260    4.334300
  H      4.508090    3.683950    1.462020
  H      8.833280    7.261110   -1.116250
  H     18.164680    7.448200    0.285940
  H     17.456490    9.377930   -1.463950
  H     11.178440    9.593920   -2.593640
  H      9.378760    9.246100   -0.134950
  H      9.590610   10.803280   -3.734310
  H      4.964520   14.554660   -5.297140
  H     -2.965760   16.453300   -0.444380
  H     -2.857900   18.037330   -2.626690
  H      4.148130   16.409660   -5.452700
  H      1.531260   17.761280   -6.290080
  H      3.168340   17.877390   -7.116150

 Total Charge           Charge          ....    0
 Multiplicity           Mult            ....    1
 Number of Electrons    NEL             ....  518
 Basis Dimension        Dim             .... 1142

ORBITAL ENERGIES
----------------

  NO   OCC          E(Eh)            E(eV)
   0   2.0000     -89.006787     -2421.9978
   1   2.0000     -89.004963     -2421.9482
   2   2.0000     -88.994820     -2421.6722
   3   2.0000     -88.992759     -2421.6161
   4   2.0000     -19.220925      -523.0280
   5   2.0000     -19.212551      -522.8001
   6   2.0000     -19.206123      -522.6252
   7   2.0000     -14.447481      -393.1359
   8   2.0000     -14.442341      -392.9961
   9   2.0000     -14.433807      -392.7639
  10   2.0000     -14.431931      -392.7128
  11   2.0000     -14.427214      -392.5845
  12   2.0000     -14.418875      -392.3575
  13   2.0000     -14.418811      -392.3558
  14   2.0000     -14.406839      -392.0300
  15   2.0000     -14.406791      -392.0287
  16   2.0000     -14.397666      -391.7804
  17   2.0000     -10.381237      -282.4878
  18   2.0000     -10.380314      -282.4627
  19   2.0000     -10.373295      -282.2717
  20   2.0000     -10.368084      -282.1299
  21   2.0000     -10.367960      -282.1265
  22   2.0000     -10.366273      -282.0806
  23   2.0000     -10.360362      -281.9198
  24   2.0000     -10.355915      -281.7988
  25   2.0000     -10.354522      -281.7609
  26   2.0000     -10.348060      -281.5850
  27   2.0000     -10.347924      -281.5813
  28   2.0000     -10.347592      -281.5723
  29   2.0000     -10.347344      -281.5655
  30   2.0000     -10.343220      -281.4533
  31   2.0000     -10.343191      -281.4525
  32   2.0000     -10.343118      -281.4506
  33   2.0000     -10.342008      -281.4203
  34   2.0000     -10.339610      -281.3551
  35   2.0000     -10.339282      -281.3462
  36   2.0000     -10.337728      -281.3039
  37   2.0000     -10.337095      -281.2867
  38   2.0000     -10.335784      -281.2510
  39   2.0000     -10.334036      -281.2034
  40   2.0000     -10.332036      -281.1490
  41   2.0000     -10.330705      -281.1128
  42   2.0000     -10.327807      -281.0339
  43   2.0000     -10.325647      -280.9751
  44   2.0000     -10.325478      -280.9706
  45   2.0000     -10.325427      -280.9692
  46   2.0000     -10.325341      -280.9668
  47   2.0000     -10.324990      -280.9573
  48   2.0000     -10.319998      -280.8214
  49   2.0000     -10.318565      -280.7824
  50   2.0000     -10.318008      -280.7673
  51   2.0000     -10.316643      -280.7301
  52   2.0000     -10.316600      -280.7290
  53   2.0000     -10.315963      -280.7116
  54   2.0000     -10.315777      -280.7066
  55   2.0000     -10.314347      -280.6676
  56   2.0000     -10.312012      -280.6041
  57   2.0000     -10.310336      -280.5585
  58   2.0000     -10.310267      -280.5566
  59   2.0000     -10.308640      -280.5123
  60   2.0000     -10.305640      -280.4307
  61   2.0000     -10.304352      -280.3957
  62   2.0000     -10.303645      -280.3764
  63   2.0000     -10.303514      -280.3729
  64   2.0000     -10.301061      -280.3061
  65   2.0000     -10.300077      -280.2793
  66   2.0000     -10.297298      -280.2037
  67   2.0000     -10.290397      -280.0159
  68   2.0000     -10.289409      -279.9890
  69   2.0000     -10.286631      -279.9135
  70   2.0000     -10.281431      -279.7720
  71   2.0000     -10.280376      -279.7433
  72   2.0000     -10.279049      -279.7071
  73   2.0000     -10.267786      -279.4007
  74   2.0000      -8.101541      -220.4542
  75   2.0000      -8.098791      -220.3793
  76   2.0000      -8.089436      -220.1247
  77   2.0000      -8.086640      -220.0487
  78   2.0000      -6.070644      -165.1906
  79   2.0000      -6.068067      -165.1205
  80   2.0000      -6.066560      -165.0795
  81   2.0000      -6.064099      -165.0125
  82   2.0000      -6.063601      -164.9990
  83   2.0000      -6.061379      -164.9385
  84   2.0000      -6.058584      -164.8625
  85   2.0000      -6.055912      -164.7897
  86   2.0000      -6.054440      -164.7497
  87   2.0000      -6.051967      -164.6824
  88   2.0000      -6.051447      -164.6682
  89   2.0000      -6.049210      -164.6074
  90   2.0000      -1.136018       -30.9126
  91   2.0000      -1.127563       -30.6825
  92   2.0000      -1.120774       -30.4978
  93   2.0000      -1.090124       -29.6638
  94   2.0000      -1.087622       -29.5957
  95   2.0000      -1.076653       -29.2972
  96   2.0000      -1.072184       -29.1756
  97   2.0000      -1.063962       -28.9519
  98   2.0000      -1.059987       -28.8437
  99   2.0000      -1.053859       -28.6770
 100   2.0000      -1.048435       -28.5294
 101   2.0000      -1.037007       -28.2184
 102   2.0000      -1.024881       -27.8884
 103   2.0000      -1.022099       -27.8127
 104   2.0000      -1.013635       -27.5824
 105   2.0000      -1.010572       -27.4991
 106   2.0000      -1.001859       -27.2620
 107   2.0000      -0.975973       -26.5576
 108   2.0000      -0.964403       -26.2427
 109   2.0000      -0.947196       -25.7745
 110   2.0000      -0.943729       -25.6802
 111   2.0000      -0.938957       -25.5503
 112   2.0000      -0.934198       -25.4208
 113   2.0000      -0.929598       -25.2956
 114   2.0000      -0.918355       -24.9897
 115   2.0000      -0.911121       -24.7929
 116   2.0000      -0.902571       -24.5602
 117   2.0000      -0.887276       -24.1440
 118   2.0000      -0.876958       -23.8632
 119   2.0000      -0.875129       -23.8135
 120   2.0000      -0.872914       -23.7532
 121   2.0000      -0.870228       -23.6801
 122   2.0000      -0.865832       -23.5605
 123   2.0000      -0.860904       -23.4264
 124   2.0000      -0.859891       -23.3988
 125   2.0000      -0.851374       -23.1671
 126   2.0000      -0.828902       -22.5556
 127   2.0000      -0.827440       -22.5158
 128   2.0000      -0.817397       -22.2425
 129   2.0000      -0.800347       -21.7786
 130   2.0000      -0.789281       -21.4774
 131   2.0000      -0.787015       -21.4158
 132   2.0000      -0.778187       -21.1755
 133   2.0000      -0.773793       -21.0560
 134   2.0000      -0.761844       -20.7308
 135   2.0000      -0.754613       -20.5341
 136   2.0000      -0.751259       -20.4428
 137   2.0000      -0.741622       -20.1806
 138   2.0000      -0.731890       -19.9157
 139   2.0000      -0.723318       -19.6825
 140   2.0000      -0.715145       -19.4601
 141   2.0000      -0.712566       -19.3899
 142   2.0000      -0.704866       -19.1804
 143   2.0000      -0.699777       -19.0419
 144   2.0000      -0.694503       -18.8984
 145   2.0000      -0.691712       -18.8224
 146   2.0000      -0.683695       -18.6043
 147   2.0000      -0.670899       -18.2561
 148   2.0000      -0.663240       -18.0477
 149   2.0000      -0.657820       -17.9002
 150   2.0000      -0.654323       -17.8050
 151   2.0000      -0.649929       -17.6855
 152   2.0000      -0.646390       -17.5892
 153   2.0000      -0.643411       -17.5081
 154   2.0000      -0.639788       -17.4095
 155   2.0000      -0.635861       -17.3026
 156   2.0000      -0.632586       -17.2135
 157   2.0000      -0.629653       -17.1337
 158   2.0000      -0.624385       -16.9904
 159   2.0000      -0.620211       -16.8768
 160   2.0000      -0.616141       -16.7660
 161   2.0000      -0.608808       -16.5665
 162   2.0000      -0.600764       -16.3476
 163   2.0000      -0.596389       -16.2286
 164   2.0000      -0.593195       -16.1417
 165   2.0000      -0.585396       -15.9294
 166   2.0000      -0.580960       -15.8087
 167   2.0000      -0.579550       -15.7703
 168   2.0000      -0.572621       -15.5818
 169   2.0000      -0.565830       -15.3970
 170   2.0000      -0.564761       -15.3679
 171   2.0000      -0.560053       -15.2398
 172   2.0000      -0.557863       -15.1802
 173   2.0000      -0.555205       -15.1079
 174   2.0000      -0.553444       -15.0600
 175   2.0000      -0.550163       -14.9707
 176   2.0000      -0.545734       -14.8502
 177   2.0000      -0.541744       -14.7416
 178   2.0000      -0.539615       -14.6837
 179   2.0000      -0.538127       -14.6432
 180   2.0000      -0.532253       -14.4834
 181   2.0000      -0.528522       -14.3818
 182   2.0000      -0.525186       -14.2910
 183   2.0000      -0.523836       -14.2543
 184   2.0000      -0.521843       -14.2001
 185   2.0000      -0.520727       -14.1697
 186   2.0000      -0.520019       -14.1504
 187   2.0000      -0.515456       -14.0263
 188   2.0000      -0.513620       -13.9763
 189   2.0000      -0.511314       -13.9135
 190   2.0000      -0.510331       -13.8868
 191   2.0000      -0.509216       -13.8565
 192   2.0000      -0.508980       -13.8501
 193   2.0000      -0.506457       -13.7814
 194   2.0000      -0.500990       -13.6326
 195   2.0000      -0.500469       -13.6185
 196   2.0000      -0.496546       -13.5117
 197   2.0000      -0.495300       -13.4778
 198   2.0000      -0.493250       -13.4220
 199   2.0000      -0.486870       -13.2484
 200   2.0000      -0.483488       -13.1564
 201   2.0000      -0.483341       -13.1524
 202   2.0000      -0.482211       -13.1216
 203   2.0000      -0.480327       -13.0704
 204   2.0000      -0.479299       -13.0424
 205   2.0000      -0.478223       -13.0131
 206   2.0000      -0.474846       -12.9212
 207   2.0000      -0.471893       -12.8409
 208   2.0000      -0.469847       -12.7852
 209   2.0000      -0.469025       -12.7628
 210   2.0000      -0.467978       -12.7343
 211   2.0000      -0.467146       -12.7117
 212   2.0000      -0.466823       -12.7029
 213   2.0000      -0.465686       -12.6720
 214   2.0000      -0.463963       -12.6251
 215   2.0000      -0.461322       -12.5532
 216   2.0000      -0.460084       -12.5195
 217   2.0000      -0.457557       -12.4508
 218   2.0000      -0.456717       -12.4279
 219   2.0000      -0.455327       -12.3901
 220   2.0000      -0.453130       -12.3303
 221   2.0000      -0.450510       -12.2590
 222   2.0000      -0.445338       -12.1183
 223   2.0000      -0.443022       -12.0552
 224   2.0000      -0.441734       -12.0202
 225   2.0000      -0.440614       -11.9897
 226   2.0000      -0.440124       -11.9764
 227   2.0000      -0.433029       -11.7833
 228   2.0000      -0.428892       -11.6707
 229   2.0000      -0.427808       -11.6412
 230   2.0000      -0.418903       -11.3989
 231   2.0000      -0.406121       -11.0511
 232   2.0000      -0.392815       -10.6890
 233   2.0000      -0.392185       -10.6719
 234   2.0000      -0.382094       -10.3973
 235   2.0000      -0.369375       -10.0512
 236   2.0000      -0.368685       -10.0324
 237   2.0000      -0.365773        -9.9532
 238   2.0000      -0.364796        -9.9266
 239   2.0000      -0.359579        -9.7846
 240   2.0000      -0.355543        -9.6748
 241   2.0000      -0.355028        -9.6608
 242   2.0000      -0.352405        -9.5894
 243   2.0000      -0.350146        -9.5280
 244   2.0000      -0.347086        -9.4447
 245   2.0000      -0.346070        -9.4170
 246   2.0000      -0.345006        -9.3881
 247   2.0000      -0.339836        -9.2474
 248   2.0000      -0.338074        -9.1995
 249   2.0000      -0.334436        -9.1005
 250   2.0000      -0.331675        -9.0253
 251   2.0000      -0.327407        -8.9092
 252   2.0000      -0.325967        -8.8700
 253   2.0000      -0.323815        -8.8115
 254   2.0000      -0.313393        -8.5279
 255   2.0000      -0.305273        -8.3069
 256   2.0000      -0.295417        -8.0387
 257   2.0000      -0.268922        -7.3177
 258   2.0000      -0.259001        -7.0478
 259   0.0000      -0.131710        -3.5840
 260   0.0000      -0.118495        -3.2244
 261   0.0000      -0.113821        -3.0972
 262   0.0000      -0.109674        -2.9844
 263   0.0000      -0.100210        -2.7269

MULLIKEN ATOMIC CHARGES
-----------------------
   0 C :    0.058906
   1 N :   -0.024479
   2 C :    0.040443
   3 C :   -0.106999
   4 C :    0.209667
   5 O :   -0.119433
   6 C :   -0.037258
   7 C :    0.001041
   8 N :   -0.046091
   9 C :    0.092496
  10 C :   -0.087543
  11 C :   -0.023026
  12 C :   -0.012371
  13 C :    0.052165
  14 C :   -0.076356
  15 C :   -0.027049
  16 C :    0.015536
  17 C :   -0.114548
  18 S :    0.206802
  19 C :   -0.070532
  20 C :   -0.009700
  21 C :    0.303374
  22 C :   -0.290442
  23 C :   -0.190714
  24 N :    0.186890
  25 C :   -0.184657
  26 N :    0.167894
  27 C :   -0.038239
  28 C :   -0.137633
  29 S :    0.271239
  30 C :    0.062252
  31 N :   -0.066801
  32 C :    0.070644
  33 C :   -0.126657
  34 C :    0.204748
  35 O :   -0.123722
  36 C :   -0.042018
  37 C :   -0.035038
  38 N :   -0.054115
  39 C :    0.090361
  40 C :   -0.091751
  41 C :    0.020523
  42 C :   -0.040618
  43 C :    0.032400
  44 C :   -0.081199
  45 C :   -0.020956
  46 C :    0.017317
  47 C :   -0.103487
  48 S :    0.210136
  49 C :   -0.076452
  50 C :   -0.012720
  51 C :    0.309635
  52 C :   -0.292832
  53 C :   -0.189745
  54 N :    0.181093
  55 C :   -0.187210
  56 N :    0.168896
  57 C :   -0.012654
  58 C :   -0.136943
  59 S :    0.266957
  60 C :    0.073531
  61 N :   -0.080578
  62 C :    0.063447
  63 C :   -0.166710
  64 C :    0.218294
  65 O :   -0.139055
  66 C :   -0.021817
  67 C :   -0.030013
  68 N :   -0.054535
  69 C :    0.084591
  70 C :   -0.097296
  71 C :    0.032648
  72 C :   -0.065510
  73 C :    0.018510
  74 H :    0.011066
  75 H :    0.017109
  76 H :    0.002470
  77 H :    0.018631
  78 H :   -0.012134
  79 H :    0.019508
  80 H :    0.032181
  81 H :    0.008330
  82 H :   -0.004359
  83 H :    0.027438
  84 H :    0.000397
  85 H :    0.015166
  86 H :    0.016929
  87 H :    0.006253
  88 H :   -0.008457
  89 H :   -0.012866
  90 H :    0.047372
  91 H :    0.030029
Sum of atomic charges:   -0.0000000

LOEWDIN ATOMIC CHARGES
----------------------
   0 C :    0.087586
   1 N :   -0.075960
   2 C :    0.043762
   3 C :   -0.049427
   4 C :    0.065818
   5 O :   -0.129648
   6 C :   -0.036328
   7 C :    0.037318
   8 N :   -0.090518
   9 C :    0.084869
  10 C :   -0.026363
  11 C :   -0.042838
  12 C :   -0.000285
  13 C :   -0.035964
  14 C :   -0.153625
  15 C :   -0.020157
  16 C :   -0.053089
  17 C :   -0.192181
  18 S :    0.491831
  19 C :   -0.158603
  20 C :   -0.078863
  21 C :    0.078347
  22 C :   -0.098733
  23 C :   -0.021066
  24 N :   -0.020108
  25 C :   -0.013003
  26 N :   -0.037165
  27 C :   -0.001392
  28 C :   -0.186955
  29 S :    0.539516
  30 C :    0.048122
  31 N :   -0.126648
  32 C :    0.041522
  33 C :   -0.034623
  34 C :    0.063792
  35 O :   -0.135774
  36 C :   -0.043647
  37 C :    0.018719
  38 N :   -0.098418
  39 C :    0.072924
  40 C :   -0.036429
  41 C :   -0.031595
  42 C :   -0.010670
  43 C :   -0.034904
  44 C :   -0.153569
  45 C :   -0.017361
  46 C :   -0.050944
  47 C :   -0.187417
  48 S :    0.499189
  49 C :   -0.156026
  50 C :   -0.077385
  51 C :    0.079598
  52 C :   -0.100074
  53 C :   -0.018456
  54 N :   -0.026920
  55 C :   -0.015757
  56 N :   -0.031915
  57 C :    0.000630
  58 C :   -0.183204
  59 S :    0.538467
  60 C :    0.050177
  61 N :   -0.132086
  62 C :    0.045059
  63 C :   -0.039753
  64 C :    0.068814
  65 O :   -0.138919
  66 C :   -0.042516
  67 C :    0.014034
  68 N :   -0.099228
  69 C :    0.066857
  70 C :   -0.040271
  71 C :   -0.020175
  72 C :   -0.051192
  73 C :    0.013626
  74 H :    0.023764
  75 H :    0.026607
  76 H :    0.037332
  77 H :    0.043284
  78 H :    0.028769
  79 H :    0.044546
  80 H :    0.044400
  81 H :    0.023288
  82 H :    0.034713
  83 H :    0.044955
  84 H :    0.029180
  85 H :    0.042835
  86 H :    0.042780
  87 H :    0.021942
  88 H :    0.032986
  89 H :    0.027929
  90 H :    0.028503
  91 H :    0.029756

  Mayer bond orders larger than 0.100000
B(  0-C ,  1-N ) :   1.7501 B(  0-C , 11-C ) :   1.0126 B(  0-C , 74-H ) :   0.9877
B(  1-N ,  2-C ) :   1.2589 B(  2-C ,  3-C ) :   1.0591 B(  2-C ,  7-C ) :   1.5062
B(  3-C ,  4-C ) :   0.9004 B(  3-C , 11-C ) :   1.5612 B(  4-C ,  5-O ) :   2.2915
B(  4-C ,  6-C ) :   0.8916 B(  6-C ,  7-C ) :   1.0402 B(  6-C , 10-C ) :   1.6511
B(  7-C ,  8-N ) :   1.2833 B(  8-N ,  9-C ) :   1.6890 B(  9-C , 10-C ) :   1.0445
B(  9-C , 75-H ) :   0.9884 B( 10-C , 76-H ) :   1.0095 B( 11-C , 12-C ) :   1.1288
B( 12-C , 13-C ) :   1.6611 B( 12-C , 77-H ) :   0.9767 B( 13-C , 14-C ) :   1.1179
B( 13-C , 78-H ) :   0.9586 B( 14-C , 15-C ) :   1.4416 B( 14-C , 18-S ) :   1.1188
B( 15-C , 16-C ) :   1.3166 B( 15-C , 79-H ) :   0.9915 B( 16-C , 17-C ) :   1.4209
B( 16-C , 21-C ) :   0.9929 B( 17-C , 18-S ) :   1.1240 B( 17-C , 19-C ) :   1.2052
B( 19-C , 20-C ) :   1.3918 B( 19-C , 29-S ) :   1.1521 B( 20-C , 21-C ) :   0.9985
B( 20-C , 27-C ) :   1.3271 B( 21-C , 22-C ) :   1.7134 B( 22-C , 23-C ) :   1.1314
B( 22-C , 25-C ) :   1.1362 B( 23-C , 24-N ) :   2.9949 B( 25-C , 26-N ) :   2.9704
B( 27-C , 28-C ) :   1.4214 B( 27-C , 80-H ) :   0.9860 B( 28-C , 29-S ) :   1.0909
B( 28-C , 30-C ) :   1.1424 B( 30-C , 31-N ) :   1.6114 B( 30-C , 32-C ) :   0.1185
B( 30-C , 41-C ) :   1.0332 B( 31-N , 32-C ) :   1.3670 B( 32-C , 33-C ) :   1.0565
B( 32-C , 37-C ) :   1.4042 B( 33-C , 34-C ) :   0.8848 B( 33-C , 41-C ) :   1.5857
B( 34-C , 35-O ) :   2.2917 B( 34-C , 36-C ) :   0.9004 B( 36-C , 37-C ) :   1.0577
B( 36-C , 40-C ) :   1.6073 B( 37-C , 38-N ) :   1.3244 B( 38-N , 39-C ) :   1.6424
B( 39-C , 40-C ) :   1.0816 B( 39-C , 81-H ) :   0.9893 B( 40-C , 82-H ) :   1.0096
B( 41-C , 42-C ) :   1.0980 B( 42-C , 43-C ) :   1.6979 B( 42-C , 83-H ) :   0.9571
B( 43-C , 44-C ) :   1.1220 B( 43-C , 84-H ) :   0.9608 B( 44-C , 45-C ) :   1.4534
B( 44-C , 48-S ) :   1.1218 B( 45-C , 46-C ) :   1.3140 B( 45-C , 85-H ) :   0.9875
B( 46-C , 47-C ) :   1.4227 B( 46-C , 51-C ) :   0.9955 B( 47-C , 48-S ) :   1.1312
B( 47-C , 49-C ) :   1.2021 B( 49-C , 50-C ) :   1.3890 B( 49-C , 59-S ) :   1.1538
B( 50-C , 51-C ) :   0.9982 B( 50-C , 57-C ) :   1.3387 B( 51-C , 52-C ) :   1.7100
B( 52-C , 53-C ) :   1.1345 B( 52-C , 55-C ) :   1.1347 B( 53-C , 54-N ) :   2.9915
B( 55-C , 56-N ) :   2.9870 B( 57-C , 58-C ) :   1.4185 B( 57-C , 86-H ) :   0.9800
B( 58-C , 59-S ) :   1.0885 B( 58-C , 60-C ) :   1.1431 B( 60-C , 61-N ) :   1.5778
B( 60-C , 62-C ) :   0.1218 B( 60-C , 71-C ) :   1.0501 B( 61-N , 62-C ) :   1.3859
B( 62-C , 63-C ) :   1.0558 B( 62-C , 67-C ) :   1.3984 B( 63-C , 64-C ) :   0.8839
B( 63-C , 71-C ) :   1.5878 B( 64-C , 65-O ) :   2.2066 B( 64-C , 66-C ) :   0.9293
B( 66-C , 67-C ) :   1.0709 B( 66-C , 70-C ) :   1.5895 B( 67-C , 68-N ) :   1.3226
B( 68-N , 69-C ) :   1.6442 B( 69-C , 70-C ) :   1.0840 B( 69-C , 87-H ) :   0.9893
B( 70-C , 88-H ) :   1.0106 B( 71-C , 72-C ) :   1.0911 B( 72-C , 73-C ) :   1.9284
B( 72-C , 89-H ) :   0.9569 B( 73-C , 90-H ) :   0.9331 B( 73-C , 91-H ) :   0.9440

-----------------------------------------------------------------------------
         ABSORPTION SPECTRUM VIA TRANSITION ELECTRIC DIPOLE MOMENTS
-----------------------------------------------------------------------------
State   Energy  Wavelength   fosc         T2         TX        TY        TZ
        (cm-1)    (nm)                  (au**2)     (au)      (au)      (au)
-----------------------------------------------------------------------------
   0   13183.2    758.5   0.354953845   8.86393   1.90509   1.98774  -1.13288
   1   13783.2    725.5   0.399270815   9.53658   2.74421  -1.39265   0.25776
   2   15215.7    657.2   0.006113055   0.13226   0.24073  -0.21054   0.17318
   3   17751.7    563.3   0.790861960  14.66684  -3.12189  -1.90836   1.13085
   4   17998.8    555.6   0.344751071   6.30576  -2.24113   1.12390  -0.14128
   5   19214.5    520.4   0.630198443  10.79753   2.77519  -1.75400  -0.13896
   6   19607.0    510.0   0.558124536   9.37122  -2.89763  -0.85919   0.48657
   7   20590.4    485.7   0.404354843   6.46507  -2.30513   1.01571   0.34610
   8   21865.8    457.3   0.002486433   0.03744   0.16797   0.09328   0.02281
   9   22229.3    449.9   0.001699342   0.02517  -0.04316   0.15237  -0.00938
  10   22522.1    444.0   0.000436642   0.00638   0.00556  -0.05053  -0.06163
  11   22776.9    439.0   0.158598137   2.29234   1.31512   0.48565  -0.57178
  12   23853.5    419.2   0.013828210   0.19085  -0.41922  -0.12290   0.00127
  13   24469.2    408.7   0.096741079   1.30157   0.50842   0.81538  -0.61501
  14   24683.3    405.1   0.007320720   0.09764  -0.28895  -0.11579   0.02725
  15   25332.2    394.8   0.002771714   0.03602   0.17370  -0.07591   0.00934
  16   25542.5    391.5   0.025052452   0.32290  -0.36028   0.33360  -0.28601
  17   26045.6    383.9   0.003781067   0.04779   0.02563  -0.09001   0.19757
  18   26142.2    382.5   0.002731507   0.03440   0.17486  -0.05621   0.02572
  19   26391.6    378.9   0.001066051   0.01330   0.10545  -0.01546   0.04404
  20   26808.1    373.0   0.000650427   0.00799   0.01042  -0.06651   0.05878
  21   26894.6    371.8   0.000591935   0.00725  -0.05281   0.00533   0.06655
  22   27052.8    369.6   0.212355141   2.58420   0.62159   1.09074  -1.00405
  23   27169.0    368.1   0.243221280   2.94715   1.30658   0.75894  -0.81487
  24   27431.3    364.5   0.114526000   1.37446  -1.10510   0.31464  -0.23285
  25   27742.1    360.5   0.015691770   0.18621  -0.26202  -0.08215   0.33288
  26   27932.0    358.0   0.003353139   0.03952  -0.07449   0.04726   0.17815
  27   27963.0    357.6   0.222124670   2.61510   1.13128  -0.81566   0.81854
  28   28335.9    352.9   0.006217127   0.07223   0.00278  -0.06560  -0.26061
  29   28837.3    346.8   0.040643917   0.46400   0.25586  -0.50542   0.37827
  30   29099.4    343.6   0.002217773   0.02509   0.04562  -0.08656   0.12457
  31   29170.5    342.8   0.026496525   0.29903  -0.13226  -0.32816   0.41696
  32   29329.6    341.0   0.092566175   1.03901  -0.42279   0.55785  -0.74099
  33   29970.3    333.7   0.106117856   1.16566  -0.16221   0.60145  -0.88182
  34   30214.0    331.0   0.001190759   0.01297  -0.09402   0.00990  -0.06354
  35   30287.4    330.2   0.400205071   4.35007  -1.75102   0.18839  -1.11737
  36   30387.6    329.1   0.006677797   0.07235   0.22326  -0.03439   0.14601
  37   30775.1    324.9   0.123592132   1.32211  -0.54406   0.00754   1.01294
  38   31106.7    321.5   0.671348080   7.10508  -2.58261   0.60981   0.25170
  39   31303.9    319.4   0.000763100   0.00803   0.01668  -0.00131   0.08801
  40   31427.4    318.2   0.119123320   1.24786   0.40048  -0.03562  -1.04221
  41   31950.9    313.0   0.140571765   1.44841  -0.89007  -0.37714   0.71690
  42   32170.7    310.8   0.040257847   0.41197   0.33071   0.38718  -0.39076
  43   32306.2    309.5   0.244292884   2.48944  -0.61647  -0.95780   1.09179
  44   32358.4    309.0   0.071788434   0.73037  -0.46200   0.40498  -0.59407
  45   32785.0    305.0   0.068819603   0.69105  -0.75622  -0.31246   0.14679
  46   32855.3    304.4   0.056974201   0.57088   0.32909   0.36760  -0.57224
  47   33011.3    302.9   0.076444655   0.76236  -0.85397  -0.18192  -0.00114
  48   33453.7    298.9   0.028860580   0.28401  -0.26863  -0.10467   0.44821
  49   33566.7    297.9   0.051894293   0.50896  -0.70830  -0.08441  -0.01234
  50   33622.8    297.4   0.109155662   1.06878   0.97183   0.24967  -0.24899
  51   33742.9    296.4   0.085261590   0.83185   0.48023  -0.26679   0.72804
  52   34137.7    292.9   0.032910402   0.31738   0.06408  -0.06464   0.55596
  53   34178.8    292.6   0.143261179   1.37990  -0.99221   0.19897   0.59651
  54   34314.6    291.4   0.085750730   0.82269   0.51526  -0.73521  -0.12908
  55   34404.2    290.7   0.167796003   1.60563  -0.95142   0.01770   0.83674
  56   34834.6    287.1   0.176485421   1.66791  -1.25179   0.22939  -0.21983
  57   34936.0    286.2   0.017210076   0.16218   0.26098  -0.23815   0.19327
  58   35292.9    283.3   0.065898045   0.61470  -0.42470   0.63400  -0.17994
  59   35417.1    282.3   0.004520366   0.04202  -0.12483   0.14716   0.06914
  60   35491.7    281.8   0.000040791   0.00038  -0.01895   0.00417   0.00140
  61   35516.8    281.6   0.044735323   0.41466  -0.48550   0.37644  -0.19297
  62   35681.7    280.3   0.013103219   0.12089   0.20944  -0.11315  -0.25343
  63   35735.9    279.8   0.001080923   0.00996  -0.03018  -0.07748   0.05518
  64   35814.0    279.2   0.001808841   0.01663   0.00311  -0.12306   0.03840
  65   36043.6    277.4   0.169231810   1.54571   1.03749  -0.16111  -0.66586
  66   36476.5    274.1   0.003635757   0.03281  -0.06918   0.00378  -0.16737
  67   36526.4    273.8   0.004364624   0.03934  -0.11640   0.14370  -0.07169
  68   36657.3    272.8   0.022989277   0.20646   0.33763   0.05210  -0.29959
  69   36824.2    271.6   0.077917202   0.69659   0.68593   0.41927  -0.22427
  70   37040.9    270.0   0.060713086   0.53961   0.73074  -0.05223   0.05388
  71   37293.2    268.1   0.013666382   0.12064  -0.23973   0.17968  -0.17575
  72   37430.7    267.2   0.031214147   0.27454   0.42726  -0.21719   0.21170
  73   37602.4    265.9   0.041721042   0.36527   0.58333  -0.14419   0.06490
  74   37682.8    265.4   0.043570859   0.38065  -0.11177   0.29570  -0.52983
  75   38087.0    262.6   0.012403997   0.10722  -0.30245   0.11846  -0.04131
  76   38201.1    261.8   0.009292987   0.08009  -0.20161   0.06680  -0.18702
  77   38258.9    261.4   0.000974180   0.00838  -0.00375   0.07907  -0.04600
  78   38328.6    260.9   0.081416426   0.69930  -0.33693   0.57057  -0.51012
  79   38525.2    259.6   0.214602392   1.83386   1.05928   0.56976  -0.62221
  80   38687.2    258.5   0.042899017   0.36505   0.56207  -0.01458  -0.22118
  81   38936.9    256.8   0.016159321   0.13663   0.36282  -0.02139   0.06734
  82   39061.0    256.0   0.047813480   0.40298   0.08743  -0.40431   0.48153
  83   39088.0    255.8   0.051394099   0.43286   0.40507   0.30167  -0.42163
  84   39151.4    255.4   0.001220402   0.01026   0.04644   0.03038  -0.08475
  85   39186.9    255.2   0.002156498   0.01812  -0.10776  -0.02974   0.07497
  86   39402.5    253.8   0.021024108   0.17566   0.31033   0.15861  -0.23280
  87   39620.8    252.4   0.041375330   0.34379  -0.54239   0.21443  -0.06019
  88   39658.3    252.2   0.034918794   0.28987   0.43100  -0.22254   0.23364
  89   39734.9    251.7   0.006326705   0.05242  -0.19687   0.11248   0.03172
  90   39821.0    251.1   0.007820526   0.06465   0.21457  -0.12816  -0.04679
  91   39828.8    251.1   0.000261908   0.00216   0.01045  -0.01129   0.04391
  92   39956.6    250.3   0.001345548   0.01109  -0.07416   0.03792  -0.06441
  93   40046.9    249.7   0.014138256   0.11623   0.19665  -0.18566   0.20758
  94   40175.0    248.9   0.000560654   0.00459  -0.04088   0.02572   0.04755
  95   40202.4    248.7   0.014701648   0.12039  -0.04746   0.07590  -0.33523

FINAL SINGLE POINT ENERGY     -4544.261096535609

DIPOLE MOMENT
-------------
                                X             Y             Z
Electronic contribution:     13.81369      -8.48256       4.19895
Nuclear contribution   :    -13.31983       6.34739      -1.55886
                        -----------------------------------------
Total Dipole Moment    :      0.49385      -2.13517       2.64009
                        -----------------------------------------
Magnitude (a.u.)       :      3.43117
Magnitude (Debye)      :      8.72134

Rotational constants in cm-1:     0.000638     0.000393     0.000252
Rotational constants in MHz :    19.139519    11.795929     7.553475

                             ****ORCA TERMINATED NORMALLY****
TOTAL RUN TIME: 0 days 0 hours 13 minutes 28 seconds 337 msec
