                         Program Version 4.2.0 -  RELEASE  -
|  1> # ORCA input file
|  2> # SCF done       -177.691604219163          0.000331638812
|  3> ! CAM-B3LYP def2-SVP def2/J RIJCOSX Grid4 TightSCF
|  4> %maxcore 5000
|  5> %tddft
|  6>     Mode sTDDFT
|  7>     Ethresh 5.0
|  8>     maxcore 5000
|  9> end
| 10>
| 11> %pal
| 12>   nprocs 6
| 13>   end
| 14> * xyz 0 1
| 15>    C        6.32097         0.57485         8.60497
| 16>    N        5.46166        -0.12280         9.28057
| 17>    C        4.27681         0.00956         8.60324
| 18>    C        4.44562         0.85890         7.42077
| 19>    C        3.17585         0.99873         6.70216
| 20>    O        2.94069         1.62300         5.68879
| 21>    C        2.24864         0.18773         7.52297
| 22>    C        2.97276        -0.39643         8.67557
| 23>    N        2.12951        -1.14308         9.43836
| 24>    C        0.96821        -1.05854         8.84723
| 25>    C        0.97014        -0.24107         7.64285
| 26>    C        5.77216         1.23410         7.41125
| 27>    C        6.51566         2.04937         6.52419
| 28>    C        5.96820         2.64183         5.43032
| 29>    C        6.66363         3.47181         4.52616
| 30>    C        6.13128         4.09911         3.40851
| 31>    C        7.07588         4.86233         2.73019
| 32>    C        8.34990         4.82037         3.33268
| 33>    S        8.37875         3.84225         4.72698
| 34>    C        9.23374         5.63498         2.58294
| 35>    C        8.52296         6.19086         1.50762
| 36>    C        7.14553         5.72762         1.56335
| 37>    C        6.13535         6.05771         0.70842
| 38>    C        4.82358         5.55758         0.85004
| 39>    N        3.75353         5.15956         0.95303
| 40>    C        6.33895         6.93785        -0.37505
| 41>    N        6.50719         7.66166        -1.24874
| 42>    C        9.30509         7.02012         0.70214
| 43>    C       10.60750         7.11207         1.15748
| 44>    S       10.86737         6.13874         2.59975
| 45>    C       11.69355         7.86695         0.62886
| 46>    S       13.31330         7.49983         1.15058
| 47>    C       13.96616         8.75275         0.15729
| 48>    C       12.97671         9.41754        -0.53269
| 49>    C       11.68438         8.91447        -0.27676
| 50>    C       10.46777         9.48096        -0.93835
| 51>    C       10.76012        10.82228        -1.60692
| 52>    C       12.04388        10.72615        -2.43631
| 53>    C       12.23825        11.98509        -3.23571
| 54>    O       12.36368        12.04480        -4.42433
| 55>    C       13.22936        10.54772        -1.48090
| 56>    C       15.38580         9.00051         0.12166
| 57>    C       16.02638        10.20607         0.00503
| 58>    O       17.35920        10.04561         0.00608
| 59>    C       17.60493         8.73993         0.13341
| 60>    C       16.43961         8.02643         0.22089
| 61>    C       16.29421         6.55926         0.23164
| 62>    O       15.37803         5.99290        -0.33655
| 63>    C       17.34539         5.82798         0.92208
| 64>    C       18.25144         6.24310         1.87328
| 65>    C       19.09987         5.22580         2.30580
| 66>    C       18.84972         4.01443         1.68668
| 67>    S       17.52300         4.13763         0.57920
| 68>    C       19.56064         2.79349         1.86797
| 69>    C       20.68228         2.58645         2.64773
| 70>    C       21.13674         1.26818         2.56945
| 71>    C       20.35221         0.46989         1.72695
| 72>    S       19.05870         1.33475         1.03045
| 73>    C       20.90341        -0.84542         1.71208
| 74>    C       22.03013        -0.86723         2.54127
| 75>    C       22.21939         0.45558         3.10928
| 76>    C       23.20330         0.86179         3.96244
| 77>    C       23.27774         2.18647         4.44138
| 78>    N       23.33919         3.26347         4.83060
| 79>    C       24.21220        -0.01142         4.42060
| 80>    N       25.03578        -0.71555         4.79550
| 81>    C       22.64322        -2.13411         2.58218
| 82>    C       21.98083        -3.02937         1.79826
| 83>    S       20.60043        -2.36228         0.99205
| 84>    H        7.34721         0.64159         8.92544
| 85>    H        0.11141        -1.56757         9.25378
| 86>    H        0.11897        -0.04985         7.01957
| 87>    H        7.56504         2.19458         6.75128
| 88>    H        4.91787         2.48652         5.21488
| 89>    H        5.09974         3.98995         3.12607
| 90>    H        8.94709         7.50159        -0.18570
| 91>    H        9.66793         9.60708        -0.20501
| 92>    H       10.11562         8.77459        -1.69671
| 93>    H       10.88114        11.59806        -0.84764
| 94>    H        9.91737        11.09737        -2.24272
| 95>    H       11.98385         9.87464        -3.12003
| 96>    H       12.26128        12.90112        -2.60933
| 97>    H       13.36518        11.47410        -0.91238
| 98>    H       14.14955        10.36324        -2.03982
| 99>    H       15.65549        11.20842        -0.05787
|100>    H       18.62911         8.42396         0.10489
|101>    H       18.28035         7.24510         2.26095
|102>    H       19.86938         5.36400         3.04279
|103>    H       21.14354         3.35873         3.23426
|104>    H       23.52071        -2.37499         3.15380
|105>    H       22.21802        -4.06179         1.63663
|106> *
|107>
|108>                          ****END OF INPUT****

CARTESIAN COORDINATES (ANGSTROEM)
---------------------------------
  C      6.320970    0.574850    8.604970
  N      5.461660   -0.122800    9.280570
  C      4.276810    0.009560    8.603240
  C      4.445620    0.858900    7.420770
  C      3.175850    0.998730    6.702160
  O      2.940690    1.623000    5.688790
  C      2.248640    0.187730    7.522970
  C      2.972760   -0.396430    8.675570
  N      2.129510   -1.143080    9.438360
  C      0.968210   -1.058540    8.847230
  C      0.970140   -0.241070    7.642850
  C      5.772160    1.234100    7.411250
  C      6.515660    2.049370    6.524190
  C      5.968200    2.641830    5.430320
  C      6.663630    3.471810    4.526160
  C      6.131280    4.099110    3.408510
  C      7.075880    4.862330    2.730190
  C      8.349900    4.820370    3.332680
  S      8.378750    3.842250    4.726980
  C      9.233740    5.634980    2.582940
  C      8.522960    6.190860    1.507620
  C      7.145530    5.727620    1.563350
  C      6.135350    6.057710    0.708420
  C      4.823580    5.557580    0.850040
  N      3.753530    5.159560    0.953030
  C      6.338950    6.937850   -0.375050
  N      6.507190    7.661660   -1.248740
  C      9.305090    7.020120    0.702140
  C     10.607500    7.112070    1.157480
  S     10.867370    6.138740    2.599750
  C     11.693550    7.866950    0.628860
  S     13.313300    7.499830    1.150580
  C     13.966160    8.752750    0.157290
  C     12.976710    9.417540   -0.532690
  C     11.684380    8.914470   -0.276760
  C     10.467770    9.480960   -0.938350
  C     10.760120   10.822280   -1.606920
  C     12.043880   10.726150   -2.436310
  C     12.238250   11.985090   -3.235710
  O     12.363680   12.044800   -4.424330
  C     13.229360   10.547720   -1.480900
  C     15.385800    9.000510    0.121660
  C     16.026380   10.206070    0.005030
  O     17.359200   10.045610    0.006080
  C     17.604930    8.739930    0.133410
  C     16.439610    8.026430    0.220890
  C     16.294210    6.559260    0.231640
  O     15.378030    5.992900   -0.336550
  C     17.345390    5.827980    0.922080
  C     18.251440    6.243100    1.873280
  C     19.099870    5.225800    2.305800
  C     18.849720    4.014430    1.686680
  S     17.523000    4.137630    0.579200
  C     19.560640    2.793490    1.867970
  C     20.682280    2.586450    2.647730
  C     21.136740    1.268180    2.569450
  C     20.352210    0.469890    1.726950
  S     19.058700    1.334750    1.030450
  C     20.903410   -0.845420    1.712080
  C     22.030130   -0.867230    2.541270
  C     22.219390    0.455580    3.109280
  C     23.203300    0.861790    3.962440
  C     23.277740    2.186470    4.441380
  N     23.339190    3.263470    4.830600
  C     24.212200   -0.011420    4.420600
  N     25.035780   -0.715550    4.795500
  C     22.643220   -2.134110    2.582180
  C     21.980830   -3.029370    1.798260
  S     20.600430   -2.362280    0.992050
  H      7.347210    0.641590    8.925440
  H      0.111410   -1.567570    9.253780
  H      0.118970   -0.049850    7.019570
  H      7.565040    2.194580    6.751280
  H      4.917870    2.486520    5.214880
  H      5.099740    3.989950    3.126070
  H      8.947090    7.501590   -0.185700
  H      9.667930    9.607080   -0.205010
  H     10.115620    8.774590   -1.696710
  H     10.881140   11.598060   -0.847640
  H      9.917370   11.097370   -2.242720
  H     11.983850    9.874640   -3.120030
  H     12.261280   12.901120   -2.609330
  H     13.365180   11.474100   -0.912380
  H     14.149550   10.363240   -2.039820
  H     15.655490   11.208420   -0.057870
  H     18.629110    8.423960    0.104890
  H     18.280350    7.245100    2.260950
  H     19.869380    5.364000    3.042790
  H     21.143540    3.358730    3.234260
  H     23.520710   -2.374990    3.153800
  H     22.218020   -4.061790    1.636630

 Total Charge           Charge          ....    0
 Multiplicity           Mult            ....    1
 Number of Electrons    NEL             ....  510
 Basis Dimension        Dim             .... 1100

ORBITAL ENERGIES
----------------

  NO   OCC          E(Eh)            E(eV)
   0   2.0000     -88.994788     -2421.6713
   1   2.0000     -88.990968     -2421.5673
   2   2.0000     -88.986797     -2421.4538
   3   2.0000     -88.986169     -2421.4368
   4   2.0000     -88.974015     -2421.1060
   5   2.0000     -88.957737     -2420.6631
   6   2.0000     -19.311709      -525.4983
   7   2.0000     -19.214774      -522.8606
   8   2.0000     -19.212245      -522.7918
   9   2.0000     -19.208907      -522.7009
  10   2.0000     -14.433490      -392.7552
  11   2.0000     -14.431929      -392.7127
  12   2.0000     -14.429928      -392.6583
  13   2.0000     -14.427528      -392.5930
  14   2.0000     -14.415056      -392.2536
  15   2.0000     -14.407484      -392.0476
  16   2.0000     -10.373223      -282.2697
  17   2.0000     -10.371133      -282.2129
  18   2.0000     -10.366597      -282.0894
  19   2.0000     -10.362924      -281.9895
  20   2.0000     -10.354761      -281.7674
  21   2.0000     -10.354427      -281.7583
  22   2.0000     -10.350134      -281.6415
  23   2.0000     -10.347560      -281.5714
  24   2.0000     -10.338908      -281.3360
  25   2.0000     -10.335929      -281.2549
  26   2.0000     -10.334825      -281.2249
  27   2.0000     -10.334557      -281.2176
  28   2.0000     -10.334144      -281.2064
  29   2.0000     -10.332893      -281.1723
  30   2.0000     -10.332279      -281.1556
  31   2.0000     -10.332094      -281.1506
  32   2.0000     -10.331203      -281.1263
  33   2.0000     -10.330583      -281.1095
  34   2.0000     -10.330192      -281.0988
  35   2.0000     -10.327563      -281.0273
  36   2.0000     -10.327562      -281.0272
  37   2.0000     -10.326900      -281.0092
  38   2.0000     -10.326883      -281.0088
  39   2.0000     -10.324838      -280.9531
  40   2.0000     -10.317313      -280.7484
  41   2.0000     -10.315085      -280.6877
  42   2.0000     -10.309125      -280.5256
  43   2.0000     -10.308446      -280.5071
  44   2.0000     -10.306517      -280.4546
  45   2.0000     -10.306318      -280.4492
  46   2.0000     -10.305705      -280.4325
  47   2.0000     -10.303861      -280.3823
  48   2.0000     -10.302996      -280.3588
  49   2.0000     -10.301434      -280.3163
  50   2.0000     -10.300836      -280.3000
  51   2.0000     -10.300712      -280.2966
  52   2.0000     -10.299725      -280.2698
  53   2.0000     -10.299491      -280.2634
  54   2.0000     -10.299177      -280.2549
  55   2.0000     -10.295588      -280.1572
  56   2.0000     -10.295167      -280.1457
  57   2.0000     -10.292690      -280.0783
  58   2.0000     -10.291052      -280.0338
  59   2.0000     -10.290965      -280.0314
  60   2.0000     -10.289469      -279.9907
  61   2.0000     -10.288201      -279.9562
  62   2.0000     -10.287073      -279.9255
  63   2.0000     -10.284396      -279.8527
  64   2.0000     -10.282691      -279.8062
  65   2.0000     -10.282481      -279.8005
  66   2.0000     -10.280896      -279.7574
  67   2.0000     -10.280567      -279.7485
  68   2.0000     -10.279600      -279.7221
  69   2.0000      -8.089577      -220.1286
  70   2.0000      -8.086033      -220.0321
  71   2.0000      -8.081413      -219.9064
  72   2.0000      -8.080918      -219.8930
  73   2.0000      -8.069427      -219.5803
  74   2.0000      -8.053249      -219.1401
  75   2.0000      -6.058831      -164.8692
  76   2.0000      -6.055280      -164.7725
  77   2.0000      -6.054608      -164.7543
  78   2.0000      -6.051936      -164.6815
  79   2.0000      -6.050833      -164.6515
  80   2.0000      -6.050556      -164.6440
  81   2.0000      -6.050240      -164.6354
  82   2.0000      -6.048641      -164.5919
  83   2.0000      -6.046486      -164.5332
  84   2.0000      -6.045959      -164.5189
  85   2.0000      -6.043892      -164.4627
  86   2.0000      -6.043194      -164.4437
  87   2.0000      -6.038699      -164.3214
  88   2.0000      -6.034412      -164.2047
  89   2.0000      -6.031713      -164.1312
  90   2.0000      -6.022547      -163.8818
  91   2.0000      -6.018467      -163.7708
  92   2.0000      -6.015239      -163.6830
  93   2.0000      -1.232562       -33.5397
  94   2.0000      -1.129511       -30.7355
  95   2.0000      -1.128282       -30.7021
  96   2.0000      -1.125931       -30.6381
  97   2.0000      -1.077788       -29.3281
  98   2.0000      -1.059938       -28.8424
  99   2.0000      -1.046940       -28.4887
 100   2.0000      -1.042277       -28.3618
 101   2.0000      -1.024689       -27.8832
 102   2.0000      -1.020465       -27.7683
 103   2.0000      -1.010678       -27.5019
 104   2.0000      -1.008471       -27.4419
 105   2.0000      -1.006460       -27.3872
 106   2.0000      -1.003551       -27.3080
 107   2.0000      -0.990240       -26.9458
 108   2.0000      -0.988169       -26.8894
 109   2.0000      -0.958919       -26.0935
 110   2.0000      -0.957369       -26.0513
 111   2.0000      -0.935689       -25.4614
 112   2.0000      -0.934971       -25.4419
 113   2.0000      -0.927274       -25.2324
 114   2.0000      -0.920754       -25.0550
 115   2.0000      -0.913633       -24.8612
 116   2.0000      -0.901834       -24.5402
 117   2.0000      -0.884234       -24.0612
 118   2.0000      -0.873779       -23.7767
 119   2.0000      -0.868512       -23.6334
 120   2.0000      -0.861524       -23.4433
 121   2.0000      -0.861019       -23.4295
 122   2.0000      -0.857822       -23.3425
 123   2.0000      -0.855350       -23.2753
 124   2.0000      -0.850981       -23.1564
 125   2.0000      -0.846017       -23.0213
 126   2.0000      -0.845908       -23.0183
 127   2.0000      -0.839613       -22.8470
 128   2.0000      -0.818311       -22.2674
 129   2.0000      -0.800105       -21.7720
 130   2.0000      -0.786959       -21.4142
 131   2.0000      -0.779433       -21.2094
 132   2.0000      -0.775136       -21.0925
 133   2.0000      -0.771426       -20.9916
 134   2.0000      -0.759895       -20.6778
 135   2.0000      -0.753615       -20.5069
 136   2.0000      -0.740422       -20.1479
 137   2.0000      -0.731944       -19.9172
 138   2.0000      -0.715397       -19.4669
 139   2.0000      -0.712909       -19.3992
 140   2.0000      -0.706308       -19.2196
 141   2.0000      -0.705079       -19.1862
 142   2.0000      -0.701540       -19.0899
 143   2.0000      -0.692619       -18.8471
 144   2.0000      -0.686173       -18.6717
 145   2.0000      -0.679721       -18.4962
 146   2.0000      -0.677475       -18.4350
 147   2.0000      -0.673216       -18.3191
 148   2.0000      -0.661413       -17.9980
 149   2.0000      -0.657945       -17.9036
 150   2.0000      -0.655294       -17.8315
 151   2.0000      -0.645921       -17.5764
 152   2.0000      -0.634447       -17.2642
 153   2.0000      -0.634128       -17.2555
 154   2.0000      -0.632435       -17.2094
 155   2.0000      -0.629228       -17.1222
 156   2.0000      -0.626398       -17.0451
 157   2.0000      -0.619029       -16.8446
 158   2.0000      -0.618834       -16.8393
 159   2.0000      -0.613483       -16.6937
 160   2.0000      -0.607775       -16.5384
 161   2.0000      -0.601189       -16.3592
 162   2.0000      -0.597116       -16.2483
 163   2.0000      -0.582950       -15.8629
 164   2.0000      -0.575660       -15.6645
 165   2.0000      -0.570939       -15.5360
 166   2.0000      -0.568776       -15.4772
 167   2.0000      -0.567493       -15.4423
 168   2.0000      -0.556487       -15.1428
 169   2.0000      -0.550582       -14.9821
 170   2.0000      -0.549181       -14.9440
 171   2.0000      -0.545076       -14.8323
 172   2.0000      -0.544220       -14.8090
 173   2.0000      -0.543258       -14.7828
 174   2.0000      -0.542420       -14.7600
 175   2.0000      -0.540357       -14.7039
 176   2.0000      -0.536911       -14.6101
 177   2.0000      -0.535360       -14.5679
 178   2.0000      -0.530064       -14.4238
 179   2.0000      -0.527833       -14.3631
 180   2.0000      -0.521725       -14.1969
 181   2.0000      -0.519164       -14.1272
 182   2.0000      -0.516725       -14.0608
 183   2.0000      -0.513384       -13.9699
 184   2.0000      -0.512927       -13.9575
 185   2.0000      -0.511173       -13.9097
 186   2.0000      -0.507758       -13.8168
 187   2.0000      -0.506645       -13.7865
 188   2.0000      -0.503749       -13.7077
 189   2.0000      -0.503252       -13.6942
 190   2.0000      -0.500938       -13.6312
 191   2.0000      -0.500148       -13.6097
 192   2.0000      -0.496300       -13.5050
 193   2.0000      -0.494781       -13.4637
 194   2.0000      -0.492860       -13.4114
 195   2.0000      -0.490354       -13.3432
 196   2.0000      -0.486293       -13.2327
 197   2.0000      -0.484743       -13.1905
 198   2.0000      -0.481717       -13.1082
 199   2.0000      -0.480130       -13.0650
 200   2.0000      -0.476824       -12.9751
 201   2.0000      -0.473744       -12.8912
 202   2.0000      -0.473160       -12.8753
 203   2.0000      -0.471452       -12.8289
 204   2.0000      -0.468726       -12.7547
 205   2.0000      -0.466895       -12.7049
 206   2.0000      -0.465523       -12.6675
 207   2.0000      -0.464312       -12.6346
 208   2.0000      -0.461841       -12.5673
 209   2.0000      -0.461098       -12.5471
 210   2.0000      -0.460458       -12.5297
 211   2.0000      -0.459894       -12.5144
 212   2.0000      -0.457162       -12.4400
 213   2.0000      -0.455511       -12.3951
 214   2.0000      -0.451427       -12.2839
 215   2.0000      -0.447137       -12.1672
 216   2.0000      -0.444800       -12.1036
 217   2.0000      -0.442961       -12.0536
 218   2.0000      -0.442658       -12.0453
 219   2.0000      -0.441224       -12.0063
 220   2.0000      -0.439057       -11.9474
 221   2.0000      -0.437674       -11.9097
 222   2.0000      -0.433045       -11.7837
 223   2.0000      -0.432187       -11.7604
 224   2.0000      -0.428539       -11.6611
 225   2.0000      -0.427316       -11.6278
 226   2.0000      -0.426653       -11.6098
 227   2.0000      -0.423998       -11.5376
 228   2.0000      -0.421277       -11.4635
 229   2.0000      -0.414908       -11.2902
 230   2.0000      -0.409779       -11.1507
 231   2.0000      -0.401191       -10.9170
 232   2.0000      -0.400166       -10.8891
 233   2.0000      -0.386824       -10.5260
 234   2.0000      -0.383646       -10.4395
 235   2.0000      -0.365143        -9.9360
 236   2.0000      -0.358250        -9.7485
 237   2.0000      -0.355113        -9.6631
 238   2.0000      -0.351988        -9.5781
 239   2.0000      -0.347119        -9.4456
 240   2.0000      -0.344754        -9.3812
 241   2.0000      -0.341429        -9.2908
 242   2.0000      -0.339879        -9.2486
 243   2.0000      -0.335195        -9.1211
 244   2.0000      -0.333912        -9.0862
 245   2.0000      -0.330592        -8.9959
 246   2.0000      -0.329806        -8.9745
 247   2.0000      -0.324812        -8.8386
 248   2.0000      -0.323288        -8.7971
 249   2.0000      -0.321460        -8.7474
 250   2.0000      -0.317334        -8.6351
 251   2.0000      -0.308538        -8.3957
 252   2.0000      -0.279638        -7.6093
 253   2.0000      -0.265965        -7.2373
 254   2.0000      -0.241399        -6.5688
 255   0.0000      -0.111570        -3.0360
 256   0.0000      -0.105646        -2.8748
 257   0.0000      -0.100330        -2.7301
 258   0.0000      -0.059001        -1.6055
 259   0.0000      -0.055846        -1.5197

MULLIKEN ATOMIC CHARGES
-----------------------
   0 C :    0.060935
   1 N :   -0.034034
   2 C :    0.049713
   3 C :   -0.142649
   4 C :    0.217804
   5 O :   -0.144992
   6 C :   -0.011582
   7 C :   -0.013253
   8 N :   -0.049167
   9 C :    0.089083
  10 C :   -0.098071
  11 C :    0.018664
  12 C :   -0.050727
  13 C :    0.036136
  14 C :   -0.051105
  15 C :   -0.034797
  16 C :    0.010625
  17 C :   -0.092666
  18 S :    0.172383
  19 C :   -0.098786
  20 C :    0.017397
  21 C :    0.307087
  22 C :   -0.299722
  23 C :   -0.191435
  24 N :    0.182496
  25 C :   -0.182463
  26 N :    0.160868
  27 C :   -0.067747
  28 C :   -0.065613
  29 S :    0.184686
  30 C :   -0.091902
  31 S :    0.151924
  32 C :   -0.126795
  33 C :   -0.040136
  34 C :   -0.123053
  35 C :    0.129181
  36 C :    0.045706
  37 C :   -0.115397
  38 C :    0.164247
  39 O :   -0.166004
  40 C :    0.132311
  41 C :    0.048169
  42 C :    0.059466
  43 O :   -0.162597
  44 C :    0.080568
  45 C :   -0.055783
  46 C :    0.164350
  47 O :   -0.175042
  48 C :   -0.165492
  49 C :    0.039634
  50 C :   -0.023597
  51 C :   -0.051818
  52 S :    0.176659
  53 C :   -0.033414
  54 C :   -0.045416
  55 C :    0.002807
  56 C :   -0.099067
  57 S :    0.197877
  58 C :   -0.118939
  59 C :   -0.031202
  60 C :    0.300107
  61 C :   -0.297207
  62 C :   -0.184361
  63 N :    0.167612
  64 C :   -0.190984
  65 N :    0.174710
  66 C :    0.037245
  67 C :   -0.079961
  68 S :    0.185369
  69 H :    0.005636
  70 H :    0.011470
  71 H :   -0.001240
  72 H :   -0.022385
  73 H :    0.017875
  74 H :    0.019999
  75 H :   -0.000401
  76 H :    0.025088
  77 H :    0.040709
  78 H :    0.006344
  79 H :    0.019645
  80 H :    0.016426
  81 H :   -0.020836
  82 H :    0.009523
  83 H :    0.031354
  84 H :    0.009626
  85 H :    0.023233
  86 H :   -0.000470
  87 H :   -0.005815
  88 H :    0.005054
  89 H :    0.012600
  90 H :    0.037718
Sum of atomic charges:   -0.0000000

LOEWDIN ATOMIC CHARGES
----------------------
   0 C :    0.088124
   1 N :   -0.080999
   2 C :    0.051050
   3 C :   -0.072268
   4 C :    0.070837
   5 O :   -0.142646
   6 C :   -0.036017
   7 C :    0.027381
   8 N :   -0.092018
   9 C :    0.075855
  10 C :   -0.029169
  11 C :   -0.032391
  12 C :   -0.059318
  13 C :    0.008572
  14 C :   -0.169822
  15 C :   -0.009002
  16 C :   -0.078821
  17 C :   -0.165347
  18 S :    0.470119
  19 C :   -0.192059
  20 C :   -0.062950
  21 C :    0.082975
  22 C :   -0.102072
  23 C :   -0.019557
  24 N :   -0.027462
  25 C :   -0.013368
  26 N :   -0.038136
  27 C :   -0.041111
  28 C :   -0.163345
  29 S :    0.468675
  30 C :   -0.198742
  31 S :    0.454331
  32 C :   -0.168517
  33 C :   -0.055224
  34 C :   -0.050539
  35 C :   -0.024700
  36 C :   -0.016426
  37 C :   -0.064652
  38 C :    0.114002
  39 O :   -0.118659
  40 C :   -0.017211
  41 C :   -0.067984
  42 C :    0.038249
  43 O :    0.038882
  44 C :    0.057267
  45 C :   -0.103417
  46 C :    0.045709
  47 O :   -0.162126
  48 C :   -0.219011
  49 C :   -0.029003
  50 C :   -0.061985
  51 C :   -0.171530
  52 S :    0.471787
  53 C :   -0.185958
  54 C :   -0.021401
  55 C :   -0.071418
  56 C :   -0.177613
  57 S :    0.478662
  58 C :   -0.185255
  59 C :   -0.075614
  60 C :    0.083670
  61 C :   -0.103752
  62 C :   -0.015287
  63 N :   -0.036789
  64 C :   -0.017496
  65 N :   -0.031542
  66 C :   -0.033722
  67 C :   -0.176082
  68 S :    0.481254
  69 H :    0.024916
  70 H :    0.024198
  71 H :    0.035581
  72 H :    0.019792
  73 H :    0.043586
  74 H :    0.047142
  75 H :    0.037708
  76 H :    0.036854
  77 H :    0.039047
  78 H :    0.022998
  79 H :    0.031445
  80 H :    0.034600
  81 H :   -0.011290
  82 H :    0.026497
  83 H :    0.036765
  84 H :    0.024435
  85 H :    0.028330
  86 H :    0.034743
  87 H :    0.033564
  88 H :    0.039916
  89 H :    0.042918
  90 H :    0.028385

  Mayer bond orders larger than 0.100000
B(  0-C ,  1-N ) :   1.7374 B(  0-C , 11-C ) :   1.0151 B(  0-C , 69-H ) :   0.9915
B(  1-N ,  2-C ) :   1.2566 B(  2-C ,  3-C ) :   1.0606 B(  2-C ,  7-C ) :   1.4997
B(  3-C ,  4-C ) :   0.9211 B(  3-C , 11-C ) :   1.5342 B(  4-C ,  5-O ) :   2.1793
B(  4-C ,  6-C ) :   0.9231 B(  5-O , 73-H ) :   0.1057 B(  6-C ,  7-C ) :   1.0583
B(  6-C , 10-C ) :   1.6354 B(  7-C ,  8-N ) :   1.2824 B(  8-N ,  9-C ) :   1.6906
B(  9-C , 10-C ) :   1.0463 B(  9-C , 70-H ) :   0.9885 B( 10-C , 71-H ) :   1.0106
B( 11-C , 12-C ) :   1.1477 B( 12-C , 13-C ) :   1.6005 B( 12-C , 72-H ) :   0.9662
B( 13-C , 14-C ) :   1.1812 B( 13-C , 73-H ) :   0.9502 B( 14-C , 15-C ) :   1.4231
B( 14-C , 18-S ) :   1.0690 B( 15-C , 16-C ) :   1.2797 B( 15-C , 74-H ) :   1.0073
B( 16-C , 17-C ) :   1.4225 B( 16-C , 21-C ) :   0.9938 B( 17-C , 18-S ) :   1.1404
B( 17-C , 19-C ) :   1.1958 B( 19-C , 20-C ) :   1.4450 B( 19-C , 29-S ) :   1.1083
B( 20-C , 21-C ) :   0.9980 B( 20-C , 27-C ) :   1.2679 B( 21-C , 22-C ) :   1.7107
B( 22-C , 23-C ) :   1.1299 B( 22-C , 25-C ) :   1.1381 B( 23-C , 24-N ) :   3.0007
B( 25-C , 26-N ) :   2.9785 B( 27-C , 28-C ) :   1.4739 B( 27-C , 75-H ) :   0.9908
B( 28-C , 29-S ) :   1.1084 B( 28-C , 30-C ) :   1.1119 B( 30-C , 31-S ) :   1.1282
B( 30-C , 32-C ) :   0.1241 B( 30-C , 34-C ) :   1.5539 B( 31-S , 32-C ) :   1.1421
B( 32-C , 33-C ) :   1.5731 B( 32-C , 41-C ) :   1.0120 B( 33-C , 34-C ) :   1.2983
B( 33-C , 40-C ) :   1.0555 B( 34-C , 35-C ) :   1.0558 B( 35-C , 36-C ) :   1.0887
B( 35-C , 76-H ) :   0.9096 B( 35-C , 77-H ) :   0.9001 B( 36-C , 37-C ) :   1.0140
B( 36-C , 78-H ) :   0.9336 B( 36-C , 79-H ) :   0.9370 B( 37-C , 38-C ) :   0.9317
B( 37-C , 40-C ) :   1.0307 B( 37-C , 80-H ) :   0.9244 B( 38-C , 39-O ) :   2.2261
B( 38-C , 81-H ) :   0.9342 B( 40-C , 82-H ) :   0.9017 B( 40-C , 83-H ) :   0.9067
B( 41-C , 42-C ) :   1.5269 B( 41-C , 45-C ) :   1.2505 B( 42-C , 43-O ) :   1.1434
B( 42-C , 84-H ) :   1.0076 B( 43-O , 44-C ) :   1.1865 B( 44-C , 45-C ) :   1.5146
B( 44-C , 85-H ) :   1.0034 B( 45-C , 46-C ) :   0.9294 B( 46-C , 47-O ) :   2.2159
B( 46-C , 48-C ) :   0.9792 B( 48-C , 49-C ) :   1.5059 B( 48-C , 51-C ) :   0.1175
B( 48-C , 52-S ) :   1.1185 B( 49-C , 50-C ) :   1.2759 B( 49-C , 86-H ) :   0.9906
B( 50-C , 51-C ) :   1.5071 B( 50-C , 87-H ) :   0.9993 B( 51-C , 52-S ) :   1.1515
B( 51-C , 53-C ) :   1.1061 B( 53-C , 54-C ) :   1.4963 B( 53-C , 57-S ) :   1.1030
B( 54-C , 55-C ) :   1.2864 B( 54-C , 88-H ) :   0.9945 B( 55-C , 56-C ) :   1.4587
B( 55-C , 60-C ) :   0.9951 B( 56-C , 57-S ) :   1.1343 B( 56-C , 58-C ) :   1.1792
B( 58-C , 59-C ) :   1.4590 B( 58-C , 68-S ) :   1.1379 B( 59-C , 60-C ) :   1.0154
B( 59-C , 66-C ) :   1.2782 B( 60-C , 61-C ) :   1.7101 B( 61-C , 62-C ) :   1.1324
B( 61-C , 64-C ) :   1.1297 B( 62-C , 63-N ) :   2.9886 B( 64-C , 65-N ) :   3.0028
B( 66-C , 67-C ) :   1.5473 B( 66-C , 89-H ) :   0.9968 B( 67-C , 68-S ) :   1.1524
B( 67-C , 90-H ) :   0.9644

-----------------------------------------------------------------------------
         ABSORPTION SPECTRUM VIA TRANSITION ELECTRIC DIPOLE MOMENTS
-----------------------------------------------------------------------------
State   Energy  Wavelength   fosc         T2         TX        TY        TZ
        (cm-1)    (nm)                  (au**2)     (au)      (au)      (au)
-----------------------------------------------------------------------------
   0   11422.3    875.5   0.211279601   6.08948  -1.66023  -1.32150   1.25966
   1   14799.9    675.7   0.082249560   1.82958   1.21300  -0.36028  -0.47792
   2   14883.5    671.9   0.316706671   7.00533  -1.41606  -1.75887   1.38076
   3   21588.8    463.2   0.007283656   0.11107   0.27836   0.12474  -0.13426
   4   21969.4    455.2   0.153309617   2.29735   0.98499   0.80184  -0.82716
   5   22626.6    442.0   0.000513887   0.00748  -0.01403   0.07423   0.04207
   6   23400.3    427.3   0.549921871   7.73671  -1.67739  -1.51003   1.62569
   7   25542.0    391.5   0.261921010   3.37591   1.35689   0.86211  -0.88967
   8   25838.5    387.0   0.010799905   0.13760  -0.18608   0.29394  -0.12875
   9   26789.6    373.3   0.000080506   0.00099  -0.01346   0.02119   0.01896
  10   26858.5    372.3   0.134197056   1.64489   1.11644   0.39037  -0.49605
  11   27160.4    368.2   0.081227996   0.98457  -0.77688   0.50466  -0.35544
  12   28010.0    357.0   0.002995509   0.03521   0.04764  -0.15129  -0.10024
  13   28190.6    354.7   1.181323586  13.79557   2.53518  -2.53158   0.97956
  14   28669.4    348.8   0.012130511   0.13930   0.26653   0.23394  -0.11633
  15   29015.3    344.6   0.035403253   0.40169  -0.26930  -0.52172   0.23870
  16   29587.0    338.0   0.330357314   3.67586  -1.42295  -1.11959   0.63057
  17   29874.5    334.7   0.178182450   1.96354  -0.03947   1.25439  -0.62328
  18   30153.1    331.6   0.013923321   0.15201  -0.13781   0.35766  -0.07146
  19   30527.3    327.6   0.267177967   2.88129  -1.56891  -0.63713  -0.11787
  20   30763.0    325.1   0.000127810   0.00137   0.03396   0.01164   0.00888
  21   31376.0    318.7   0.292248896   3.06642   0.03627   1.00828  -1.43125
  22   31571.9    316.7   0.412206824   4.29823   1.54381  -0.02056   1.38364
  23   31645.3    316.0   0.525633569   5.46826  -1.21020  -1.56570  -1.24590
  24   32884.4    304.1   0.000880671   0.00882   0.01737   0.07311   0.05631
  25   33594.0    297.7   0.185979372   1.82255  -1.29810  -0.36609  -0.05889
  26   33731.5    296.5   0.145273597   1.41784  -1.09879   0.06783  -0.45377
  27   33865.5    295.3   0.156938126   1.52562   0.71696  -0.91850   0.40983
  28   34539.9    289.5   0.244791157   2.33319   0.29252   0.98644  -1.12896
  29   35370.5    282.7   0.001840129   0.01713  -0.12406   0.01366  -0.03937
  30   35542.7    281.4   0.007721768   0.07152   0.01059   0.07997  -0.25498
  31   35647.6    280.5   0.106463908   0.98321  -0.88249  -0.06933  -0.44680
  32   35883.9    278.7   0.030306893   0.27805  -0.03538  -0.31941   0.41806
  33   36066.7    277.3   0.046464045   0.42412  -0.52897   0.15455  -0.34702
  34   36257.1    275.8   0.006523206   0.05923   0.06139  -0.03821  -0.23238
  35   36402.6    274.7   0.001203935   0.01089   0.01400   0.00762  -0.10312
  36   36619.7    273.1   0.000003399   0.00003   0.00299   0.00410   0.00219
  37   36991.2    270.3   0.003800223   0.03382   0.08842   0.15615  -0.04024
  38   37460.9    266.9   0.042173763   0.37063   0.00057  -0.38169   0.47428
  39   37930.9    263.6   0.013203563   0.11460  -0.08038   0.29473   0.14584
  40   38569.6    259.3   0.002224831   0.01899   0.04355  -0.11854   0.05515
  41   38669.6    258.6   0.019537033   0.16633  -0.30783   0.17246  -0.20451
  42   38910.7    257.0   0.017113953   0.14480   0.31765   0.20280  -0.05261
  43   39050.5    256.1   0.009716591   0.08191   0.19990   0.20397  -0.01874
  44   39390.9    253.9   0.079121675   0.66126  -0.78892  -0.08393  -0.17841
  45   39441.2    253.5   0.009599840   0.08013  -0.26884  -0.02045  -0.08623
  46   39692.4    251.9   0.005274963   0.04375   0.12535  -0.16054  -0.04760
  47   39909.7    250.6   0.023212407   0.19148  -0.05400   0.42622   0.08308
  48   39984.3    250.1   0.013989112   0.11518   0.21076   0.09158  -0.24975
  49   40109.8    249.3   0.052490206   0.43083   0.64666  -0.03333   0.10748

FINAL SINGLE POINT ENERGY     -5047.137735610112

DIPOLE MOMENT
-------------
                                X             Y             Z
Electronic contribution:     16.85517     -35.04976      13.56030
Nuclear contribution   :    -15.03967      34.85665     -13.24817
                        -----------------------------------------
Total Dipole Moment    :      1.81551      -0.19311       0.31213
                        -----------------------------------------
Magnitude (a.u.)       :      1.85224
Magnitude (Debye)      :      4.70802

Rotational constants in cm-1:     0.000727     0.000346     0.000247
Rotational constants in MHz :    21.807537    10.373526     7.410574

                             ****ORCA TERMINATED NORMALLY****
TOTAL RUN TIME: 0 days 0 hours 8 minutes 6 seconds 790 msec
