                         Program Version 4.2.0 -  RELEASE  -
|  1> # ORCA input file
|  2> # SCF done       -185.200555799347          0.000449882775
|  3> ! CAM-B3LYP def2-SVP def2/J RIJCOSX Grid4 TightSCF
|  4> %maxcore 5000
|  5> %tddft
|  6>     Mode sTDDFT
|  7>     Ethresh 5.0
|  8>     maxcore 5000
|  9> end
| 10>
| 11> %pal
| 12>   nprocs 6
| 13>   end
| 14> * xyz 0 1
| 15>    C        6.05781        -1.19306         1.90347
| 16>    N        5.80411        -2.44407         1.67124
| 17>    C        5.38139        -2.49357         0.36649
| 18>    C        5.38591        -1.15998        -0.22672
| 19>    C        4.93236        -1.20756        -1.62041
| 20>    O        4.81211        -0.29934        -2.41363
| 21>    C        4.65638        -2.65173        -1.81519
| 22>    C        4.94793        -3.39519        -0.56950
| 23>    N        4.69587        -4.72073        -0.73454
| 24>    C        4.27841        -4.83796        -1.96787
| 25>    C        4.22862        -3.58355        -2.70076
| 26>    C        5.82189        -0.30012         0.76010
| 27>    C        5.99397         1.10195         0.69190
| 28>    C        6.42238         1.88607         1.71658
| 29>    C        6.57822         3.28907         1.64276
| 30>    N        7.01026         4.01672         2.73603
| 31>    C        7.05681         5.32983         2.39397
| 32>    C        7.34606         6.60392         2.86330
| 33>    C        7.10475         7.47689         1.79066
| 34>    N        6.68271         6.74814         0.69675
| 35>    C        6.64238         5.43443         1.03706
| 36>    C        6.34489         4.16343         0.56847
| 37>    C        7.21554         8.88518         1.71136
| 38>    C        7.61023         9.70262         2.72252
| 39>    C        7.68204        11.11316         2.62445
| 40>    C        7.37838        11.93320         1.54748
| 41>    C        7.55005        13.28144         1.84325
| 42>    C        7.99352        13.50953         3.15948
| 43>    S        8.19761        12.04910         4.02530
| 44>    C        8.11690        14.90521         3.35390
| 45>    C        7.74975        15.56220         2.16587
| 46>    C        7.38519        14.56351         1.17651
| 47>    C        6.96920        14.78015        -0.10518
| 48>    C        6.64332        13.71771        -0.97282
| 49>    N        6.37824        12.84946        -1.67387
| 50>    C        6.83479        16.07748        -0.64114
| 51>    N        6.71870        17.13179        -1.07735
| 52>    C        7.82532        16.95085         2.25871
| 53>    C        8.24833        17.36937         3.50709
| 54>    S        8.56078        16.00786         4.58369
| 55>    C        8.42096        18.70718         3.94437
| 56>    N        8.88395        19.02811         5.20136
| 57>    C        8.92974        20.38466         5.30850
| 58>    C        9.25997        21.43578         6.14875
| 59>    C        8.98534        22.61219         5.42628
| 60>    N        8.48816        22.27765         4.18231
| 61>    C        8.47027        20.92838         4.07684
| 62>    C        8.15499        19.87713         3.22306
| 63>    C        9.18500        23.93996         5.84721
| 64>    C        8.70426        25.05309         5.21478
| 65>    C        8.93074        26.37897         5.62632
| 66>    C        9.93914        26.90391         6.39528
| 67>    C        9.72039        28.21640         7.05032
| 68>    O        8.80030        28.98113         6.85894
| 69>    C       10.83104        28.36651         8.01448
| 70>    C       11.03897        29.34570         8.94108
| 71>    C       12.17120        29.26450         9.78343
| 72>    C       13.06307        28.16173         9.64939
| 73>    C       14.18633        28.08247        10.49640
| 74>    C       14.41520        29.05381        11.43016
| 75>    C       13.53347        30.14440        11.56080
| 76>    C       12.43434        30.24910        10.75514
| 77>    F       13.78142        31.08242        12.48681
| 78>    F       15.48535        28.97615        12.23430
| 79>    C       12.82369        27.16555         8.67420
| 80>    C       11.72669        27.27091         7.86279
| 81>    C       11.24773        26.42837         6.76551
| 82>    C       12.03244        25.53070         6.07984
| 83>    C       11.65058        24.90357         4.88030
| 84>    N       11.40207        24.38738         3.88446
| 85>    C       13.34448        25.18535         6.45560
| 86>    N       14.40876        24.84876         6.72686
| 87>    H        6.41058        -0.89047         2.87449
| 88>    H        4.00640        -5.80226        -2.36116
| 89>    H        3.91458        -3.47059        -3.71975
| 90>    H        5.75314         1.55082        -0.26125
| 91>    H        6.66337         1.43052         2.66868
| 92>    H        7.24311         3.61840         3.62944
| 93>    H        7.68259         6.88796         3.83932
| 94>    H        6.44560         7.14582        -0.19599
| 95>    H        6.00420         3.88055        -0.40617
| 96>    H        6.94974         9.32199         0.75811
| 97>    H        7.88336         9.27471         3.67610
| 98>    H        7.04508        11.55963         0.59758
| 99>    H        7.58821        17.63211         1.46364
|100>    H        9.14919        18.35613         5.90107
|101>    H        9.63944        21.39859         7.15015
|102>    H        8.33710        22.93696         3.43882
|103>    H        7.78446        19.92541         2.22022
|104>    H        9.72666        24.05916         6.77608
|105>    H        8.01887        24.92818         4.38713
|106>    H        8.17079        27.10414         5.34931
|107>    H       10.35038        30.17199         9.03105
|108>    H       14.87390        27.25601        10.40643
|109>    H       11.76875        31.09058        10.86756
|110>    H       13.51276        26.33951         8.60000
|111> *
|112>
|113>                          ****END OF INPUT****

CARTESIAN COORDINATES (ANGSTROEM)
---------------------------------
  C      6.057810   -1.193060    1.903470
  N      5.804110   -2.444070    1.671240
  C      5.381390   -2.493570    0.366490
  C      5.385910   -1.159980   -0.226720
  C      4.932360   -1.207560   -1.620410
  O      4.812110   -0.299340   -2.413630
  C      4.656380   -2.651730   -1.815190
  C      4.947930   -3.395190   -0.569500
  N      4.695870   -4.720730   -0.734540
  C      4.278410   -4.837960   -1.967870
  C      4.228620   -3.583550   -2.700760
  C      5.821890   -0.300120    0.760100
  C      5.993970    1.101950    0.691900
  C      6.422380    1.886070    1.716580
  C      6.578220    3.289070    1.642760
  N      7.010260    4.016720    2.736030
  C      7.056810    5.329830    2.393970
  C      7.346060    6.603920    2.863300
  C      7.104750    7.476890    1.790660
  N      6.682710    6.748140    0.696750
  C      6.642380    5.434430    1.037060
  C      6.344890    4.163430    0.568470
  C      7.215540    8.885180    1.711360
  C      7.610230    9.702620    2.722520
  C      7.682040   11.113160    2.624450
  C      7.378380   11.933200    1.547480
  C      7.550050   13.281440    1.843250
  C      7.993520   13.509530    3.159480
  S      8.197610   12.049100    4.025300
  C      8.116900   14.905210    3.353900
  C      7.749750   15.562200    2.165870
  C      7.385190   14.563510    1.176510
  C      6.969200   14.780150   -0.105180
  C      6.643320   13.717710   -0.972820
  N      6.378240   12.849460   -1.673870
  C      6.834790   16.077480   -0.641140
  N      6.718700   17.131790   -1.077350
  C      7.825320   16.950850    2.258710
  C      8.248330   17.369370    3.507090
  S      8.560780   16.007860    4.583690
  C      8.420960   18.707180    3.944370
  N      8.883950   19.028110    5.201360
  C      8.929740   20.384660    5.308500
  C      9.259970   21.435780    6.148750
  C      8.985340   22.612190    5.426280
  N      8.488160   22.277650    4.182310
  C      8.470270   20.928380    4.076840
  C      8.154990   19.877130    3.223060
  C      9.185000   23.939960    5.847210
  C      8.704260   25.053090    5.214780
  C      8.930740   26.378970    5.626320
  C      9.939140   26.903910    6.395280
  C      9.720390   28.216400    7.050320
  O      8.800300   28.981130    6.858940
  C     10.831040   28.366510    8.014480
  C     11.038970   29.345700    8.941080
  C     12.171200   29.264500    9.783430
  C     13.063070   28.161730    9.649390
  C     14.186330   28.082470   10.496400
  C     14.415200   29.053810   11.430160
  C     13.533470   30.144400   11.560800
  C     12.434340   30.249100   10.755140
  F     13.781420   31.082420   12.486810
  F     15.485350   28.976150   12.234300
  C     12.823690   27.165550    8.674200
  C     11.726690   27.270910    7.862790
  C     11.247730   26.428370    6.765510
  C     12.032440   25.530700    6.079840
  C     11.650580   24.903570    4.880300
  N     11.402070   24.387380    3.884460
  C     13.344480   25.185350    6.455600
  N     14.408760   24.848760    6.726860
  H      6.410580   -0.890470    2.874490
  H      4.006400   -5.802260   -2.361160
  H      3.914580   -3.470590   -3.719750
  H      5.753140    1.550820   -0.261250
  H      6.663370    1.430520    2.668680
  H      7.243110    3.618400    3.629440
  H      7.682590    6.887960    3.839320
  H      6.445600    7.145820   -0.195990
  H      6.004200    3.880550   -0.406170
  H      6.949740    9.321990    0.758110
  H      7.883360    9.274710    3.676100
  H      7.045080   11.559630    0.597580
  H      7.588210   17.632110    1.463640
  H      9.149190   18.356130    5.901070
  H      9.639440   21.398590    7.150150
  H      8.337100   22.936960    3.438820
  H      7.784460   19.925410    2.220220
  H      9.726660   24.059160    6.776080
  H      8.018870   24.928180    4.387130
  H      8.170790   27.104140    5.349310
  H     10.350380   30.171990    9.031050
  H     14.873900   27.256010   10.406430
  H     11.768750   31.090580   10.867560
  H     13.512760   26.339510    8.600000

 Total Charge           Charge          ....    0
 Multiplicity           Mult            ....    1
 Number of Electrons    NEL             ....  496
 Basis Dimension        Dim             .... 1136

ORBITAL ENERGIES
----------------

  NO   OCC          E(Eh)            E(eV)
   0   2.0000     -88.994545     -2421.6647
   1   2.0000     -88.987615     -2421.4761
   2   2.0000     -24.792385      -674.6351
   3   2.0000     -24.791705      -674.6166
   4   2.0000     -19.203248      -522.5469
   5   2.0000     -19.202453      -522.5253
   6   2.0000     -14.476758      -393.9326
   7   2.0000     -14.467711      -393.6864
   8   2.0000     -14.466869      -393.6635
   9   2.0000     -14.466056      -393.6414
  10   2.0000     -14.433629      -392.7590
  11   2.0000     -14.432952      -392.7406
  12   2.0000     -14.412359      -392.1802
  13   2.0000     -14.407809      -392.0564
  14   2.0000     -14.406420      -392.0186
  15   2.0000     -14.401712      -391.8905
  16   2.0000     -10.374716      -282.3104
  17   2.0000     -10.374239      -282.2974
  18   2.0000     -10.366498      -282.0867
  19   2.0000     -10.362667      -281.9825
  20   2.0000     -10.354750      -281.7671
  21   2.0000     -10.353601      -281.7358
  22   2.0000     -10.334728      -281.2222
  23   2.0000     -10.334338      -281.2116
  24   2.0000     -10.334286      -281.2102
  25   2.0000     -10.333417      -281.1866
  26   2.0000     -10.333146      -281.1792
  27   2.0000     -10.332592      -281.1641
  28   2.0000     -10.329917      -281.0913
  29   2.0000     -10.328939      -281.0647
  30   2.0000     -10.328818      -281.0614
  31   2.0000     -10.326803      -281.0066
  32   2.0000     -10.322766      -280.8967
  33   2.0000     -10.320722      -280.8411
  34   2.0000     -10.318332      -280.7761
  35   2.0000     -10.316351      -280.7222
  36   2.0000     -10.315923      -280.7105
  37   2.0000     -10.313739      -280.6511
  38   2.0000     -10.312731      -280.6237
  39   2.0000     -10.310508      -280.5632
  40   2.0000     -10.310309      -280.5578
  41   2.0000     -10.308958      -280.5210
  42   2.0000     -10.306017      -280.4410
  43   2.0000     -10.305846      -280.4363
  44   2.0000     -10.303701      -280.3780
  45   2.0000     -10.303479      -280.3719
  46   2.0000     -10.303120      -280.3621
  47   2.0000     -10.302954      -280.3576
  48   2.0000     -10.302800      -280.3534
  49   2.0000     -10.302291      -280.3396
  50   2.0000     -10.301629      -280.3216
  51   2.0000     -10.299153      -280.2542
  52   2.0000     -10.298575      -280.2385
  53   2.0000     -10.297405      -280.2066
  54   2.0000     -10.297200      -280.2011
  55   2.0000     -10.295311      -280.1497
  56   2.0000     -10.294815      -280.1362
  57   2.0000     -10.294254      -280.1209
  58   2.0000     -10.294083      -280.1162
  59   2.0000     -10.294035      -280.1149
  60   2.0000     -10.293569      -280.1023
  61   2.0000     -10.286469      -279.9091
  62   2.0000     -10.286253      -279.9032
  63   2.0000     -10.284581      -279.8577
  64   2.0000     -10.282918      -279.8124
  65   2.0000     -10.282760      -279.8081
  66   2.0000     -10.282598      -279.8037
  67   2.0000     -10.282509      -279.8013
  68   2.0000     -10.278401      -279.6895
  69   2.0000     -10.275063      -279.5987
  70   2.0000     -10.273009      -279.5428
  71   2.0000     -10.272881      -279.5393
  72   2.0000      -8.089211      -220.1186
  73   2.0000      -8.082337      -219.9316
  74   2.0000      -6.058507      -164.8604
  75   2.0000      -6.054438      -164.7496
  76   2.0000      -6.051555      -164.6712
  77   2.0000      -6.051443      -164.6681
  78   2.0000      -6.047469      -164.5600
  79   2.0000      -6.044690      -164.4844
  80   2.0000      -1.314494       -35.7692
  81   2.0000      -1.299712       -35.3670
  82   2.0000      -1.118247       -30.4290
  83   2.0000      -1.116124       -30.3713
  84   2.0000      -1.106693       -30.1146
  85   2.0000      -1.098343       -29.8874
  86   2.0000      -1.072976       -29.1972
  87   2.0000      -1.070269       -29.1235
  88   2.0000      -1.062092       -28.9010
  89   2.0000      -1.054571       -28.6963
  90   2.0000      -1.044326       -28.4176
  91   2.0000      -1.024112       -27.8675
  92   2.0000      -1.010898       -27.5079
  93   2.0000      -1.010873       -27.5073
  94   2.0000      -0.996286       -27.1103
  95   2.0000      -0.995994       -27.1024
  96   2.0000      -0.986111       -26.8335
  97   2.0000      -0.972830       -26.4721
  98   2.0000      -0.960643       -26.1404
  99   2.0000      -0.928896       -25.2766
 100   2.0000      -0.928784       -25.2735
 101   2.0000      -0.923699       -25.1351
 102   2.0000      -0.917119       -24.9561
 103   2.0000      -0.913853       -24.8672
 104   2.0000      -0.903074       -24.5739
 105   2.0000      -0.893542       -24.3145
 106   2.0000      -0.887553       -24.1516
 107   2.0000      -0.882781       -24.0217
 108   2.0000      -0.880367       -23.9560
 109   2.0000      -0.877729       -23.8842
 110   2.0000      -0.872824       -23.7507
 111   2.0000      -0.867806       -23.6142
 112   2.0000      -0.855573       -23.2813
 113   2.0000      -0.854334       -23.2476
 114   2.0000      -0.854197       -23.2439
 115   2.0000      -0.846323       -23.0296
 116   2.0000      -0.832976       -22.6664
 117   2.0000      -0.827879       -22.5277
 118   2.0000      -0.808329       -21.9957
 119   2.0000      -0.795573       -21.6486
 120   2.0000      -0.780183       -21.2299
 121   2.0000      -0.773461       -21.0470
 122   2.0000      -0.763469       -20.7750
 123   2.0000      -0.759078       -20.6556
 124   2.0000      -0.754311       -20.5258
 125   2.0000      -0.742238       -20.1973
 126   2.0000      -0.734638       -19.9905
 127   2.0000      -0.722502       -19.6603
 128   2.0000      -0.711171       -19.3520
 129   2.0000      -0.708753       -19.2862
 130   2.0000      -0.708163       -19.2701
 131   2.0000      -0.704826       -19.1793
 132   2.0000      -0.702183       -19.1074
 133   2.0000      -0.698499       -19.0071
 134   2.0000      -0.696750       -18.9595
 135   2.0000      -0.688140       -18.7252
 136   2.0000      -0.684474       -18.6255
 137   2.0000      -0.679332       -18.4856
 138   2.0000      -0.674917       -18.3654
 139   2.0000      -0.667672       -18.1683
 140   2.0000      -0.662640       -18.0313
 141   2.0000      -0.651371       -17.7247
 142   2.0000      -0.648368       -17.6430
 143   2.0000      -0.645177       -17.5562
 144   2.0000      -0.636960       -17.3326
 145   2.0000      -0.635086       -17.2816
 146   2.0000      -0.631805       -17.1923
 147   2.0000      -0.629592       -17.1321
 148   2.0000      -0.622207       -16.9311
 149   2.0000      -0.618430       -16.8283
 150   2.0000      -0.613032       -16.6815
 151   2.0000      -0.611127       -16.6296
 152   2.0000      -0.605254       -16.4698
 153   2.0000      -0.596560       -16.2332
 154   2.0000      -0.587957       -15.9991
 155   2.0000      -0.585142       -15.9225
 156   2.0000      -0.579268       -15.7627
 157   2.0000      -0.575350       -15.6561
 158   2.0000      -0.572648       -15.5826
 159   2.0000      -0.569739       -15.5034
 160   2.0000      -0.564953       -15.3731
 161   2.0000      -0.562013       -15.2932
 162   2.0000      -0.557598       -15.1730
 163   2.0000      -0.553484       -15.0611
 164   2.0000      -0.552722       -15.0403
 165   2.0000      -0.551665       -15.0116
 166   2.0000      -0.547418       -14.8960
 167   2.0000      -0.545316       -14.8388
 168   2.0000      -0.543145       -14.7797
 169   2.0000      -0.541085       -14.7237
 170   2.0000      -0.537551       -14.6275
 171   2.0000      -0.537470       -14.6253
 172   2.0000      -0.535435       -14.5699
 173   2.0000      -0.532756       -14.4970
 174   2.0000      -0.526815       -14.3354
 175   2.0000      -0.526043       -14.3144
 176   2.0000      -0.524338       -14.2680
 177   2.0000      -0.522454       -14.2167
 178   2.0000      -0.518240       -14.1020
 179   2.0000      -0.515453       -14.0262
 180   2.0000      -0.511361       -13.9148
 181   2.0000      -0.510648       -13.8954
 182   2.0000      -0.508032       -13.8243
 183   2.0000      -0.507217       -13.8021
 184   2.0000      -0.505184       -13.7468
 185   2.0000      -0.502349       -13.6696
 186   2.0000      -0.499530       -13.5929
 187   2.0000      -0.497332       -13.5331
 188   2.0000      -0.495738       -13.4897
 189   2.0000      -0.493932       -13.4406
 190   2.0000      -0.490165       -13.3381
 191   2.0000      -0.488528       -13.2935
 192   2.0000      -0.485417       -13.2089
 193   2.0000      -0.478703       -13.0262
 194   2.0000      -0.476703       -12.9717
 195   2.0000      -0.475410       -12.9366
 196   2.0000      -0.472129       -12.8473
 197   2.0000      -0.470704       -12.8085
 198   2.0000      -0.468039       -12.7360
 199   2.0000      -0.465259       -12.6603
 200   2.0000      -0.465169       -12.6579
 201   2.0000      -0.464408       -12.6372
 202   2.0000      -0.461672       -12.5627
 203   2.0000      -0.461146       -12.5484
 204   2.0000      -0.458807       -12.4848
 205   2.0000      -0.458155       -12.4670
 206   2.0000      -0.455844       -12.4041
 207   2.0000      -0.452612       -12.3162
 208   2.0000      -0.451484       -12.2855
 209   2.0000      -0.448636       -12.2080
 210   2.0000      -0.446089       -12.1387
 211   2.0000      -0.444569       -12.0973
 212   2.0000      -0.443612       -12.0713
 213   2.0000      -0.442379       -12.0377
 214   2.0000      -0.441230       -12.0065
 215   2.0000      -0.439874       -11.9696
 216   2.0000      -0.436720       -11.8838
 217   2.0000      -0.431801       -11.7499
 218   2.0000      -0.428464       -11.6591
 219   2.0000      -0.424764       -11.5584
 220   2.0000      -0.420555       -11.4439
 221   2.0000      -0.417953       -11.3731
 222   2.0000      -0.409271       -11.1368
 223   2.0000      -0.406722       -11.0675
 224   2.0000      -0.400388       -10.8951
 225   2.0000      -0.395331       -10.7575
 226   2.0000      -0.384989       -10.4761
 227   2.0000      -0.380319       -10.3490
 228   2.0000      -0.370420       -10.0796
 229   2.0000      -0.360023        -9.7967
 230   2.0000      -0.353364        -9.6155
 231   2.0000      -0.350729        -9.5438
 232   2.0000      -0.349152        -9.5009
 233   2.0000      -0.347656        -9.4602
 234   2.0000      -0.335659        -9.1337
 235   2.0000      -0.328953        -8.9513
 236   2.0000      -0.328330        -8.9343
 237   2.0000      -0.325112        -8.8467
 238   2.0000      -0.322343        -8.7714
 239   2.0000      -0.321790        -8.7563
 240   2.0000      -0.310227        -8.4417
 241   2.0000      -0.305834        -8.3222
 242   2.0000      -0.302694        -8.2367
 243   2.0000      -0.297675        -8.1001
 244   2.0000      -0.293240        -7.9795
 245   2.0000      -0.276168        -7.5149
 246   2.0000      -0.238035        -6.4773
 247   2.0000      -0.216747        -5.8980
 248   0.0000      -0.109369        -2.9761
 249   0.0000      -0.101893        -2.7727
 250   0.0000      -0.089553        -2.4369
 251   0.0000      -0.058780        -1.5995
 252   0.0000      -0.051019        -1.3883

MULLIKEN ATOMIC CHARGES
-----------------------
   0 C :    0.055901
   1 N :   -0.035219
   2 C :    0.051311
   3 C :   -0.119896
   4 C :    0.200971
   5 O :   -0.137153
   6 C :   -0.036504
   7 C :   -0.014548
   8 N :   -0.054278
   9 C :    0.085321
  10 C :   -0.094826
  11 C :    0.005132
  12 C :   -0.043211
  13 C :    0.018670
  14 C :    0.100267
  15 N :   -0.035473
  16 C :    0.120290
  17 C :   -0.174413
  18 C :    0.108290
  19 N :   -0.034672
  20 C :    0.120497
  21 C :   -0.165342
  22 C :    0.005605
  23 C :    0.028284
  24 C :   -0.065057
  25 C :   -0.043842
  26 C :    0.004436
  27 C :   -0.105728
  28 S :    0.178403
  29 C :   -0.099957
  30 C :    0.017789
  31 C :    0.308487
  32 C :   -0.298347
  33 C :   -0.182374
  34 N :    0.163465
  35 C :   -0.184813
  36 N :    0.169663
  37 C :   -0.058178
  38 C :   -0.056704
  39 S :    0.157474
  40 C :    0.089153
  41 N :   -0.048127
  42 C :    0.113253
  43 C :   -0.137639
  44 C :    0.063442
  45 N :   -0.020412
  46 C :    0.129822
  47 C :   -0.168951
  48 C :    0.070603
  49 C :   -0.027927
  50 C :    0.046104
  51 C :   -0.149517
  52 C :    0.136827
  53 O :   -0.150657
  54 C :    0.015990
  55 C :   -0.089766
  56 C :    0.113871
  57 C :    0.112981
  58 C :   -0.109554
  59 C :    0.239378
  60 C :    0.237807
  61 C :   -0.105992
  62 F :   -0.175613
  63 F :   -0.174948
  64 C :   -0.087269
  65 C :    0.029127
  66 C :    0.281748
  67 C :   -0.360790
  68 C :   -0.191690
  69 N :    0.151560
  70 C :   -0.173952
  71 N :    0.141551
  72 H :    0.001919
  73 H :    0.007696
  74 H :   -0.006195
  75 H :    0.002950
  76 H :   -0.032925
  77 H :    0.121426
  78 H :   -0.036129
  79 H :    0.126450
  80 H :   -0.021105
  81 H :   -0.022017
  82 H :   -0.022027
  83 H :   -0.000430
  84 H :    0.006335
  85 H :    0.128078
  86 H :   -0.026964
  87 H :    0.137578
  88 H :   -0.021919
  89 H :    0.008874
  90 H :   -0.018980
  91 H :    0.023394
  92 H :   -0.011427
  93 H :    0.004655
  94 H :   -0.002313
  95 H :   -0.007058
Sum of atomic charges:   -0.0000000

LOEWDIN ATOMIC CHARGES
----------------------
   0 C :    0.087063
   1 N :   -0.081531
   2 C :    0.049708
   3 C :   -0.075651
   4 C :    0.066310
   5 O :   -0.146666
   6 C :   -0.038425
   7 C :    0.022556
   8 N :   -0.095466
   9 C :    0.071330
  10 C :   -0.034010
  11 C :   -0.036603
  12 C :   -0.026159
  13 C :   -0.015816
  14 C :   -0.006014
  15 N :    0.069679
  16 C :   -0.013452
  17 C :   -0.093917
  18 C :    0.002100
  19 N :    0.072446
  20 C :   -0.017427
  21 C :   -0.077518
  22 C :   -0.022582
  23 C :   -0.053226
  24 C :   -0.157264
  25 C :   -0.035871
  26 C :   -0.066436
  27 C :   -0.194219
  28 S :    0.465158
  29 C :   -0.177620
  30 C :   -0.072395
  31 C :    0.085677
  32 C :   -0.103707
  33 C :   -0.013517
  34 N :   -0.038077
  35 C :   -0.015829
  36 N :   -0.034318
  37 C :   -0.023698
  38 C :   -0.171638
  39 S :    0.448341
  40 C :    0.001366
  41 N :    0.063955
  42 C :   -0.023508
  43 C :   -0.057143
  44 C :   -0.007700
  45 N :    0.081065
  46 C :    0.006536
  47 C :   -0.091516
  48 C :    0.037786
  49 C :   -0.072299
  50 C :    0.068977
  51 C :   -0.115168
  52 C :    0.079493
  53 O :   -0.153245
  54 C :   -0.051494
  55 C :    0.025776
  56 C :   -0.010649
  57 C :   -0.007510
  58 C :   -0.031547
  59 C :    0.064576
  60 C :    0.065009
  61 C :   -0.034037
  62 F :   -0.052731
  63 F :   -0.052230
  64 C :    0.009764
  65 C :   -0.019402
  66 C :    0.065371
  67 C :   -0.157323
  68 C :   -0.011879
  69 N :   -0.061116
  70 C :   -0.020945
  71 N :   -0.066736
  72 H :    0.020543
  73 H :    0.022585
  74 H :    0.033652
  75 H :    0.038424
  76 H :    0.025289
  77 H :    0.089330
  78 H :    0.022853
  79 H :    0.091940
  80 H :    0.029139
  81 H :    0.030177
  82 H :    0.027227
  83 H :    0.035948
  84 H :    0.040667
  85 H :    0.084212
  86 H :    0.029723
  87 H :    0.094761
  88 H :    0.030167
  89 H :    0.041528
  90 H :    0.025736
  91 H :    0.045314
  92 H :    0.039356
  93 H :    0.046355
  94 H :    0.043931
  95 H :    0.038329

  Mayer bond orders larger than 0.100000
B(  0-C ,  1-N ) :   1.7541 B(  0-C , 11-C ) :   1.0081 B(  0-C , 72-H ) :   0.9876
B(  1-N ,  2-C ) :   1.2476 B(  2-C ,  3-C ) :   1.0672 B(  2-C ,  7-C ) :   1.4917
B(  3-C ,  4-C ) :   0.9164 B(  3-C , 11-C ) :   1.5225 B(  4-C ,  5-O ) :   2.2781
B(  4-C ,  6-C ) :   0.8934 B(  6-C ,  7-C ) :   1.0501 B(  6-C , 10-C ) :   1.6403
B(  7-C ,  8-N ) :   1.2877 B(  8-N ,  9-C ) :   1.6837 B(  9-C , 10-C ) :   1.0552
B(  9-C , 73-H ) :   0.9889 B( 10-C , 74-H ) :   1.0086 B( 11-C , 12-C ) :   1.1449
B( 12-C , 13-C ) :   1.6064 B( 12-C , 75-H ) :   0.9802 B( 13-C , 14-C ) :   1.1285
B( 13-C , 76-H ) :   0.9643 B( 14-C , 15-N ) :   1.1611 B( 14-C , 21-C ) :   1.3859
B( 15-N , 16-C ) :   1.1732 B( 15-N , 77-H ) :   0.9368 B( 16-C , 17-C ) :   1.2694
B( 16-C , 20-C ) :   1.2914 B( 17-C , 18-C ) :   1.3909 B( 17-C , 78-H ) :   1.0304
B( 18-C , 19-N ) :   1.1748 B( 18-C , 22-C ) :   1.1235 B( 19-N , 20-C ) :   1.1665
B( 19-N , 79-H ) :   0.9351 B( 20-C , 21-C ) :   1.2737 B( 21-C , 80-H ) :   1.0333
B( 22-C , 23-C ) :   1.6751 B( 22-C , 81-H ) :   0.9606 B( 23-C , 24-C ) :   1.1306
B( 23-C , 82-H ) :   0.9630 B( 24-C , 25-C ) :   1.4433 B( 24-C , 28-S ) :   1.1036
B( 25-C , 26-C ) :   1.3094 B( 25-C , 83-H ) :   0.9880 B( 26-C , 27-C ) :   1.4283
B( 26-C , 31-C ) :   1.0007 B( 27-C , 28-S ) :   1.1077 B( 27-C , 29-C ) :   1.2026
B( 29-C , 30-C ) :   1.4368 B( 29-C , 39-S ) :   1.1190 B( 30-C , 31-C ) :   0.9947
B( 30-C , 37-C ) :   1.2817 B( 31-C , 32-C ) :   1.7082 B( 32-C , 33-C ) :   1.1360
B( 32-C , 35-C ) :   1.1321 B( 33-C , 34-N ) :   2.9839 B( 35-C , 36-N ) :   2.9887
B( 37-C , 38-C ) :   1.4872 B( 37-C , 84-H ) :   0.9914 B( 38-C , 39-S ) :   1.0718
B( 38-C , 40-C ) :   1.0946 B( 40-C , 41-N ) :   1.2176 B( 40-C , 47-C ) :   1.4219
B( 41-N , 42-C ) :   1.1405 B( 41-N , 85-H ) :   0.9306 B( 42-C , 43-C ) :   1.2935
B( 42-C , 46-C ) :   1.2886 B( 43-C , 44-C ) :   1.3050 B( 43-C , 86-H ) :   1.0391
B( 44-C , 45-N ) :   1.1852 B( 44-C , 48-C ) :   1.2494 B( 45-N , 46-C ) :   1.2007
B( 45-N , 87-H ) :   0.9250 B( 46-C , 47-C ) :   1.2559 B( 47-C , 88-H ) :   1.0284
B( 48-C , 49-C ) :   1.4973 B( 48-C , 89-H ) :   0.9515 B( 49-C , 50-C ) :   1.2489
B( 49-C , 90-H ) :   0.9614 B( 50-C , 51-C ) :   1.5546 B( 50-C , 91-H ) :   0.9316
B( 51-C , 52-C ) :   0.9644 B( 51-C , 66-C ) :   1.0797 B( 52-C , 53-O ) :   2.2606
B( 52-C , 54-C ) :   0.9127 B( 54-C , 55-C ) :   1.4819 B( 54-C , 65-C ) :   1.2237
B( 55-C , 56-C ) :   1.1861 B( 55-C , 92-H ) :   1.0160 B( 56-C , 57-C ) :   1.2602
B( 56-C , 61-C ) :   1.1968 B( 57-C , 58-C ) :   1.1906 B( 57-C , 64-C ) :   1.2110
B( 58-C , 59-C ) :   1.4402 B( 58-C , 61-C ) :   0.1090 B( 58-C , 93-H ) :   1.0069
B( 59-C , 60-C ) :   1.1940 B( 59-C , 63-F ) :   1.1310 B( 60-C , 61-C ) :   1.4410
B( 60-C , 62-F ) :   1.1295 B( 61-C , 94-H ) :   1.0068 B( 64-C , 65-C ) :   1.4617
B( 64-C , 95-H ) :   0.9935 B( 65-C , 66-C ) :   0.9882 B( 66-C , 67-C ) :   1.6057
B( 67-C , 68-C ) :   1.1807 B( 67-C , 70-C ) :   1.1347 B( 68-C , 69-N ) :   2.9801
B( 70-C , 71-N ) :   2.9772

-----------------------------------------------------------------------------
         ABSORPTION SPECTRUM VIA TRANSITION ELECTRIC DIPOLE MOMENTS
-----------------------------------------------------------------------------
State   Energy  Wavelength   fosc         T2         TX        TY        TZ
        (cm-1)    (nm)                  (au**2)     (au)      (au)      (au)
-----------------------------------------------------------------------------
   0    8351.3   1197.4   0.492552240  19.41657  -0.75540  -4.23257  -0.96502
   1   12407.4    806.0   0.848275145  22.50766  -1.00168  -4.45519  -1.28670
   2   14752.0    677.9   1.105900015  24.67973   1.65939   4.42515   1.53107
   3   15642.8    639.3   0.173792437   3.65758  -0.51220  -1.79361  -0.42211
   4   19910.9    502.2   1.269831383  20.99572   0.21915   4.53735   0.60010
   5   21795.3    458.8   0.055643140   0.84047   0.06142  -0.86177  -0.30669
   6   22222.6    450.0   0.022964110   0.34020   0.31143   0.46745   0.15716
   7   22494.6    444.6   0.000422064   0.00618  -0.07392   0.01035   0.02462
   8   22878.0    437.1   0.104516836   1.50399  -0.61303  -1.02575  -0.27571
   9   23986.3    416.9   0.247278747   3.39391  -0.09176   1.73180   0.62157
  10   25554.6    391.3   0.035888424   0.46234   0.02068  -0.67909   0.02726
  11   26415.1    378.6   0.054126825   0.67458   0.08032  -0.78936   0.21223
  12   27143.0    368.4   0.000236467   0.00287   0.05165  -0.00360  -0.01370
  13   27189.6    367.8   0.086136001   1.04294   0.23401  -0.88908  -0.44466
  14   27324.3    366.0   0.088833507   1.07029   0.08581  -0.67392  -0.78023
  15   27774.3    360.0   0.088948134   1.05431  -0.08531  -0.29845  -0.97876
  16   28111.7    355.7   0.002119914   0.02483  -0.14569   0.02423   0.05489
  17   28246.9    354.0   0.021877807   0.25498  -0.11937  -0.36317  -0.32991
  18   28543.6    350.3   0.007914810   0.09129  -0.27924  -0.11409  -0.01723
  19   28942.1    345.5   0.030246382   0.34405   0.51263  -0.07437   0.27518
  20   29352.4    340.7   0.041608687   0.46668   0.35940   0.04298   0.57936
  21   29655.2    337.2   0.021500574   0.23868   0.10385   0.41245   0.24039
  22   29807.6    335.5   0.000169499   0.00187   0.03333  -0.02703   0.00551
  23   30028.2    333.0   0.010994968   0.12054   0.26272  -0.20697  -0.09318
  24   30156.8    331.6   0.057413642   0.62677   0.04667   0.42432   0.66674
  25   30399.0    329.0   0.032259684   0.34936   0.13334  -0.32558   0.47495
  26   31549.5    317.0   0.422375458   4.40739  -0.40365  -1.33610  -1.56822
  27   31948.1    313.0   0.364392591   3.75491   0.58381  -0.99578   1.55644
  28   32210.8    310.5   0.000104127   0.00106   0.02986  -0.01194   0.00546
  29   32328.4    309.3   0.130058580   1.32443  -0.31228   0.36013  -1.04748
  30   32852.7    304.4   0.139061660   1.39352  -0.39217  -0.65313  -0.90174
  31   33045.1    302.6   0.150158910   1.49596   0.52968   0.76223   0.79650
  32   33642.4    297.2   0.172890476   1.69184  -0.01194   0.84032   0.99275
  33   34063.5    293.6   0.195698372   1.89136   0.00699   0.90089   1.03909
  34   34404.6    290.7   0.113943619   1.09031   0.04690   1.01975   0.21960
  35   34701.2    288.2   0.012683282   0.12033  -0.00475   0.33909  -0.07294
  36   34942.8    286.2   0.131056314   1.23474  -0.19831  -0.54178  -0.94968
  37   35288.3    283.4   0.088404994   0.82475   0.37371   0.67659   0.47678
  38   35611.0    280.8   0.083437122   0.77135   0.30442   0.62983   0.53103
  39   35889.7    278.6   0.201226833   1.84583  -0.59526  -0.39037  -1.15720
  40   36105.5    277.0   0.071000554   0.64739  -0.12127  -0.59505  -0.52783
  41   36884.1    271.1   0.010419804   0.09300   0.19977  -0.19858  -0.11688
  42   37001.6    270.3   0.003348760   0.02979  -0.01970  -0.15956  -0.06284
  43   37164.9    269.1   0.096384639   0.85379  -0.12861  -0.64802  -0.64600
  44   37541.3    266.4   0.000027588   0.00024  -0.00493   0.01464  -0.00177
  45   37678.9    265.4   0.011476709   0.10028   0.15753  -0.26316  -0.07877
  46   37872.3    264.0   0.015231914   0.13241   0.02556   0.18164   0.31426
  47   38657.4    258.7   0.047513265   0.40463  -0.01663  -0.31489  -0.55245
  48   38684.6    258.5   0.013622667   0.11593   0.17927  -0.27905  -0.07697
  49   39156.5    255.4   0.018409098   0.15478  -0.24207  -0.18306  -0.25034
  50   39418.0    253.7   0.033268237   0.27785   0.01777  -0.49978  -0.16659
  51   39530.2    253.0   0.001980274   0.01649   0.00340   0.08953   0.09200
  52   39764.6    251.5   0.024952907   0.20659  -0.02284   0.17735  -0.41787
  53   39771.8    251.4   0.003731136   0.03088  -0.00282   0.07507  -0.15888
  54   40020.6    249.9   0.038241140   0.31457  -0.46789   0.03598  -0.30717
  55   40111.9    249.3   0.058015196   0.47615  -0.30558  -0.56294  -0.25664
  56   40145.0    249.1   0.000004576   0.00004  -0.00378  -0.00394  -0.00279

FINAL SINGLE POINT ENERGY     -3838.178757919571

DIPOLE MOMENT
-------------
                                X             Y             Z
Electronic contribution:     21.49199      54.12945      23.39393
Nuclear contribution   :    -22.45485     -55.55736     -21.30398
                        -----------------------------------------
Total Dipole Moment    :     -0.96286      -1.42791       2.08995
                        -----------------------------------------
Magnitude (a.u.)       :      2.70812
Magnitude (Debye)      :      6.88348

Rotational constants in cm-1:     0.003250     0.000124     0.000121
Rotational constants in MHz :    97.439106     3.730184     3.626344

                             ****ORCA TERMINATED NORMALLY****
TOTAL RUN TIME: 0 days 0 hours 8 minutes 47 seconds 568 msec
