                         Program Version 4.2.0 -  RELEASE  -
|  1> # ORCA input file
|  2> # SCF done       -175.515054914956          0.000534234445
|  3> ! CAM-B3LYP def2-SVP def2/J RIJCOSX Grid4 TightSCF
|  4> %maxcore 5000
|  5> %tddft
|  6>     Mode sTDDFT
|  7>     Ethresh 5.0
|  8>     maxcore 5000
|  9> end
| 10>
| 11> %pal
| 12>   nprocs 6
| 13>   end
| 14> * xyz 0 1
| 15>    C        4.97676        -2.57517         0.01939
| 16>    N        4.13353        -3.55843         0.04919
| 17>    C        2.89356        -2.97722         0.10861
| 18>    C        3.01095        -1.51454         0.11855
| 19>    C        1.68169        -0.88430         0.18132
| 20>    O        1.40263         0.29060         0.21026
| 21>    C        0.77743        -2.05827         0.20101
| 22>    C        1.57177        -3.31390         0.15724
| 23>    N        0.74901        -4.39702         0.17367
| 24>    C       -0.45939        -3.90853         0.22052
| 25>    C       -0.51580        -2.45103         0.23910
| 26>    C        4.35612        -1.23824         0.05809
| 27>    C        4.99959         0.02718         0.03733
| 28>    C        6.34382         0.19122        -0.03755
| 29>    C        7.01775         1.43849        -0.05851
| 30>    C        6.50874         2.72995         0.00011
| 31>    C        7.51498         3.68923        -0.03992
| 32>    C        8.80777         3.12877        -0.13310
| 33>    S        8.77177         1.42570        -0.16857
| 34>    C        9.76184         4.17154        -0.16879
| 35>    C        9.06675         5.40024        -0.08570
| 36>    C        7.63922         5.14011        -0.00706
| 37>    C        6.64612         6.07176         0.06859
| 38>    C        5.28110         5.71794         0.13292
| 39>    N        4.17678         5.42123         0.20553
| 40>    C        6.94070         7.45116         0.11721
| 41>    N        7.21441         8.56291         0.18367
| 42>    C        9.91247         6.49738        -0.12936
| 43>    C       11.24425         6.12419        -0.26508
| 44>    S       11.45051         4.37822        -0.27936
| 45>    C       12.38171         6.95503        -0.36475
| 46>    N       13.59617         6.50806        -0.06987
| 47>    C       14.41666         7.56645        -0.18563
| 48>    C       13.67679         8.77439        -0.58893
| 49>    C       14.58970         9.92502        -0.72402
| 50>    O       14.31363        11.06858        -1.01407
| 51>    C       15.89708         9.33118        -0.40486
| 52>    C       15.74754         7.89609        -0.07471
| 53>    N       16.95018         7.34169         0.19974
| 54>    C       17.81861         8.31546         0.05606
| 55>    C       17.23056         9.58094        -0.32832
| 56>    C       12.37422         8.38754        -0.75346
| 57>    C       11.24793         9.08433        -1.28175
| 58>    C       11.15375        10.42415        -1.39265
| 59>    C        9.98509        11.09421        -1.90177
| 60>    C        8.79889        10.49399        -2.20161
| 61>    C        7.69682        11.25368        -2.69186
| 62>    C        6.47810        10.66103        -2.99238
| 63>    C        5.38457        11.42619        -3.42350
| 64>    N        4.50176        12.08170        -3.75778
| 65>    C        6.29147         9.27854        -2.85563
| 66>    N        6.17217         8.14012        -2.74242
| 67>    C        7.93027        12.65396        -2.84887
| 68>    C        9.12864        13.19621        -2.49413
| 69>    O       10.15164        12.43285        -2.03467
| 70>    C        9.52101        14.56971        -2.67588
| 71>    C        8.77311        15.69734        -2.68161
| 72>    C        7.40926        15.98743        -2.28974
| 73>    C        7.00550        17.30120        -2.61043
| 74>    C        8.06357        18.09353        -3.19167
| 75>    C        8.03117        19.38935        -3.63275
| 76>    C        6.89967        20.22580        -3.63538
| 77>    N        6.01812        20.96056        -3.66397
| 78>    C        9.19527        20.00134        -4.14739
| 79>    N       10.14275        20.49371        -4.56529
| 80>    S        9.54661        17.17527        -3.26835
| 81>    C        5.71431        17.73179        -2.31732
| 82>    C        4.84671        16.87199        -1.67120
| 83>    C        5.26773        15.60724        -1.28061
| 84>    C        6.54172        15.16257        -1.58001
| 85>    H        6.03281        -2.77680        -0.02810
| 86>    H       -1.31212        -4.56503         0.24266
| 87>    H       -1.41277        -1.86519         0.27546
| 88>    H        4.34270         0.88462         0.08337
| 89>    H        6.98349        -0.67970        -0.08699
| 90>    H        5.45865         2.94697         0.06880
| 91>    H        9.59084         7.51435        -0.00700
| 92>    H       18.86642         8.13615         0.22328
| 93>    H       17.76768        10.49220        -0.50210
| 94>    H       10.43998         8.46230        -1.63735
| 95>    H       11.97369        11.06248        -1.09235
| 96>    H        8.66383         9.43536        -2.06141
| 97>    H        7.16074        13.27360        -3.27898
| 98>    H       10.58202        14.68427        -2.86346
| 99>    H        5.39796        18.72831        -2.57760
|100>    H        3.84327        17.19813        -1.44739
|101>    H        4.59525        14.96048        -0.73916
|102>    H        6.86401        14.19134        -1.24358
|103> *
|104>
|105>                          ****END OF INPUT****

CARTESIAN COORDINATES (ANGSTROEM)
---------------------------------
  C      4.976760   -2.575170    0.019390
  N      4.133530   -3.558430    0.049190
  C      2.893560   -2.977220    0.108610
  C      3.010950   -1.514540    0.118550
  C      1.681690   -0.884300    0.181320
  O      1.402630    0.290600    0.210260
  C      0.777430   -2.058270    0.201010
  C      1.571770   -3.313900    0.157240
  N      0.749010   -4.397020    0.173670
  C     -0.459390   -3.908530    0.220520
  C     -0.515800   -2.451030    0.239100
  C      4.356120   -1.238240    0.058090
  C      4.999590    0.027180    0.037330
  C      6.343820    0.191220   -0.037550
  C      7.017750    1.438490   -0.058510
  C      6.508740    2.729950    0.000110
  C      7.514980    3.689230   -0.039920
  C      8.807770    3.128770   -0.133100
  S      8.771770    1.425700   -0.168570
  C      9.761840    4.171540   -0.168790
  C      9.066750    5.400240   -0.085700
  C      7.639220    5.140110   -0.007060
  C      6.646120    6.071760    0.068590
  C      5.281100    5.717940    0.132920
  N      4.176780    5.421230    0.205530
  C      6.940700    7.451160    0.117210
  N      7.214410    8.562910    0.183670
  C      9.912470    6.497380   -0.129360
  C     11.244250    6.124190   -0.265080
  S     11.450510    4.378220   -0.279360
  C     12.381710    6.955030   -0.364750
  N     13.596170    6.508060   -0.069870
  C     14.416660    7.566450   -0.185630
  C     13.676790    8.774390   -0.588930
  C     14.589700    9.925020   -0.724020
  O     14.313630   11.068580   -1.014070
  C     15.897080    9.331180   -0.404860
  C     15.747540    7.896090   -0.074710
  N     16.950180    7.341690    0.199740
  C     17.818610    8.315460    0.056060
  C     17.230560    9.580940   -0.328320
  C     12.374220    8.387540   -0.753460
  C     11.247930    9.084330   -1.281750
  C     11.153750   10.424150   -1.392650
  C      9.985090   11.094210   -1.901770
  C      8.798890   10.493990   -2.201610
  C      7.696820   11.253680   -2.691860
  C      6.478100   10.661030   -2.992380
  C      5.384570   11.426190   -3.423500
  N      4.501760   12.081700   -3.757780
  C      6.291470    9.278540   -2.855630
  N      6.172170    8.140120   -2.742420
  C      7.930270   12.653960   -2.848870
  C      9.128640   13.196210   -2.494130
  O     10.151640   12.432850   -2.034670
  C      9.521010   14.569710   -2.675880
  C      8.773110   15.697340   -2.681610
  C      7.409260   15.987430   -2.289740
  C      7.005500   17.301200   -2.610430
  C      8.063570   18.093530   -3.191670
  C      8.031170   19.389350   -3.632750
  C      6.899670   20.225800   -3.635380
  N      6.018120   20.960560   -3.663970
  C      9.195270   20.001340   -4.147390
  N     10.142750   20.493710   -4.565290
  S      9.546610   17.175270   -3.268350
  C      5.714310   17.731790   -2.317320
  C      4.846710   16.871990   -1.671200
  C      5.267730   15.607240   -1.280610
  C      6.541720   15.162570   -1.580010
  H      6.032810   -2.776800   -0.028100
  H     -1.312120   -4.565030    0.242660
  H     -1.412770   -1.865190    0.275460
  H      4.342700    0.884620    0.083370
  H      6.983490   -0.679700   -0.086990
  H      5.458650    2.946970    0.068800
  H      9.590840    7.514350   -0.007000
  H     18.866420    8.136150    0.223280
  H     17.767680   10.492200   -0.502100
  H     10.439980    8.462300   -1.637350
  H     11.973690   11.062480   -1.092350
  H      8.663830    9.435360   -2.061410
  H      7.160740   13.273600   -3.278980
  H     10.582020   14.684270   -2.863460
  H      5.397960   18.728310   -2.577600
  H      3.843270   17.198130   -1.447390
  H      4.595250   14.960480   -0.739160
  H      6.864010   14.191340   -1.243580

 Total Charge           Charge          ....    0
 Multiplicity           Mult            ....    1
 Number of Electrons    NEL             ....  484
 Basis Dimension        Dim             .... 1082

ORBITAL ENERGIES
----------------

  NO   OCC          E(Eh)            E(eV)
   0   2.0000     -89.006786     -2421.9978
   1   2.0000     -89.003987     -2421.9216
   2   2.0000     -88.984503     -2421.3914
   3   2.0000     -19.326608      -525.9037
   4   2.0000     -19.225458      -523.1513
   5   2.0000     -19.219098      -522.9783
   6   2.0000     -14.439971      -392.9316
   7   2.0000     -14.435446      -392.8085
   8   2.0000     -14.425634      -392.5415
   9   2.0000     -14.422947      -392.4683
  10   2.0000     -14.421190      -392.4205
  11   2.0000     -14.418311      -392.3422
  12   2.0000     -14.417324      -392.3153
  13   2.0000     -14.414156      -392.2291
  14   2.0000     -14.403507      -391.9394
  15   2.0000     -14.400507      -391.8577
  16   2.0000     -10.393884      -282.8320
  17   2.0000     -10.387437      -282.6565
  18   2.0000     -10.385263      -282.5974
  19   2.0000     -10.379425      -282.4385
  20   2.0000     -10.376005      -282.3455
  21   2.0000     -10.370404      -282.1930
  22   2.0000     -10.363375      -282.0018
  23   2.0000     -10.362237      -281.9708
  24   2.0000     -10.355911      -281.7987
  25   2.0000     -10.355194      -281.7792
  26   2.0000     -10.352631      -281.7094
  27   2.0000     -10.345780      -281.5230
  28   2.0000     -10.345568      -281.5172
  29   2.0000     -10.345391      -281.5124
  30   2.0000     -10.341741      -281.4131
  31   2.0000     -10.341611      -281.4095
  32   2.0000     -10.341607      -281.4094
  33   2.0000     -10.341307      -281.4013
  34   2.0000     -10.338530      -281.3257
  35   2.0000     -10.338048      -281.3126
  36   2.0000     -10.337611      -281.3007
  37   2.0000     -10.334832      -281.2251
  38   2.0000     -10.333555      -281.1903
  39   2.0000     -10.332831      -281.1706
  40   2.0000     -10.326815      -281.0069
  41   2.0000     -10.324152      -280.9345
  42   2.0000     -10.324100      -280.9330
  43   2.0000     -10.323632      -280.9203
  44   2.0000     -10.322729      -280.8957
  45   2.0000     -10.322599      -280.8922
  46   2.0000     -10.322362      -280.8858
  47   2.0000     -10.320335      -280.8306
  48   2.0000     -10.319401      -280.8052
  49   2.0000     -10.319121      -280.7976
  50   2.0000     -10.317757      -280.7604
  51   2.0000     -10.316687      -280.7313
  52   2.0000     -10.315013      -280.6858
  53   2.0000     -10.314996      -280.6853
  54   2.0000     -10.312875      -280.6276
  55   2.0000     -10.310245      -280.5560
  56   2.0000     -10.309596      -280.5384
  57   2.0000     -10.308851      -280.5181
  58   2.0000     -10.308749      -280.5153
  59   2.0000     -10.308527      -280.5093
  60   2.0000     -10.306439      -280.4525
  61   2.0000     -10.305506      -280.4271
  62   2.0000     -10.304820      -280.4084
  63   2.0000     -10.303533      -280.3734
  64   2.0000     -10.301887      -280.3286
  65   2.0000     -10.301646      -280.3220
  66   2.0000     -10.299405      -280.2611
  67   2.0000     -10.298729      -280.2427
  68   2.0000     -10.298417      -280.2342
  69   2.0000     -10.298121      -280.2261
  70   2.0000      -8.100849      -220.4353
  71   2.0000      -8.098790      -220.3793
  72   2.0000      -8.080625      -219.8850
  73   2.0000      -6.070129      -165.1766
  74   2.0000      -6.067933      -165.1169
  75   2.0000      -6.065784      -165.0584
  76   2.0000      -6.063825      -165.0051
  77   2.0000      -6.063297      -164.9907
  78   2.0000      -6.061292      -164.9361
  79   2.0000      -6.050499      -164.6424
  80   2.0000      -6.046259      -164.5271
  81   2.0000      -6.041297      -164.3921
  82   2.0000      -1.238169       -33.6923
  83   2.0000      -1.139787       -31.0152
  84   2.0000      -1.134240       -30.8642
  85   2.0000      -1.092923       -29.7400
  86   2.0000      -1.088516       -29.6200
  87   2.0000      -1.070582       -29.1320
  88   2.0000      -1.070322       -29.1249
  89   2.0000      -1.058755       -28.8102
  90   2.0000      -1.036444       -28.2031
  91   2.0000      -1.030576       -28.0434
  92   2.0000      -1.015667       -27.6377
  93   2.0000      -1.012526       -27.5522
  94   2.0000      -1.011079       -27.5128
  95   2.0000      -1.002421       -27.2773
  96   2.0000      -0.997705       -27.1489
  97   2.0000      -0.981487       -26.7076
  98   2.0000      -0.973005       -26.4768
  99   2.0000      -0.968569       -26.3561
 100   2.0000      -0.964673       -26.2501
 101   2.0000      -0.961902       -26.1747
 102   2.0000      -0.948123       -25.7997
 103   2.0000      -0.945338       -25.7240
 104   2.0000      -0.941628       -25.6230
 105   2.0000      -0.937338       -25.5063
 106   2.0000      -0.922084       -25.0912
 107   2.0000      -0.915032       -24.8993
 108   2.0000      -0.890526       -24.2325
 109   2.0000      -0.884565       -24.0702
 110   2.0000      -0.876255       -23.8441
 111   2.0000      -0.875684       -23.8286
 112   2.0000      -0.871510       -23.7150
 113   2.0000      -0.870565       -23.6893
 114   2.0000      -0.865996       -23.5650
 115   2.0000      -0.863937       -23.5089
 116   2.0000      -0.858319       -23.3561
 117   2.0000      -0.841239       -22.8913
 118   2.0000      -0.830277       -22.5930
 119   2.0000      -0.805490       -21.9185
 120   2.0000      -0.797707       -21.7067
 121   2.0000      -0.789848       -21.4929
 122   2.0000      -0.784475       -21.3466
 123   2.0000      -0.776744       -21.1363
 124   2.0000      -0.765814       -20.8388
 125   2.0000      -0.762178       -20.7399
 126   2.0000      -0.748331       -20.3631
 127   2.0000      -0.742194       -20.1961
 128   2.0000      -0.738047       -20.0833
 129   2.0000      -0.724176       -19.7058
 130   2.0000      -0.721671       -19.6377
 131   2.0000      -0.712981       -19.4012
 132   2.0000      -0.712857       -19.3978
 133   2.0000      -0.703308       -19.1380
 134   2.0000      -0.697946       -18.9921
 135   2.0000      -0.692436       -18.8421
 136   2.0000      -0.685098       -18.6425
 137   2.0000      -0.674932       -18.3658
 138   2.0000      -0.664597       -18.0846
 139   2.0000      -0.659078       -17.9344
 140   2.0000      -0.656348       -17.8601
 141   2.0000      -0.650806       -17.7093
 142   2.0000      -0.649321       -17.6689
 143   2.0000      -0.643132       -17.5005
 144   2.0000      -0.636518       -17.3205
 145   2.0000      -0.632808       -17.2196
 146   2.0000      -0.631771       -17.1914
 147   2.0000      -0.628493       -17.1022
 148   2.0000      -0.617298       -16.7975
 149   2.0000      -0.608786       -16.5659
 150   2.0000      -0.605733       -16.4828
 151   2.0000      -0.601709       -16.3733
 152   2.0000      -0.597857       -16.2685
 153   2.0000      -0.594615       -16.1803
 154   2.0000      -0.583969       -15.8906
 155   2.0000      -0.582640       -15.8545
 156   2.0000      -0.581333       -15.8189
 157   2.0000      -0.578587       -15.7442
 158   2.0000      -0.576346       -15.6832
 159   2.0000      -0.565061       -15.3761
 160   2.0000      -0.563938       -15.3455
 161   2.0000      -0.562614       -15.3095
 162   2.0000      -0.560199       -15.2438
 163   2.0000      -0.554641       -15.0925
 164   2.0000      -0.553729       -15.0677
 165   2.0000      -0.553391       -15.0585
 166   2.0000      -0.544357       -14.8127
 167   2.0000      -0.542260       -14.7556
 168   2.0000      -0.540838       -14.7170
 169   2.0000      -0.537522       -14.6267
 170   2.0000      -0.533581       -14.5195
 171   2.0000      -0.528590       -14.3837
 172   2.0000      -0.525875       -14.3098
 173   2.0000      -0.521844       -14.2001
 174   2.0000      -0.519868       -14.1463
 175   2.0000      -0.518639       -14.1129
 176   2.0000      -0.515444       -14.0259
 177   2.0000      -0.513270       -13.9668
 178   2.0000      -0.509004       -13.8507
 179   2.0000      -0.507760       -13.8169
 180   2.0000      -0.503170       -13.6919
 181   2.0000      -0.499191       -13.5837
 182   2.0000      -0.496329       -13.5058
 183   2.0000      -0.495281       -13.4773
 184   2.0000      -0.493446       -13.4274
 185   2.0000      -0.488626       -13.2962
 186   2.0000      -0.486238       -13.2312
 187   2.0000      -0.485088       -13.1999
 188   2.0000      -0.482827       -13.1384
 189   2.0000      -0.481608       -13.1052
 190   2.0000      -0.479758       -13.0549
 191   2.0000      -0.477676       -12.9982
 192   2.0000      -0.473281       -12.8786
 193   2.0000      -0.471316       -12.8252
 194   2.0000      -0.467619       -12.7246
 195   2.0000      -0.466872       -12.7042
 196   2.0000      -0.465961       -12.6794
 197   2.0000      -0.464510       -12.6399
 198   2.0000      -0.462180       -12.5765
 199   2.0000      -0.461391       -12.5551
 200   2.0000      -0.458413       -12.4740
 201   2.0000      -0.454856       -12.3772
 202   2.0000      -0.453814       -12.3489
 203   2.0000      -0.452138       -12.3033
 204   2.0000      -0.449609       -12.2345
 205   2.0000      -0.446866       -12.1598
 206   2.0000      -0.445028       -12.1098
 207   2.0000      -0.441162       -12.0046
 208   2.0000      -0.438684       -11.9372
 209   2.0000      -0.436783       -11.8855
 210   2.0000      -0.434615       -11.8265
 211   2.0000      -0.432634       -11.7726
 212   2.0000      -0.430400       -11.7118
 213   2.0000      -0.426818       -11.6143
 214   2.0000      -0.419807       -11.4235
 215   2.0000      -0.418818       -11.3966
 216   2.0000      -0.417510       -11.3610
 217   2.0000      -0.415016       -11.2932
 218   2.0000      -0.411670       -11.2021
 219   2.0000      -0.410574       -11.1723
 220   2.0000      -0.403842       -10.9891
 221   2.0000      -0.392448       -10.6790
 222   2.0000      -0.386735       -10.5236
 223   2.0000      -0.374337       -10.1862
 224   2.0000      -0.367137        -9.9903
 225   2.0000      -0.364699        -9.9240
 226   2.0000      -0.364222        -9.9110
 227   2.0000      -0.363209        -9.8834
 228   2.0000      -0.355572        -9.6756
 229   2.0000      -0.350525        -9.5383
 230   2.0000      -0.349612        -9.5134
 231   2.0000      -0.345212        -9.3937
 232   2.0000      -0.344352        -9.3703
 233   2.0000      -0.342871        -9.3300
 234   2.0000      -0.340760        -9.2726
 235   2.0000      -0.337990        -9.1972
 236   2.0000      -0.334552        -9.1036
 237   2.0000      -0.322901        -8.7866
 238   2.0000      -0.313196        -8.5225
 239   2.0000      -0.294130        -8.0037
 240   2.0000      -0.277997        -7.5647
 241   2.0000      -0.267259        -7.2725
 242   0.0000      -0.133754        -3.6396
 243   0.0000      -0.116075        -3.1586
 244   0.0000      -0.110231        -2.9995
 245   0.0000      -0.099531        -2.7084
 246   0.0000      -0.080427        -2.1885

MULLIKEN ATOMIC CHARGES
-----------------------
   0 C :    0.057324
   1 N :   -0.027459
   2 C :    0.042937
   3 C :   -0.106605
   4 C :    0.210988
   5 O :   -0.118225
   6 C :   -0.039707
   7 C :    0.001343
   8 N :   -0.045211
   9 C :    0.091459
  10 C :   -0.089973
  11 C :   -0.020772
  12 C :   -0.011783
  13 C :    0.051234
  14 C :   -0.075016
  15 C :   -0.024885
  16 C :    0.019393
  17 C :   -0.115687
  18 S :    0.202525
  19 C :   -0.075070
  20 C :    0.001586
  21 C :    0.296742
  22 C :   -0.274435
  23 C :   -0.179869
  24 N :    0.186757
  25 C :   -0.153457
  26 N :    0.150178
  27 C :   -0.039298
  28 C :   -0.133965
  29 S :    0.268688
  30 C :    0.054540
  31 N :   -0.046385
  32 C :    0.080768
  33 C :   -0.154884
  34 C :    0.214053
  35 O :   -0.134973
  36 C :   -0.027569
  37 C :   -0.037697
  38 N :   -0.053528
  39 C :    0.090824
  40 C :   -0.089672
  41 C :    0.037079
  42 C :   -0.024521
  43 C :    0.019502
  44 C :    0.213058
  45 C :   -0.128718
  46 C :    0.265771
  47 C :   -0.341424
  48 C :   -0.184582
  49 N :    0.124088
  50 C :   -0.135105
  51 N :    0.092533
  52 C :   -0.134905
  53 C :    0.176230
  54 O :   -0.206971
  55 C :    0.016054
  56 C :   -0.057171
  57 C :    0.130824
  58 C :    0.046108
  59 C :    0.064968
  60 C :   -0.267384
  61 C :   -0.173291
  62 N :    0.163558
  63 C :   -0.212315
  64 N :    0.160828
  65 S :    0.159614
  66 C :   -0.029132
  67 C :    0.043786
  68 C :    0.053618
  69 C :   -0.062364
  70 H :    0.011649
  71 H :    0.017631
  72 H :    0.002430
  73 H :    0.020072
  74 H :   -0.013133
  75 H :    0.021496
  76 H :    0.017422
  77 H :    0.013308
  78 H :   -0.002757
  79 H :    0.009409
  80 H :    0.019897
  81 H :    0.015411
  82 H :    0.042113
  83 H :    0.029821
  84 H :    0.011284
  85 H :    0.008796
  86 H :    0.013820
  87 H :    0.006376
Sum of atomic charges:   -0.0000000

LOEWDIN ATOMIC CHARGES
----------------------
   0 C :    0.087323
   1 N :   -0.076313
   2 C :    0.044057
   3 C :   -0.049231
   4 C :    0.065878
   5 O :   -0.128613
   6 C :   -0.036347
   7 C :    0.036788
   8 N :   -0.090769
   9 C :    0.084354
  10 C :   -0.026654
  11 C :   -0.042651
  12 C :    0.000753
  13 C :   -0.035806
  14 C :   -0.151956
  15 C :   -0.018744
  16 C :   -0.047440
  17 C :   -0.194440
  18 S :    0.487874
  19 C :   -0.155777
  20 C :   -0.070911
  21 C :    0.073592
  22 C :   -0.080670
  23 C :   -0.014746
  24 N :   -0.017671
  25 C :    0.001285
  26 N :   -0.041670
  27 C :   -0.003740
  28 C :   -0.190280
  29 S :    0.529618
  30 C :    0.047063
  31 N :   -0.118803
  32 C :    0.044419
  33 C :   -0.027137
  34 C :    0.067461
  35 O :   -0.139066
  36 C :   -0.043738
  37 C :    0.021944
  38 N :   -0.094498
  39 C :    0.075725
  40 C :   -0.033362
  41 C :   -0.032832
  42 C :    0.000126
  43 C :   -0.006303
  44 C :    0.085349
  45 C :   -0.035904
  46 C :    0.057227
  47 C :   -0.183736
  48 C :   -0.031610
  49 N :   -0.075358
  50 C :   -0.013143
  51 N :   -0.092006
  52 C :   -0.044231
  53 C :    0.082205
  54 O :    0.006806
  55 C :   -0.060379
  56 C :   -0.105767
  57 C :   -0.033256
  58 C :   -0.039964
  59 C :   -0.065003
  60 C :   -0.158248
  61 C :   -0.023408
  62 N :   -0.043519
  63 C :   -0.038793
  64 N :   -0.034143
  65 S :    0.438953
  66 C :    0.010552
  67 C :    0.004329
  68 C :    0.011710
  69 C :   -0.001077
  70 H :    0.023768
  71 H :    0.026523
  72 H :    0.037258
  73 H :    0.043875
  74 H :    0.028426
  75 H :    0.045464
  76 H :    0.041616
  77 H :    0.025146
  78 H :    0.035574
  79 H :    0.034289
  80 H :    0.043025
  81 H :    0.041249
  82 H :    0.049760
  83 H :    0.046632
  84 H :    0.043095
  85 H :    0.040209
  86 H :    0.041769
  87 H :    0.036645

  Mayer bond orders larger than 0.100000
B(  0-C ,  1-N ) :   1.7525 B(  0-C , 11-C ) :   1.0110 B(  0-C , 70-H ) :   0.9878
B(  1-N ,  2-C ) :   1.2562 B(  2-C ,  3-C ) :   1.0604 B(  2-C ,  7-C ) :   1.5037
B(  3-C ,  4-C ) :   0.8993 B(  3-C , 11-C ) :   1.5601 B(  4-C ,  5-O ) :   2.2929
B(  4-C ,  6-C ) :   0.8908 B(  6-C ,  7-C ) :   1.0389 B(  6-C , 10-C ) :   1.6521
B(  7-C ,  8-N ) :   1.2855 B(  8-N ,  9-C ) :   1.6884 B(  9-C , 10-C ) :   1.0452
B(  9-C , 71-H ) :   0.9882 B( 10-C , 72-H ) :   1.0097 B( 11-C , 12-C ) :   1.1294
B( 12-C , 13-C ) :   1.6581 B( 12-C , 73-H ) :   0.9773 B( 13-C , 14-C ) :   1.1191
B( 13-C , 74-H ) :   0.9588 B( 14-C , 15-C ) :   1.4386 B( 14-C , 18-S ) :   1.1197
B( 15-C , 16-C ) :   1.3196 B( 15-C , 75-H ) :   0.9918 B( 16-C , 17-C ) :   1.4165
B( 16-C , 21-C ) :   0.9941 B( 17-C , 18-S ) :   1.1175 B( 17-C , 19-C ) :   1.2148
B( 19-C , 20-C ) :   1.3914 B( 19-C , 29-S ) :   1.1502 B( 20-C , 21-C ) :   0.9991
B( 20-C , 27-C ) :   1.3429 B( 21-C , 22-C ) :   1.7250 B( 22-C , 23-C ) :   1.1367
B( 22-C , 25-C ) :   1.1461 B( 23-C , 24-N ) :   2.9909 B( 25-C , 26-N ) :   2.9182
B( 27-C , 28-C ) :   1.4072 B( 27-C , 76-H ) :   0.9818 B( 28-C , 29-S ) :   1.0856
B( 28-C , 30-C ) :   1.1496 B( 30-C , 31-N ) :   1.6061 B( 30-C , 32-C ) :   0.1245
B( 30-C , 41-C ) :   1.0395 B( 31-N , 32-C ) :   1.3741 B( 32-C , 33-C ) :   1.0552
B( 32-C , 37-C ) :   1.3937 B( 33-C , 34-C ) :   0.8861 B( 33-C , 41-C ) :   1.5781
B( 34-C , 35-O ) :   2.2213 B( 34-C , 36-C ) :   0.9249 B( 36-C , 37-C ) :   1.0658
B( 36-C , 40-C ) :   1.5910 B( 37-C , 38-N ) :   1.3284 B( 38-N , 39-C ) :   1.6381
B( 39-C , 40-C ) :   1.0825 B( 39-C , 77-H ) :   0.9896 B( 40-C , 78-H ) :   1.0115
B( 41-C , 42-C ) :   1.0941 B( 42-C , 43-C ) :   1.6975 B( 42-C , 79-H ) :   0.9447
B( 43-C , 44-C ) :   1.0663 B( 43-C , 80-H ) :   0.9660 B( 44-C , 45-C ) :   1.5604
B( 44-C , 54-O ) :   1.1158 B( 45-C , 46-C ) :   1.1500 B( 45-C , 81-H ) :   0.9537
B( 46-C , 47-C ) :   1.5293 B( 46-C , 52-C ) :   1.1441 B( 47-C , 48-C ) :   1.1339
B( 47-C , 50-C ) :   1.1451 B( 48-C , 49-N ) :   3.0022 B( 50-C , 51-N ) :   2.9460
B( 52-C , 53-C ) :   1.5684 B( 52-C , 82-H ) :   0.9630 B( 53-C , 54-O ) :   1.1079
B( 53-C , 55-C ) :   1.0684 B( 55-C , 56-C ) :   1.7218 B( 55-C , 83-H ) :   0.9303
B( 56-C , 57-C ) :   1.0302 B( 56-C , 65-S ) :   1.0259 B( 57-C , 58-C ) :   1.3305
B( 57-C , 69-C ) :   1.3554 B( 58-C , 59-C ) :   1.0729 B( 58-C , 66-C ) :   1.3561
B( 59-C , 60-C ) :   1.6389 B( 59-C , 65-S ) :   1.0993 B( 60-C , 61-C ) :   1.1685
B( 60-C , 63-C ) :   1.1301 B( 61-C , 62-N ) :   2.9729 B( 63-C , 64-N ) :   3.0350
B( 66-C , 67-C ) :   1.4001 B( 66-C , 84-H ) :   0.9805 B( 67-C , 68-C ) :   1.3562
B( 67-C , 85-H ) :   0.9886 B( 68-C , 69-C ) :   1.4019 B( 68-C , 86-H ) :   0.9871
B( 69-C , 87-H ) :   0.9973

-----------------------------------------------------------------------------
         ABSORPTION SPECTRUM VIA TRANSITION ELECTRIC DIPOLE MOMENTS
-----------------------------------------------------------------------------
State   Energy  Wavelength   fosc         T2         TX        TY        TZ
        (cm-1)    (nm)                  (au**2)     (au)      (au)      (au)
-----------------------------------------------------------------------------
   0   13826.4    723.3   0.684699606  16.30302   3.08113   2.60548  -0.14547
   1   17427.9    573.8   0.547189594  10.33637   2.48934   2.02130  -0.23212
   2   17968.5    556.5   0.303407955   5.55894  -2.20759  -0.79798  -0.22072
   3   18746.4    533.4   0.096958065   1.70271   1.26796   0.29133   0.10063
   4   20871.7    479.1   0.104391775   1.64658  -1.25238  -0.01743  -0.27896
   5   21983.5    454.9   0.039054074   0.58485   0.29358  -0.70269  -0.06993
   6   22162.3    451.2   0.010324048   0.15336  -0.06261  -0.38062   0.06761
   7   22483.0    444.8   0.000452786   0.00663   0.00473   0.00347   0.08121
   8   22793.7    438.7   0.335930870   4.85188   0.50688   2.14012   0.12189
   9   24772.1    403.7   0.800803967  10.64239  -0.12541  -3.18622   0.68897
  10   24825.6    402.8   0.068652635   0.91040   0.40804  -0.82742   0.24348
  11   25447.1    393.0   0.037013043   0.47884   0.49445   0.48105   0.05429
  12   25928.7    385.7   0.084205014   1.06914   0.72077  -0.73457   0.10021
  13   26001.8    384.6   0.246619455   3.12248  -1.17974   1.28385  -0.28711
  14   26628.4    375.5   0.498727936   6.16586  -2.35612  -0.59950  -0.50515
  15   26775.3    373.5   0.047562252   0.58480  -0.67234  -0.33532  -0.14250
  16   26888.1    371.9   0.000255877   0.00313  -0.02576  -0.02415   0.04343
  17   27302.1    366.3   0.091335982   1.10134  -0.97092  -0.39678  -0.03488
  18   27503.6    363.6   0.200445700   2.39929   0.35495   1.50637   0.06450
  19   27613.0    362.1   0.084313317   1.00521  -0.13926   0.98896  -0.08821
  20   27935.1    358.0   0.002280248   0.02687  -0.00997  -0.01271  -0.16313
  21   28101.1    355.9   0.003694974   0.04329  -0.13223   0.12521  -0.10063
  22   28398.9    352.1   0.001916531   0.02222   0.13290   0.06727   0.00553
  23   28468.8    351.3   0.120766974   1.39655  -0.94193   0.60311  -0.38153
  24   28856.2    346.5   0.045041392   0.51386   0.70953   0.07209   0.07234
  25   29860.4    334.9   0.320239109   3.53065   1.81967  -0.46795  -0.02144
  26   29911.9    334.3   0.000005791   0.00006   0.00153   0.00760   0.00189
  27   30259.5    330.5   0.109532305   1.19167  -0.87753  -0.64726  -0.05170
  28   30807.7    324.6   0.006123497   0.06544  -0.23674  -0.09588  -0.01396
  29   31036.0    322.2   0.080591467   0.85487  -0.71296  -0.57905   0.10612
  30   31413.5    318.3   0.182526351   1.91286  -1.32913  -0.35074  -0.15251
  31   32418.5    308.5   0.209145133   2.12388  -0.00580  -1.45084  -0.13747
  32   32794.1    304.9   0.032034503   0.32159   0.45886   0.32945   0.04998
  33   32940.6    303.6   0.033064723   0.33045   0.50226  -0.20532  -0.18981
  34   33208.4    301.1   0.047012814   0.46606  -0.19746  -0.02634  -0.65298
  35   33259.6    300.7   0.322027450   3.18751   1.75175   0.32109  -0.12568
  36   33625.0    297.4   0.197699210   1.93561   0.70929  -1.06457   0.54699
  37   33825.5    295.6   0.233332362   2.27094  -1.50335   0.01400   0.10336
  38   34328.4    291.3   0.066036776   0.63330   0.65948   0.44199  -0.05499
  39   34509.0    289.8   0.090563108   0.86396   0.89323  -0.25672   0.01390
  40   34947.4    286.1   0.024316920   0.22907   0.16347   0.42044  -0.15993
  41   35083.8    285.0   0.008236467   0.07729  -0.23386   0.03766   0.14553
  42   35171.1    284.3   0.097623649   0.91379   0.85884  -0.41720   0.04608
  43   35563.6    281.2   0.000012962   0.00012   0.00051  -0.00085  -0.01091
  44   35841.7    279.0   0.155154525   1.42512   0.56188   1.04614  -0.12245
  45   36385.9    274.8   0.014010254   0.12676  -0.33756  -0.02729  -0.10985
  46   36447.9    274.4   0.056696928   0.51211   0.15870  -0.47894   0.50748
  47   36534.3    273.7   0.051613201   0.46509  -0.52448   0.42128   0.11195
  48   36765.2    272.0   0.022578698   0.20218   0.43007   0.12354  -0.04420
  49   36973.5    270.5   0.076360970   0.67992  -0.77954   0.25646  -0.08038
  50   37212.3    268.7   0.125355206   1.10900   0.84946  -0.58525   0.21189
  51   37411.5    267.3   0.181281986   1.59524   1.17324   0.46319   0.06478
  52   37706.5    265.2   0.029098648   0.25406  -0.24235   0.42004  -0.13744
  53   38031.2    262.9   0.011714390   0.10140   0.22181   0.20537   0.10012
  54   38242.7    261.5   0.006906185   0.05945  -0.24318  -0.00140   0.01774
  55   38298.5    261.1   0.074242088   0.63818  -0.52522  -0.59563  -0.08694
  56   38381.3    260.5   0.006950828   0.05962  -0.18890  -0.14579   0.05181
  57   38458.2    260.0   0.002208309   0.01890  -0.10080   0.00173   0.09349
  58   38652.2    258.7   0.063344392   0.53952  -0.55624   0.47490  -0.06773
  59   38918.7    256.9   0.022294382   0.18859   0.42979   0.05260   0.03315
  60   39001.8    256.4   0.000069968   0.00059   0.00704  -0.00230   0.02315
  61   39296.6    254.5   0.005336500   0.04471   0.20385   0.00070  -0.05615
  62   39372.9    254.0   0.000003005   0.00003   0.00301   0.00395   0.00066
  63   39603.2    252.5   0.007709017   0.06408   0.05867  -0.23503   0.07348
  64   39759.6    251.5   0.008777980   0.07268   0.00931   0.26818  -0.02596
  65   39864.9    250.8   0.045682874   0.37726   0.55966   0.24508  -0.06309
  66   40004.1    250.0   0.007150743   0.05885  -0.22126   0.09810   0.01636
  67   40211.7    248.7   0.001323869   0.01084  -0.07001   0.01780  -0.07497
  68   40273.1    248.3   0.008372163   0.06844  -0.16809   0.18611  -0.07447

FINAL SINGLE POINT ENERGY     -4032.067039689919

DIPOLE MOMENT
-------------
                                X             Y             Z
Electronic contribution:     11.47603      -2.13905      -1.77015
Nuclear contribution   :     -9.81156      -1.00406       3.52405
                        -----------------------------------------
Total Dipole Moment    :      1.66447      -3.14310       1.75390
                        -----------------------------------------
Magnitude (a.u.)       :      3.96556
Magnitude (Debye)      :     10.07966

Rotational constants in cm-1:     0.001192     0.000340     0.000268
Rotational constants in MHz :    35.735926    10.194989     8.036216

                             ****ORCA TERMINATED NORMALLY****
TOTAL RUN TIME: 0 days 0 hours 9 minutes 2 seconds 307 msec
