                         Program Version 4.2.0 -  RELEASE  -
|  1> # ORCA input file
|  2> # SCF done       -181.648182795075          0.000776414595
|  3> ! CAM-B3LYP def2-SVP def2/J RIJCOSX Grid4 TightSCF
|  4> %maxcore 5000
|  5> %tddft
|  6>     Mode sTDDFT
|  7>     Ethresh 5.0
|  8>     maxcore 5000
|  9> end
| 10>
| 11> %pal
| 12>   nprocs 6
| 13>   end
| 14> * xyz 0 1
| 15>    C        8.12709         6.51192        -0.52342
| 16>    N        7.92537         7.75360        -0.20794
| 17>    C        6.78312         7.76067         0.54266
| 18>    C        6.26252         6.39268         0.71009
| 19>    C        5.00802         6.41547         1.47769
| 20>    O        4.30096         5.48248         1.80076
| 21>    C        4.81230         7.84798         1.74547
| 22>    C        5.93294         8.63325         1.15983
| 23>    N        5.74604         9.95913         1.38841
| 24>    C        4.61924        10.04087         2.04345
| 25>    C        3.97462         8.75647         2.29599
| 26>    C        7.12484         5.57644         0.01079
| 27>    C        7.10802         4.17442        -0.21940
| 28>    C        6.23191         3.34738         0.40765
| 29>    C        6.15674         1.95549         0.13578
| 30>    N        7.07335         1.35515        -0.61246
| 31>    C        6.75581         0.04679        -0.62405
| 32>    C        5.55312        -0.21044         0.17674
| 33>    C        5.21433        -1.64366         0.17260
| 34>    O        4.29474        -2.20164         0.72666
| 35>    C        6.28148        -2.21639        -0.67383
| 36>    C        7.19790        -1.14894        -1.13770
| 37>    N        8.17509        -1.66529        -1.92194
| 38>    C        7.92775        -2.95063        -1.97556
| 39>    C        6.75705        -3.36227        -1.22147
| 40>    C        5.13268         1.00486         0.65563
| 41>    C        3.97856         1.21296         1.46235
| 42>    C        3.37731         2.38947         1.75737
| 43>    C        2.25136         2.52791         2.60627
| 44>    C        1.72613         3.74104         3.03567
| 45>    C        0.64531         3.56593         3.89222
| 46>    C        0.33788         2.20396         4.10142
| 47>    S        1.38634         1.15042         3.26368
| 48>    C       -0.76787         2.12066         4.97166
| 49>    C       -1.16829         3.43214         5.32994
| 50>    C       -0.28714         4.37819         4.65946
| 51>    C       -0.32569         5.73847         4.74106
| 52>    C        0.58587         6.57629         4.06651
| 53>    N        1.31708         7.28883         3.54414
| 54>    C       -1.28637         6.42403         5.51805
| 55>    N       -2.05899         7.00100         6.13710
| 56>    C       -2.24665         3.43924         6.19775
| 57>    C       -2.69216         2.14950         6.49646
| 58>    S       -1.72870         0.91921         5.68655
| 59>    C       -3.75911         1.86456         7.37353
| 60>    N       -4.31157         2.85727         8.07209
| 61>    C       -5.25056         2.29401         8.84322
| 62>    C       -5.31894         0.84069         8.63378
| 63>    C       -6.35542         0.23808         9.49502
| 64>    O       -6.66819        -0.93056         9.58517
| 65>    C       -6.89285         1.40226        10.20953
| 66>    C       -6.19445         2.63642         9.78902
| 67>    N       -6.68773         3.70995        10.44136
| 68>    C       -7.63212         3.23417        11.22340
| 69>    C       -7.81367         1.80420        11.12680
| 70>    C       -4.37790         0.54729         7.67581
| 71>    C       -4.06847        -0.68835         7.05514
| 72>    C       -4.59978        -1.89126         7.39701
| 73>    C       -4.20003        -3.05370         6.68675
| 74>    N       -3.30566        -2.98020         5.70318
| 75>    C       -3.14797        -4.23457         5.25546
| 76>    C       -3.99817        -5.18526         6.00275
| 77>    C       -3.79888        -6.55216         5.48986
| 78>    O       -4.31947        -7.58396         5.85400
| 79>    C       -2.80338        -6.35692         4.41769
| 80>    C       -2.43685        -4.93028         4.31077
| 81>    N       -1.52223        -4.74283         3.32748
| 82>    C       -1.30443        -5.93608         2.83122
| 83>    C       -2.07123        -6.98978         3.46517
| 84>    C       -4.68003        -4.43744         6.92346
| 85>    C       -5.64720        -4.81117         7.91830
| 86>    C       -6.04862        -6.06832         8.11077
| 87>    H        8.97318         6.22565        -1.12421
| 88>    H        4.23886        10.99910         2.35275
| 89>    H        3.04307         8.60809         2.80606
| 90>    H        7.80637         3.76315        -0.93495
| 91>    H        5.56559         3.75918         1.14767
| 92>    H        8.56924        -3.60417        -2.54098
| 93>    H        6.38872        -4.36580        -1.14188
| 94>    H        3.54416         0.29564         1.84686
| 95>    H        3.73082         3.32698         1.35958
| 96>    H        2.15219         4.68183         2.73569
| 97>    H       -2.72852         4.30194         6.62094
| 98>    H       -8.18991         3.89636        11.86242
| 99>    H       -8.52919         1.22594        11.67697
|100>    H       -3.36886        -0.69650         6.23221
|101>    H       -5.31712        -1.97762         8.20016
|102>    H       -0.60487        -6.06791         2.02394
|103>    H       -2.03548        -8.02924         3.20557
|104>    H       -6.05064        -4.01001         8.52275
|105>    H       -5.66150        -6.88296         7.52114
|106>    H       -6.77494        -6.31262         8.86687
|107> *
|108>
|109>                          ****END OF INPUT****

CARTESIAN COORDINATES (ANGSTROEM)
---------------------------------
  C      8.127090    6.511920   -0.523420
  N      7.925370    7.753600   -0.207940
  C      6.783120    7.760670    0.542660
  C      6.262520    6.392680    0.710090
  C      5.008020    6.415470    1.477690
  O      4.300960    5.482480    1.800760
  C      4.812300    7.847980    1.745470
  C      5.932940    8.633250    1.159830
  N      5.746040    9.959130    1.388410
  C      4.619240   10.040870    2.043450
  C      3.974620    8.756470    2.295990
  C      7.124840    5.576440    0.010790
  C      7.108020    4.174420   -0.219400
  C      6.231910    3.347380    0.407650
  C      6.156740    1.955490    0.135780
  N      7.073350    1.355150   -0.612460
  C      6.755810    0.046790   -0.624050
  C      5.553120   -0.210440    0.176740
  C      5.214330   -1.643660    0.172600
  O      4.294740   -2.201640    0.726660
  C      6.281480   -2.216390   -0.673830
  C      7.197900   -1.148940   -1.137700
  N      8.175090   -1.665290   -1.921940
  C      7.927750   -2.950630   -1.975560
  C      6.757050   -3.362270   -1.221470
  C      5.132680    1.004860    0.655630
  C      3.978560    1.212960    1.462350
  C      3.377310    2.389470    1.757370
  C      2.251360    2.527910    2.606270
  C      1.726130    3.741040    3.035670
  C      0.645310    3.565930    3.892220
  C      0.337880    2.203960    4.101420
  S      1.386340    1.150420    3.263680
  C     -0.767870    2.120660    4.971660
  C     -1.168290    3.432140    5.329940
  C     -0.287140    4.378190    4.659460
  C     -0.325690    5.738470    4.741060
  C      0.585870    6.576290    4.066510
  N      1.317080    7.288830    3.544140
  C     -1.286370    6.424030    5.518050
  N     -2.058990    7.001000    6.137100
  C     -2.246650    3.439240    6.197750
  C     -2.692160    2.149500    6.496460
  S     -1.728700    0.919210    5.686550
  C     -3.759110    1.864560    7.373530
  N     -4.311570    2.857270    8.072090
  C     -5.250560    2.294010    8.843220
  C     -5.318940    0.840690    8.633780
  C     -6.355420    0.238080    9.495020
  O     -6.668190   -0.930560    9.585170
  C     -6.892850    1.402260   10.209530
  C     -6.194450    2.636420    9.789020
  N     -6.687730    3.709950   10.441360
  C     -7.632120    3.234170   11.223400
  C     -7.813670    1.804200   11.126800
  C     -4.377900    0.547290    7.675810
  C     -4.068470   -0.688350    7.055140
  C     -4.599780   -1.891260    7.397010
  C     -4.200030   -3.053700    6.686750
  N     -3.305660   -2.980200    5.703180
  C     -3.147970   -4.234570    5.255460
  C     -3.998170   -5.185260    6.002750
  C     -3.798880   -6.552160    5.489860
  O     -4.319470   -7.583960    5.854000
  C     -2.803380   -6.356920    4.417690
  C     -2.436850   -4.930280    4.310770
  N     -1.522230   -4.742830    3.327480
  C     -1.304430   -5.936080    2.831220
  C     -2.071230   -6.989780    3.465170
  C     -4.680030   -4.437440    6.923460
  C     -5.647200   -4.811170    7.918300
  C     -6.048620   -6.068320    8.110770
  H      8.973180    6.225650   -1.124210
  H      4.238860   10.999100    2.352750
  H      3.043070    8.608090    2.806060
  H      7.806370    3.763150   -0.934950
  H      5.565590    3.759180    1.147670
  H      8.569240   -3.604170   -2.540980
  H      6.388720   -4.365800   -1.141880
  H      3.544160    0.295640    1.846860
  H      3.730820    3.326980    1.359580
  H      2.152190    4.681830    2.735690
  H     -2.728520    4.301940    6.620940
  H     -8.189910    3.896360   11.862420
  H     -8.529190    1.225940   11.676970
  H     -3.368860   -0.696500    6.232210
  H     -5.317120   -1.977620    8.200160
  H     -0.604870   -6.067910    2.023940
  H     -2.035480   -8.029240    3.205570
  H     -6.050640   -4.010010    8.522750
  H     -5.661500   -6.882960    7.521140
  H     -6.774940   -6.312620    8.866870

 Total Charge           Charge          ....    0
 Multiplicity           Mult            ....    1
 Number of Electrons    NEL             ....  490
 Basis Dimension        Dim             .... 1116

ORBITAL ENERGIES
----------------

  NO   OCC          E(Eh)            E(eV)
   0   2.0000     -89.006371     -2421.9865
   1   2.0000     -88.996718     -2421.7238
   2   2.0000     -19.240179      -523.5519
   3   2.0000     -19.220032      -523.0037
   4   2.0000     -19.212892      -522.8094
   5   2.0000     -19.205823      -522.6170
   6   2.0000     -14.446630      -393.1128
   7   2.0000     -14.436740      -392.8437
   8   2.0000     -14.430444      -392.6723
   9   2.0000     -14.425575      -392.5399
  10   2.0000     -14.415708      -392.2714
  11   2.0000     -14.413124      -392.2010
  12   2.0000     -14.408627      -392.0787
  13   2.0000     -14.406425      -392.0187
  14   2.0000     -14.405325      -391.9888
  15   2.0000     -14.399711      -391.8361
  16   2.0000     -10.397699      -282.9358
  17   2.0000     -10.379973      -282.4534
  18   2.0000     -10.375545      -282.3329
  19   2.0000     -10.373386      -282.2742
  20   2.0000     -10.366046      -282.0745
  21   2.0000     -10.364159      -282.0231
  22   2.0000     -10.357916      -281.8532
  23   2.0000     -10.352629      -281.7094
  24   2.0000     -10.349820      -281.6329
  25   2.0000     -10.349646      -281.6282
  26   2.0000     -10.348867      -281.6070
  27   2.0000     -10.348369      -281.5934
  28   2.0000     -10.348066      -281.5852
  29   2.0000     -10.346091      -281.5314
  30   2.0000     -10.340377      -281.3760
  31   2.0000     -10.338531      -281.3257
  32   2.0000     -10.337997      -281.3112
  33   2.0000     -10.336249      -281.2636
  34   2.0000     -10.335787      -281.2511
  35   2.0000     -10.332145      -281.1520
  36   2.0000     -10.331538      -281.1354
  37   2.0000     -10.328317      -281.0478
  38   2.0000     -10.327650      -281.0296
  39   2.0000     -10.327131      -281.0155
  40   2.0000     -10.325812      -280.9796
  41   2.0000     -10.325181      -280.9625
  42   2.0000     -10.322234      -280.8823
  43   2.0000     -10.318865      -280.7906
  44   2.0000     -10.318354      -280.7767
  45   2.0000     -10.316593      -280.7288
  46   2.0000     -10.316523      -280.7269
  47   2.0000     -10.316312      -280.7211
  48   2.0000     -10.316279      -280.7202
  49   2.0000     -10.316046      -280.7139
  50   2.0000     -10.313611      -280.6476
  51   2.0000     -10.311279      -280.5842
  52   2.0000     -10.307464      -280.4804
  53   2.0000     -10.306817      -280.4627
  54   2.0000     -10.305893      -280.4376
  55   2.0000     -10.305714      -280.4327
  56   2.0000     -10.304688      -280.4048
  57   2.0000     -10.300643      -280.2947
  58   2.0000     -10.300313      -280.2858
  59   2.0000     -10.299278      -280.2576
  60   2.0000     -10.298980      -280.2495
  61   2.0000     -10.293073      -280.0888
  62   2.0000     -10.292517      -280.0736
  63   2.0000     -10.291548      -280.0473
  64   2.0000     -10.291028      -280.0331
  65   2.0000     -10.290924      -280.0303
  66   2.0000     -10.290715      -280.0246
  67   2.0000     -10.283926      -279.8399
  68   2.0000     -10.283410      -279.8258
  69   2.0000     -10.282082      -279.7897
  70   2.0000     -10.275163      -279.6014
  71   2.0000     -10.265706      -279.3441
  72   2.0000      -8.100124      -220.4156
  73   2.0000      -8.091170      -220.1719
  74   2.0000      -6.069331      -165.1549
  75   2.0000      -6.064998      -165.0370
  76   2.0000      -6.062762      -164.9761
  77   2.0000      -6.060290      -164.9089
  78   2.0000      -6.056157      -164.7964
  79   2.0000      -6.053728      -164.7303
  80   2.0000      -1.153295       -31.3828
  81   2.0000      -1.134129       -30.8612
  82   2.0000      -1.127641       -30.6847
  83   2.0000      -1.120395       -30.4875
  84   2.0000      -1.096113       -29.8267
  85   2.0000      -1.084915       -29.5220
  86   2.0000      -1.082169       -29.4473
  87   2.0000      -1.077930       -29.3320
  88   2.0000      -1.073042       -29.1989
  89   2.0000      -1.062765       -28.9193
  90   2.0000      -1.062707       -28.9177
  91   2.0000      -1.055471       -28.7208
  92   2.0000      -1.053380       -28.6639
  93   2.0000      -1.034531       -28.1510
  94   2.0000      -1.017658       -27.6919
  95   2.0000      -1.007387       -27.4124
  96   2.0000      -0.970925       -26.4202
  97   2.0000      -0.955851       -26.0100
  98   2.0000      -0.946170       -25.7466
  99   2.0000      -0.943679       -25.6788
 100   2.0000      -0.938501       -25.5379
 101   2.0000      -0.932692       -25.3798
 102   2.0000      -0.926719       -25.2173
 103   2.0000      -0.920018       -25.0350
 104   2.0000      -0.910679       -24.7808
 105   2.0000      -0.900669       -24.5084
 106   2.0000      -0.883550       -24.0426
 107   2.0000      -0.877712       -23.8838
 108   2.0000      -0.874229       -23.7890
 109   2.0000      -0.870633       -23.6911
 110   2.0000      -0.866739       -23.5852
 111   2.0000      -0.863662       -23.5014
 112   2.0000      -0.857534       -23.3347
 113   2.0000      -0.853242       -23.2179
 114   2.0000      -0.845616       -23.0104
 115   2.0000      -0.825113       -22.4525
 116   2.0000      -0.823149       -22.3990
 117   2.0000      -0.801787       -21.8177
 118   2.0000      -0.791086       -21.5265
 119   2.0000      -0.785400       -21.3718
 120   2.0000      -0.784104       -21.3365
 121   2.0000      -0.779817       -21.2199
 122   2.0000      -0.764091       -20.7920
 123   2.0000      -0.757572       -20.6146
 124   2.0000      -0.753867       -20.5138
 125   2.0000      -0.746606       -20.3162
 126   2.0000      -0.736916       -20.0525
 127   2.0000      -0.728624       -19.8269
 128   2.0000      -0.719676       -19.5834
 129   2.0000      -0.718371       -19.5479
 130   2.0000      -0.715502       -19.4698
 131   2.0000      -0.700765       -19.0688
 132   2.0000      -0.692952       -18.8562
 133   2.0000      -0.686361       -18.6768
 134   2.0000      -0.678866       -18.4729
 135   2.0000      -0.675190       -18.3728
 136   2.0000      -0.664808       -18.0903
 137   2.0000      -0.657940       -17.9034
 138   2.0000      -0.653550       -17.7840
 139   2.0000      -0.647042       -17.6069
 140   2.0000      -0.642247       -17.4764
 141   2.0000      -0.641833       -17.4652
 142   2.0000      -0.640413       -17.4265
 143   2.0000      -0.637538       -17.3483
 144   2.0000      -0.628890       -17.1130
 145   2.0000      -0.626084       -17.0366
 146   2.0000      -0.623390       -16.9633
 147   2.0000      -0.617720       -16.8090
 148   2.0000      -0.615819       -16.7573
 149   2.0000      -0.609914       -16.5966
 150   2.0000      -0.605742       -16.4831
 151   2.0000      -0.596184       -16.2230
 152   2.0000      -0.592119       -16.1124
 153   2.0000      -0.586460       -15.9584
 154   2.0000      -0.583829       -15.8868
 155   2.0000      -0.579398       -15.7662
 156   2.0000      -0.569691       -15.5021
 157   2.0000      -0.567893       -15.4532
 158   2.0000      -0.564107       -15.3501
 159   2.0000      -0.563656       -15.3379
 160   2.0000      -0.561900       -15.2901
 161   2.0000      -0.559918       -15.2361
 162   2.0000      -0.556860       -15.1529
 163   2.0000      -0.551825       -15.0159
 164   2.0000      -0.550800       -14.9880
 165   2.0000      -0.548912       -14.9367
 166   2.0000      -0.543482       -14.7889
 167   2.0000      -0.540120       -14.6974
 168   2.0000      -0.537283       -14.6202
 169   2.0000      -0.533953       -14.5296
 170   2.0000      -0.532093       -14.4790
 171   2.0000      -0.529739       -14.4149
 172   2.0000      -0.527821       -14.3627
 173   2.0000      -0.522963       -14.2306
 174   2.0000      -0.518177       -14.1003
 175   2.0000      -0.517345       -14.0777
 176   2.0000      -0.515789       -14.0353
 177   2.0000      -0.512715       -13.9517
 178   2.0000      -0.511340       -13.9143
 179   2.0000      -0.507732       -13.8161
 180   2.0000      -0.506659       -13.7869
 181   2.0000      -0.504806       -13.7365
 182   2.0000      -0.502242       -13.6667
 183   2.0000      -0.501716       -13.6524
 184   2.0000      -0.497926       -13.5493
 185   2.0000      -0.497472       -13.5369
 186   2.0000      -0.493417       -13.4266
 187   2.0000      -0.492238       -13.3945
 188   2.0000      -0.490173       -13.3383
 189   2.0000      -0.488144       -13.2831
 190   2.0000      -0.485251       -13.2044
 191   2.0000      -0.484160       -13.1747
 192   2.0000      -0.481044       -13.0899
 193   2.0000      -0.479216       -13.0401
 194   2.0000      -0.478386       -13.0175
 195   2.0000      -0.475906       -12.9501
 196   2.0000      -0.475247       -12.9321
 197   2.0000      -0.474435       -12.9100
 198   2.0000      -0.468816       -12.7571
 199   2.0000      -0.467943       -12.7334
 200   2.0000      -0.467715       -12.7272
 201   2.0000      -0.466436       -12.6924
 202   2.0000      -0.465089       -12.6557
 203   2.0000      -0.462378       -12.5819
 204   2.0000      -0.461665       -12.5625
 205   2.0000      -0.454653       -12.3717
 206   2.0000      -0.451408       -12.2834
 207   2.0000      -0.450680       -12.2636
 208   2.0000      -0.444303       -12.0901
 209   2.0000      -0.441335       -12.0093
 210   2.0000      -0.435199       -11.8424
 211   2.0000      -0.433524       -11.7968
 212   2.0000      -0.429259       -11.6807
 213   2.0000      -0.420868       -11.4524
 214   2.0000      -0.414678       -11.2840
 215   2.0000      -0.410720       -11.1762
 216   2.0000      -0.390999       -10.6396
 217   2.0000      -0.387224       -10.5369
 218   2.0000      -0.377060       -10.2603
 219   2.0000      -0.372479       -10.1357
 220   2.0000      -0.368013       -10.0141
 221   2.0000      -0.364622        -9.9219
 222   2.0000      -0.361602        -9.8397
 223   2.0000      -0.359746        -9.7892
 224   2.0000      -0.356941        -9.7129
 225   2.0000      -0.356734        -9.7072
 226   2.0000      -0.355269        -9.6674
 227   2.0000      -0.354308        -9.6412
 228   2.0000      -0.352891        -9.6026
 229   2.0000      -0.350093        -9.5265
 230   2.0000      -0.349939        -9.5223
 231   2.0000      -0.348732        -9.4895
 232   2.0000      -0.347991        -9.4693
 233   2.0000      -0.336874        -9.1668
 234   2.0000      -0.336416        -9.1543
 235   2.0000      -0.334962        -9.1148
 236   2.0000      -0.333103        -9.0642
 237   2.0000      -0.332117        -9.0374
 238   2.0000      -0.328676        -8.9437
 239   2.0000      -0.324036        -8.8175
 240   2.0000      -0.308690        -8.3999
 241   2.0000      -0.297986        -8.1086
 242   2.0000      -0.295424        -8.0389
 243   2.0000      -0.282845        -7.6966
 244   2.0000      -0.260336        -7.0841
 245   0.0000      -0.135669        -3.6917
 246   0.0000      -0.130023        -3.5381
 247   0.0000      -0.118963        -3.2372
 248   0.0000      -0.108234        -2.9452
 249   0.0000      -0.101138        -2.7521

MULLIKEN ATOMIC CHARGES
-----------------------
   0 C :    0.069928
   1 N :   -0.023557
   2 C :    0.038467
   3 C :   -0.118068
   4 C :    0.244490
   5 O :   -0.152918
   6 C :   -0.024463
   7 C :    0.008731
   8 N :   -0.042217
   9 C :    0.098919
  10 C :   -0.067325
  11 C :    0.002691
  12 C :    0.022649
  13 C :   -0.028307
  14 C :    0.027887
  15 N :   -0.041627
  16 C :    0.070105
  17 C :   -0.137324
  18 C :    0.204753
  19 O :   -0.129022
  20 C :   -0.031578
  21 C :   -0.025056
  22 N :   -0.053625
  23 C :    0.089877
  24 C :   -0.094461
  25 C :    0.046987
  26 C :   -0.039580
  27 C :    0.019621
  28 C :   -0.060035
  29 C :   -0.043240
  30 C :    0.035367
  31 C :   -0.100021
  32 S :    0.215487
  33 C :   -0.063321
  34 C :    0.039108
  35 C :    0.311105
  36 C :   -0.305681
  37 C :   -0.178950
  38 N :    0.197452
  39 C :   -0.200009
  40 N :    0.195897
  41 C :   -0.030689
  42 C :   -0.131293
  43 S :    0.206095
  44 C :    0.066740
  45 N :   -0.045858
  46 C :    0.081909
  47 C :   -0.159026
  48 C :    0.221152
  49 O :   -0.143997
  50 C :   -0.017112
  51 C :   -0.043520
  52 N :   -0.049633
  53 C :    0.092502
  54 C :   -0.094249
  55 C :    0.066924
  56 C :   -0.036328
  57 C :   -0.036509
  58 C :    0.037545
  59 N :   -0.051099
  60 C :    0.057654
  61 C :   -0.160609
  62 C :    0.217782
  63 O :   -0.136024
  64 C :   -0.021212
  65 C :   -0.027967
  66 N :   -0.056381
  67 C :    0.086618
  68 C :   -0.099310
  69 C :    0.037072
  70 C :   -0.052784
  71 C :    0.012125
  72 H :    0.016817
  73 H :    0.022313
  74 H :   -0.011856
  75 H :    0.016181
  76 H :    0.012034
  77 H :    0.011049
  78 H :   -0.005114
  79 H :    0.012070
  80 H :    0.007459
  81 H :    0.008234
  82 H :    0.035445
  83 H :    0.010481
  84 H :   -0.005116
  85 H :    0.023235
  86 H :    0.009652
  87 H :    0.008594
  88 H :   -0.007828
  89 H :   -0.003126
  90 H :    0.044006
  91 H :    0.025816
Sum of atomic charges:   -0.0000000

LOEWDIN ATOMIC CHARGES
----------------------
   0 C :    0.091551
   1 N :   -0.074478
   2 C :    0.041313
   3 C :   -0.036621
   4 C :    0.083895
   5 O :   -0.145435
   6 C :   -0.042026
   7 C :    0.048512
   8 N :   -0.086728
   9 C :    0.095450
  10 C :   -0.006771
  11 C :   -0.045104
  12 C :    0.043261
  13 C :   -0.021214
  14 C :    0.070453
  15 N :   -0.100541
  16 C :    0.041480
  17 C :   -0.043462
  18 C :    0.064070
  19 O :   -0.139718
  20 C :   -0.040933
  21 C :    0.025548
  22 N :   -0.096991
  23 C :    0.076229
  24 C :   -0.035730
  25 C :   -0.027508
  26 C :   -0.021716
  27 C :   -0.025876
  28 C :   -0.146727
  29 C :   -0.019187
  30 C :   -0.056929
  31 C :   -0.189521
  32 S :    0.501740
  33 C :   -0.152325
  34 C :   -0.074049
  35 C :    0.082542
  36 C :   -0.099997
  37 C :    0.004894
  38 N :   -0.031823
  39 C :   -0.022267
  40 N :   -0.017758
  41 C :    0.034833
  42 C :   -0.196286
  43 S :    0.530498
  44 C :    0.056882
  45 N :   -0.110455
  46 C :    0.043684
  47 C :   -0.016557
  48 C :    0.068644
  49 O :   -0.143431
  50 C :   -0.044494
  51 C :    0.020037
  52 N :   -0.094118
  53 C :    0.073749
  54 C :   -0.036848
  55 C :   -0.043666
  56 C :    0.024843
  57 C :   -0.018161
  58 C :    0.071160
  59 N :   -0.112849
  60 C :    0.044410
  61 C :   -0.045834
  62 C :    0.068063
  63 O :   -0.139223
  64 C :   -0.040415
  65 C :    0.016953
  66 N :   -0.100784
  67 C :    0.070253
  68 C :   -0.039599
  69 C :   -0.018084
  70 C :   -0.045559
  71 C :    0.009606
  72 H :    0.030029
  73 H :    0.029330
  74 H :    0.031281
  75 H :    0.043542
  76 H :    0.033056
  77 H :    0.024031
  78 H :    0.034540
  79 H :    0.033301
  80 H :    0.036925
  81 H :    0.040344
  82 H :    0.053070
  83 H :    0.024243
  84 H :    0.034576
  85 H :    0.016928
  86 H :    0.032925
  87 H :    0.022923
  88 H :    0.033089
  89 H :    0.033848
  90 H :    0.027646
  91 H :    0.027618

  Mayer bond orders larger than 0.100000
B(  0-C ,  1-N ) :   1.7235 B(  0-C , 11-C ) :   1.0271 B(  0-C , 72-H ) :   0.9933
B(  1-N ,  2-C ) :   1.2779 B(  2-C ,  3-C ) :   1.0601 B(  2-C ,  7-C ) :   1.4900
B(  3-C ,  4-C ) :   0.9280 B(  3-C , 11-C ) :   1.5428 B(  4-C ,  5-O ) :   2.0982
B(  4-C ,  6-C ) :   0.9299 B(  6-C ,  7-C ) :   1.0356 B(  6-C , 10-C ) :   1.6380
B(  7-C ,  8-N ) :   1.2927 B(  8-N ,  9-C ) :   1.6756 B(  9-C , 10-C ) :   1.0350
B(  9-C , 73-H ) :   0.9886 B( 10-C , 74-H ) :   0.9891 B( 11-C , 12-C ) :   1.0659
B( 12-C , 13-C ) :   1.6515 B( 12-C , 75-H ) :   0.9883 B( 13-C , 14-C ) :   1.1248
B( 13-C , 76-H ) :   0.9483 B( 14-C , 15-N ) :   1.6125 B( 14-C , 16-C ) :   0.1045
B( 14-C , 25-C ) :   0.9869 B( 15-N , 16-C ) :   1.3484 B( 16-C , 17-C ) :   1.0510
B( 16-C , 21-C ) :   1.4111 B( 17-C , 18-C ) :   0.8944 B( 17-C , 25-C ) :   1.5560
B( 18-C , 19-O ) :   2.2763 B( 18-C , 20-C ) :   0.9028 B( 20-C , 21-C ) :   1.0597
B( 20-C , 24-C ) :   1.6127 B( 21-C , 22-N ) :   1.3131 B( 22-N , 23-C ) :   1.6556
B( 23-C , 24-C ) :   1.0689 B( 23-C , 77-H ) :   0.9890 B( 24-C , 78-H ) :   1.0110
B( 25-C , 26-C ) :   1.1571 B( 26-C , 27-C ) :   1.5980 B( 26-C , 79-H ) :   0.9598
B( 27-C , 28-C ) :   1.1737 B( 27-C , 80-H ) :   0.9617 B( 28-C , 29-C ) :   1.4225
B( 28-C , 32-S ) :   1.1066 B( 29-C , 30-C ) :   1.2700 B( 29-C , 81-H ) :   1.0002
B( 30-C , 31-C ) :   1.4041 B( 30-C , 35-C ) :   0.9979 B( 31-C , 32-S ) :   1.1248
B( 31-C , 33-C ) :   1.2146 B( 33-C , 34-C ) :   1.3568 B( 33-C , 43-S ) :   1.1836
B( 34-C , 35-C ) :   0.9824 B( 34-C , 41-C ) :   1.3016 B( 35-C , 36-C ) :   1.7147
B( 36-C , 37-C ) :   1.1324 B( 36-C , 39-C ) :   1.1348 B( 37-C , 38-N ) :   2.9892
B( 38-N , 74-H ) :   0.1011 B( 39-C , 40-N ) :   3.0046 B( 41-C , 42-C ) :   1.3728
B( 41-C , 82-H ) :   1.0135 B( 42-C , 43-S ) :   1.0751 B( 42-C , 44-C ) :   1.1726
B( 44-C , 45-N ) :   1.5883 B( 44-C , 46-C ) :   0.1204 B( 44-C , 55-C ) :   1.0193
B( 45-N , 46-C ) :   1.3887 B( 46-C , 47-C ) :   1.0592 B( 46-C , 51-C ) :   1.3610
B( 47-C , 48-C ) :   0.8856 B( 47-C , 55-C ) :   1.5515 B( 48-C , 49-O ) :   2.1858
B( 48-C , 50-C ) :   0.9356 B( 50-C , 51-C ) :   1.0748 B( 50-C , 54-C ) :   1.5753
B( 51-C , 52-N ) :   1.3454 B( 52-N , 53-C ) :   1.6217 B( 53-C , 54-C ) :   1.0920
B( 53-C , 83-H ) :   0.9898 B( 54-C , 84-H ) :   1.0114 B( 55-C , 56-C ) :   1.0535
B( 56-C , 57-C ) :   1.6686 B( 56-C , 85-H ) :   0.9525 B( 57-C , 58-C ) :   1.1243
B( 57-C , 86-H ) :   0.9523 B( 58-C , 59-N ) :   1.5614 B( 58-C , 60-C ) :   0.1068
B( 58-C , 69-C ) :   1.0105 B( 59-N , 60-C ) :   1.3713 B( 60-C , 61-C ) :   1.0504
B( 60-C , 65-C ) :   1.4111 B( 61-C , 62-C ) :   0.8880 B( 61-C , 69-C ) :   1.5804
B( 62-C , 63-O ) :   2.2091 B( 62-C , 64-C ) :   0.9279 B( 64-C , 65-C ) :   1.0664
B( 64-C , 68-C ) :   1.6010 B( 65-C , 66-N ) :   1.3164 B( 66-N , 67-C ) :   1.6521
B( 67-C , 68-C ) :   1.0756 B( 67-C , 87-H ) :   0.9897 B( 68-C , 88-H ) :   1.0106
B( 69-C , 70-C ) :   1.1121 B( 70-C , 71-C ) :   1.9200 B( 70-C , 89-H ) :   0.9598
B( 71-C , 90-H ) :   0.9326 B( 71-C , 91-H ) :   0.9448

-----------------------------------------------------------------------------
         ABSORPTION SPECTRUM VIA TRANSITION ELECTRIC DIPOLE MOMENTS
-----------------------------------------------------------------------------
State   Energy  Wavelength   fosc         T2         TX        TY        TZ
        (cm-1)    (nm)                  (au**2)     (au)      (au)      (au)
-----------------------------------------------------------------------------
   0   12541.7    797.3   0.409813758  10.75735  -2.60001   0.02248   1.99920
   1   13558.1    737.6   0.024004235   0.58286  -0.02954   0.75868   0.07996
   2   16194.6    617.5   0.385183537   7.83020   2.16856   0.22978  -1.75349
   3   18051.8    554.0   0.278217090   5.07386  -1.12316   1.33761   1.42238
   4   18671.5    535.6   0.032040827   0.56494  -0.36790  -0.62788   0.18802
   5   18800.0    531.9   0.198266236   3.47190  -0.47213  -1.80234   0.02399
   6   19816.0    504.6   0.331141560   5.50141   1.89544  -0.36607  -1.33218
   7   20485.9    488.1   0.411969713   6.62043   0.12439   2.55625   0.26560
   8   21166.3    472.4   0.002429633   0.03779   0.00789  -0.15653  -0.11500
   9   21446.4    466.3   0.000263287   0.00404  -0.02552   0.01222  -0.05693
  10   21617.0    462.6   0.000703502   0.01071   0.08271   0.05070   0.03609
  11   22136.5    451.7   0.988310865  14.69807   2.15651  -2.01435  -2.44743
  12   22681.9    440.9   0.013141348   0.19074   0.19989  -0.37529  -0.09969
  13   22817.7    438.3   0.481627562   6.94889  -0.57245   2.40313   0.91987
  14   23476.0    426.0   0.142487158   1.99815  -0.88296   0.32981   1.05345
  15   24050.3    415.8   0.051681322   0.70744   0.45796   0.68538  -0.16724
  16   24364.0    410.4   0.023917597   0.32318  -0.36847   0.01389   0.43268
  17   24582.0    406.8   0.078131866   1.04637  -0.59012   0.46789   0.69225
  18   24783.6    403.5   0.079315156   1.05358   0.31805  -0.84458  -0.48899
  19   25007.4    399.9   0.004373255   0.05757  -0.02519  -0.23747  -0.02340
  20   25081.2    398.7   0.007580851   0.09951  -0.11601   0.21745   0.19689
  21   25160.7    397.4   0.085495242   1.11865  -0.52265   0.63761   0.66252
  22   25227.7    396.4   0.001207706   0.01576  -0.04057   0.05075   0.10742
  23   25548.8    391.4   0.005847866   0.07535   0.23397   0.04651  -0.13583
  24   25554.1    391.3   0.018105966   0.23326   0.41185   0.21198  -0.13675
  25   25654.0    389.8   0.012237098   0.15704   0.18347  -0.31688  -0.15154
  26   26053.3    383.8   0.003739030   0.04725  -0.10569  -0.15522   0.10947
  27   26156.4    382.3   0.042024183   0.52893  -0.20168  -0.69401   0.08130
  28   26555.2    376.6   0.011184064   0.13865  -0.14414   0.29867   0.16932
  29   26622.8    375.6   0.002833883   0.03504   0.09937   0.12992   0.09104
  30   27037.7    369.9   0.005182684   0.06310  -0.12162   0.15760   0.15322
  31   27232.4    367.2   0.429597566   5.19339   1.00010  -1.86735  -0.84035
  32   27419.1    364.7   0.006032343   0.07243  -0.11581  -0.16817  -0.17531
  33   27977.2    357.4   0.008062620   0.09487   0.22428  -0.20772   0.03773
  34   28397.2    352.1   0.046216291   0.53579  -0.50824   0.29894   0.43372
  35   28767.0    347.6   0.233274958   2.66961  -0.98326   1.05099   0.77345
  36   29342.3    340.8   0.053700433   0.60250  -0.20827   0.71097   0.23162
  37   29414.5    340.0   0.007074546   0.07918   0.18857   0.02867  -0.20688
  38   29702.1    336.7   0.000838158   0.00929  -0.00864   0.06895   0.06679
  39   29852.1    335.0   0.010617550   0.11709   0.18619  -0.21887  -0.18580
  40   29908.5    334.4   0.012851201   0.14146  -0.10784   0.34783   0.09404
  41   29938.8    334.0   0.044537818   0.48975   0.18748  -0.66859  -0.08707
  42   30200.8    331.1   0.165367881   1.80264   0.99580   0.02328  -0.90026
  43   30489.1    328.0   0.050008247   0.53997  -0.09108   0.71502   0.14293
  44   30604.1    326.8   0.004533244   0.04876  -0.05446  -0.20965   0.04295
  45   30636.1    326.4   0.226442933   2.43333   0.01903  -1.55092  -0.16619
  46   31013.6    322.4   0.018166056   0.19283   0.15895  -0.37305  -0.16852
  47   31080.0    321.8   0.000317695   0.00337   0.00328   0.05305   0.02323
  48   31223.0    320.3   0.077214842   0.81415  -0.37261   0.75361   0.32770
  49   31439.6    318.1   0.318062973   3.33052  -0.92579   1.37635   0.76097
  50   31601.0    316.4   0.006934551   0.07224  -0.07289   0.24944   0.06864
  51   31688.0    315.6   0.000446370   0.00464   0.01618  -0.06241  -0.02193
  52   32052.8    312.0   0.026283581   0.26996  -0.36500  -0.01251   0.36956
  53   32277.0    309.8   0.247754578   2.52700  -0.40301  -1.51120   0.28434
  54   32726.3    305.6   0.018701921   0.18813  -0.06526   0.41418   0.11102
  55   32925.9    303.7   0.133678073   1.33659   0.36859   1.05893  -0.28177
  56   33440.4    299.0   0.149433462   1.47113   0.28902  -1.13302  -0.32229
  57   33553.0    298.0   0.218781064   2.14661   0.99172  -0.33958  -1.02362
  58   33654.2    297.1   0.019748783   0.19319   0.15760  -0.39248  -0.11963
  59   33856.3    295.4   0.011345456   0.11032   0.21657  -0.16997  -0.18582
  60   33987.3    294.2   0.000628434   0.00609   0.00807  -0.07759   0.00153
  61   34082.8    293.4   0.001787874   0.01727  -0.08804  -0.03661   0.09044
  62   34150.8    292.8   0.021120143   0.20360  -0.30923  -0.04690   0.32523
  63   34241.2    292.0   0.059268364   0.56984  -0.53851  -0.21384   0.48385
  64   34500.4    289.9   0.028653479   0.27342   0.15043   0.49450  -0.07909
  65   34603.1    289.0   0.011115581   0.10575  -0.14038  -0.26529   0.12518
  66   34699.4    288.2   0.102121607   0.96888  -0.25012  -0.95079   0.04821
  67   34716.2    288.1   0.004408403   0.04180   0.06943   0.18786  -0.04113
  68   34841.4    287.0   0.089879198   0.84926   0.21158   0.89692  -0.00387
  69   35004.5    285.7   0.000902991   0.00849   0.05764  -0.00010  -0.07191
  70   35312.9    283.2   0.001174306   0.01095  -0.07209  -0.07533  -0.00869
  71   35482.6    281.8   0.050242921   0.46616  -0.07399   0.65240   0.18726
  72   35614.5    280.8   0.060947314   0.56338   0.37448  -0.57824  -0.29796
  73   35773.7    279.5   0.004593161   0.04227  -0.01227   0.20492   0.01124
  74   35826.1    279.1   0.137801692   1.26628   0.14968   1.11400   0.05368
  75   35975.4    278.0   0.017921135   0.16400   0.04753  -0.39392  -0.08101
  76   36023.3    277.6   0.046960357   0.42916   0.05275   0.64980   0.06433
  77   36101.0    277.0   0.000575695   0.00525  -0.03002  -0.06402   0.01580
  78   36211.5    276.2   0.005843719   0.05313   0.20296  -0.03067  -0.10485
  79   36422.3    274.6   0.099365760   0.89814   0.01451   0.93704   0.14101
  80   36463.9    274.2   0.026705547   0.24111   0.02072  -0.46394  -0.15949
  81   36495.5    274.0   0.002710275   0.02445  -0.05345   0.11498   0.09150
  82   36597.4    273.2   0.001681726   0.01513  -0.07209   0.01242   0.09888
  83   36820.1    271.6   0.021344629   0.19084   0.10461  -0.31770  -0.28101
  84   36898.2    271.0   0.001000406   0.00893  -0.05415  -0.05695   0.05244
  85   36947.6    270.7   0.000038553   0.00034  -0.01853   0.00014   0.00013
  86   37035.8    270.0   0.130872867   1.16333   0.79587  -0.19062  -0.70256
  87   37074.7    269.7   0.005304595   0.04710   0.04675  -0.20982  -0.02987
  88   37094.8    269.6   0.028765929   0.25529  -0.20557   0.34864   0.30247
  89   37188.0    268.9   0.017779365   0.15739  -0.09607  -0.36916   0.10904
  90   37259.6    268.4   0.006942878   0.06134  -0.02519  -0.24597   0.01446
  91   37312.2    268.0   0.001273495   0.01124  -0.03006   0.00781   0.10135
  92   37397.2    267.4   0.129261679   1.13790  -0.76646  -0.24188   0.70139
  93   37434.0    267.1   0.096745560   0.85082   0.57372  -0.14554  -0.70745
  94   37476.4    266.8   0.003301215   0.02900  -0.05055   0.15987   0.02975
  95   37507.6    266.6   0.006218330   0.05458  -0.13237   0.01117   0.19218
  96   37650.9    265.6   0.002977812   0.02604   0.08263  -0.01524  -0.13776
  97   38053.7    262.8   0.010567130   0.09142  -0.15451   0.17332   0.19367
  98   38182.6    261.9   0.009462261   0.08158  -0.27928   0.00178   0.05988
  99   38220.6    261.6   0.019566478   0.16854   0.32217  -0.00396  -0.25441
 100   38435.9    260.2   0.015654695   0.13409  -0.18913   0.28711   0.12603
 101   38490.7    259.8   0.008028766   0.06867   0.11714  -0.22094  -0.07833
 102   38631.4    258.9   0.067183283   0.57253  -0.03933   0.75293   0.06385
 103   38651.3    258.7   0.000509163   0.00434  -0.00149   0.06245   0.02085
 104   38873.4    257.2   0.016827675   0.14251  -0.18787  -0.27341   0.18018
 105   39008.2    256.4   0.024832083   0.20957   0.00187  -0.44564  -0.10474
 106   39108.9    255.7   0.018327419   0.15428   0.33323   0.00111  -0.20793
 107   39132.1    255.5   0.103769257   0.87299  -0.56540   0.60370   0.43459
 108   39256.8    254.7   0.016481014   0.13821  -0.11620   0.30408   0.17957
 109   39376.4    254.0   0.033469992   0.27983  -0.26153   0.41130   0.20559
 110   39545.9    252.9   0.006952954   0.05788  -0.20689   0.02796   0.11957
 111   39618.3    252.4   0.036832318   0.30606  -0.26574  -0.48049   0.06767
 112   39797.6    251.3   0.281097320   2.32528   0.92558  -0.92171  -0.78678
 113   39814.5    251.2   0.001461773   0.01209   0.06499  -0.06235  -0.06305
 114   39965.0    250.2   0.006413979   0.05284   0.18590  -0.10395  -0.08644
 115   40071.4    249.6   0.036290534   0.29815  -0.51726  -0.00562   0.17481
 116   40163.2    249.0   0.016320943   0.13378   0.30656   0.16157  -0.11702

FINAL SINGLE POINT ENERGY     -3786.397506567829

DIPOLE MOMENT
-------------
                                X             Y             Z
Electronic contribution:      4.64573      16.39460      -1.45387
Nuclear contribution   :     -3.82512     -16.21110       0.98302
                        -----------------------------------------
Total Dipole Moment    :      0.82061       0.18350      -0.47086
                        -----------------------------------------
Magnitude (a.u.)       :      0.96373
Magnitude (Debye)      :      2.44960

Rotational constants in cm-1:     0.001050     0.000450     0.000316
Rotational constants in MHz :    31.483122    13.476835     9.480695

                             ****ORCA TERMINATED NORMALLY****
TOTAL RUN TIME: 0 days 0 hours 8 minutes 15 seconds 924 msec
