                         Program Version 4.2.0 -  RELEASE  -
|  1> # ORCA input file
|  2> # SCF done       -171.151186129538          0.000799572287
|  3> ! CAM-B3LYP def2-SVP def2/J RIJCOSX Grid4 TightSCF
|  4> %maxcore 5000
|  5> %tddft
|  6>     Mode sTDDFT
|  7>     Ethresh 5.0
|  8>     maxcore 5000
|  9> end
| 10>
| 11> %pal
| 12>   nprocs 6
| 13>   end
| 14> * xyz 0 1
| 15>    C        3.57326         2.16560         0.55857
| 16>    C        3.95415         1.07559        -0.16793
| 17>    C        3.28948        -0.07325         0.38361
| 18>    C        2.47471         0.36715         1.49605
| 19>    O        1.74816        -0.22500         2.26079
| 20>    N        2.70895         1.75427         1.53022
| 21>    C        3.68330        -1.16361        -0.35176
| 22>    O        4.55210        -0.77700        -1.33037
| 23>    C        4.76595         0.60894        -1.27416
| 24>    O        5.49770         1.15988        -2.04226
| 25>    C        3.33707        -2.52323        -0.22707
| 26>    C        2.47160        -3.07778         0.70859
| 27>    C        2.37596        -4.45464         0.55089
| 28>    C        3.17477        -4.94189        -0.51109
| 29>    S        4.03469        -3.71018        -1.31435
| 30>    C        3.02504        -6.34574        -0.57714
| 31>    C        2.14055        -6.75461         0.43704
| 32>    C        1.69471        -5.57846         1.17178
| 33>    C        0.81439        -5.55896         2.21218
| 34>    C        0.22857        -6.74434         2.70701
| 35>    N       -0.24634        -7.70482         3.11556
| 36>    C        0.40736        -4.37816         2.87176
| 37>    N        0.04348        -3.44506         3.42825
| 38>    C        1.94209        -8.13184         0.46262
| 39>    C        2.66345        -8.78213        -0.52610
| 40>    S        3.60267        -7.65901        -1.50470
| 41>    C        2.70774       -10.18174        -0.78332
| 42>    C        3.40994       -10.72259        -1.83595
| 43>    C        3.49312       -12.08108        -2.12285
| 44>    C        2.82397       -13.07563        -1.28249
| 45>    C        2.07387       -12.77145        -0.20027
| 46>    S        1.80009       -11.17270         0.35298
| 47>    C        3.14168       -14.33272        -1.86506
| 48>    C        3.94660       -14.15173        -2.99373
| 49>    C        4.27496       -15.38786        -3.59597
| 50>    C        3.72777       -16.43702        -2.92760
| 51>    S        2.79340       -15.98255        -1.54603
| 52>    C        4.17471       -12.73852        -3.17351
| 53>    C        4.90026       -12.07099        -4.17890
| 54>    C        5.57647       -12.64566        -5.21353
| 55>    C        6.26132       -11.91296        -6.20697
| 56>    C        6.37841       -10.53370        -6.35554
| 57>    C        7.12051       -10.18454        -7.47450
| 58>    C        7.58658       -11.29864        -8.19985
| 59>    S        7.09993       -12.77801        -7.48804
| 60>    C        8.31427       -10.83365        -9.31145
| 61>    C        8.31512        -9.41785        -9.30455
| 62>    C        7.56858        -8.96783        -8.14337
| 63>    C        7.32602        -7.68988        -7.73434
| 64>    C        7.79673        -6.54430        -8.41365
| 65>    N        8.15810        -5.58739        -8.92954
| 66>    C        6.57514        -7.42033        -6.57002
| 67>    N        5.96454        -7.20678        -5.62253
| 68>    C        9.00376        -8.87049       -10.38124
| 69>    C        9.53319        -9.85264       -11.20742
| 70>    S        9.16745       -11.48229       -10.63509
| 71>    C       10.28110        -9.65436       -12.38531
| 72>    C       10.63584        -8.46910       -13.00200
| 73>    C       11.39750        -8.78090       -14.18222
| 74>    C       11.50589       -10.23623       -14.27448
| 75>    O       12.03966       -10.96468       -15.07122
| 76>    N       10.80134       -10.67968       -13.14902
| 77>    C       11.71765        -7.59882       -14.76041
| 78>    O       11.22706        -6.56237       -14.05290
| 79>    C       10.53046        -7.03793       -12.92828
| 80>    O        9.99933        -6.29633       -12.14466
| 81>    H        3.85328         3.19672         0.45494
| 82>    H        2.27330         2.35868         2.20978
| 83>    H        1.96286        -2.48220         1.44729
| 84>    H        1.30739        -8.65008         1.15842
| 85>    H        3.92940       -10.02158        -2.47610
| 86>    H        1.58618       -13.52376         0.39924
| 87>    H        4.87955       -15.52047        -4.47378
| 88>    H        3.81506       -17.47949        -3.16394
| 89>    H        4.90474       -10.99221        -4.11192
| 90>    H        5.60515       -13.71948        -5.30946
| 91>    H        5.93546        -9.83034        -5.67616
| 92>    H        9.13132        -7.82101       -10.58644
| 93>    H       10.69451       -11.65873       -12.92976
| 94>    H       12.27144        -7.35829       -15.64858
| 95> *
| 96>
| 97>                          ****END OF INPUT****

CARTESIAN COORDINATES (ANGSTROEM)
---------------------------------
  C      3.573260    2.165600    0.558570
  C      3.954150    1.075590   -0.167930
  C      3.289480   -0.073250    0.383610
  C      2.474710    0.367150    1.496050
  O      1.748160   -0.225000    2.260790
  N      2.708950    1.754270    1.530220
  C      3.683300   -1.163610   -0.351760
  O      4.552100   -0.777000   -1.330370
  C      4.765950    0.608940   -1.274160
  O      5.497700    1.159880   -2.042260
  C      3.337070   -2.523230   -0.227070
  C      2.471600   -3.077780    0.708590
  C      2.375960   -4.454640    0.550890
  C      3.174770   -4.941890   -0.511090
  S      4.034690   -3.710180   -1.314350
  C      3.025040   -6.345740   -0.577140
  C      2.140550   -6.754610    0.437040
  C      1.694710   -5.578460    1.171780
  C      0.814390   -5.558960    2.212180
  C      0.228570   -6.744340    2.707010
  N     -0.246340   -7.704820    3.115560
  C      0.407360   -4.378160    2.871760
  N      0.043480   -3.445060    3.428250
  C      1.942090   -8.131840    0.462620
  C      2.663450   -8.782130   -0.526100
  S      3.602670   -7.659010   -1.504700
  C      2.707740  -10.181740   -0.783320
  C      3.409940  -10.722590   -1.835950
  C      3.493120  -12.081080   -2.122850
  C      2.823970  -13.075630   -1.282490
  C      2.073870  -12.771450   -0.200270
  S      1.800090  -11.172700    0.352980
  C      3.141680  -14.332720   -1.865060
  C      3.946600  -14.151730   -2.993730
  C      4.274960  -15.387860   -3.595970
  C      3.727770  -16.437020   -2.927600
  S      2.793400  -15.982550   -1.546030
  C      4.174710  -12.738520   -3.173510
  C      4.900260  -12.070990   -4.178900
  C      5.576470  -12.645660   -5.213530
  C      6.261320  -11.912960   -6.206970
  C      6.378410  -10.533700   -6.355540
  C      7.120510  -10.184540   -7.474500
  C      7.586580  -11.298640   -8.199850
  S      7.099930  -12.778010   -7.488040
  C      8.314270  -10.833650   -9.311450
  C      8.315120   -9.417850   -9.304550
  C      7.568580   -8.967830   -8.143370
  C      7.326020   -7.689880   -7.734340
  C      7.796730   -6.544300   -8.413650
  N      8.158100   -5.587390   -8.929540
  C      6.575140   -7.420330   -6.570020
  N      5.964540   -7.206780   -5.622530
  C      9.003760   -8.870490  -10.381240
  C      9.533190   -9.852640  -11.207420
  S      9.167450  -11.482290  -10.635090
  C     10.281100   -9.654360  -12.385310
  C     10.635840   -8.469100  -13.002000
  C     11.397500   -8.780900  -14.182220
  C     11.505890  -10.236230  -14.274480
  O     12.039660  -10.964680  -15.071220
  N     10.801340  -10.679680  -13.149020
  C     11.717650   -7.598820  -14.760410
  O     11.227060   -6.562370  -14.052900
  C     10.530460   -7.037930  -12.928280
  O      9.999330   -6.296330  -12.144660
  H      3.853280    3.196720    0.454940
  H      2.273300    2.358680    2.209780
  H      1.962860   -2.482200    1.447290
  H      1.307390   -8.650080    1.158420
  H      3.929400  -10.021580   -2.476100
  H      1.586180  -13.523760    0.399240
  H      4.879550  -15.520470   -4.473780
  H      3.815060  -17.479490   -3.163940
  H      4.904740  -10.992210   -4.111920
  H      5.605150  -13.719480   -5.309460
  H      5.935460   -9.830340   -5.676160
  H      9.131320   -7.821010  -10.586440
  H     10.694510  -11.658730  -12.929760
  H     12.271440   -7.358290  -15.648580

 Total Charge           Charge          ....    0
 Multiplicity           Mult            ....    1
 Number of Electrons    NEL             ....  488
 Basis Dimension        Dim             .... 1018

ORBITAL ENERGIES
----------------

  NO   OCC          E(Eh)            E(eV)
   0   2.0000     -88.998831     -2421.7813
   1   2.0000     -88.997681     -2421.7500
   2   2.0000     -88.997601     -2421.7478
   3   2.0000     -88.989550     -2421.5288
   4   2.0000     -88.988926     -2421.5118
   5   2.0000     -88.967285     -2420.9229
   6   2.0000     -19.285540      -524.7862
   7   2.0000     -19.274296      -524.4803
   8   2.0000     -19.209867      -522.7271
   9   2.0000     -19.200475      -522.4715
  10   2.0000     -19.199427      -522.4430
  11   2.0000     -19.197729      -522.3968
  12   2.0000     -14.467528      -393.6814
  13   2.0000     -14.465998      -393.6398
  14   2.0000     -14.434672      -392.7874
  15   2.0000     -14.434205      -392.7747
  16   2.0000     -14.428693      -392.6247
  17   2.0000     -14.425892      -392.5485
  18   2.0000     -10.410753      -283.2910
  19   2.0000     -10.398056      -282.9455
  20   2.0000     -10.390154      -282.7305
  21   2.0000     -10.387771      -282.6656
  22   2.0000     -10.378847      -282.4228
  23   2.0000     -10.369092      -282.1573
  24   2.0000     -10.367072      -282.1024
  25   2.0000     -10.361346      -281.9466
  26   2.0000     -10.355435      -281.7857
  27   2.0000     -10.353417      -281.7308
  28   2.0000     -10.353099      -281.7221
  29   2.0000     -10.346735      -281.5490
  30   2.0000     -10.345025      -281.5024
  31   2.0000     -10.342560      -281.4354
  32   2.0000     -10.342243      -281.4267
  33   2.0000     -10.339989      -281.3654
  34   2.0000     -10.338109      -281.3143
  35   2.0000     -10.337794      -281.3057
  36   2.0000     -10.335483      -281.2428
  37   2.0000     -10.334299      -281.2106
  38   2.0000     -10.329652      -281.0841
  39   2.0000     -10.328666      -281.0573
  40   2.0000     -10.328571      -281.0547
  41   2.0000     -10.327633      -281.0292
  42   2.0000     -10.327291      -281.0199
  43   2.0000     -10.324329      -280.9393
  44   2.0000     -10.312289      -280.6116
  45   2.0000     -10.311416      -280.5879
  46   2.0000     -10.310420      -280.5608
  47   2.0000     -10.309711      -280.5415
  48   2.0000     -10.309276      -280.5297
  49   2.0000     -10.309210      -280.5279
  50   2.0000     -10.308945      -280.5206
  51   2.0000     -10.308927      -280.5202
  52   2.0000     -10.306316      -280.4491
  53   2.0000     -10.306053      -280.4420
  54   2.0000     -10.300509      -280.2911
  55   2.0000     -10.298886      -280.2469
  56   2.0000     -10.298552      -280.2379
  57   2.0000     -10.295585      -280.1571
  58   2.0000     -10.291810      -280.0544
  59   2.0000     -10.288713      -279.9701
  60   2.0000     -10.286619      -279.9131
  61   2.0000     -10.285890      -279.8933
  62   2.0000     -10.279938      -279.7313
  63   2.0000     -10.278951      -279.7045
  64   2.0000     -10.275482      -279.6101
  65   2.0000     -10.272401      -279.5262
  66   2.0000      -8.093461      -220.2343
  67   2.0000      -8.091799      -220.1891
  68   2.0000      -8.091734      -220.1873
  69   2.0000      -8.084199      -219.9822
  70   2.0000      -8.084012      -219.9771
  71   2.0000      -8.062750      -219.3986
  72   2.0000      -6.062692      -164.9742
  73   2.0000      -6.061068      -164.9300
  74   2.0000      -6.060930      -164.9263
  75   2.0000      -6.058625      -164.8636
  76   2.0000      -6.056932      -164.8175
  77   2.0000      -6.056749      -164.8125
  78   2.0000      -6.055798      -164.7866
  79   2.0000      -6.054319      -164.7464
  80   2.0000      -6.054005      -164.7378
  81   2.0000      -6.053629      -164.7276
  82   2.0000      -6.053425      -164.7221
  83   2.0000      -6.049372      -164.6118
  84   2.0000      -6.049025      -164.6023
  85   2.0000      -6.046529      -164.5344
  86   2.0000      -6.045871      -164.5165
  87   2.0000      -6.032138      -164.1428
  88   2.0000      -6.027917      -164.0280
  89   2.0000      -6.024843      -163.9443
  90   2.0000      -1.214270       -33.0420
  91   2.0000      -1.203005       -32.7354
  92   2.0000      -1.138886       -30.9907
  93   2.0000      -1.137602       -30.9557
  94   2.0000      -1.120987       -30.5036
  95   2.0000      -1.109080       -30.1796
  96   2.0000      -1.069172       -29.0936
  97   2.0000      -1.064772       -28.9739
  98   2.0000      -1.050789       -28.5934
  99   2.0000      -1.046331       -28.4721
 100   2.0000      -1.024738       -27.8845
 101   2.0000      -1.023342       -27.8465
 102   2.0000      -1.019387       -27.7389
 103   2.0000      -1.008598       -27.4454
 104   2.0000      -1.006305       -27.3829
 105   2.0000      -1.006175       -27.3794
 106   2.0000      -0.998852       -27.1801
 107   2.0000      -0.983061       -26.7504
 108   2.0000      -0.962293       -26.1853
 109   2.0000      -0.961255       -26.1571
 110   2.0000      -0.940713       -25.5981
 111   2.0000      -0.925609       -25.1871
 112   2.0000      -0.920258       -25.0415
 113   2.0000      -0.915048       -24.8997
 114   2.0000      -0.910840       -24.7852
 115   2.0000      -0.900876       -24.5141
 116   2.0000      -0.890178       -24.2230
 117   2.0000      -0.878930       -23.9169
 118   2.0000      -0.875873       -23.8337
 119   2.0000      -0.864101       -23.5134
 120   2.0000      -0.859016       -23.3750
 121   2.0000      -0.858493       -23.3608
 122   2.0000      -0.854696       -23.2575
 123   2.0000      -0.841246       -22.8915
 124   2.0000      -0.826002       -22.4767
 125   2.0000      -0.815090       -22.1797
 126   2.0000      -0.808536       -22.0014
 127   2.0000      -0.804720       -21.8975
 128   2.0000      -0.787547       -21.4302
 129   2.0000      -0.780301       -21.2331
 130   2.0000      -0.775928       -21.1141
 131   2.0000      -0.764286       -20.7973
 132   2.0000      -0.761552       -20.7229
 133   2.0000      -0.759046       -20.6547
 134   2.0000      -0.739556       -20.1243
 135   2.0000      -0.734313       -19.9817
 136   2.0000      -0.709303       -19.3011
 137   2.0000      -0.708261       -19.2728
 138   2.0000      -0.705566       -19.1994
 139   2.0000      -0.698161       -18.9979
 140   2.0000      -0.691433       -18.8148
 141   2.0000      -0.686773       -18.6880
 142   2.0000      -0.684239       -18.6191
 143   2.0000      -0.678275       -18.4568
 144   2.0000      -0.669231       -18.2107
 145   2.0000      -0.662806       -18.0359
 146   2.0000      -0.651608       -17.7312
 147   2.0000      -0.638672       -17.3792
 148   2.0000      -0.636342       -17.3158
 149   2.0000      -0.625421       -17.0186
 150   2.0000      -0.621636       -16.9156
 151   2.0000      -0.620041       -16.8722
 152   2.0000      -0.617917       -16.8144
 153   2.0000      -0.615933       -16.7604
 154   2.0000      -0.611481       -16.6393
 155   2.0000      -0.604616       -16.4524
 156   2.0000      -0.597751       -16.2656
 157   2.0000      -0.591271       -16.0893
 158   2.0000      -0.590381       -16.0651
 159   2.0000      -0.587283       -15.9808
 160   2.0000      -0.585128       -15.9222
 161   2.0000      -0.582361       -15.8469
 162   2.0000      -0.579633       -15.7726
 163   2.0000      -0.574648       -15.6370
 164   2.0000      -0.569614       -15.5000
 165   2.0000      -0.568876       -15.4799
 166   2.0000      -0.561242       -15.2722
 167   2.0000      -0.553382       -15.0583
 168   2.0000      -0.552322       -15.0294
 169   2.0000      -0.549562       -14.9543
 170   2.0000      -0.539186       -14.6720
 171   2.0000      -0.532756       -14.4970
 172   2.0000      -0.530220       -14.4280
 173   2.0000      -0.530045       -14.4233
 174   2.0000      -0.528154       -14.3718
 175   2.0000      -0.525111       -14.2890
 176   2.0000      -0.522120       -14.2076
 177   2.0000      -0.518087       -14.0979
 178   2.0000      -0.516572       -14.0566
 179   2.0000      -0.513202       -13.9649
 180   2.0000      -0.511324       -13.9138
 181   2.0000      -0.508194       -13.8287
 182   2.0000      -0.507325       -13.8050
 183   2.0000      -0.505789       -13.7632
 184   2.0000      -0.505170       -13.7464
 185   2.0000      -0.501170       -13.6375
 186   2.0000      -0.499333       -13.5876
 187   2.0000      -0.498487       -13.5645
 188   2.0000      -0.490024       -13.3342
 189   2.0000      -0.489104       -13.3092
 190   2.0000      -0.485351       -13.2071
 191   2.0000      -0.481735       -13.1087
 192   2.0000      -0.478019       -13.0076
 193   2.0000      -0.475806       -12.9473
 194   2.0000      -0.473415       -12.8823
 195   2.0000      -0.472662       -12.8618
 196   2.0000      -0.465654       -12.6711
 197   2.0000      -0.464772       -12.6471
 198   2.0000      -0.463652       -12.6166
 199   2.0000      -0.461093       -12.5470
 200   2.0000      -0.460856       -12.5405
 201   2.0000      -0.454609       -12.3705
 202   2.0000      -0.453760       -12.3474
 203   2.0000      -0.453128       -12.3303
 204   2.0000      -0.452233       -12.3059
 205   2.0000      -0.451469       -12.2851
 206   2.0000      -0.448772       -12.2117
 207   2.0000      -0.446083       -12.1385
 208   2.0000      -0.444134       -12.0855
 209   2.0000      -0.443084       -12.0569
 210   2.0000      -0.440636       -11.9903
 211   2.0000      -0.439670       -11.9640
 212   2.0000      -0.439362       -11.9556
 213   2.0000      -0.437085       -11.8937
 214   2.0000      -0.434760       -11.8304
 215   2.0000      -0.431048       -11.7294
 216   2.0000      -0.427296       -11.6273
 217   2.0000      -0.427056       -11.6208
 218   2.0000      -0.426074       -11.5940
 219   2.0000      -0.424559       -11.5528
 220   2.0000      -0.422435       -11.4950
 221   2.0000      -0.420199       -11.4342
 222   2.0000      -0.410610       -11.1733
 223   2.0000      -0.404042       -10.9946
 224   2.0000      -0.393355       -10.7037
 225   2.0000      -0.378516       -10.3000
 226   2.0000      -0.366512        -9.9733
 227   2.0000      -0.362523        -9.8647
 228   2.0000      -0.359422        -9.7804
 229   2.0000      -0.359154        -9.7731
 230   2.0000      -0.357809        -9.7365
 231   2.0000      -0.354132        -9.6364
 232   2.0000      -0.352480        -9.5915
 233   2.0000      -0.343987        -9.3604
 234   2.0000      -0.339909        -9.2494
 235   2.0000      -0.338542        -9.2122
 236   2.0000      -0.326435        -8.8827
 237   2.0000      -0.324974        -8.8430
 238   2.0000      -0.312007        -8.4902
 239   2.0000      -0.302726        -8.2376
 240   2.0000      -0.285750        -7.7757
 241   2.0000      -0.266788        -7.2597
 242   2.0000      -0.254989        -6.9386
 243   2.0000      -0.227674        -6.1953
 244   0.0000      -0.114867        -3.1257
 245   0.0000      -0.108599        -2.9551
 246   0.0000      -0.080088        -2.1793
 247   0.0000      -0.069563        -1.8929
 248   0.0000      -0.059815        -1.6276

MULLIKEN ATOMIC CHARGES
-----------------------
   0 C :    0.052014
   1 C :   -0.063821
   2 C :   -0.103351
   3 C :    0.158638
   4 O :   -0.164849
   5 N :   -0.126328
   6 C :    0.176197
   7 O :   -0.262555
   8 C :    0.234974
   9 O :   -0.123595
  10 C :   -0.133511
  11 C :   -0.043430
  12 C :    0.011974
  13 C :   -0.087495
  14 S :    0.256738
  15 C :   -0.098684
  16 C :    0.022235
  17 C :    0.307821
  18 C :   -0.295425
  19 C :   -0.190296
  20 N :    0.172531
  21 C :   -0.201992
  22 N :    0.208226
  23 C :   -0.058102
  24 C :   -0.063611
  25 S :    0.189909
  26 C :   -0.018172
  27 C :   -0.091297
  28 C :    0.059160
  29 C :    0.062364
  30 C :   -0.116306
  31 S :    0.141163
  32 C :   -0.114643
  33 C :    0.055688
  34 C :   -0.006664
  35 C :   -0.067289
  36 S :    0.136368
  37 C :    0.096626
  38 C :   -0.014141
  39 C :    0.035874
  40 C :   -0.060820
  41 C :   -0.052690
  42 C :    0.020666
  43 C :   -0.110931
  44 S :    0.182145
  45 C :   -0.084684
  46 C :    0.015870
  47 C :    0.312369
  48 C :   -0.299100
  49 C :   -0.203441
  50 N :    0.214566
  51 C :   -0.175124
  52 N :    0.148496
  53 C :   -0.050726
  54 C :   -0.109202
  55 S :    0.170144
  56 C :    0.140508
  57 C :   -0.161515
  58 C :   -0.019219
  59 C :    0.163047
  60 O :   -0.150727
  61 N :   -0.138341
  62 C :    0.089373
  63 O :   -0.239300
  64 C :    0.226548
  65 O :   -0.147048
  66 H :    0.027829
  67 H :    0.138024
  68 H :    0.030472
  69 H :    0.022343
  70 H :   -0.002161
  71 H :    0.041749
  72 H :   -0.012854
  73 H :    0.028429
  74 H :   -0.033041
  75 H :   -0.048158
  76 H :    0.002112
  77 H :    0.030989
  78 H :    0.129180
  79 H :    0.031278
Sum of atomic charges:   -0.0000000

LOEWDIN ATOMIC CHARGES
----------------------
   0 C :    0.089726
   1 C :   -0.137348
   2 C :   -0.129317
   3 C :    0.072056
   4 O :   -0.179344
   5 N :    0.032748
   6 C :    0.090688
   7 O :   -0.068517
   8 C :    0.108507
   9 O :   -0.129236
  10 C :   -0.197122
  11 C :    0.013637
  12 C :   -0.071961
  13 C :   -0.166812
  14 S :    0.518667
  15 C :   -0.183254
  16 C :   -0.057871
  17 C :    0.076272
  18 C :   -0.092723
  19 C :   -0.014228
  20 N :   -0.032480
  21 C :   -0.026522
  22 N :   -0.008502
  23 C :   -0.040416
  24 C :   -0.175934
  25 S :    0.489439
  26 C :   -0.177571
  27 C :   -0.029412
  28 C :   -0.012059
  29 C :   -0.050016
  30 C :   -0.136043
  31 S :    0.471506
  32 C :   -0.199161
  33 C :   -0.037194
  34 C :   -0.066843
  35 C :   -0.163417
  36 S :    0.431156
  37 C :   -0.051255
  38 C :    0.003392
  39 C :   -0.068986
  40 C :   -0.141585
  41 C :   -0.041090
  42 C :   -0.048877
  43 C :   -0.210107
  44 S :    0.466321
  45 C :   -0.153607
  46 C :   -0.080070
  47 C :    0.078149
  48 C :   -0.094255
  49 C :   -0.028828
  50 N :   -0.004639
  51 C :   -0.007683
  52 N :   -0.044670
  53 C :    0.018193
  54 C :   -0.197445
  55 S :    0.460259
  56 C :    0.066056
  57 C :   -0.146987
  58 C :   -0.123244
  59 C :    0.082209
  60 O :   -0.170472
  61 N :    0.015636
  62 C :    0.119257
  63 O :   -0.047202
  64 C :    0.098882
  65 O :   -0.148332
  66 H :    0.037580
  67 H :    0.093954
  68 H :    0.048056
  69 H :    0.034993
  70 H :    0.028053
  71 H :    0.039344
  72 H :    0.028088
  73 H :    0.024973
  74 H :    0.028767
  75 H :    0.024587
  76 H :    0.035667
  77 H :    0.049000
  78 H :    0.081714
  79 H :    0.035107

  Mayer bond orders larger than 0.100000
B(  0-C ,  1-C ) :   1.5031 B(  0-C ,  5-N ) :   1.2031 B(  0-C , 66-H ) :   0.9832
B(  1-C ,  2-C ) :   1.1516 B(  1-C ,  8-C ) :   0.9602 B(  2-C ,  3-C ) :   0.9529
B(  2-C ,  6-C ) :   1.4698 B(  3-C ,  4-O ) :   2.1477 B(  3-C ,  5-N ) :   1.0741
B(  5-N , 67-H ) :   0.9275 B(  6-C ,  7-O ) :   1.1829 B(  6-C , 10-C ) :   1.1804
B(  7-O ,  8-C ) :   0.9672 B(  8-C ,  9-O ) :   2.2800 B( 10-C , 11-C ) :   1.4439
B( 10-C , 14-S ) :   1.0697 B( 11-C , 12-C ) :   1.3110 B( 11-C , 68-H ) :   0.9768
B( 12-C , 13-C ) :   1.3966 B( 12-C , 17-C ) :   0.9897 B( 13-C , 14-S ) :   1.1456
B( 13-C , 15-C ) :   1.2047 B( 15-C , 16-C ) :   1.4392 B( 15-C , 25-S ) :   1.1199
B( 16-C , 17-C ) :   0.9964 B( 16-C , 23-C ) :   1.3120 B( 17-C , 18-C ) :   1.7182
B( 18-C , 19-C ) :   1.1354 B( 18-C , 21-C ) :   1.1357 B( 19-C , 20-N ) :   2.9856
B( 21-C , 22-N ) :   3.0082 B( 23-C , 24-C ) :   1.4457 B( 23-C , 69-H ) :   0.9778
B( 24-C , 25-S ) :   1.1113 B( 24-C , 26-C ) :   1.1688 B( 26-C , 27-C ) :   1.5172
B( 26-C , 31-S ) :   1.0619 B( 27-C , 28-C ) :   1.2625 B( 27-C , 70-H ) :   0.9604
B( 28-C , 29-C ) :   1.0553 B( 28-C , 37-C ) :   1.3531 B( 29-C , 30-C ) :   1.6034
B( 29-C , 32-C ) :   1.1781 B( 30-C , 31-S ) :   1.1424 B( 30-C , 71-H ) :   0.9409
B( 32-C , 33-C ) :   1.4519 B( 32-C , 36-S ) :   1.0826 B( 33-C , 34-C ) :   1.2137
B( 33-C , 37-C ) :   1.0703 B( 34-C , 35-C ) :   1.5853 B( 34-C , 72-H ) :   1.0011
B( 35-C , 36-S ) :   1.1594 B( 35-C , 73-H ) :   0.9651 B( 37-C , 38-C ) :   1.2082
B( 38-C , 39-C ) :   1.6070 B( 38-C , 74-H ) :   0.9562 B( 39-C , 40-C ) :   1.1438
B( 39-C , 75-H ) :   0.9661 B( 40-C , 41-C ) :   1.4163 B( 40-C , 44-S ) :   1.1190
B( 41-C , 42-C ) :   1.3243 B( 41-C , 76-H ) :   0.9860 B( 42-C , 43-C ) :   1.4179
B( 42-C , 47-C ) :   0.9951 B( 43-C , 44-S ) :   1.0885 B( 43-C , 45-C ) :   1.2279
B( 45-C , 46-C ) :   1.3914 B( 45-C , 55-S ) :   1.1495 B( 46-C , 47-C ) :   0.9900
B( 46-C , 53-C ) :   1.2921 B( 47-C , 48-C ) :   1.7133 B( 48-C , 49-C ) :   1.1319
B( 48-C , 51-C ) :   1.1410 B( 49-C , 50-N ) :   3.0115 B( 51-C , 52-N ) :   2.9694
B( 53-C , 54-C ) :   1.4460 B( 53-C , 77-H ) :   0.9773 B( 54-C , 55-S ) :   1.0361
B( 54-C , 56-C ) :   1.1743 B( 56-C , 57-C ) :   1.4302 B( 56-C , 61-N ) :   1.2125
B( 57-C , 58-C ) :   1.1473 B( 57-C , 64-C ) :   1.0152 B( 58-C , 59-C ) :   0.9079
B( 58-C , 62-C ) :   1.5501 B( 59-C , 60-O ) :   2.2616 B( 59-C , 61-N ) :   1.0351
B( 61-N , 78-H ) :   0.9180 B( 62-C , 63-O ) :   1.1462 B( 62-C , 79-H ) :   1.0013
B( 63-O , 64-C ) :   1.0071 B( 64-C , 65-O ) :   2.1516

-----------------------------------------------------------------------------
         ABSORPTION SPECTRUM VIA TRANSITION ELECTRIC DIPOLE MOMENTS
-----------------------------------------------------------------------------
State   Energy  Wavelength   fosc         T2         TX        TY        TZ
        (cm-1)    (nm)                  (au**2)     (au)      (au)      (au)
-----------------------------------------------------------------------------
   0    9411.7   1062.5   0.321218845  11.23594   1.72894  -0.46626  -2.83360
   1   10950.9    913.2   0.178274015   5.35937  -0.00295  -2.28447  -0.37490
   2   15890.6    629.3   0.086087020   1.78349   0.74454   0.26598  -1.07630
   3   16917.8    591.1   0.492450045   9.58283   1.39799  -1.43368  -2.36072
   4   18405.1    543.3   0.504069458   9.01629   1.40907  -1.02313  -2.44623
   5   21605.5    462.8   1.012429918  15.42683   1.25082   3.43249  -1.44233
   6   21726.9    460.3   0.194534328   2.94764   0.83819  -0.06784  -1.49682
   7   22160.0    451.3   0.164917206   2.45003  -0.30843  -1.51285   0.25726
   8   22238.8    449.7   0.311607915   4.61288  -0.61938  -1.90870   0.76558
   9   24365.0    410.4   0.075503028   1.02017   0.23461   0.97341  -0.13268
  10   24745.0    404.1   0.051210443   0.68131  -0.19848  -0.79845  -0.06626
  11   25260.6    395.9   0.001356129   0.01767  -0.00088  -0.02465  -0.13063
  12   25672.3    389.5   0.054149988   0.69440   0.11729   0.80974  -0.15800
  13   26858.5    372.3   0.084139717   1.03132  -0.56230   0.04703   0.84435
  14   27125.2    368.7   0.045813203   0.55602   0.37921   0.03433  -0.64113
  15   28157.6    355.1   0.017729300   0.20729  -0.29810   0.01825   0.34364
  16   28415.1    351.9   0.055435530   0.64227   0.40296   0.42983  -0.54326
  17   30455.3    328.4   0.075980429   0.82132  -0.53727   0.38862   0.61777
  18   30604.5    326.7   0.334983583   3.60342  -0.63201   1.59039   0.82136
  19   31043.6    322.1   0.037810797   0.40098   0.24721   0.35639  -0.46135
  20   31182.4    320.7   0.519209212   5.48161  -1.46545  -0.41267   1.77870
  21   31467.2    317.8   0.554619616   5.80247   0.10865  -2.37875  -0.36363
  22   31915.5    313.3   0.089566148   0.92388  -0.56202  -0.23091   0.74478
  23   32112.4    311.4   0.077386899   0.79336   0.08032   0.88500   0.06068
  24   32235.0    310.2   0.000293219   0.00299  -0.04936   0.02331  -0.00392
  25   32570.1    307.0   0.000550950   0.00557  -0.06355  -0.02961  -0.02557
  26   33104.0    302.1   0.054026388   0.53728  -0.29212   0.43224   0.51489
  27   33348.2    299.9   0.037569048   0.37088   0.32969   0.21915  -0.46277
  28   33539.7    298.2   0.261444591   2.56623  -0.89848   0.23727   1.30487
  29   34055.1    293.6   0.269123854   2.60163   0.02599  -1.57622  -0.34128
  30   34534.5    289.6   0.211191521   2.01326  -0.20263   1.33242   0.44368
  31   34776.5    287.6   0.030994965   0.29341   0.31270   0.28529  -0.33800
  32   35403.1    282.5   0.082204104   0.76441   0.32630   0.65734  -0.47522
  33   35436.4    282.2   0.141547815   1.31501  -0.12331   1.12095   0.20803
  34   35903.2    278.5   0.006204273   0.05689   0.08385   0.16353  -0.15204
  35   36026.0    277.6   0.061208352   0.55933  -0.15419   0.68351   0.26149
  36   36353.5    275.1   0.259625353   2.35113  -0.93633  -0.46376   1.12220
  37   36697.3    272.5   0.104703419   0.93930   0.24339  -0.79753  -0.49396
  38   36848.8    271.4   0.017141992   0.15315  -0.07204   0.31160   0.22554
  39   37113.1    269.4   0.035722527   0.31688  -0.05134  -0.55603   0.07125
  40   37635.7    265.7   0.132516164   1.15916   0.55826  -0.53642  -0.74818
  41   37934.5    263.6   0.121070033   1.05070  -0.63028  -0.43171   0.68343
  42   38059.6    262.7   0.070900931   0.61329   0.13044  -0.72333  -0.27030
  43   38529.1    259.5   0.026889218   0.22976  -0.30996   0.03898   0.36354
  44   38651.9    258.7   0.064718423   0.55123  -0.03880   0.72181   0.16944
  45   38687.5    258.5   0.006395274   0.05442   0.15055   0.08659  -0.15575
  46   38985.0    256.5   0.024332220   0.20548   0.20806  -0.29929  -0.26947
  47   39135.9    255.5   0.000525905   0.00442   0.00256   0.04061  -0.05262
  48   39233.4    254.9   0.046487435   0.39008   0.33092  -0.26467  -0.45883
  49   39410.1    253.7   0.000512212   0.00428   0.05673  -0.02229  -0.02375
  50   40060.2    249.6   0.027972024   0.22987  -0.15466   0.32542   0.31631
  51   40103.6    249.4   0.000665271   0.00546  -0.01504   0.03677   0.06232
  52   40308.8    248.1   0.109780034   0.89660   0.38398  -0.66676  -0.55189

FINAL SINGLE POINT ENERGY     -5002.429151235655

DIPOLE MOMENT
-------------
                                X             Y             Z
Electronic contribution:      0.51363       8.04064       0.31107
Nuclear contribution   :     -1.21574     -11.13349       1.02899
                        -----------------------------------------
Total Dipole Moment    :     -0.70211      -3.09285       1.34006
                        -----------------------------------------
Magnitude (a.u.)       :      3.44303
Magnitude (Debye)      :      8.75148

Rotational constants in cm-1:     0.000949     0.000409     0.000286
Rotational constants in MHz :    28.436880    12.251330     8.578716

                             ****ORCA TERMINATED NORMALLY****
TOTAL RUN TIME: 0 days 0 hours 10 minutes 32 seconds 634 msec
