                         Program Version 4.2.0 -  RELEASE  -
|  1> # ORCA input file
|  2> # SCF done       -162.872171289176          0.000847252249
|  3> ! CAM-B3LYP def2-SVP def2/J RIJCOSX Grid4 TightSCF
|  4> %maxcore 5000
|  5> %tddft
|  6>     Mode sTDDFT
|  7>     Ethresh 5.0
|  8>     maxcore 5000
|  9> end
| 10>
| 11> %pal
| 12>   nprocs 6
| 13>   end
| 14> * xyz 0 1
| 15>    C        3.93374        -9.30094         0.28768
| 16>    C        2.71905        -9.12818        -0.36214
| 17>    N        1.58446        -8.46229         0.05369
| 18>    C        1.50813        -7.81526         1.33623
| 19>    C        2.03396        -6.38132         1.28681
| 20>    C        0.63411        -8.53378        -0.93775
| 21>    C        1.16209        -9.30747        -2.00826
| 22>    C        2.49870        -9.67594        -1.64240
| 23>    C        3.49502       -10.40833        -2.27433
| 24>    C        4.69892       -10.57971        -1.62156
| 25>    C        4.91224       -10.03191        -0.35860
| 26>    C        0.41508        -9.59288        -3.13827
| 27>    C       -0.87705        -9.10695        -3.20970
| 28>    C       -1.39921        -8.35096        -2.17597
| 29>    C       -0.68087        -8.03056        -1.01549
| 30>    C       -1.29377        -7.16932        -0.02386
| 31>    C       -2.62520        -7.03536         0.15494
| 32>    C       -3.24588        -6.11006         1.04964
| 33>    S       -4.79745        -5.46457         0.61959
| 34>    C       -4.76331        -4.43298         2.00847
| 35>    N       -5.85180        -3.58412         2.24221
| 36>    O       -5.80048        -2.85463         3.21612
| 37>    O       -6.77705        -3.63916         1.45012
| 38>    C       -3.63365        -4.59062         2.76895
| 39>    C       -2.76295        -5.56200         2.24371
| 40>    C       -1.58367        -6.03938         2.92237
| 41>    C       -0.84824        -5.30898         3.77791
| 42>    C        0.28982        -5.80170         4.49379
| 43>    C        0.72610        -7.08487         4.66516
| 44>    C        1.91556        -7.18655         5.42781
| 45>    C        2.38689        -5.91411         5.84986
| 46>    S        1.34102        -4.64064         5.28946
| 47>    C        3.52431        -5.75970         6.60920
| 48>    C        4.22639        -6.90897         6.97281
| 49>    C        3.76068        -8.18129         6.54547
| 50>    C        2.62454        -8.33452         5.78298
| 51>    S        4.80144        -9.45580         7.11660
| 52>    C        5.83268        -8.29216         7.93978
| 53>    C        5.40210        -7.00722         7.75583
| 54>    C        6.97722        -8.75148         8.65579
| 55>    S        7.77020       -10.20775         8.15086
| 56>    C        8.97325        -9.97237         9.37055
| 57>    N       10.00235       -10.92064         9.48186
| 58>    O       10.84756       -10.73923        10.33734
| 59>    O        9.97095       -11.86127         8.70853
| 60>    C        8.77127        -8.85163        10.12881
| 61>    C        7.61462        -8.13801         9.74613
| 62>    C        7.09324        -7.00056        10.43939
| 63>    C        7.78124        -6.23856        11.32802
| 64>    C        7.20243        -5.15115        12.01195
| 65>    C        7.86440        -4.34170        12.89456
| 66>    C        7.31638        -3.23803        13.60292
| 67>    C        8.19579        -2.60112        14.41664
| 68>    C        9.50016        -3.15881        14.40660
| 69>    S        9.55994        -4.53175        13.31599
| 70>    C       10.59729        -2.73814        15.11756
| 71>    C       10.66482        -1.64215        16.02606
| 72>    C       11.87918        -1.45799        16.58626
| 73>    C       12.87682        -2.40035        16.16372
| 74>    S       12.15559        -3.52930        15.00501
| 75>    C       14.15821        -2.46290        16.54822
| 76>    H        4.12511        -8.88129         1.26377
| 77>    H        2.10741        -8.39635         2.04387
| 78>    H        0.47419        -7.83987         1.68197
| 79>    H        3.08088        -6.37850         0.99252
| 80>    H        1.94358        -5.91528         2.26396
| 81>    H        1.47851        -5.78857         0.56311
| 82>    H        3.32867       -10.83064        -3.25351
| 83>    H        5.49026       -11.14295        -2.09266
| 84>    H        5.86593       -10.17912         0.12604
| 85>    H        0.83900       -10.17698        -3.94004
| 86>    H       -1.48327        -9.30380        -4.08065
| 87>    H       -2.39386        -7.95000        -2.29010
| 88>    H       -0.64131        -6.53492         0.55609
| 89>    H       -3.31213        -7.60536        -0.45552
| 90>    H       -3.47223        -4.04991         3.68356
| 91>    H       -1.32092        -7.06887         2.72441
| 92>    H       -1.08032        -4.26400         3.92929
| 93>    H        0.20836        -7.94576         4.28303
| 94>    H        3.86471        -4.78525         6.92142
| 95>    H        2.28490        -9.30953         5.47127
| 96>    H        5.93229        -6.14712         8.12214
| 97>    H        9.41970        -8.58119        10.94179
| 98>    H        6.05763        -6.75766        10.24533
| 99>    H        8.82613        -6.43731        11.52395
|100>    H        6.15716        -4.93575        11.83065
|101>    H        6.28482        -2.95760        13.48115
|102>    H        7.94960        -1.74858        15.02377
|103>    H        9.80424        -1.02983        16.22922
|104>    H       12.12103        -0.68441        17.29329
|105>    H       14.55388        -1.75402        17.25412
|106>    H       14.82785        -3.21244        16.16848
|107> *
|108>
|109>                          ****END OF INPUT****

CARTESIAN COORDINATES (ANGSTROEM)
---------------------------------
  C      3.933740   -9.300940    0.287680
  C      2.719050   -9.128180   -0.362140
  N      1.584460   -8.462290    0.053690
  C      1.508130   -7.815260    1.336230
  C      2.033960   -6.381320    1.286810
  C      0.634110   -8.533780   -0.937750
  C      1.162090   -9.307470   -2.008260
  C      2.498700   -9.675940   -1.642400
  C      3.495020  -10.408330   -2.274330
  C      4.698920  -10.579710   -1.621560
  C      4.912240  -10.031910   -0.358600
  C      0.415080   -9.592880   -3.138270
  C     -0.877050   -9.106950   -3.209700
  C     -1.399210   -8.350960   -2.175970
  C     -0.680870   -8.030560   -1.015490
  C     -1.293770   -7.169320   -0.023860
  C     -2.625200   -7.035360    0.154940
  C     -3.245880   -6.110060    1.049640
  S     -4.797450   -5.464570    0.619590
  C     -4.763310   -4.432980    2.008470
  N     -5.851800   -3.584120    2.242210
  O     -5.800480   -2.854630    3.216120
  O     -6.777050   -3.639160    1.450120
  C     -3.633650   -4.590620    2.768950
  C     -2.762950   -5.562000    2.243710
  C     -1.583670   -6.039380    2.922370
  C     -0.848240   -5.308980    3.777910
  C      0.289820   -5.801700    4.493790
  C      0.726100   -7.084870    4.665160
  C      1.915560   -7.186550    5.427810
  C      2.386890   -5.914110    5.849860
  S      1.341020   -4.640640    5.289460
  C      3.524310   -5.759700    6.609200
  C      4.226390   -6.908970    6.972810
  C      3.760680   -8.181290    6.545470
  C      2.624540   -8.334520    5.782980
  S      4.801440   -9.455800    7.116600
  C      5.832680   -8.292160    7.939780
  C      5.402100   -7.007220    7.755830
  C      6.977220   -8.751480    8.655790
  S      7.770200  -10.207750    8.150860
  C      8.973250   -9.972370    9.370550
  N     10.002350  -10.920640    9.481860
  O     10.847560  -10.739230   10.337340
  O      9.970950  -11.861270    8.708530
  C      8.771270   -8.851630   10.128810
  C      7.614620   -8.138010    9.746130
  C      7.093240   -7.000560   10.439390
  C      7.781240   -6.238560   11.328020
  C      7.202430   -5.151150   12.011950
  C      7.864400   -4.341700   12.894560
  C      7.316380   -3.238030   13.602920
  C      8.195790   -2.601120   14.416640
  C      9.500160   -3.158810   14.406600
  S      9.559940   -4.531750   13.315990
  C     10.597290   -2.738140   15.117560
  C     10.664820   -1.642150   16.026060
  C     11.879180   -1.457990   16.586260
  C     12.876820   -2.400350   16.163720
  S     12.155590   -3.529300   15.005010
  C     14.158210   -2.462900   16.548220
  H      4.125110   -8.881290    1.263770
  H      2.107410   -8.396350    2.043870
  H      0.474190   -7.839870    1.681970
  H      3.080880   -6.378500    0.992520
  H      1.943580   -5.915280    2.263960
  H      1.478510   -5.788570    0.563110
  H      3.328670  -10.830640   -3.253510
  H      5.490260  -11.142950   -2.092660
  H      5.865930  -10.179120    0.126040
  H      0.839000  -10.176980   -3.940040
  H     -1.483270   -9.303800   -4.080650
  H     -2.393860   -7.950000   -2.290100
  H     -0.641310   -6.534920    0.556090
  H     -3.312130   -7.605360   -0.455520
  H     -3.472230   -4.049910    3.683560
  H     -1.320920   -7.068870    2.724410
  H     -1.080320   -4.264000    3.929290
  H      0.208360   -7.945760    4.283030
  H      3.864710   -4.785250    6.921420
  H      2.284900   -9.309530    5.471270
  H      5.932290   -6.147120    8.122140
  H      9.419700   -8.581190   10.941790
  H      6.057630   -6.757660   10.245330
  H      8.826130   -6.437310   11.523950
  H      6.157160   -4.935750   11.830650
  H      6.284820   -2.957600   13.481150
  H      7.949600   -1.748580   15.023770
  H      9.804240   -1.029830   16.229220
  H     12.121030   -0.684410   17.293290
  H     14.553880   -1.754020   17.254120
  H     14.827850   -3.212440   16.168480

 Total Charge           Charge          ....    0
 Multiplicity           Mult            ....    1
 Number of Electrons    NEL             ....  468
 Basis Dimension        Dim             .... 1033

ORBITAL ENERGIES
----------------

  NO   OCC          E(Eh)            E(eV)
   0   2.0000     -88.978936     -2421.2399
   1   2.0000     -88.978827     -2421.2370
   2   2.0000     -88.959742     -2420.7176
   3   2.0000     -88.958817     -2420.6925
   4   2.0000     -88.944638     -2420.3067
   5   2.0000     -88.940519     -2420.1946
   6   2.0000     -19.237348      -523.4748
   7   2.0000     -19.236900      -523.4627
   8   2.0000     -19.236544      -523.4530
   9   2.0000     -19.235919      -523.4360
  10   2.0000     -14.648164      -398.5968
  11   2.0000     -14.647418      -398.5765
  12   2.0000     -14.454860      -393.3367
  13   2.0000     -10.343355      -281.4570
  14   2.0000     -10.342407      -281.4312
  15   2.0000     -10.327694      -281.0308
  16   2.0000     -10.327516      -281.0260
  17   2.0000     -10.323520      -280.9173
  18   2.0000     -10.317622      -280.7568
  19   2.0000     -10.317572      -280.7554
  20   2.0000     -10.314343      -280.6675
  21   2.0000     -10.313133      -280.6346
  22   2.0000     -10.311932      -280.6019
  23   2.0000     -10.310706      -280.5686
  24   2.0000     -10.310567      -280.5648
  25   2.0000     -10.310113      -280.5524
  26   2.0000     -10.308484      -280.5081
  27   2.0000     -10.305218      -280.4192
  28   2.0000     -10.303146      -280.3629
  29   2.0000     -10.302875      -280.3555
  30   2.0000     -10.301256      -280.3114
  31   2.0000     -10.300288      -280.2851
  32   2.0000     -10.297672      -280.2139
  33   2.0000     -10.297641      -280.2131
  34   2.0000     -10.296260      -280.1755
  35   2.0000     -10.294679      -280.1325
  36   2.0000     -10.293744      -280.1070
  37   2.0000     -10.292914      -280.0844
  38   2.0000     -10.292583      -280.0754
  39   2.0000     -10.291815      -280.0545
  40   2.0000     -10.291800      -280.0541
  41   2.0000     -10.291328      -280.0413
  42   2.0000     -10.289381      -279.9883
  43   2.0000     -10.287518      -279.9376
  44   2.0000     -10.286070      -279.8982
  45   2.0000     -10.285876      -279.8929
  46   2.0000     -10.284377      -279.8521
  47   2.0000     -10.284148      -279.8459
  48   2.0000     -10.282351      -279.7970
  49   2.0000     -10.278923      -279.7037
  50   2.0000     -10.273469      -279.5553
  51   2.0000     -10.272910      -279.5401
  52   2.0000     -10.272546      -279.5302
  53   2.0000     -10.269081      -279.4359
  54   2.0000     -10.268808      -279.4285
  55   2.0000     -10.268639      -279.4239
  56   2.0000     -10.266922      -279.3771
  57   2.0000     -10.266855      -279.3753
  58   2.0000     -10.264208      -279.3033
  59   2.0000     -10.264131      -279.3012
  60   2.0000     -10.259624      -279.1786
  61   2.0000      -8.074378      -219.7150
  62   2.0000      -8.074287      -219.7125
  63   2.0000      -8.055815      -219.2099
  64   2.0000      -8.054747      -219.1808
  65   2.0000      -8.040930      -218.8048
  66   2.0000      -8.037270      -218.7052
  67   2.0000      -6.043731      -164.4583
  68   2.0000      -6.043715      -164.4578
  69   2.0000      -6.039426      -164.3411
  70   2.0000      -6.039366      -164.3395
  71   2.0000      -6.036395      -164.2587
  72   2.0000      -6.036205      -164.2535
  73   2.0000      -6.025472      -163.9614
  74   2.0000      -6.024307      -163.9297
  75   2.0000      -6.021416      -163.8511
  76   2.0000      -6.020363      -163.8224
  77   2.0000      -6.016946      -163.7294
  78   2.0000      -6.016028      -163.7045
  79   2.0000      -6.010691      -163.5592
  80   2.0000      -6.007107      -163.4617
  81   2.0000      -6.006782      -163.4529
  82   2.0000      -6.003176      -163.3547
  83   2.0000      -6.001668      -163.3137
  84   2.0000      -5.997768      -163.2076
  85   2.0000      -1.318323       -35.8734
  86   2.0000      -1.316796       -35.8318
  87   2.0000      -1.137112       -30.9424
  88   2.0000      -1.135483       -30.8981
  89   2.0000      -1.085386       -29.5348
  90   2.0000      -1.017690       -27.6928
  91   2.0000      -1.013057       -27.5667
  92   2.0000      -1.006228       -27.3809
  93   2.0000      -0.994426       -27.0597
  94   2.0000      -0.984329       -26.7850
  95   2.0000      -0.971594       -26.4384
  96   2.0000      -0.952297       -25.9133
  97   2.0000      -0.942976       -25.6597
  98   2.0000      -0.933274       -25.3957
  99   2.0000      -0.923225       -25.1222
 100   2.0000      -0.918672       -24.9983
 101   2.0000      -0.906738       -24.6736
 102   2.0000      -0.895329       -24.3631
 103   2.0000      -0.889325       -24.1998
 104   2.0000      -0.884785       -24.0762
 105   2.0000      -0.879161       -23.9232
 106   2.0000      -0.873597       -23.7718
 107   2.0000      -0.861767       -23.4499
 108   2.0000      -0.852156       -23.1884
 109   2.0000      -0.846843       -23.0438
 110   2.0000      -0.844614       -22.9831
 111   2.0000      -0.842495       -22.9254
 112   2.0000      -0.837488       -22.7892
 113   2.0000      -0.830022       -22.5861
 114   2.0000      -0.819298       -22.2942
 115   2.0000      -0.814348       -22.1595
 116   2.0000      -0.806185       -21.9374
 117   2.0000      -0.804051       -21.8793
 118   2.0000      -0.794732       -21.6257
 119   2.0000      -0.783962       -21.3327
 120   2.0000      -0.776048       -21.1173
 121   2.0000      -0.762726       -20.7548
 122   2.0000      -0.749083       -20.3836
 123   2.0000      -0.736498       -20.0411
 124   2.0000      -0.724731       -19.7209
 125   2.0000      -0.713242       -19.4083
 126   2.0000      -0.706215       -19.2171
 127   2.0000      -0.697013       -18.9667
 128   2.0000      -0.695119       -18.9151
 129   2.0000      -0.689419       -18.7600
 130   2.0000      -0.681030       -18.5318
 131   2.0000      -0.673743       -18.3335
 132   2.0000      -0.665103       -18.0984
 133   2.0000      -0.656300       -17.8588
 134   2.0000      -0.653945       -17.7948
 135   2.0000      -0.648903       -17.6576
 136   2.0000      -0.642246       -17.4764
 137   2.0000      -0.633763       -17.2456
 138   2.0000      -0.633191       -17.2300
 139   2.0000      -0.631180       -17.1753
 140   2.0000      -0.629357       -17.1257
 141   2.0000      -0.628702       -17.1079
 142   2.0000      -0.627154       -17.0657
 143   2.0000      -0.620774       -16.8921
 144   2.0000      -0.618150       -16.8207
 145   2.0000      -0.616965       -16.7885
 146   2.0000      -0.607789       -16.5388
 147   2.0000      -0.604548       -16.4506
 148   2.0000      -0.604397       -16.4465
 149   2.0000      -0.599819       -16.3219
 150   2.0000      -0.589748       -16.0479
 151   2.0000      -0.580975       -15.8091
 152   2.0000      -0.580310       -15.7911
 153   2.0000      -0.576336       -15.6829
 154   2.0000      -0.574626       -15.6364
 155   2.0000      -0.569108       -15.4862
 156   2.0000      -0.558028       -15.1847
 157   2.0000      -0.556758       -15.1501
 158   2.0000      -0.551869       -15.0171
 159   2.0000      -0.549061       -14.9407
 160   2.0000      -0.548828       -14.9344
 161   2.0000      -0.540704       -14.7133
 162   2.0000      -0.539475       -14.6799
 163   2.0000      -0.535253       -14.5650
 164   2.0000      -0.531052       -14.4507
 165   2.0000      -0.526735       -14.3332
 166   2.0000      -0.524666       -14.2769
 167   2.0000      -0.519398       -14.1335
 168   2.0000      -0.519176       -14.1275
 169   2.0000      -0.511621       -13.9219
 170   2.0000      -0.508213       -13.8292
 171   2.0000      -0.506050       -13.7703
 172   2.0000      -0.504816       -13.7367
 173   2.0000      -0.500831       -13.6283
 174   2.0000      -0.499993       -13.6055
 175   2.0000      -0.499253       -13.5854
 176   2.0000      -0.496870       -13.5205
 177   2.0000      -0.496454       -13.5092
 178   2.0000      -0.492456       -13.4004
 179   2.0000      -0.490903       -13.3582
 180   2.0000      -0.485332       -13.2065
 181   2.0000      -0.478567       -13.0225
 182   2.0000      -0.477936       -13.0053
 183   2.0000      -0.473628       -12.8881
 184   2.0000      -0.470432       -12.8011
 185   2.0000      -0.469463       -12.7747
 186   2.0000      -0.467358       -12.7175
 187   2.0000      -0.464489       -12.6394
 188   2.0000      -0.460812       -12.5393
 189   2.0000      -0.457795       -12.4572
 190   2.0000      -0.457127       -12.4391
 191   2.0000      -0.455996       -12.4083
 192   2.0000      -0.450631       -12.2623
 193   2.0000      -0.444852       -12.1051
 194   2.0000      -0.443950       -12.0805
 195   2.0000      -0.442431       -12.0391
 196   2.0000      -0.440155       -11.9772
 197   2.0000      -0.436962       -11.8903
 198   2.0000      -0.431755       -11.7486
 199   2.0000      -0.429869       -11.6973
 200   2.0000      -0.429359       -11.6835
 201   2.0000      -0.421036       -11.4570
 202   2.0000      -0.419605       -11.4180
 203   2.0000      -0.417139       -11.3509
 204   2.0000      -0.415234       -11.2991
 205   2.0000      -0.414375       -11.2757
 206   2.0000      -0.410129       -11.1602
 207   2.0000      -0.400318       -10.8932
 208   2.0000      -0.398878       -10.8540
 209   2.0000      -0.395410       -10.7597
 210   2.0000      -0.389896       -10.6096
 211   2.0000      -0.383986       -10.4488
 212   2.0000      -0.383691       -10.4408
 213   2.0000      -0.381440       -10.3795
 214   2.0000      -0.381068       -10.3694
 215   2.0000      -0.375549       -10.2192
 216   2.0000      -0.374937       -10.2026
 217   2.0000      -0.364223        -9.9110
 218   2.0000      -0.363696        -9.8967
 219   2.0000      -0.354892        -9.6571
 220   2.0000      -0.346840        -9.4380
 221   2.0000      -0.344264        -9.3679
 222   2.0000      -0.339719        -9.2442
 223   2.0000      -0.339544        -9.2395
 224   2.0000      -0.332601        -9.0505
 225   2.0000      -0.325282        -8.8514
 226   2.0000      -0.314542        -8.5591
 227   2.0000      -0.302129        -8.2214
 228   2.0000      -0.288168        -7.8414
 229   2.0000      -0.285330        -7.7642
 230   2.0000      -0.277374        -7.5477
 231   2.0000      -0.263326        -7.1655
 232   2.0000      -0.251625        -6.8471
 233   2.0000      -0.218862        -5.9555
 234   0.0000      -0.078901        -2.1470
 235   0.0000      -0.067170        -1.8278
 236   0.0000      -0.062423        -1.6986
 237   0.0000      -0.043762        -1.1908
 238   0.0000      -0.018167        -0.4944

MULLIKEN ATOMIC CHARGES
-----------------------
   0 C :   -0.083126
   1 C :    0.127464
   2 N :   -0.179032
   3 C :    0.094063
   4 C :    0.017534
   5 C :    0.103614
   6 C :    0.065124
   7 C :    0.072889
   8 C :   -0.047288
   9 C :    0.026211
  10 C :    0.025322
  11 C :   -0.047712
  12 C :    0.033373
  13 C :   -0.044141
  14 C :    0.043576
  15 C :   -0.061622
  16 C :    0.010257
  17 C :   -0.114036
  18 S :    0.195913
  19 C :   -0.012691
  20 N :    0.275601
  21 O :   -0.249365
  22 O :   -0.259973
  23 C :    0.000167
  24 C :    0.102271
  25 C :   -0.040913
  26 C :    0.059779
  27 C :   -0.079980
  28 C :   -0.034948
  29 C :    0.107236
  30 C :   -0.047444
  31 S :    0.113618
  32 C :   -0.054386
  33 C :    0.099940
  34 C :   -0.035450
  35 C :   -0.064108
  36 S :    0.119948
  37 C :   -0.081821
  38 C :   -0.027233
  39 C :   -0.095569
  40 S :    0.200321
  41 C :    0.001142
  42 N :    0.274650
  43 O :   -0.243474
  44 O :   -0.256939
  45 C :   -0.012132
  46 C :    0.139211
  47 C :   -0.058712
  48 C :    0.019416
  49 C :   -0.031067
  50 C :   -0.007356
  51 C :    0.033261
  52 C :    0.031087
  53 C :   -0.051282
  54 S :    0.070124
  55 C :   -0.064827
  56 C :    0.028926
  57 C :    0.053575
  58 C :   -0.065302
  59 S :    0.085220
  60 C :   -0.028537
  61 H :   -0.037643
  62 H :    0.021930
  63 H :   -0.000623
  64 H :    0.020895
  65 H :    0.034708
  66 H :    0.027324
  67 H :   -0.034286
  68 H :   -0.021120
  69 H :   -0.015368
  70 H :   -0.029181
  71 H :   -0.022088
  72 H :   -0.027551
  73 H :    0.014865
  74 H :    0.003065
  75 H :    0.008150
  76 H :    0.017340
  77 H :   -0.009398
  78 H :   -0.022631
  79 H :   -0.028944
  80 H :   -0.028396
  81 H :   -0.007818
  82 H :    0.010717
  83 H :   -0.006023
  84 H :    0.001501
  85 H :   -0.019410
  86 H :   -0.013556
  87 H :   -0.013163
  88 H :   -0.011030
  89 H :   -0.009567
  90 H :    0.021927
  91 H :    0.025006
Sum of atomic charges:    0.0000000

LOEWDIN ATOMIC CHARGES
----------------------
   0 C :   -0.061035
   1 C :    0.029377
   2 N :    0.022243
   3 C :    0.038018
   4 C :   -0.061098
   5 C :    0.040367
   6 C :   -0.040225
   7 C :   -0.043896
   8 C :   -0.010561
   9 C :   -0.044321
  10 C :   -0.017418
  11 C :   -0.002785
  12 C :   -0.045827
  13 C :   -0.008250
  14 C :   -0.065436
  15 C :    0.007477
  16 C :   -0.060356
  17 C :   -0.138667
  18 S :    0.483522
  19 C :   -0.203666
  20 N :    0.273629
  21 O :   -0.215879
  22 O :   -0.225705
  23 C :   -0.005372
  24 C :   -0.071915
  25 C :   -0.008010
  26 C :   -0.045989
  27 C :   -0.151255
  28 C :   -0.061400
  29 C :   -0.042657
  30 C :   -0.155534
  31 S :    0.395459
  32 C :   -0.032783
  33 C :   -0.047188
  34 C :   -0.150743
  35 C :   -0.040340
  36 S :    0.391393
  37 C :   -0.171478
  38 C :   -0.045022
  39 C :   -0.172869
  40 S :    0.479618
  41 C :   -0.196647
  42 N :    0.273237
  43 O :   -0.210322
  44 O :   -0.222761
  45 C :   -0.004775
  46 C :   -0.052804
  47 C :   -0.035008
  48 C :   -0.019370
  49 C :   -0.067747
  50 C :   -0.137622
  51 C :   -0.037405
  52 C :   -0.026032
  53 C :   -0.182950
  54 S :    0.362316
  55 C :   -0.173610
  56 C :   -0.027346
  57 C :   -0.028056
  58 C :   -0.139877
  59 S :    0.354691
  60 C :   -0.071788
  61 H :    0.025321
  62 H :    0.028500
  63 H :    0.019770
  64 H :    0.029975
  65 H :    0.031764
  66 H :    0.025332
  67 H :    0.026944
  68 H :    0.026037
  69 H :    0.028412
  70 H :    0.029201
  71 H :    0.027437
  72 H :    0.025935
  73 H :    0.031537
  74 H :    0.029933
  75 H :    0.042969
  76 H :    0.029810
  77 H :    0.029201
  78 H :    0.027434
  79 H :    0.031936
  80 H :    0.031379
  81 H :    0.034324
  82 H :    0.043975
  83 H :    0.030263
  84 H :    0.022698
  85 H :    0.031420
  86 H :    0.033103
  87 H :    0.031915
  88 H :    0.032430
  89 H :    0.034207
  90 H :    0.029603
  91 H :    0.027685

  Mayer bond orders larger than 0.100000
B(  0-C ,  1-C ) :   1.3040 B(  0-C , 10-C ) :   1.4013 B(  0-C , 61-H ) :   1.0038
B(  1-C ,  2-N ) :   1.1044 B(  1-C ,  7-C ) :   1.3128 B(  2-N ,  3-C ) :   0.9585
B(  2-N ,  5-C ) :   1.1573 B(  3-C ,  4-C ) :   1.1104 B(  3-C , 62-H ) :   0.9362
B(  3-C , 63-H ) :   0.9449 B(  4-C , 64-H ) :   0.9565 B(  4-C , 65-H ) :   0.9656
B(  4-C , 66-H ) :   0.9596 B(  5-C ,  6-C ) :   1.2730 B(  5-C , 14-C ) :   1.2796
B(  6-C ,  7-C ) :   1.0804 B(  6-C , 11-C ) :   1.3562 B(  7-C ,  8-C ) :   1.3371
B(  8-C ,  9-C ) :   1.4067 B(  8-C , 67-H ) :   0.9967 B(  9-C , 10-C ) :   1.3537
B(  9-C , 68-H ) :   0.9866 B( 10-C , 69-H ) :   0.9843 B( 11-C , 12-C ) :   1.3588
B( 11-C , 70-H ) :   1.0009 B( 12-C , 13-C ) :   1.3780 B( 12-C , 71-H ) :   0.9837
B( 13-C , 14-C ) :   1.3682 B( 13-C , 72-H ) :   0.9861 B( 14-C , 15-C ) :   1.0421
B( 15-C , 16-C ) :   1.7405 B( 15-C , 73-H ) :   0.9676 B( 16-C , 17-C ) :   1.0961
B( 16-C , 74-H ) :   0.9505 B( 17-C , 18-S ) :   1.1468 B( 17-C , 24-C ) :   1.4288
B( 18-S , 19-C ) :   1.1154 B( 19-C , 20-N ) :   0.9596 B( 19-C , 23-C ) :   1.4793
B( 20-N , 21-O ) :   1.5366 B( 20-N , 22-O ) :   1.5169 B( 21-O , 22-O ) :   0.2638
B( 23-C , 24-C ) :   1.2366 B( 23-C , 75-H ) :   1.0018 B( 24-C , 25-C ) :   1.0737
B( 25-C , 26-C ) :   1.7546 B( 25-C , 76-H ) :   0.9594 B( 26-C , 27-C ) :   1.0779
B( 26-C , 77-H ) :   0.9618 B( 27-C , 28-C ) :   1.5853 B( 27-C , 31-S ) :   1.0681
B( 28-C , 29-C ) :   1.1564 B( 28-C , 78-H ) :   0.9937 B( 29-C , 30-C ) :   1.2831
B( 29-C , 35-C ) :   1.3127 B( 30-C , 31-S ) :   1.0404 B( 30-C , 32-C ) :   1.3862
B( 32-C , 33-C ) :   1.3167 B( 32-C , 35-C ) :   0.1021 B( 32-C , 79-H ) :   1.0030
B( 33-C , 34-C ) :   1.2821 B( 33-C , 38-C ) :   1.1507 B( 34-C , 35-C ) :   1.3875
B( 34-C , 36-S ) :   1.0402 B( 35-C , 80-H ) :   1.0027 B( 36-S , 37-C ) :   1.0753
B( 37-C , 38-C ) :   1.5760 B( 37-C , 39-C ) :   1.1016 B( 38-C , 81-H ) :   1.0021
B( 39-C , 40-S ) :   1.1352 B( 39-C , 46-C ) :   1.4426 B( 40-S , 41-C ) :   1.1132
B( 41-C , 42-N ) :   0.9525 B( 41-C , 45-C ) :   1.4984 B( 42-N , 43-O ) :   1.5400
B( 42-N , 44-O ) :   1.5198 B( 43-O , 44-O ) :   0.2666 B( 45-C , 46-C ) :   1.2101
B( 45-C , 82-H ) :   0.9998 B( 46-C , 47-C ) :   1.0817 B( 47-C , 48-C ) :   1.6648
B( 47-C , 83-H ) :   0.9759 B( 48-C , 49-C ) :   1.1419 B( 48-C , 84-H ) :   0.9701
B( 49-C , 50-C ) :   1.5792 B( 49-C , 85-H ) :   0.9840 B( 50-C , 51-C ) :   1.1271
B( 50-C , 54-S ) :   1.0323 B( 51-C , 52-C ) :   1.6115 B( 51-C , 86-H ) :   0.9994
B( 52-C , 53-C ) :   1.1688 B( 52-C , 87-H ) :   0.9933 B( 53-C , 54-S ) :   1.0320
B( 53-C , 55-C ) :   1.5627 B( 55-C , 56-C ) :   1.1478 B( 55-C , 59-S ) :   1.0475
B( 56-C , 57-C ) :   1.6665 B( 56-C , 88-H ) :   0.9915 B( 57-C , 58-C ) :   1.0773
B( 57-C , 89-H ) :   0.9933 B( 58-C , 59-S ) :   1.0066 B( 58-C , 60-C ) :   1.8669
B( 60-C , 90-H ) :   0.9509 B( 60-C , 91-H ) :   0.9418

-----------------------------------------------------------------------------
         ABSORPTION SPECTRUM VIA TRANSITION ELECTRIC DIPOLE MOMENTS
-----------------------------------------------------------------------------
State   Energy  Wavelength   fosc         T2         TX        TY        TZ
        (cm-1)    (nm)                  (au**2)     (au)      (au)      (au)
-----------------------------------------------------------------------------
   0   17228.1    580.4   1.387224017  26.50842   3.36983   1.68546   3.50883
   1   20404.0    490.1   0.552603506   8.91610   1.54274   1.86421   1.74951
   2   23305.7    429.1   0.345697746   4.88327  -0.46949   0.58258   2.07929
   3   25253.3    396.0   0.772420543  10.06959  -2.53817   1.75967  -0.72861
   4   25943.5    385.5   0.256731226   3.25781   1.29430  -1.25574   0.07555
   5   26897.8    371.8   0.024935247   0.30519  -0.29866   0.45662   0.08656
   6   27981.7    357.4   0.020838723   0.24517   0.24372   0.35948  -0.23780
   7   29074.2    343.9   0.086300073   0.97719  -0.50946   0.71784   0.44982
   8   29212.2    342.3   0.337641027   3.80511   1.67588   0.04140   0.99740
   9   29967.8    333.7   0.268514097   2.94977   1.50284  -0.63352   0.53841
  10   30184.8    331.3   0.088550388   0.96578  -0.69586   0.68941   0.07923
  11   30456.9    328.3   0.016783492   0.18141  -0.13736   0.20348   0.34806
  12   31346.3    319.0   0.119029527   1.25010  -0.76480   0.16352  -0.79902
  13   32843.6    304.5   0.131171263   1.31481  -0.85623   0.73105   0.21739
  14   33513.4    298.4   0.060489296   0.59420  -0.42396   0.62763   0.14333
  15   33830.7    295.6   0.103118072   1.00346   0.70390  -0.57276  -0.42418
  16   33998.6    294.1   0.057764593   0.55934  -0.57766   0.47371  -0.03531
  17   34427.6    290.5   0.042294627   0.40444  -0.21914   0.39273   0.44964
  18   34657.9    288.5   0.004708668   0.04473  -0.17632   0.03195  -0.11233
  19   34757.3    287.7   0.000069388   0.00066   0.01770   0.01763   0.00577
  20   35044.9    285.3   0.034436210   0.32349  -0.18752   0.38166   0.37771
  21   35149.2    284.5   0.082830970   0.77581  -0.15710  -0.35623  -0.79008
  22   35606.5    280.8   0.012090573   0.11179  -0.09815   0.23619   0.21533
  23   35954.7    278.1   0.339540693   3.10894  -1.41854   0.99235   0.33455
  24   36382.5    274.9   0.191792152   1.73546  -0.53878   1.10931   0.46326
  25   37044.9    269.9   0.022969351   0.20412   0.39963   0.11689  -0.17537
  26   37486.0    266.8   0.023630208   0.20753   0.25833  -0.36272  -0.09607
  27   37833.3    264.3   0.041264539   0.35907   0.52963   0.05328   0.27518
  28   38288.7    261.2   0.022648819   0.19474   0.37850  -0.21160   0.08187
  29   38654.8    258.7   0.027214833   0.23178   0.42608  -0.22073   0.03892
  30   38754.5    258.0   0.003592048   0.03051   0.03525  -0.16667   0.03864
  31   39045.1    256.1   0.134088628   1.13058   0.86414   0.14502   0.60234
  32   39788.0    251.3   0.011721628   0.09699  -0.04082   0.30874  -0.00061
  33   39881.1    250.7   0.245775713   2.02884  -1.29581   0.23684  -0.54186
  34   40155.2    249.0   0.027106858   0.22224  -0.45680   0.09323  -0.06982

FINAL SINGLE POINT ENERGY     -4698.197466437686

DIPOLE MOMENT
-------------
                                X             Y             Z
Electronic contribution:     -1.98600      -6.60549      20.35038
Nuclear contribution   :      2.47949       7.97150     -19.71356
                        -----------------------------------------
Total Dipole Moment    :      0.49349       1.36602       0.63682
                        -----------------------------------------
Magnitude (a.u.)       :      1.58590
Magnitude (Debye)      :      4.03103

Rotational constants in cm-1:     0.001504     0.000319     0.000274
Rotational constants in MHz :    45.089502     9.574310     8.217353

                             ****ORCA TERMINATED NORMALLY****
TOTAL RUN TIME: 0 days 0 hours 7 minutes 51 seconds 115 msec
