                         Program Version 4.2.0 -  RELEASE  -
|  1> # ORCA input file
|  2> # SCF done       -118.676328145640          0.000501107127
|  3> ! CAM-B3LYP def2-SVP def2/J RIJCOSX Grid4 TightSCF
|  4> %maxcore 5000
|  5> %tddft
|  6>     Mode sTDDFT
|  7>     Ethresh 5.0
|  8>     maxcore 5000
|  9> end
| 10>
| 11> %pal
| 12>   nprocs 6
| 13>   end
| 14> * xyz 0 1
| 15>    N        5.03120         0.96200         5.43823
| 16>    C        5.92715         0.36899         5.03651
| 17>    C        7.02679        -0.36175         4.53982
| 18>    C        8.09614        -0.67491         5.34487
| 19>    C        9.18497        -1.40302         4.83570
| 20>    C        9.22140        -1.82417         3.53378
| 21>    C        8.14792        -1.52700         2.67081
| 22>    C        7.97986        -1.85247         1.31660
| 23>    C        8.83555        -2.56624         0.43815
| 24>    S       10.36134        -3.26187         0.90587
| 25>    C       10.67691        -3.87607        -0.69084
| 26>    C       11.86083        -4.59131        -1.00811
| 27>    S       12.21374        -5.13970        -2.61919
| 28>    C       13.72505        -5.83675        -2.12198
| 29>    C       14.59690        -6.48690        -3.03759
| 30>    S       16.10794        -7.18742        -2.54552
| 31>    C       16.48556        -7.69172        -4.16327
| 32>    C       17.68557        -8.40183        -4.49487
| 33>    S       18.18261        -9.78201        -3.57324
| 34>    C       19.47625       -10.11238        -4.62706
| 35>    C       19.56245        -9.19859        -5.65666
| 36>    C       20.50546        -9.16085        -6.71094
| 37>    C       20.45364        -8.14682        -7.62119
| 38>    C       19.50741        -7.11038        -7.50214
| 39>    C       18.57035        -7.10911        -6.49514
| 40>    C       17.73122        -5.98676        -6.33004
| 41>    N       17.09914        -5.04228        -6.17375
| 42>    C       18.54031        -8.19324        -5.57007
| 43>    C       15.46976        -7.33541        -5.02201
| 44>    F       15.46517        -7.66306        -6.31806
| 45>    C       14.41377        -6.65723        -4.39489
| 46>    F       13.32171        -6.23298        -5.03510
| 47>    C       13.92170        -5.64444        -0.76768
| 48>    F       15.00679        -6.08549        -0.12073
| 49>    C       12.88097        -4.94653        -0.14527
| 50>    F       12.86435        -4.64756         1.15999
| 51>    C        9.63222        -3.54755        -1.53161
| 52>    F        9.60399        -3.89443        -2.82172
| 53>    C        8.61185        -2.82425        -0.90490
| 54>    F        7.51226        -2.41372        -1.55104
| 55>    S        6.46776        -1.23634         0.72324
| 56>    C        6.05895        -0.56308         2.22721
| 57>    C        7.03119        -0.78330         3.17848
| 58>    H        8.09906        -0.35812         6.37711
| 59>    H       10.00875        -1.63118         5.49419
| 60>    H       10.06925        -2.38115         3.16954
| 61>    H       20.10934       -10.95880        -4.45037
| 62>    H       21.25557        -9.93423        -6.77094
| 63>    H       21.16270        -8.10810        -8.43382
| 64>    H       19.52979        -6.28864        -8.20241
| 65>    H        5.13306        -0.03731         2.35278
| 66> *
| 67>
| 68>                          ****END OF INPUT****

CARTESIAN COORDINATES (ANGSTROEM)
---------------------------------
  N      5.031200    0.962000    5.438230
  C      5.927150    0.368990    5.036510
  C      7.026790   -0.361750    4.539820
  C      8.096140   -0.674910    5.344870
  C      9.184970   -1.403020    4.835700
  C      9.221400   -1.824170    3.533780
  C      8.147920   -1.527000    2.670810
  C      7.979860   -1.852470    1.316600
  C      8.835550   -2.566240    0.438150
  S     10.361340   -3.261870    0.905870
  C     10.676910   -3.876070   -0.690840
  C     11.860830   -4.591310   -1.008110
  S     12.213740   -5.139700   -2.619190
  C     13.725050   -5.836750   -2.121980
  C     14.596900   -6.486900   -3.037590
  S     16.107940   -7.187420   -2.545520
  C     16.485560   -7.691720   -4.163270
  C     17.685570   -8.401830   -4.494870
  S     18.182610   -9.782010   -3.573240
  C     19.476250  -10.112380   -4.627060
  C     19.562450   -9.198590   -5.656660
  C     20.505460   -9.160850   -6.710940
  C     20.453640   -8.146820   -7.621190
  C     19.507410   -7.110380   -7.502140
  C     18.570350   -7.109110   -6.495140
  C     17.731220   -5.986760   -6.330040
  N     17.099140   -5.042280   -6.173750
  C     18.540310   -8.193240   -5.570070
  C     15.469760   -7.335410   -5.022010
  F     15.465170   -7.663060   -6.318060
  C     14.413770   -6.657230   -4.394890
  F     13.321710   -6.232980   -5.035100
  C     13.921700   -5.644440   -0.767680
  F     15.006790   -6.085490   -0.120730
  C     12.880970   -4.946530   -0.145270
  F     12.864350   -4.647560    1.159990
  C      9.632220   -3.547550   -1.531610
  F      9.603990   -3.894430   -2.821720
  C      8.611850   -2.824250   -0.904900
  F      7.512260   -2.413720   -1.551040
  S      6.467760   -1.236340    0.723240
  C      6.058950   -0.563080    2.227210
  C      7.031190   -0.783300    3.178480
  H      8.099060   -0.358120    6.377110
  H     10.008750   -1.631180    5.494190
  H     10.069250   -2.381150    3.169540
  H     20.109340  -10.958800   -4.450370
  H     21.255570   -9.934230   -6.770940
  H     21.162700   -8.108100   -8.433820
  H     19.529790   -6.288640   -8.202410
  H      5.133060   -0.037310    2.352780

 Total Charge           Charge          ....    0
 Multiplicity           Mult            ....    1
 Number of Electrons    NEL             ....  336
 Basis Dimension        Dim             ....  662

ORBITAL ENERGIES
----------------

  NO   OCC          E(Eh)            E(eV)
   0   2.0000     -88.983816     -2421.3727
   1   2.0000     -88.982065     -2421.3251
   2   2.0000     -88.979741     -2421.2619
   3   2.0000     -88.979226     -2421.2478
   4   2.0000     -88.975400     -2421.1437
   5   2.0000     -24.809168      -675.0918
   6   2.0000     -24.807930      -675.0581
   7   2.0000     -24.807482      -675.0459
   8   2.0000     -24.807350      -675.0423
   9   2.0000     -24.802596      -674.9129
  10   2.0000     -24.796494      -674.7469
  11   2.0000     -14.403392      -391.9362
  12   2.0000     -14.401143      -391.8750
  13   2.0000     -10.377595      -282.3887
  14   2.0000     -10.376983      -282.3721
  15   2.0000     -10.376242      -282.3519
  16   2.0000     -10.375181      -282.3230
  17   2.0000     -10.371731      -282.2291
  18   2.0000     -10.370573      -282.1976
  19   2.0000     -10.330694      -281.1125
  20   2.0000     -10.330282      -281.1013
  21   2.0000     -10.330189      -281.0987
  22   2.0000     -10.329333      -281.0755
  23   2.0000     -10.327170      -281.0166
  24   2.0000     -10.323833      -280.9258
  25   2.0000     -10.322298      -280.8840
  26   2.0000     -10.320385      -280.8320
  27   2.0000     -10.316464      -280.7253
  28   2.0000     -10.314903      -280.6828
  29   2.0000     -10.310840      -280.5722
  30   2.0000     -10.303373      -280.3690
  31   2.0000     -10.302503      -280.3454
  32   2.0000     -10.302442      -280.3437
  33   2.0000     -10.301759      -280.3251
  34   2.0000     -10.300028      -280.2780
  35   2.0000     -10.297591      -280.2117
  36   2.0000     -10.297485      -280.2088
  37   2.0000     -10.297215      -280.2015
  38   2.0000     -10.296968      -280.1947
  39   2.0000     -10.296474      -280.1813
  40   2.0000     -10.294278      -280.1216
  41   2.0000     -10.288588      -279.9667
  42   2.0000     -10.287742      -279.9437
  43   2.0000      -8.079207      -219.8464
  44   2.0000      -8.076331      -219.7681
  45   2.0000      -8.074522      -219.7189
  46   2.0000      -8.073712      -219.6969
  47   2.0000      -8.070358      -219.6056
  48   2.0000      -6.048050      -164.5758
  49   2.0000      -6.046021      -164.5206
  50   2.0000      -6.043751      -164.4588
  51   2.0000      -6.043592      -164.4545
  52   2.0000      -6.043407      -164.4495
  53   2.0000      -6.042428      -164.4228
  54   2.0000      -6.041965      -164.4102
  55   2.0000      -6.039889      -164.3537
  56   2.0000      -6.039228      -164.3357
  57   2.0000      -6.038957      -164.3284
  58   2.0000      -6.037662      -164.2931
  59   2.0000      -6.037577      -164.2908
  60   2.0000      -6.035919      -164.2457
  61   2.0000      -6.034942      -164.2191
  62   2.0000      -6.031753      -164.1324
  63   2.0000      -1.326962       -36.1085
  64   2.0000      -1.326782       -36.1036
  65   2.0000      -1.319821       -35.9141
  66   2.0000      -1.315895       -35.8073
  67   2.0000      -1.315411       -35.7941
  68   2.0000      -1.306907       -35.5628
  69   2.0000      -1.024462       -27.8770
  70   2.0000      -1.019773       -27.7494
  71   2.0000      -1.012942       -27.5635
  72   2.0000      -1.002943       -27.2915
  73   2.0000      -0.993015       -27.0213
  74   2.0000      -0.986578       -26.8462
  75   2.0000      -0.985586       -26.8192
  76   2.0000      -0.947173       -25.7739
  77   2.0000      -0.945970       -25.7412
  78   2.0000      -0.906241       -24.6601
  79   2.0000      -0.894553       -24.3420
  80   2.0000      -0.883587       -24.0436
  81   2.0000      -0.866559       -23.5803
  82   2.0000      -0.851759       -23.1775
  83   2.0000      -0.850343       -23.1390
  84   2.0000      -0.847602       -23.0644
  85   2.0000      -0.844128       -22.9699
  86   2.0000      -0.842318       -22.9206
  87   2.0000      -0.827774       -22.5249
  88   2.0000      -0.802130       -21.8271
  89   2.0000      -0.784902       -21.3583
  90   2.0000      -0.745181       -20.2774
  91   2.0000      -0.743434       -20.2299
  92   2.0000      -0.739506       -20.1230
  93   2.0000      -0.728866       -19.8335
  94   2.0000      -0.715678       -19.4746
  95   2.0000      -0.700917       -19.0729
  96   2.0000      -0.694243       -18.8913
  97   2.0000      -0.688666       -18.7395
  98   2.0000      -0.681063       -18.5327
  99   2.0000      -0.674258       -18.3475
 100   2.0000      -0.668105       -18.1801
 101   2.0000      -0.664345       -18.0777
 102   2.0000      -0.660329       -17.9685
 103   2.0000      -0.645435       -17.5632
 104   2.0000      -0.640688       -17.4340
 105   2.0000      -0.624278       -16.9875
 106   2.0000      -0.622719       -16.9451
 107   2.0000      -0.604389       -16.4463
 108   2.0000      -0.597117       -16.2484
 109   2.0000      -0.595865       -16.2143
 110   2.0000      -0.591687       -16.1006
 111   2.0000      -0.589994       -16.0545
 112   2.0000      -0.589850       -16.0506
 113   2.0000      -0.584681       -15.9100
 114   2.0000      -0.578266       -15.7354
 115   2.0000      -0.575140       -15.6504
 116   2.0000      -0.572353       -15.5745
 117   2.0000      -0.564887       -15.3713
 118   2.0000      -0.557102       -15.1595
 119   2.0000      -0.555409       -15.1134
 120   2.0000      -0.551865       -15.0170
 121   2.0000      -0.548556       -14.9270
 122   2.0000      -0.547488       -14.8979
 123   2.0000      -0.535246       -14.5648
 124   2.0000      -0.524811       -14.2808
 125   2.0000      -0.523355       -14.2412
 126   2.0000      -0.519131       -14.1263
 127   2.0000      -0.518020       -14.0960
 128   2.0000      -0.515677       -14.0323
 129   2.0000      -0.511163       -13.9095
 130   2.0000      -0.509367       -13.8606
 131   2.0000      -0.502810       -13.6821
 132   2.0000      -0.490145       -13.3375
 133   2.0000      -0.489201       -13.3118
 134   2.0000      -0.482841       -13.1388
 135   2.0000      -0.479951       -13.0601
 136   2.0000      -0.476909       -12.9774
 137   2.0000      -0.474088       -12.9006
 138   2.0000      -0.468470       -12.7477
 139   2.0000      -0.466126       -12.6839
 140   2.0000      -0.460274       -12.5247
 141   2.0000      -0.457937       -12.4611
 142   2.0000      -0.456600       -12.4247
 143   2.0000      -0.453018       -12.3273
 144   2.0000      -0.446862       -12.1597
 145   2.0000      -0.443567       -12.0701
 146   2.0000      -0.440921       -11.9981
 147   2.0000      -0.434921       -11.8348
 148   2.0000      -0.429459       -11.6862
 149   2.0000      -0.426740       -11.6122
 150   2.0000      -0.424028       -11.5384
 151   2.0000      -0.418541       -11.3891
 152   2.0000      -0.417592       -11.3633
 153   2.0000      -0.412483       -11.2242
 154   2.0000      -0.408253       -11.1091
 155   2.0000      -0.407467       -11.0878
 156   2.0000      -0.392941       -10.6925
 157   2.0000      -0.369579       -10.0568
 158   2.0000      -0.355594        -9.6762
 159   2.0000      -0.332773        -9.0552
 160   2.0000      -0.332071        -9.0361
 161   2.0000      -0.329258        -8.9596
 162   2.0000      -0.328795        -8.9470
 163   2.0000      -0.327406        -8.9092
 164   2.0000      -0.321450        -8.7471
 165   2.0000      -0.294736        -8.0202
 166   2.0000      -0.267175        -7.2702
 167   2.0000      -0.240105        -6.5336
 168   0.0000      -0.074528        -2.0280
 169   0.0000      -0.059755        -1.6260
 170   0.0000      -0.038231        -1.0403
 171   0.0000      -0.005468        -0.1488
 172   0.0000       0.022050         0.6000

MULLIKEN ATOMIC CHARGES
-----------------------
   0 N :    0.112636
   1 C :   -0.191715
   2 C :   -0.075532
   3 C :    0.025463
   4 C :    0.015842
   5 C :   -0.010204
   6 C :    0.071710
   7 C :   -0.111823
   8 C :   -0.133803
   9 S :    0.151666
  10 C :   -0.112300
  11 C :   -0.127242
  12 S :    0.218155
  13 C :   -0.118844
  14 C :   -0.124712
  15 S :    0.196546
  16 C :   -0.212840
  17 C :   -0.184371
  18 S :    0.197518
  19 C :   -0.127690
  20 C :    0.062453
  21 C :    0.029045
  22 C :    0.015887
  23 C :    0.023678
  24 C :   -0.094900
  25 C :   -0.209718
  26 N :    0.114806
  27 C :    0.213287
  28 C :    0.247603
  29 F :   -0.164564
  30 C :    0.183351
  31 F :   -0.167812
  32 C :    0.185587
  33 F :   -0.172629
  34 C :    0.190114
  35 F :   -0.174427
  36 C :    0.199033
  37 F :   -0.167081
  38 C :    0.180837
  39 F :   -0.173487
  40 S :    0.204447
  41 C :   -0.127132
  42 C :    0.110177
  43 H :   -0.005429
  44 H :   -0.003523
  45 H :   -0.003592
  46 H :    0.025515
  47 H :   -0.014324
  48 H :   -0.001600
  49 H :   -0.001855
  50 H :    0.037789
Sum of atomic charges:    0.0000000

LOEWDIN ATOMIC CHARGES
----------------------
   0 N :   -0.057564
   1 C :   -0.027633
   2 C :   -0.063176
   3 C :    0.014536
   4 C :   -0.025359
   5 C :   -0.005086
   6 C :   -0.049203
   7 C :   -0.198541
   8 C :   -0.212159
   9 S :    0.478890
  10 C :   -0.218978
  11 C :   -0.219261
  12 S :    0.491540
  13 C :   -0.215573
  14 C :   -0.216143
  15 S :    0.469959
  16 C :   -0.234152
  17 C :   -0.208973
  18 S :    0.508768
  19 C :   -0.190277
  20 C :   -0.052797
  21 C :    0.010610
  22 C :   -0.031690
  23 C :    0.020918
  24 C :   -0.064804
  25 C :   -0.027704
  26 N :   -0.062449
  27 C :   -0.027959
  28 C :    0.033636
  29 F :   -0.040145
  30 C :    0.026455
  31 F :   -0.043073
  32 C :    0.018264
  33 F :   -0.048785
  34 C :    0.018106
  35 F :   -0.050874
  36 C :    0.021340
  37 F :   -0.044570
  38 C :    0.014186
  39 F :   -0.049154
  40 S :    0.524941
  41 C :   -0.192902
  42 C :   -0.037953
  43 H :    0.040510
  44 H :    0.034927
  45 H :    0.018487
  46 H :    0.027234
  47 H :    0.034466
  48 H :    0.034594
  49 H :    0.041468
  50 H :    0.033100

  Mayer bond orders larger than 0.100000
B(  0-N ,  1-C ) :   3.0396 B(  1-C ,  2-C ) :   1.0745 B(  2-C ,  3-C ) :   1.5600
B(  2-C , 42-C ) :   1.1883 B(  3-C ,  4-C ) :   1.2008 B(  3-C , 43-H ) :   0.9954
B(  4-C ,  5-C ) :   1.5509 B(  4-C , 44-H ) :   0.9813 B(  5-C ,  6-C ) :   1.2023
B(  5-C , 45-H ) :   0.9795 B(  6-C ,  7-C ) :   1.3467 B(  6-C , 42-C ) :   1.1985
B(  7-C ,  8-C ) :   1.1753 B(  7-C , 40-S ) :   1.1965 B(  7-C , 41-C ) :   0.1106
B(  8-C ,  9-S ) :   1.0926 B(  8-C , 10-C ) :   0.1199 B(  8-C , 38-C ) :   1.4462
B(  9-S , 10-C ) :   1.0962 B( 10-C , 11-C ) :   1.1705 B( 10-C , 36-C ) :   1.4492
B( 11-C , 12-S ) :   1.0943 B( 11-C , 13-C ) :   0.1283 B( 11-C , 34-C ) :   1.4521
B( 12-S , 13-C ) :   1.0986 B( 13-C , 14-C ) :   1.1593 B( 13-C , 32-C ) :   1.4582
B( 14-C , 15-S ) :   1.1066 B( 14-C , 16-C ) :   0.1343 B( 14-C , 30-C ) :   1.4642
B( 15-S , 16-C ) :   1.1004 B( 16-C , 17-C ) :   1.0245 B( 16-C , 28-C ) :   1.5122
B( 17-C , 18-S ) :   1.1916 B( 17-C , 19-C ) :   0.1235 B( 17-C , 27-C ) :   1.4263
B( 18-S , 19-C ) :   1.2204 B( 19-C , 20-C ) :   1.4114 B( 19-C , 46-H ) :   0.9697
B( 20-C , 21-C ) :   1.1759 B( 20-C , 27-C ) :   1.1927 B( 21-C , 22-C ) :   1.5530
B( 21-C , 47-H ) :   0.9998 B( 22-C , 23-C ) :   1.1861 B( 22-C , 48-H ) :   0.9858
B( 23-C , 24-C ) :   1.5701 B( 23-C , 49-H ) :   0.9924 B( 24-C , 25-C ) :   1.0927
B( 24-C , 27-C ) :   1.1999 B( 25-C , 26-N ) :   3.0272 B( 28-C , 29-F ) :   1.1684
B( 28-C , 30-C ) :   1.2079 B( 30-C , 31-F ) :   1.1525 B( 32-C , 33-F ) :   1.1496
B( 32-C , 34-C ) :   1.2263 B( 34-C , 35-F ) :   1.1465 B( 36-C , 37-F ) :   1.1582
B( 36-C , 38-C ) :   1.2289 B( 38-C , 39-F ) :   1.1367 B( 40-S , 41-C ) :   1.1909
B( 41-C , 42-C ) :   1.4494 B( 41-C , 50-H ) :   0.9485

-----------------------------------------------------------------------------
         ABSORPTION SPECTRUM VIA TRANSITION ELECTRIC DIPOLE MOMENTS
-----------------------------------------------------------------------------
State   Energy  Wavelength   fosc         T2         TX        TY        TZ
        (cm-1)    (nm)                  (au**2)     (au)      (au)      (au)
-----------------------------------------------------------------------------
   0   20907.3    478.3   1.698641481  26.74721   3.60187  -2.57755  -2.67020
   1   24901.5    401.6   0.095864424   1.26738  -0.97235   0.55464   0.11952
   2   28069.8    356.3   0.165722574   1.94365  -0.95153   0.52305   0.87445
   3   28549.7    350.3   0.034365852   0.39628   0.58433  -0.21834  -0.08466
   4   31766.6    314.8   0.057376529   0.59462  -0.47934   0.57903   0.17200
   5   33583.3    297.8   0.011039587   0.10822   0.01376   0.31654  -0.08849
   6   35186.9    284.2   0.069053222   0.64607   0.65772  -0.41084  -0.21140
   7   36297.1    275.5   0.036491710   0.33098   0.34430   0.16073  -0.43197
   8   37642.3    265.7   0.054533127   0.47694   0.20303  -0.18823  -0.63268
   9   38085.7    262.6   0.027553417   0.23817  -0.27568   0.23219  -0.32903
  10   39045.1    256.1   0.046835734   0.39490   0.29260  -0.10077   0.54693
  11   39248.2    254.8   0.153777735   1.28988   0.49467   0.27639   0.98427
  12   40102.9    249.4   0.017593075   0.14442   0.16670   0.09037   0.32935

FINAL SINGLE POINT ENERGY     -3844.622557439288

DIPOLE MOMENT
-------------
                                X             Y             Z
Electronic contribution:    -12.40734      -3.22484      -7.32903
Nuclear contribution   :     15.02480       1.00047       6.90119
                        -----------------------------------------
Total Dipole Moment    :      2.61746      -2.22436      -0.42783
                        -----------------------------------------
Magnitude (a.u.)       :      3.46149
Magnitude (Debye)      :      8.79841

Rotational constants in cm-1:     0.007814     0.000643     0.000611
Rotational constants in MHz :   234.260787    19.269461    18.309410

                             ****ORCA TERMINATED NORMALLY****
TOTAL RUN TIME: 0 days 0 hours 3 minutes 16 seconds 81 msec
