                         Program Version 4.2.0 -  RELEASE  -
|  1> # ORCA input file
|  2> # SCF done       -197.967818582222          0.000968228626
|  3> ! CAM-B3LYP def2-SVP def2/J RIJCOSX Grid4 TightSCF
|  4> %maxcore 5000
|  5> %tddft
|  6>     Mode sTDDFT
|  7>     Ethresh 5.0
|  8>     maxcore 5000
|  9> end
| 10>
| 11> %pal
| 12>   nprocs 6
| 13>   end
| 14> * xyz 0 1
| 15>    C        2.54258         1.90964        -3.44762
| 16>    N        3.66322         1.56655        -2.61659
| 17>    C        4.73454         2.39645        -2.41262
| 18>    O        4.84570         3.47901        -2.94779
| 19>    C        5.69560         1.66243        -1.51955
| 20>    C        6.90253         2.15335        -1.10513
| 21>    C        8.02866         1.30855        -0.57723
| 22>    O        8.11958         0.10241        -0.49312
| 23>    N        9.05170         2.16108        -0.25230
| 24>    C       10.32052         1.71906         0.25621
| 25>    C        8.69833         3.46977        -0.50024
| 26>    C        9.42986         4.60425        -0.23549
| 27>    C        8.86771         5.84630        -0.54887
| 28>    C        9.60567         7.07118        -0.24600
| 29>    C       10.36014         7.19272         0.90140
| 30>    C       11.07284         8.35535         1.22416
| 31>    C       11.07566         9.44784         0.39382
| 32>    C       11.81496        10.68705         0.63392
| 33>    C       12.76511        11.12485        -0.29638
| 34>    C       13.21240        10.31180        -1.44148
| 35>    O       12.96251         9.17638        -1.70196
| 36>    S       14.31915        11.31333        -2.45426
| 37>    C       14.34510        12.65530        -1.26951
| 38>    O       15.08175        13.59205        -1.37686
| 39>    C       13.35893        12.38179        -0.20813
| 40>    C       13.04375        13.28217         0.81910
| 41>    C       13.44958        14.68387         0.76803
| 42>    C       13.07419        15.49751        -0.27462
| 43>    C       12.45257        15.01680        -1.50402
| 44>    C       11.23242        14.31948        -1.50108
| 45>    C       10.32824        14.21749        -0.34508
| 46>    O       10.45214        14.69414         0.74636
| 47>    S        8.90196        13.22208        -0.79620
| 48>    C        9.47071        12.97614        -2.46842
| 49>    O        8.87112        12.33057        -3.28438
| 50>    C       10.74792        13.67944        -2.64693
| 51>    C       11.44605        13.70460        -3.84318
| 52>    C       12.62837        14.42909        -3.86526
| 53>    C       13.48921        14.50714        -5.06748
| 54>    O       13.26874        14.03348        -6.14010
| 55>    S       14.95827        15.43457        -4.65393
| 56>    C       14.42428        15.75789        -2.96461
| 57>    O       15.06010        16.43365        -2.21870
| 58>    C       13.12030        15.08937        -2.73867
| 59>    S       13.47738        17.16063        -0.01230
| 60>    C       14.24638        16.77144         1.49031
| 61>    C       14.88908        17.65730         2.34724
| 62>    C       15.47487        17.16106         3.48834
| 63>    C       15.42872        15.78402         3.77147
| 64>    C       16.05012        15.29475         4.94460
| 65>    N       16.55698        14.89756         5.89265
| 66>    C       14.78519        14.89835         2.92252
| 67>    C       14.16670        15.39495         1.77717
| 68>    C       12.15450        12.81252         1.79953
| 69>    C       11.65516        13.63518         2.92926
| 70>    O       12.00721        14.71637         3.28291
| 71>    S       10.36702        12.72200         3.78388
| 72>    C       10.50433        11.29729         2.71355
| 73>    O        9.81898        10.32657         2.83124
| 74>    C       11.54968        11.55928         1.69697
| 75>    C       10.32829         9.37325        -0.80653
| 76>    N       10.23751        10.35210        -1.70464
| 77>   Se        9.23747         9.80394        -3.03170
| 78>    N        8.94954         8.25474        -2.29203
| 79>    C        9.58109         8.18657        -1.12739
| 80>    C        7.59132         5.89939        -1.11563
| 81>    C        6.85656         4.75555        -1.36717
| 82>    C        7.40134         3.51140        -1.06722
| 83>    C        5.06383         0.38582        -1.25592
| 84>    C        5.38427        -0.69927        -0.44792
| 85>    C        4.49109        -1.75399        -0.34906
| 86>    C        3.28544        -1.74675        -1.03565
| 87>    C        2.92852        -0.66758        -1.83186
| 88>    C        3.81723         0.38412        -1.92505
| 89>    H        2.74541         2.88812        -3.88201
| 90>    H        1.62507         1.95709        -2.85679
| 91>    H        2.42003         1.17547        -4.24610
| 92>    H       10.29478         0.63054         0.29626
| 93>    H       10.49303         2.11571         1.25891
| 94>    H       11.12956         2.03912        -0.40299
| 95>    H       10.42318         4.54081         0.17980
| 96>    H       10.38909         6.37035         1.59970
| 97>    H       11.64580         8.38008         2.13848
| 98>    H       11.08881        13.18602        -4.71929
| 99>    H       14.93125        18.70881         2.11194
|100>    H       15.98326        17.82134         4.17446
|101>    H       14.76010        13.84258         3.14875
|102>    H        7.16593         6.86136        -1.34945
|103>    H        5.87922         4.83529        -1.80971
|104>    H        6.32012        -0.73710         0.08061
|105>    H        4.74247        -2.59960         0.27237
|106>    H        2.61159        -2.58557        -0.94638
|107>    H        1.98464        -0.65020        -2.35370
|108> *
|109>
|110>                          ****END OF INPUT****

CARTESIAN COORDINATES (ANGSTROEM)
---------------------------------
  C      2.542580    1.909640   -3.447620
  N      3.663220    1.566550   -2.616590
  C      4.734540    2.396450   -2.412620
  O      4.845700    3.479010   -2.947790
  C      5.695600    1.662430   -1.519550
  C      6.902530    2.153350   -1.105130
  C      8.028660    1.308550   -0.577230
  O      8.119580    0.102410   -0.493120
  N      9.051700    2.161080   -0.252300
  C     10.320520    1.719060    0.256210
  C      8.698330    3.469770   -0.500240
  C      9.429860    4.604250   -0.235490
  C      8.867710    5.846300   -0.548870
  C      9.605670    7.071180   -0.246000
  C     10.360140    7.192720    0.901400
  C     11.072840    8.355350    1.224160
  C     11.075660    9.447840    0.393820
  C     11.814960   10.687050    0.633920
  C     12.765110   11.124850   -0.296380
  C     13.212400   10.311800   -1.441480
  O     12.962510    9.176380   -1.701960
  S     14.319150   11.313330   -2.454260
  C     14.345100   12.655300   -1.269510
  O     15.081750   13.592050   -1.376860
  C     13.358930   12.381790   -0.208130
  C     13.043750   13.282170    0.819100
  C     13.449580   14.683870    0.768030
  C     13.074190   15.497510   -0.274620
  C     12.452570   15.016800   -1.504020
  C     11.232420   14.319480   -1.501080
  C     10.328240   14.217490   -0.345080
  O     10.452140   14.694140    0.746360
  S      8.901960   13.222080   -0.796200
  C      9.470710   12.976140   -2.468420
  O      8.871120   12.330570   -3.284380
  C     10.747920   13.679440   -2.646930
  C     11.446050   13.704600   -3.843180
  C     12.628370   14.429090   -3.865260
  C     13.489210   14.507140   -5.067480
  O     13.268740   14.033480   -6.140100
  S     14.958270   15.434570   -4.653930
  C     14.424280   15.757890   -2.964610
  O     15.060100   16.433650   -2.218700
  C     13.120300   15.089370   -2.738670
  S     13.477380   17.160630   -0.012300
  C     14.246380   16.771440    1.490310
  C     14.889080   17.657300    2.347240
  C     15.474870   17.161060    3.488340
  C     15.428720   15.784020    3.771470
  C     16.050120   15.294750    4.944600
  N     16.556980   14.897560    5.892650
  C     14.785190   14.898350    2.922520
  C     14.166700   15.394950    1.777170
  C     12.154500   12.812520    1.799530
  C     11.655160   13.635180    2.929260
  O     12.007210   14.716370    3.282910
  S     10.367020   12.722000    3.783880
  C     10.504330   11.297290    2.713550
  O      9.818980   10.326570    2.831240
  C     11.549680   11.559280    1.696970
  C     10.328290    9.373250   -0.806530
  N     10.237510   10.352100   -1.704640
  Se     9.237470    9.803940   -3.031700
  N      8.949540    8.254740   -2.292030
  C      9.581090    8.186570   -1.127390
  C      7.591320    5.899390   -1.115630
  C      6.856560    4.755550   -1.367170
  C      7.401340    3.511400   -1.067220
  C      5.063830    0.385820   -1.255920
  C      5.384270   -0.699270   -0.447920
  C      4.491090   -1.753990   -0.349060
  C      3.285440   -1.746750   -1.035650
  C      2.928520   -0.667580   -1.831860
  C      3.817230    0.384120   -1.925050
  H      2.745410    2.888120   -3.882010
  H      1.625070    1.957090   -2.856790
  H      2.420030    1.175470   -4.246100
  H     10.294780    0.630540    0.296260
  H     10.493030    2.115710    1.258910
  H     11.129560    2.039120   -0.402990
  H     10.423180    4.540810    0.179800
  H     10.389090    6.370350    1.599700
  H     11.645800    8.380080    2.138480
  H     11.088810   13.186020   -4.719290
  H     14.931250   18.708810    2.111940
  H     15.983260   17.821340    4.174460
  H     14.760100   13.842580    3.148750
  H      7.165930    6.861360   -1.349450
  H      5.879220    4.835290   -1.809710
  H      6.320120   -0.737100    0.080610
  H      4.742470   -2.599600    0.272370
  H      2.611590   -2.585570   -0.946380
  H      1.984640   -0.650200   -2.353700

 Total Charge           Charge          ....    0
 Multiplicity           Mult            ....    1
 Number of Electrons    NEL             ....  566
 Basis Dimension        Dim             .... 1169

ORBITAL ENERGIES
----------------

  NO   OCC          E(Eh)            E(eV)
   0   2.0000    -453.976637    -12353.3323
   1   2.0000     -88.974735     -2421.1256
   2   2.0000     -88.972777     -2421.0723
   3   2.0000     -88.966795     -2420.9096
   4   2.0000     -88.962938     -2420.8046
   5   2.0000     -88.957032     -2420.6439
   6   2.0000     -58.189946     -1583.4289
   7   2.0000     -52.260632     -1422.0841
   8   2.0000     -52.258271     -1422.0199
   9   2.0000     -52.257811     -1422.0073
  10   2.0000     -19.267543      -524.2965
  11   2.0000     -19.265588      -524.2433
  12   2.0000     -19.258584      -524.0527
  13   2.0000     -19.255980      -523.9818
  14   2.0000     -19.255667      -523.9733
  15   2.0000     -19.253600      -523.9171
  16   2.0000     -19.248510      -523.7786
  17   2.0000     -19.248224      -523.7708
  18   2.0000     -19.192812      -522.2630
  19   2.0000     -19.192699      -522.2599
  20   2.0000     -14.447510      -393.1367
  21   2.0000     -14.446358      -393.1054
  22   2.0000     -14.435049      -392.7977
  23   2.0000     -14.431372      -392.6976
  24   2.0000     -14.400022      -391.8445
  25   2.0000     -10.429997      -283.8146
  26   2.0000     -10.428558      -283.7755
  27   2.0000     -10.422163      -283.6015
  28   2.0000     -10.418623      -283.5052
  29   2.0000     -10.418480      -283.5012
  30   2.0000     -10.417312      -283.4695
  31   2.0000     -10.412598      -283.3412
  32   2.0000     -10.412447      -283.3371
  33   2.0000     -10.375878      -282.3420
  34   2.0000     -10.375369      -282.3282
  35   2.0000     -10.362255      -281.9713
  36   2.0000     -10.350618      -281.6546
  37   2.0000     -10.349540      -281.6253
  38   2.0000     -10.349524      -281.6249
  39   2.0000     -10.347172      -281.5609
  40   2.0000     -10.345414      -281.5130
  41   2.0000     -10.344900      -281.4991
  42   2.0000     -10.342432      -281.4319
  43   2.0000     -10.342070      -281.4220
  44   2.0000     -10.342018      -281.4206
  45   2.0000     -10.339172      -281.3432
  46   2.0000     -10.339033      -281.3394
  47   2.0000     -10.336344      -281.2662
  48   2.0000     -10.324553      -280.9454
  49   2.0000     -10.320124      -280.8248
  50   2.0000     -10.319983      -280.8210
  51   2.0000     -10.314390      -280.6688
  52   2.0000     -10.313957      -280.6570
  53   2.0000     -10.311759      -280.5972
  54   2.0000     -10.310004      -280.5495
  55   2.0000     -10.304639      -280.4035
  56   2.0000     -10.303464      -280.3715
  57   2.0000     -10.301961      -280.3306
  58   2.0000     -10.300868      -280.3009
  59   2.0000     -10.300150      -280.2813
  60   2.0000     -10.300124      -280.2806
  61   2.0000     -10.299751      -280.2705
  62   2.0000     -10.299575      -280.2657
  63   2.0000     -10.296747      -280.1887
  64   2.0000     -10.296507      -280.1822
  65   2.0000     -10.296244      -280.1750
  66   2.0000     -10.295544      -280.1560
  67   2.0000     -10.285203      -279.8746
  68   2.0000     -10.283967      -279.8410
  69   2.0000     -10.273896      -279.5669
  70   2.0000     -10.271450      -279.5004
  71   2.0000     -10.271396      -279.4989
  72   2.0000     -10.271148      -279.4921
  73   2.0000     -10.267709      -279.3986
  74   2.0000     -10.263017      -279.2709
  75   2.0000     -10.262915      -279.2681
  76   2.0000     -10.257182      -279.1121
  77   2.0000     -10.256266      -279.0872
  78   2.0000      -8.073556      -219.6926
  79   2.0000      -8.068345      -219.5508
  80   2.0000      -8.065642      -219.4773
  81   2.0000      -8.062114      -219.3813
  82   2.0000      -8.056357      -219.2246
  83   2.0000      -7.965879      -216.7626
  84   2.0000      -6.042463      -164.4238
  85   2.0000      -6.039094      -164.3321
  86   2.0000      -6.037918      -164.3001
  87   2.0000      -6.034638      -164.2108
  88   2.0000      -6.034443      -164.2055
  89   2.0000      -6.033721      -164.1859
  90   2.0000      -6.031244      -164.1185
  91   2.0000      -6.030965      -164.1109
  92   2.0000      -6.029780      -164.0787
  93   2.0000      -6.027665      -164.0211
  94   2.0000      -6.026819      -163.9981
  95   2.0000      -6.025209      -163.9543
  96   2.0000      -6.023207      -163.8998
  97   2.0000      -6.021894      -163.8641
  98   2.0000      -6.017434      -163.7427
  99   2.0000      -5.916003      -160.9826
 100   2.0000      -5.909173      -160.7968
 101   2.0000      -5.905826      -160.7057
 102   2.0000      -2.270015       -61.7702
 103   2.0000      -2.269453       -61.7550
 104   2.0000      -2.265191       -61.6390
 105   2.0000      -2.259994       -61.4976
 106   2.0000      -2.259727       -61.4903
 107   2.0000      -1.192075       -32.4380
 108   2.0000      -1.187997       -32.3270
 109   2.0000      -1.185270       -32.2528
 110   2.0000      -1.180462       -32.1220
 111   2.0000      -1.178851       -32.0782
 112   2.0000      -1.176231       -32.0069
 113   2.0000      -1.175153       -31.9775
 114   2.0000      -1.171148       -31.8686
 115   2.0000      -1.136060       -30.9138
 116   2.0000      -1.134017       -30.8582
 117   2.0000      -1.089468       -29.6459
 118   2.0000      -1.057726       -28.7822
 119   2.0000      -1.056365       -28.7451
 120   2.0000      -1.044146       -28.4127
 121   2.0000      -1.034073       -28.1385
 122   2.0000      -1.015571       -27.6351
 123   2.0000      -0.988253       -26.8917
 124   2.0000      -0.985720       -26.8228
 125   2.0000      -0.978171       -26.6174
 126   2.0000      -0.972508       -26.4633
 127   2.0000      -0.967747       -26.3337
 128   2.0000      -0.958512       -26.0824
 129   2.0000      -0.945193       -25.7200
 130   2.0000      -0.937930       -25.5224
 131   2.0000      -0.931086       -25.3361
 132   2.0000      -0.928915       -25.2771
 133   2.0000      -0.921852       -25.0849
 134   2.0000      -0.920151       -25.0386
 135   2.0000      -0.911529       -24.8040
 136   2.0000      -0.883496       -24.0412
 137   2.0000      -0.877766       -23.8852
 138   2.0000      -0.870246       -23.6806
 139   2.0000      -0.863740       -23.5035
 140   2.0000      -0.852462       -23.1967
 141   2.0000      -0.850282       -23.1373
 142   2.0000      -0.848916       -23.1002
 143   2.0000      -0.834085       -22.6966
 144   2.0000      -0.832309       -22.6483
 145   2.0000      -0.828503       -22.5447
 146   2.0000      -0.815674       -22.1956
 147   2.0000      -0.808724       -22.0065
 148   2.0000      -0.807258       -21.9666
 149   2.0000      -0.797401       -21.6984
 150   2.0000      -0.795284       -21.6408
 151   2.0000      -0.781689       -21.2708
 152   2.0000      -0.765821       -20.8391
 153   2.0000      -0.750071       -20.4105
 154   2.0000      -0.749598       -20.3976
 155   2.0000      -0.738276       -20.0895
 156   2.0000      -0.735323       -20.0091
 157   2.0000      -0.730285       -19.8721
 158   2.0000      -0.720600       -19.6085
 159   2.0000      -0.716205       -19.4889
 160   2.0000      -0.707190       -19.2436
 161   2.0000      -0.701384       -19.0856
 162   2.0000      -0.694971       -18.9111
 163   2.0000      -0.690131       -18.7794
 164   2.0000      -0.680446       -18.5159
 165   2.0000      -0.675833       -18.3903
 166   2.0000      -0.674975       -18.3670
 167   2.0000      -0.669520       -18.2186
 168   2.0000      -0.661332       -17.9957
 169   2.0000      -0.655294       -17.8315
 170   2.0000      -0.649918       -17.6852
 171   2.0000      -0.642086       -17.4721
 172   2.0000      -0.636723       -17.3261
 173   2.0000      -0.634444       -17.2641
 174   2.0000      -0.632135       -17.2013
 175   2.0000      -0.628138       -17.0925
 176   2.0000      -0.625173       -17.0118
 177   2.0000      -0.618556       -16.8318
 178   2.0000      -0.615617       -16.7518
 179   2.0000      -0.612623       -16.6703
 180   2.0000      -0.604576       -16.4514
 181   2.0000      -0.602135       -16.3849
 182   2.0000      -0.595592       -16.2069
 183   2.0000      -0.590972       -16.0812
 184   2.0000      -0.587043       -15.9743
 185   2.0000      -0.582347       -15.8465
 186   2.0000      -0.580194       -15.7879
 187   2.0000      -0.576314       -15.6823
 188   2.0000      -0.574947       -15.6451
 189   2.0000      -0.571845       -15.5607
 190   2.0000      -0.567360       -15.4387
 191   2.0000      -0.566465       -15.4143
 192   2.0000      -0.565092       -15.3769
 193   2.0000      -0.563090       -15.3224
 194   2.0000      -0.561673       -15.2839
 195   2.0000      -0.559723       -15.2308
 196   2.0000      -0.558979       -15.2106
 197   2.0000      -0.555934       -15.1277
 198   2.0000      -0.555049       -15.1037
 199   2.0000      -0.552022       -15.0213
 200   2.0000      -0.549128       -14.9425
 201   2.0000      -0.546950       -14.8833
 202   2.0000      -0.543999       -14.8030
 203   2.0000      -0.543223       -14.7819
 204   2.0000      -0.540203       -14.6997
 205   2.0000      -0.539693       -14.6858
 206   2.0000      -0.538252       -14.6466
 207   2.0000      -0.534511       -14.5448
 208   2.0000      -0.532780       -14.4977
 209   2.0000      -0.530796       -14.4437
 210   2.0000      -0.528579       -14.3834
 211   2.0000      -0.524788       -14.2802
 212   2.0000      -0.521725       -14.1969
 213   2.0000      -0.517275       -14.0758
 214   2.0000      -0.515896       -14.0382
 215   2.0000      -0.515488       -14.0271
 216   2.0000      -0.513501       -13.9731
 217   2.0000      -0.511127       -13.9085
 218   2.0000      -0.510272       -13.8852
 219   2.0000      -0.508840       -13.8463
 220   2.0000      -0.507604       -13.8126
 221   2.0000      -0.499636       -13.5958
 222   2.0000      -0.497027       -13.5248
 223   2.0000      -0.495685       -13.4883
 224   2.0000      -0.492691       -13.4068
 225   2.0000      -0.490101       -13.3363
 226   2.0000      -0.484572       -13.1859
 227   2.0000      -0.483299       -13.1512
 228   2.0000      -0.480164       -13.0659
 229   2.0000      -0.479756       -13.0548
 230   2.0000      -0.476876       -12.9764
 231   2.0000      -0.472888       -12.8679
 232   2.0000      -0.471452       -12.8288
 233   2.0000      -0.467951       -12.7336
 234   2.0000      -0.465372       -12.6634
 235   2.0000      -0.464223       -12.6322
 236   2.0000      -0.460485       -12.5304
 237   2.0000      -0.459260       -12.4971
 238   2.0000      -0.457019       -12.4361
 239   2.0000      -0.454586       -12.3699
 240   2.0000      -0.450742       -12.2653
 241   2.0000      -0.448409       -12.2018
 242   2.0000      -0.437491       -11.9047
 243   2.0000      -0.436740       -11.8843
 244   2.0000      -0.434007       -11.8099
 245   2.0000      -0.428168       -11.6510
 246   2.0000      -0.418960       -11.4005
 247   2.0000      -0.417355       -11.3568
 248   2.0000      -0.412969       -11.2375
 249   2.0000      -0.408649       -11.1199
 250   2.0000      -0.405964       -11.0468
 251   2.0000      -0.401970       -10.9382
 252   2.0000      -0.398134       -10.8338
 253   2.0000      -0.392682       -10.6854
 254   2.0000      -0.391498       -10.6532
 255   2.0000      -0.385780       -10.4976
 256   2.0000      -0.384208       -10.4548
 257   2.0000      -0.383801       -10.4438
 258   2.0000      -0.382523       -10.4090
 259   2.0000      -0.378748       -10.3063
 260   2.0000      -0.376352       -10.2411
 261   2.0000      -0.375044       -10.2055
 262   2.0000      -0.373318       -10.1585
 263   2.0000      -0.372920       -10.1477
 264   2.0000      -0.366839        -9.9822
 265   2.0000      -0.365747        -9.9525
 266   2.0000      -0.361275        -9.8308
 267   2.0000      -0.359971        -9.7953
 268   2.0000      -0.356310        -9.6957
 269   2.0000      -0.355778        -9.6812
 270   2.0000      -0.354251        -9.6397
 271   2.0000      -0.349773        -9.5178
 272   2.0000      -0.346092        -9.4176
 273   2.0000      -0.343263        -9.3407
 274   2.0000      -0.334782        -9.1099
 275   2.0000      -0.331678        -9.0254
 276   2.0000      -0.318628        -8.6703
 277   2.0000      -0.309358        -8.4181
 278   2.0000      -0.301024        -8.1913
 279   2.0000      -0.293962        -7.9991
 280   2.0000      -0.287815        -7.8318
 281   2.0000      -0.276479        -7.5234
 282   2.0000      -0.254541        -6.9264
 283   0.0000      -0.122268        -3.3271
 284   0.0000      -0.103426        -2.8144
 285   0.0000      -0.083802        -2.2804
 286   0.0000      -0.079016        -2.1501
 287   0.0000      -0.069088        -1.8800

MULLIKEN ATOMIC CHARGES
-----------------------
   0 C :    0.123421
   1 N :   -0.235725
   2 C :    0.164451
   3 O :   -0.196698
   4 C :   -0.049170
   5 C :   -0.042427
   6 C :    0.162888
   7 O :   -0.198407
   8 N :   -0.234821
   9 C :    0.123783
  10 C :    0.172411
  11 C :   -0.143179
  12 C :    0.064906
  13 C :    0.086966
  14 C :   -0.055323
  15 C :    0.039307
  16 C :   -0.014689
  17 C :    0.025596
  18 C :    0.033004
  19 C :    0.036717
  20 O :   -0.103381
  21 S :    0.020672
  22 C :    0.032169
  23 O :   -0.128369
  24 C :    0.069076
  25 C :   -0.085978
  26 C :    0.146825
  27 C :   -0.199106
  28 C :   -0.048517
  29 C :    0.088399
  30 C :    0.047226
  31 O :   -0.124717
  32 S :    0.052379
  33 C :    0.090952
  34 O :   -0.174981
  35 C :    0.067481
  36 C :   -0.058600
  37 C :    0.033134
  38 C :    0.051817
  39 O :   -0.113096
  40 S :    0.026753
  41 C :    0.063774
  42 O :   -0.099754
  43 C :    0.074754
  44 S :    0.207652
  45 C :   -0.049154
  46 C :    0.000972
  47 C :    0.047038
  48 C :   -0.101695
  49 C :   -0.148789
  50 N :    0.104581
  51 C :   -0.028824
  52 C :    0.117630
  53 C :    0.061229
  54 C :    0.059468
  55 O :   -0.104355
  56 S :    0.032587
  57 C :    0.033082
  58 O :   -0.110936
  59 C :    0.013268
  60 C :    0.044612
  61 N :   -0.339250
  62 Se:    0.566132
  63 N :   -0.259242
  64 C :    0.011049
  65 C :    0.019464
  66 C :   -0.045402
  67 C :    0.067499
  68 C :    0.062389
  69 C :   -0.034891
  70 C :    0.020510
  71 C :    0.039109
  72 C :   -0.087062
  73 C :    0.153874
  74 H :    0.055401
  75 H :    0.032080
  76 H :    0.033527
  77 H :    0.057602
  78 H :    0.029221
  79 H :    0.034661
  80 H :   -0.044190
  81 H :   -0.014796
  82 H :   -0.024254
  83 H :    0.020808
  84 H :   -0.011586
  85 H :    0.000711
  86 H :   -0.015590
  87 H :   -0.022440
  88 H :   -0.002086
  89 H :   -0.003044
  90 H :   -0.019690
  91 H :   -0.011750
  92 H :   -0.039049
Sum of atomic charges:   -0.0000000

LOEWDIN ATOMIC CHARGES
----------------------
   0 C :    0.034097
   1 N :   -0.013878
   2 C :    0.086259
   3 O :   -0.180457
   4 C :   -0.014471
   5 C :   -0.018389
   6 C :    0.086504
   7 O :   -0.180810
   8 N :   -0.013913
   9 C :    0.033506
  10 C :    0.043299
  11 C :   -0.060564
  12 C :    0.001799
  13 C :    0.000638
  14 C :   -0.017214
  15 C :    0.022237
  16 C :   -0.050393
  17 C :    0.048349
  18 C :   -0.045867
  19 C :   -0.037727
  20 O :   -0.092260
  21 S :    0.306132
  22 C :   -0.048181
  23 O :   -0.110775
  24 C :   -0.057846
  25 C :    0.022279
  26 C :   -0.036874
  27 C :   -0.153487
  28 C :    0.011674
  29 C :   -0.053396
  30 C :   -0.039885
  31 O :   -0.103296
  32 S :    0.337043
  33 C :   -0.031747
  34 O :   -0.138089
  35 C :   -0.051056
  36 C :    0.051502
  37 C :   -0.050442
  38 C :   -0.052063
  39 O :   -0.106998
  40 S :    0.318715
  41 C :   -0.047873
  42 O :   -0.095695
  43 C :   -0.046364
  44 S :    0.475917
  45 C :   -0.135219
  46 C :   -0.027230
  47 C :    0.009318
  48 C :   -0.069723
  49 C :   -0.029446
  50 N :   -0.059942
  51 C :    0.024165
  52 C :   -0.031072
  53 C :   -0.047360
  54 C :   -0.046704
  55 O :   -0.087289
  56 S :    0.320183
  57 C :   -0.050364
  58 O :   -0.103136
  59 C :   -0.051789
  60 C :   -0.027526
  61 N :   -0.294676
  62 Se:    0.601909
  63 N :   -0.235781
  64 C :   -0.037100
  65 C :   -0.024400
  66 C :    0.015252
  67 C :   -0.047988
  68 C :   -0.053648
  69 C :    0.016760
  70 C :   -0.049086
  71 C :    0.000617
  72 C :   -0.069311
  73 C :    0.044308
  74 H :    0.039934
  75 H :    0.026268
  76 H :    0.027343
  77 H :    0.040640
  78 H :    0.025355
  79 H :    0.027821
  80 H :    0.025659
  81 H :    0.032990
  82 H :    0.032537
  83 H :    0.052728
  84 H :    0.036318
  85 H :    0.041192
  86 H :    0.035009
  87 H :    0.027109
  88 H :    0.031917
  89 H :    0.030544
  90 H :    0.026912
  91 H :    0.029231
  92 H :    0.026833

  Mayer bond orders larger than 0.100000
B(  0-C ,  1-N ) :   0.9683 B(  0-C , 74-H ) :   0.9577 B(  0-C , 75-H ) :   0.9728
B(  0-C , 76-H ) :   0.9726 B(  1-N ,  2-C ) :   1.1378 B(  1-N , 73-C ) :   1.0614
B(  2-C ,  3-O ) :   2.0763 B(  2-C ,  4-C ) :   0.9047 B(  4-C ,  5-C ) :   1.6498
B(  4-C , 68-C ) :   1.0863 B(  5-C ,  6-C ) :   0.9036 B(  5-C , 67-C ) :   1.0881
B(  6-C ,  7-O ) :   2.0837 B(  6-C ,  8-N ) :   1.1288 B(  8-N ,  9-C ) :   0.9705
B(  8-N , 10-C ) :   1.0638 B(  9-C , 77-H ) :   0.9564 B(  9-C , 78-H ) :   0.9718
B(  9-C , 79-H ) :   0.9727 B( 10-C , 11-C ) :   1.3648 B( 10-C , 67-C ) :   1.2735
B( 11-C , 12-C ) :   1.2954 B( 11-C , 80-H ) :   1.0019 B( 12-C , 13-C ) :   0.9758
B( 12-C , 65-C ) :   1.3885 B( 13-C , 14-C ) :   1.5163 B( 13-C , 16-C ) :   0.1149
B( 13-C , 64-C ) :   1.1787 B( 14-C , 15-C ) :   1.1718 B( 14-C , 81-H ) :   0.9950
B( 15-C , 16-C ) :   1.5151 B( 15-C , 82-H ) :   0.9983 B( 16-C , 17-C ) :   0.9535
B( 16-C , 60-C ) :   1.2180 B( 17-C , 18-C ) :   1.4071 B( 17-C , 59-C ) :   1.4200
B( 18-C , 19-C ) :   0.8294 B( 18-C , 24-C ) :   1.3075 B( 19-C , 20-O ) :   2.2094
B( 19-C , 21-S ) :   1.0056 B( 20-O , 21-S ) :   0.1042 B( 21-S , 22-C ) :   1.0516
B( 21-S , 23-O ) :   0.1108 B( 22-C , 23-O ) :   2.1495 B( 22-C , 24-C ) :   0.8305
B( 24-C , 25-C ) :   1.3816 B( 25-C , 26-C ) :   0.9680 B( 25-C , 53-C ) :   1.4165
B( 26-C , 27-C ) :   1.6271 B( 26-C , 52-C ) :   1.1707 B( 27-C , 28-C ) :   0.9960
B( 27-C , 44-S ) :   1.1244 B( 28-C , 29-C ) :   1.4095 B( 28-C , 43-C ) :   1.4044
B( 29-C , 30-C ) :   0.8545 B( 29-C , 35-C ) :   1.3229 B( 30-C , 31-O ) :   2.1416
B( 30-C , 32-S ) :   1.0412 B( 31-O , 32-S ) :   0.1068 B( 32-S , 33-C ) :   1.0440
B( 33-C , 34-O ) :   2.0993 B( 33-C , 35-C ) :   0.8524 B( 35-C , 36-C ) :   1.3294
B( 36-C , 37-C ) :   1.3233 B( 36-C , 83-H ) :   1.0268 B( 37-C , 38-C ) :   0.8341
B( 37-C , 43-C ) :   1.3498 B( 38-C , 39-O ) :   2.2252 B( 38-C , 40-S ) :   1.0409
B( 39-O , 40-S ) :   0.1123 B( 40-S , 41-C ) :   1.0191 B( 40-S , 42-O ) :   0.1075
B( 41-C , 42-O ) :   2.2030 B( 41-C , 43-C ) :   0.8355 B( 44-S , 45-C ) :   1.0866
B( 45-C , 46-C ) :   1.3153 B( 45-C , 52-C ) :   1.3229 B( 46-C , 47-C ) :   1.4443
B( 46-C , 84-H ) :   0.9942 B( 47-C , 48-C ) :   1.3158 B( 47-C , 85-H ) :   0.9909
B( 48-C , 49-C ) :   1.0549 B( 48-C , 51-C ) :   1.4411 B( 49-C , 50-N ) :   3.0561
B( 51-C , 52-C ) :   1.2875 B( 51-C , 86-H ) :   0.9870 B( 53-C , 54-C ) :   0.8253
B( 53-C , 59-C ) :   1.3066 B( 54-C , 55-O ) :   2.1865 B( 54-C , 56-S ) :   1.0223
B( 55-O , 56-S ) :   0.1070 B( 56-S , 57-C ) :   1.0396 B( 56-S , 58-O ) :   0.1110
B( 57-C , 58-O ) :   2.1939 B( 57-C , 59-C ) :   0.8292 B( 60-C , 61-N ) :   1.5538
B( 60-C , 64-C ) :   1.1425 B( 61-N , 62-Se) :   1.2013 B( 61-N , 63-N ) :   0.1210
B( 62-Se, 63-N ) :   1.2670 B( 63-N , 64-C ) :   1.5791 B( 65-C , 66-C ) :   1.3616
B( 65-C , 87-H ) :   0.9847 B( 66-C , 67-C ) :   1.3668 B( 66-C , 88-H ) :   0.9811
B( 68-C , 69-C ) :   1.3839 B( 68-C , 73-C ) :   1.2813 B( 69-C , 70-C ) :   1.3654
B( 69-C , 89-H ) :   0.9803 B( 70-C , 71-C ) :   1.3923 B( 70-C , 90-H ) :   0.9884
B( 71-C , 72-C ) :   1.3337 B( 71-C , 91-H ) :   0.9852 B( 72-C , 73-C ) :   1.3801
B( 72-C , 92-H ) :   1.0041

-----------------------------------------------------------------------------
         ABSORPTION SPECTRUM VIA TRANSITION ELECTRIC DIPOLE MOMENTS
-----------------------------------------------------------------------------
State   Energy  Wavelength   fosc         T2         TX        TY        TZ
        (cm-1)    (nm)                  (au**2)     (au)      (au)      (au)
-----------------------------------------------------------------------------
   0   16129.3    620.0   0.012922477   0.26376   0.40167   0.24352  -0.20766
   1   18634.9    536.6   0.006222834   0.10994  -0.29592  -0.09226   0.11770
   2   19608.2    510.0   0.133028667   2.23348   0.78734   1.18691   0.45259
   3   20763.2    481.6   0.427064234   6.77133  -1.96714  -1.64140  -0.45555
   4   21928.1    456.0   0.003521788   0.05287  -0.21101  -0.06385   0.06536
   5   22263.4    449.2   0.019136914   0.28298  -0.29471  -0.19679  -0.39673
   6   22737.6    439.8   0.001316745   0.01906   0.04484   0.13052  -0.00419
   7   23066.5    433.5   0.005883558   0.08397  -0.00491  -0.25857   0.13073
   8   24301.8    411.5   0.137862561   1.86760  -0.32930  -1.32437  -0.07206
   9   24694.3    405.0   0.098455203   1.31255   0.36664   1.08291  -0.07375
  10   24965.2    400.6   0.002456658   0.03240   0.07469   0.15651  -0.04817
  11   25503.6    392.1   0.017949590   0.23170   0.11798   0.39984  -0.24065
  12   26029.9    384.2   0.022222264   0.28105   0.18304   0.49258  -0.07009
  13   26260.6    380.8   0.092544527   1.16017  -0.65982  -0.56432  -0.63746
  14   26543.0    376.7   0.000163090   0.00202   0.02674   0.01090  -0.03448
  15   27298.0    366.3   0.178493560   2.15262  -0.59284  -1.34207  -0.00305
  16   27435.8    364.5   0.166348643   1.99608  -0.77893  -1.17868  -0.00727
  17   27787.7    359.9   0.012658973   0.14998   0.09261  -0.20050   0.31812
  18   27888.0    358.6   0.001600576   0.01889   0.05121   0.12124  -0.03967
  19   28250.0    354.0   0.033887043   0.39490  -0.07345   0.47577  -0.40392
  20   28534.5    350.5   0.053873136   0.62155  -0.37869  -0.63561  -0.27231
  21   28591.8    349.8   0.000542838   0.00625  -0.05052  -0.05457   0.02683
  22   28862.6    346.5   0.016338703   0.18636   0.25845   0.34521   0.01991
  23   29316.5    341.1   0.015048933   0.16899  -0.10693   0.11746   0.37916
  24   29501.3    339.0   0.002080210   0.02321  -0.01025   0.15095   0.01798
  25   29729.2    336.4   0.019407164   0.21491  -0.25576  -0.36781  -0.11919
  26   29962.8    333.7   0.031709543   0.34840   0.36416   0.43575   0.16100
  27   30109.5    332.1   0.088450949   0.96711  -0.47617  -0.43664  -0.74143
  28   30576.9    327.0   0.026601443   0.28641  -0.09371  -0.48401  -0.20823
  29   30953.2    323.1   0.008240315   0.08764   0.26963   0.11910   0.02754
  30   31209.5    320.4   0.119995824   1.26577   0.59210   0.94595   0.14270
  31   31589.2    316.6   0.032768208   0.34150  -0.41518  -0.32822   0.24778
  32   31836.5    314.1   0.023478018   0.24278   0.04423   0.38107   0.30921
  33   31902.3    313.5   0.008989046   0.09276  -0.06163   0.19276  -0.22761
  34   31945.4    313.0   0.001585702   0.01634   0.07736  -0.08493  -0.05607
  35   32316.5    309.4   0.009104869   0.09275   0.24877   0.12271  -0.12573
  36   32361.8    309.0   0.012973893   0.13198  -0.33504  -0.14044   0.00195
  37   32592.2    306.8   0.012972527   0.13103  -0.00318  -0.16559  -0.32187
  38   32736.9    305.5   0.003197782   0.03216  -0.06971   0.09283   0.13668
  39   32786.9    305.0   0.011628793   0.11676  -0.12216  -0.21096  -0.23945
  40   32894.6    304.0   0.001224536   0.01226   0.09485  -0.02858   0.04942
  41   33183.7    301.4   0.019754727   0.19598   0.22414   0.18218   0.33549
  42   33312.9    300.2   0.007977438   0.07884   0.15870   0.07544   0.21900
  43   33477.5    298.7   0.038309427   0.37673   0.17225  -0.22129   0.54598
  44   33680.7    296.9   0.027018167   0.26409   0.22180  -0.30388   0.35007
  45   33935.4    294.7   0.005263496   0.05106  -0.09173   0.01544  -0.20594
  46   34116.3    293.1   0.004565378   0.04405  -0.13789  -0.10365  -0.11957
  47   34336.3    291.2   0.008863565   0.08498   0.13610   0.09809   0.23841
  48   34459.7    290.2   0.005026815   0.04802  -0.16818   0.03957   0.13481
  49   34541.0    289.5   0.004252983   0.04054  -0.10881  -0.15094  -0.07690
  50   34828.2    287.1   0.000804397   0.00760   0.08289   0.01945   0.01882
  51   34918.6    286.4   0.005461276   0.05149  -0.19311   0.06455   0.10015
  52   35268.3    283.5   0.011636998   0.10863  -0.28278  -0.02048   0.16805
  53   35332.3    283.0   0.002960325   0.02758   0.06116  -0.15440  -0.00182
  54   35407.0    282.4   0.008699884   0.08089   0.16721   0.22986  -0.00972
  55   35732.1    279.9   0.005289135   0.04873   0.19930   0.03467   0.08836
  56   35865.5    278.8   0.005876095   0.05394   0.14879   0.10351  -0.14521
  57   35999.5    277.8   0.002759087   0.02523   0.02378  -0.15105   0.04300
  58   36031.2    277.5   0.001023702   0.00935  -0.00609   0.09019  -0.03439
  59   36090.4    277.1   0.003614325   0.03297  -0.02717  -0.05116  -0.17209
  60   36373.9    274.9   0.014429872   0.13060  -0.22203  -0.28494   0.01066
  61   36571.3    273.4   0.037792346   0.34020   0.20345   0.47704  -0.26692
  62   36829.9    271.5   0.007674748   0.06860  -0.03593  -0.10554  -0.23701
  63   37010.7    270.2   0.004457240   0.03965  -0.16809  -0.10662   0.00519
  64   37048.9    269.9   0.001366268   0.01214   0.06458   0.08876  -0.00960
  65   37357.4    267.7   0.000763647   0.00673   0.08102   0.01072   0.00707
  66   37420.5    267.2   0.001503936   0.01323  -0.07084  -0.09022   0.00858
  67   37739.1    265.0   0.023510402   0.20509   0.06683   0.41142  -0.17707
  68   37868.1    264.1   0.053379114   0.46406   0.14534  -0.46612   0.47504
  69   37964.9    263.4   0.012386028   0.10741  -0.06828   0.13275  -0.29175
  70   38217.1    261.7   0.015719543   0.13541   0.13649   0.33790   0.05103
  71   38296.2    261.1   0.003244268   0.02789   0.00119  -0.09245   0.13907
  72   38392.3    260.5   0.005608811   0.04810  -0.10037   0.14627  -0.12895
  73   38540.0    259.5   0.008582654   0.07331  -0.09702  -0.09673  -0.23355
  74   38707.4    258.3   0.101138704   0.86020   0.22451  -0.54337   0.71731
  75   38907.2    257.0   0.004884029   0.04133   0.01569   0.12091  -0.16267
  76   39129.8    255.6   0.019849164   0.16700   0.13590   0.24993  -0.29336
  77   39203.6    255.1   0.013878107   0.11654  -0.04935   0.26972  -0.20336
  78   39301.3    254.4   0.014956399   0.12528  -0.02351  -0.34920  -0.05282
  79   39458.9    253.4   0.009623837   0.08029  -0.18066  -0.08037  -0.20297
  80   39712.8    251.8   0.019008210   0.15757  -0.02331  -0.21574  -0.33239
  81   39837.5    251.0   0.003295553   0.02723  -0.07463   0.01640   0.14627
  82   39883.6    250.7   0.006197249   0.05115   0.02048  -0.19808  -0.10723
  83   40006.0    250.0   0.008697004   0.07157   0.21568   0.09012  -0.13011
  84   40204.9    248.7   0.014948559   0.12240   0.24294   0.09047  -0.23495
  85   40326.6    248.0   0.037376342   0.30513   0.54517   0.08625  -0.02182

FINAL SINGLE POINT ENERGY     -7445.169619428925

DIPOLE MOMENT
-------------
                                X             Y             Z
Electronic contribution:     26.84690      84.47889     -30.64033
Nuclear contribution   :    -28.17189     -84.26640      29.63468
                        -----------------------------------------
Total Dipole Moment    :     -1.32499       0.21248      -1.00565
                        -----------------------------------------
Magnitude (a.u.)       :      1.67692
Magnitude (Debye)      :      4.26240

Rotational constants in cm-1:     0.001890     0.000364     0.000337
Rotational constants in MHz :    56.668052    10.904135    10.109159

                             ****ORCA TERMINATED NORMALLY****
TOTAL RUN TIME: 0 days 0 hours 12 minutes 2 seconds 889 msec
