                         Program Version 4.2.0 -  RELEASE  -
|  1> # ORCA input file
|  2> # SCF done       -168.016599201176          0.000580715138
|  3> ! CAM-B3LYP def2-SVP def2/J RIJCOSX Grid4 TightSCF
|  4> %maxcore 5000
|  5> %tddft
|  6>     Mode sTDDFT
|  7>     Ethresh 5.0
|  8>     maxcore 5000
|  9> end
| 10>
| 11> %pal
| 12>   nprocs 6
| 13>   end
| 14> * xyz 0 1
| 15>    C       -0.58366         0.99461         2.65977
| 16>    S       -1.83882         0.17577         1.85151
| 17>    C       -1.08948        -1.37266         2.07438
| 18>    C        0.10904        -1.24255         2.78782
| 19>    C        0.38931         0.13017         3.10586
| 20>    C        1.57757         0.45665         3.82467
| 21>    C        1.85935         1.80569         4.12220
| 22>    N        2.08706         2.90408         4.36308
| 23>    C        2.42318        -0.55099         4.22171
| 24>    C        2.11532        -1.89447         3.94438
| 25>    C        0.98936        -2.24297         3.25029
| 26>    C       -1.70731        -2.53553         1.53872
| 27>    C       -1.13657        -3.75270         1.21950
| 28>    C       -2.07045        -4.65482         0.70559
| 29>    C       -3.36529        -4.11630         0.61511
| 30>    S       -3.43316        -2.50396         1.17257
| 31>    C       -4.22660        -5.10321         0.07579
| 32>    C       -3.47781        -6.26692        -0.16961
| 33>    C       -2.09663        -6.02181         0.21930
| 34>    C       -1.05117        -6.89735         0.15406
| 35>    C        0.24254        -6.54650         0.59097
| 36>    N        1.29138        -6.26146         0.95754
| 37>    C       -1.19801        -8.20783        -0.34483
| 38>    N       -1.31328        -9.27363        -0.75262
| 39>    C       -4.24166        -7.30742        -0.69241
| 40>    C       -5.56956        -6.95001        -0.85489
| 41>    S       -5.87086        -5.28896        -0.34622
| 42>    C       -6.63090        -7.75572        -1.35568
| 43>    C       -7.90717        -7.27806        -1.53567
| 44>    C       -8.97948        -8.02512        -2.01554
| 45>    C       -8.81955        -9.43815        -2.36841
| 46>    C       -7.65450       -10.11482        -2.27761
| 47>    S       -6.18559        -9.41950        -1.72766
| 48>    C      -10.10502        -9.86102        -2.80374
| 49>    C      -11.00922        -8.79756        -2.74093
| 50>    C      -12.30009        -9.19244        -3.16143
| 51>    C      -12.33613       -10.50170        -3.52304
| 52>    S      -10.81798       -11.31598        -3.37209
| 53>    C      -10.31437        -7.63126        -2.25153
| 54>    C      -10.79898        -6.32287        -2.04630
| 55>    C      -12.05012        -5.86456        -2.32409
| 56>    C      -12.46000        -4.52649        -2.12279
| 57>    C      -11.74249        -3.45575        -1.60403
| 58>    C      -12.48540        -2.28148        -1.58707
| 59>    C      -13.78709        -2.43986        -2.09330
| 60>    S      -14.08975        -4.04829        -2.58667
| 61>    C      -14.44129        -1.18424        -2.04903
| 62>    C      -13.55777        -0.23635        -1.50532
| 63>    C      -12.30233        -0.88781        -1.19799
| 64>    C      -11.17790        -0.31938        -0.67341
| 65>    C      -10.00394        -1.06347        -0.43880
| 66>    N       -9.05000        -1.66998        -0.24163
| 67>    C      -11.12213         1.04486        -0.31952
| 68>    N      -11.07163         2.14781        -0.00927
| 69>    C      -14.10795         1.04677        -1.43916
| 70>    C      -15.38664         1.08769        -1.94575
| 71>    S      -15.94503        -0.49724        -2.47470
| 72>    C      -16.22253         2.24015        -2.05980
| 73>    S      -17.90161         2.18211        -1.63270
| 74>    C      -18.10165         3.85553        -1.87949
| 75>    C      -16.93649         4.46615        -2.29053
| 76>    C      -15.85219         3.53139        -2.42130
| 77>    C      -14.61751         3.99723        -2.96103
| 78>    C      -13.57449         3.11915        -3.32713
| 79>    N      -12.72303         2.44711        -3.70243
| 80>    C      -14.46647         5.33726        -3.23874
| 81>    C      -15.51367         6.25403        -3.02560
| 82>    C      -16.73386         5.83558        -2.58463
| 83>    H       -0.61402         2.06046         2.76904
| 84>    H        3.32447        -0.30964         4.76536
| 85>    H        2.78628        -2.66311         4.29585
| 86>    H        0.76625        -3.28267         3.07757
| 87>    H       -0.08738        -3.95889         1.31035
| 88>    H       -3.86270        -8.28026        -0.94917
| 89>    H       -8.07061        -6.23924        -1.28011
| 90>    H       -7.56137       -11.15398        -2.55083
| 91>    H      -13.16980        -8.56306        -3.19851
| 92>    H      -13.18043       -11.05933        -3.87874
| 93>    H      -10.08359        -5.62026        -1.64264
| 94>    H      -12.78970        -6.52970        -2.74109
| 95>    H      -10.72857        -3.53626        -1.25960
| 96>    H      -13.61312         1.90317        -1.01977
| 97>    H      -19.05670         4.31099        -1.71091
| 98>    H      -13.53012         5.68699        -3.64770
| 99>    H      -15.34191         7.29605        -3.24796
|100>    H      -17.55489         6.52482        -2.45996
|101> *
|102>
|103>                          ****END OF INPUT****

CARTESIAN COORDINATES (ANGSTROEM)
---------------------------------
  C     -0.583660    0.994610    2.659770
  S     -1.838820    0.175770    1.851510
  C     -1.089480   -1.372660    2.074380
  C      0.109040   -1.242550    2.787820
  C      0.389310    0.130170    3.105860
  C      1.577570    0.456650    3.824670
  C      1.859350    1.805690    4.122200
  N      2.087060    2.904080    4.363080
  C      2.423180   -0.550990    4.221710
  C      2.115320   -1.894470    3.944380
  C      0.989360   -2.242970    3.250290
  C     -1.707310   -2.535530    1.538720
  C     -1.136570   -3.752700    1.219500
  C     -2.070450   -4.654820    0.705590
  C     -3.365290   -4.116300    0.615110
  S     -3.433160   -2.503960    1.172570
  C     -4.226600   -5.103210    0.075790
  C     -3.477810   -6.266920   -0.169610
  C     -2.096630   -6.021810    0.219300
  C     -1.051170   -6.897350    0.154060
  C      0.242540   -6.546500    0.590970
  N      1.291380   -6.261460    0.957540
  C     -1.198010   -8.207830   -0.344830
  N     -1.313280   -9.273630   -0.752620
  C     -4.241660   -7.307420   -0.692410
  C     -5.569560   -6.950010   -0.854890
  S     -5.870860   -5.288960   -0.346220
  C     -6.630900   -7.755720   -1.355680
  C     -7.907170   -7.278060   -1.535670
  C     -8.979480   -8.025120   -2.015540
  C     -8.819550   -9.438150   -2.368410
  C     -7.654500  -10.114820   -2.277610
  S     -6.185590   -9.419500   -1.727660
  C    -10.105020   -9.861020   -2.803740
  C    -11.009220   -8.797560   -2.740930
  C    -12.300090   -9.192440   -3.161430
  C    -12.336130  -10.501700   -3.523040
  S    -10.817980  -11.315980   -3.372090
  C    -10.314370   -7.631260   -2.251530
  C    -10.798980   -6.322870   -2.046300
  C    -12.050120   -5.864560   -2.324090
  C    -12.460000   -4.526490   -2.122790
  C    -11.742490   -3.455750   -1.604030
  C    -12.485400   -2.281480   -1.587070
  C    -13.787090   -2.439860   -2.093300
  S    -14.089750   -4.048290   -2.586670
  C    -14.441290   -1.184240   -2.049030
  C    -13.557770   -0.236350   -1.505320
  C    -12.302330   -0.887810   -1.197990
  C    -11.177900   -0.319380   -0.673410
  C    -10.003940   -1.063470   -0.438800
  N     -9.050000   -1.669980   -0.241630
  C    -11.122130    1.044860   -0.319520
  N    -11.071630    2.147810   -0.009270
  C    -14.107950    1.046770   -1.439160
  C    -15.386640    1.087690   -1.945750
  S    -15.945030   -0.497240   -2.474700
  C    -16.222530    2.240150   -2.059800
  S    -17.901610    2.182110   -1.632700
  C    -18.101650    3.855530   -1.879490
  C    -16.936490    4.466150   -2.290530
  C    -15.852190    3.531390   -2.421300
  C    -14.617510    3.997230   -2.961030
  C    -13.574490    3.119150   -3.327130
  N    -12.723030    2.447110   -3.702430
  C    -14.466470    5.337260   -3.238740
  C    -15.513670    6.254030   -3.025600
  C    -16.733860    5.835580   -2.584630
  H     -0.614020    2.060460    2.769040
  H      3.324470   -0.309640    4.765360
  H      2.786280   -2.663110    4.295850
  H      0.766250   -3.282670    3.077570
  H     -0.087380   -3.958890    1.310350
  H     -3.862700   -8.280260   -0.949170
  H     -8.070610   -6.239240   -1.280110
  H     -7.561370  -11.153980   -2.550830
  H    -13.169800   -8.563060   -3.198510
  H    -13.180430  -11.059330   -3.878740
  H    -10.083590   -5.620260   -1.642640
  H    -12.789700   -6.529700   -2.741090
  H    -10.728570   -3.536260   -1.259600
  H    -13.613120    1.903170   -1.019770
  H    -19.056700    4.310990   -1.710910
  H    -13.530120    5.686990   -3.647700
  H    -15.341910    7.296050   -3.247960
  H    -17.554890    6.524820   -2.459960

 Total Charge           Charge          ....    0
 Multiplicity           Mult            ....    1
 Number of Electrons    NEL             ....  512
 Basis Dimension        Dim             .... 1074

ORBITAL ENERGIES
----------------

  NO   OCC          E(Eh)            E(eV)
   0   2.0000     -88.988945     -2421.5123
   1   2.0000     -88.987682     -2421.4779
   2   2.0000     -88.980866     -2421.2924
   3   2.0000     -88.979999     -2421.2689
   4   2.0000     -88.979678     -2421.2601
   5   2.0000     -88.977447     -2421.1994
   6   2.0000     -88.976748     -2421.1804
   7   2.0000     -88.958505     -2420.6840
   8   2.0000     -14.431221      -392.6935
   9   2.0000     -14.430157      -392.6645
  10   2.0000     -14.423723      -392.4894
  11   2.0000     -14.419227      -392.3671
  12   2.0000     -14.402191      -391.9035
  13   2.0000     -14.399930      -391.8420
  14   2.0000     -10.364001      -282.0188
  15   2.0000     -10.353177      -281.7243
  16   2.0000     -10.351430      -281.6767
  17   2.0000     -10.340787      -281.3871
  18   2.0000     -10.331792      -281.1424
  19   2.0000     -10.330940      -281.1192
  20   2.0000     -10.330655      -281.1114
  21   2.0000     -10.330550      -281.1086
  22   2.0000     -10.330031      -281.0944
  23   2.0000     -10.329426      -281.0780
  24   2.0000     -10.328348      -281.0486
  25   2.0000     -10.326407      -280.9958
  26   2.0000     -10.325165      -280.9620
  27   2.0000     -10.322907      -280.9006
  28   2.0000     -10.321327      -280.8576
  29   2.0000     -10.319954      -280.8202
  30   2.0000     -10.318298      -280.7752
  31   2.0000     -10.315874      -280.7092
  32   2.0000     -10.314978      -280.6848
  33   2.0000     -10.314458      -280.6707
  34   2.0000     -10.313545      -280.6458
  35   2.0000     -10.312084      -280.6061
  36   2.0000     -10.306691      -280.4593
  37   2.0000     -10.305260      -280.4204
  38   2.0000     -10.301339      -280.3137
  39   2.0000     -10.301283      -280.3122
  40   2.0000     -10.301050      -280.3058
  41   2.0000     -10.300983      -280.3040
  42   2.0000     -10.300188      -280.2824
  43   2.0000     -10.299741      -280.2702
  44   2.0000     -10.299414      -280.2613
  45   2.0000     -10.299070      -280.2519
  46   2.0000     -10.298951      -280.2487
  47   2.0000     -10.297931      -280.2209
  48   2.0000     -10.297670      -280.2138
  49   2.0000     -10.297513      -280.2096
  50   2.0000     -10.296667      -280.1866
  51   2.0000     -10.296585      -280.1843
  52   2.0000     -10.294357      -280.1237
  53   2.0000     -10.294030      -280.1148
  54   2.0000     -10.292089      -280.0620
  55   2.0000     -10.292042      -280.0607
  56   2.0000     -10.289977      -280.0045
  57   2.0000     -10.288891      -279.9750
  58   2.0000     -10.287870      -279.9472
  59   2.0000     -10.287702      -279.9426
  60   2.0000     -10.286266      -279.9035
  61   2.0000     -10.285993      -279.8961
  62   2.0000     -10.285190      -279.8743
  63   2.0000     -10.281299      -279.7684
  64   2.0000     -10.280375      -279.7432
  65   2.0000     -10.277648      -279.6690
  66   2.0000     -10.277252      -279.6582
  67   2.0000     -10.276658      -279.6421
  68   2.0000      -8.083032      -219.9505
  69   2.0000      -8.082437      -219.9343
  70   2.0000      -8.076194      -219.7644
  71   2.0000      -8.075436      -219.7438
  72   2.0000      -8.074346      -219.7141
  73   2.0000      -8.072561      -219.6656
  74   2.0000      -8.071326      -219.6319
  75   2.0000      -8.053964      -219.1595
  76   2.0000      -6.052334      -164.6924
  77   2.0000      -6.051737      -164.6761
  78   2.0000      -6.048187      -164.5795
  79   2.0000      -6.047518      -164.5613
  80   2.0000      -6.045314      -164.5014
  81   2.0000      -6.045188      -164.4979
  82   2.0000      -6.044679      -164.4841
  83   2.0000      -6.044317      -164.4742
  84   2.0000      -6.043571      -164.4539
  85   2.0000      -6.042197      -164.4165
  86   2.0000      -6.040757      -164.3774
  87   2.0000      -6.040513      -164.3707
  88   2.0000      -6.040022      -164.3573
  89   2.0000      -6.039495      -164.3430
  90   2.0000      -6.039276      -164.3370
  91   2.0000      -6.038592      -164.3184
  92   2.0000      -6.037655      -164.2929
  93   2.0000      -6.036698      -164.2669
  94   2.0000      -6.036460      -164.2604
  95   2.0000      -6.034334      -164.2026
  96   2.0000      -6.033782      -164.1876
  97   2.0000      -6.023345      -163.9035
  98   2.0000      -6.019151      -163.7894
  99   2.0000      -6.016059      -163.7053
 100   2.0000      -1.043655       -28.3993
 101   2.0000      -1.032938       -28.1077
 102   2.0000      -1.022436       -27.8219
 103   2.0000      -1.014759       -27.6130
 104   2.0000      -1.014368       -27.6023
 105   2.0000      -1.010424       -27.4950
 106   2.0000      -1.008270       -27.4364
 107   2.0000      -1.008044       -27.4303
 108   2.0000      -0.998743       -27.1772
 109   2.0000      -0.996099       -27.1052
 110   2.0000      -0.985742       -26.8234
 111   2.0000      -0.985593       -26.8194
 112   2.0000      -0.982732       -26.7415
 113   2.0000      -0.972266       -26.4567
 114   2.0000      -0.956073       -26.0161
 115   2.0000      -0.950282       -25.8585
 116   2.0000      -0.943637       -25.6777
 117   2.0000      -0.941986       -25.6327
 118   2.0000      -0.930386       -25.3171
 119   2.0000      -0.915091       -24.9009
 120   2.0000      -0.907644       -24.6983
 121   2.0000      -0.892880       -24.2965
 122   2.0000      -0.886749       -24.1297
 123   2.0000      -0.882752       -24.0209
 124   2.0000      -0.875016       -23.8104
 125   2.0000      -0.866626       -23.5821
 126   2.0000      -0.856769       -23.3139
 127   2.0000      -0.854316       -23.2471
 128   2.0000      -0.846273       -23.0283
 129   2.0000      -0.844314       -22.9750
 130   2.0000      -0.840945       -22.8833
 131   2.0000      -0.839705       -22.8495
 132   2.0000      -0.836058       -22.7503
 133   2.0000      -0.823969       -22.4213
 134   2.0000      -0.812746       -22.1159
 135   2.0000      -0.800206       -21.7747
 136   2.0000      -0.779701       -21.2167
 137   2.0000      -0.774858       -21.0850
 138   2.0000      -0.766332       -20.8530
 139   2.0000      -0.762080       -20.7373
 140   2.0000      -0.742701       -20.2099
 141   2.0000      -0.741582       -20.1795
 142   2.0000      -0.735809       -20.0224
 143   2.0000      -0.732182       -19.9237
 144   2.0000      -0.708943       -19.2913
 145   2.0000      -0.705496       -19.1975
 146   2.0000      -0.697143       -18.9702
 147   2.0000      -0.690556       -18.7910
 148   2.0000      -0.689260       -18.7557
 149   2.0000      -0.686772       -18.6880
 150   2.0000      -0.678531       -18.4638
 151   2.0000      -0.673522       -18.3275
 152   2.0000      -0.667204       -18.1555
 153   2.0000      -0.664694       -18.0872
 154   2.0000      -0.658484       -17.9183
 155   2.0000      -0.652431       -17.7536
 156   2.0000      -0.644508       -17.5380
 157   2.0000      -0.629379       -17.1263
 158   2.0000      -0.624941       -17.0055
 159   2.0000      -0.623642       -16.9702
 160   2.0000      -0.615728       -16.7548
 161   2.0000      -0.613157       -16.6849
 162   2.0000      -0.607710       -16.5366
 163   2.0000      -0.605286       -16.4707
 164   2.0000      -0.604560       -16.4509
 165   2.0000      -0.589205       -16.0331
 166   2.0000      -0.585178       -15.9235
 167   2.0000      -0.582563       -15.8524
 168   2.0000      -0.572873       -15.5887
 169   2.0000      -0.569304       -15.4915
 170   2.0000      -0.567496       -15.4424
 171   2.0000      -0.562676       -15.3112
 172   2.0000      -0.559351       -15.2207
 173   2.0000      -0.553410       -15.0591
 174   2.0000      -0.548932       -14.9372
 175   2.0000      -0.547211       -14.8904
 176   2.0000      -0.543520       -14.7899
 177   2.0000      -0.535640       -14.5755
 178   2.0000      -0.529540       -14.4095
 179   2.0000      -0.527259       -14.3475
 180   2.0000      -0.523975       -14.2581
 181   2.0000      -0.518857       -14.1188
 182   2.0000      -0.517649       -14.0859
 183   2.0000      -0.515099       -14.0166
 184   2.0000      -0.514797       -14.0083
 185   2.0000      -0.511859       -13.9284
 186   2.0000      -0.510682       -13.8964
 187   2.0000      -0.506864       -13.7925
 188   2.0000      -0.502813       -13.6822
 189   2.0000      -0.501434       -13.6447
 190   2.0000      -0.494781       -13.4637
 191   2.0000      -0.493703       -13.4343
 192   2.0000      -0.491926       -13.3860
 193   2.0000      -0.489452       -13.3187
 194   2.0000      -0.484995       -13.1974
 195   2.0000      -0.484031       -13.1712
 196   2.0000      -0.479790       -13.0557
 197   2.0000      -0.474623       -12.9151
 198   2.0000      -0.472226       -12.8499
 199   2.0000      -0.469382       -12.7725
 200   2.0000      -0.464822       -12.6484
 201   2.0000      -0.462237       -12.5781
 202   2.0000      -0.461254       -12.5514
 203   2.0000      -0.460419       -12.5286
 204   2.0000      -0.458803       -12.4847
 205   2.0000      -0.458160       -12.4672
 206   2.0000      -0.456628       -12.4255
 207   2.0000      -0.455665       -12.3993
 208   2.0000      -0.454205       -12.3596
 209   2.0000      -0.450810       -12.2672
 210   2.0000      -0.449552       -12.2329
 211   2.0000      -0.448965       -12.2170
 212   2.0000      -0.446545       -12.1511
 213   2.0000      -0.443636       -12.0719
 214   2.0000      -0.441294       -12.0082
 215   2.0000      -0.440861       -11.9964
 216   2.0000      -0.439784       -11.9671
 217   2.0000      -0.438633       -11.9358
 218   2.0000      -0.434166       -11.8143
 219   2.0000      -0.433538       -11.7972
 220   2.0000      -0.432346       -11.7647
 221   2.0000      -0.431025       -11.7288
 222   2.0000      -0.430158       -11.7052
 223   2.0000      -0.428102       -11.6492
 224   2.0000      -0.427250       -11.6261
 225   2.0000      -0.427208       -11.6249
 226   2.0000      -0.426583       -11.6079
 227   2.0000      -0.425625       -11.5818
 228   2.0000      -0.419473       -11.4144
 229   2.0000      -0.419008       -11.4018
 230   2.0000      -0.417066       -11.3489
 231   2.0000      -0.415681       -11.3112
 232   2.0000      -0.414562       -11.2808
 233   2.0000      -0.413136       -11.2420
 234   2.0000      -0.408329       -11.1112
 235   2.0000      -0.406284       -11.0556
 236   2.0000      -0.400763       -10.9053
 237   2.0000      -0.396019       -10.7762
 238   2.0000      -0.379939       -10.3387
 239   2.0000      -0.376758       -10.2521
 240   2.0000      -0.365695        -9.9511
 241   2.0000      -0.348233        -9.4759
 242   2.0000      -0.347923        -9.4675
 243   2.0000      -0.343250        -9.3403
 244   2.0000      -0.334941        -9.1142
 245   2.0000      -0.329653        -8.9703
 246   2.0000      -0.329500        -8.9662
 247   2.0000      -0.326044        -8.8721
 248   2.0000      -0.321208        -8.7405
 249   2.0000      -0.311521        -8.4769
 250   2.0000      -0.304992        -8.2992
 251   2.0000      -0.293240        -7.9795
 252   2.0000      -0.278308        -7.5732
 253   2.0000      -0.260868        -7.0986
 254   2.0000      -0.245488        -6.6801
 255   2.0000      -0.216191        -5.8829
 256   0.0000      -0.105679        -2.8757
 257   0.0000      -0.094516        -2.5719
 258   0.0000      -0.067512        -1.8371
 259   0.0000      -0.058769        -1.5992
 260   0.0000      -0.054350        -1.4789

MULLIKEN ATOMIC CHARGES
-----------------------
   0 C :   -0.131488
   1 S :    0.180851
   2 C :   -0.131815
   3 C :    0.113736
   4 C :    0.103649
   5 C :   -0.074566
   6 C :   -0.192066
   7 N :    0.111093
   8 C :    0.027086
   9 C :    0.020709
  10 C :   -0.014345
  11 C :   -0.075210
  12 C :   -0.049286
  13 C :   -0.001408
  14 C :   -0.096843
  15 S :    0.195550
  16 C :   -0.094544
  17 C :    0.018010
  18 C :    0.306052
  19 C :   -0.299153
  20 C :   -0.185145
  21 N :    0.167870
  22 C :   -0.188026
  23 N :    0.172934
  24 C :   -0.058793
  25 C :   -0.067072
  26 S :    0.185096
  27 C :   -0.016500
  28 C :   -0.094024
  29 C :    0.055477
  30 C :    0.063560
  31 C :   -0.119667
  32 S :    0.129385
  33 C :   -0.114257
  34 C :    0.052706
  35 C :   -0.006263
  36 C :   -0.067836
  37 S :    0.129932
  38 C :    0.098627
  39 C :   -0.017471
  40 C :    0.041851
  41 C :   -0.071418
  42 C :   -0.048231
  43 C :    0.010613
  44 C :   -0.109599
  45 S :    0.174490
  46 C :   -0.093238
  47 C :   -0.015987
  48 C :    0.315719
  49 C :   -0.300957
  50 C :   -0.178218
  51 N :    0.147577
  52 C :   -0.187090
  53 N :    0.171969
  54 C :    0.014942
  55 C :   -0.126436
  56 S :    0.182943
  57 C :   -0.191224
  58 S :    0.184214
  59 C :   -0.130609
  60 C :    0.065925
  61 C :    0.209668
  62 C :   -0.104639
  63 C :   -0.208328
  64 N :    0.112442
  65 C :    0.025688
  66 C :    0.018005
  67 C :    0.025626
  68 H :    0.040650
  69 H :   -0.004403
  70 H :    0.000066
  71 H :   -0.013848
  72 H :    0.010889
  73 H :    0.018510
  74 H :   -0.005241
  75 H :    0.037666
  76 H :   -0.014234
  77 H :    0.024806
  78 H :   -0.036826
  79 H :   -0.051241
  80 H :   -0.001028
  81 H :    0.018550
  82 H :    0.022692
  83 H :   -0.001059
  84 H :   -0.002470
  85 H :   -0.015725
Sum of atomic charges:   -0.0000000

LOEWDIN ATOMIC CHARGES
----------------------
   0 C :   -0.189854
   1 S :    0.498371
   2 C :   -0.201860
   3 C :   -0.044129
   4 C :   -0.036482
   5 C :   -0.064937
   6 C :   -0.027848
   7 N :   -0.058312
   8 C :    0.017263
   9 C :   -0.024978
  10 C :    0.005415
  11 C :   -0.175452
  12 C :   -0.036505
  13 C :   -0.070837
  14 C :   -0.180785
  15 S :    0.473110
  16 C :   -0.176905
  17 C :   -0.070801
  18 C :    0.085120
  19 C :   -0.103978
  20 C :   -0.014500
  21 N :   -0.037217
  22 C :   -0.016684
  23 N :   -0.033003
  24 C :   -0.040416
  25 C :   -0.180893
  26 S :    0.487923
  27 C :   -0.179318
  28 C :   -0.032026
  29 C :   -0.018425
  30 C :   -0.050226
  31 C :   -0.138607
  32 S :    0.459258
  33 C :   -0.199653
  34 C :   -0.037821
  35 C :   -0.066733
  36 C :   -0.166175
  37 S :    0.426112
  38 C :   -0.049260
  39 C :   -0.006437
  40 C :   -0.064168
  41 C :   -0.153958
  42 C :   -0.038443
  43 C :   -0.061938
  44 C :   -0.197817
  45 S :    0.464139
  46 C :   -0.169390
  47 C :   -0.075590
  48 C :    0.089371
  49 C :   -0.105191
  50 C :   -0.009817
  51 N :   -0.051001
  52 C :   -0.013916
  53 N :   -0.036396
  54 C :   -0.008329
  55 C :   -0.200448
  56 S :    0.462126
  57 C :   -0.205465
  58 S :    0.495674
  59 C :   -0.195171
  60 C :   -0.051945
  61 C :   -0.034541
  62 C :   -0.067145
  63 C :   -0.025525
  64 N :   -0.063081
  65 C :    0.020860
  66 C :   -0.031854
  67 C :    0.010630
  68 H :    0.033672
  69 H :    0.040811
  70 H :    0.036414
  71 H :    0.034081
  72 H :    0.038279
  73 H :    0.034268
  74 H :    0.026976
  75 H :    0.037568
  76 H :    0.027729
  77 H :    0.023560
  78 H :    0.027363
  79 H :    0.023311
  80 H :    0.034838
  81 H :    0.041665
  82 H :    0.026015
  83 H :    0.041745
  84 H :    0.034433
  85 H :    0.034085

  Mayer bond orders larger than 0.100000
B(  0-C ,  1-S ) :   1.1890 B(  0-C ,  2-C ) :   0.1199 B(  0-C ,  4-C ) :   1.4592
B(  0-C , 68-H ) :   0.9500 B(  1-S ,  2-C ) :   1.1911 B(  2-C ,  3-C ) :   1.3775
B(  2-C , 11-C ) :   1.1192 B(  3-C ,  4-C ) :   1.1910 B(  3-C , 10-C ) :   1.1954
B(  4-C ,  5-C ) :   1.1817 B(  5-C ,  6-C ) :   1.0738 B(  5-C ,  8-C ) :   1.5693
B(  6-C ,  7-N ) :   3.0394 B(  8-C ,  9-C ) :   1.1902 B(  8-C , 69-H ) :   0.9951
B(  9-C , 10-C ) :   1.5443 B(  9-C , 70-H ) :   0.9837 B( 10-C , 71-H ) :   0.9940
B( 11-C , 12-C ) :   1.4767 B( 11-C , 15-S ) :   1.1023 B( 12-C , 13-C ) :   1.2850
B( 12-C , 72-H ) :   0.9896 B( 13-C , 14-C ) :   1.4422 B( 13-C , 18-C ) :   0.9970
B( 14-C , 15-S ) :   1.1203 B( 14-C , 16-C ) :   1.1898 B( 16-C , 17-C ) :   1.4420
B( 16-C , 26-S ) :   1.1294 B( 17-C , 18-C ) :   0.9959 B( 17-C , 24-C ) :   1.3054
B( 18-C , 19-C ) :   1.7091 B( 19-C , 20-C ) :   1.1347 B( 19-C , 22-C ) :   1.1339
B( 20-C , 21-N ) :   2.9891 B( 22-C , 23-N ) :   2.9903 B( 24-C , 25-C ) :   1.4556
B( 24-C , 73-H ) :   0.9792 B( 25-C , 26-S ) :   1.1036 B( 25-C , 27-C ) :   1.1665
B( 27-C , 28-C ) :   1.5295 B( 27-C , 32-S ) :   1.0540 B( 28-C , 29-C ) :   1.2525
B( 28-C , 74-H ) :   0.9589 B( 29-C , 30-C ) :   1.0509 B( 29-C , 38-C ) :   1.3705
B( 30-C , 31-C ) :   1.6140 B( 30-C , 33-C ) :   1.1746 B( 31-C , 32-S ) :   1.1350
B( 31-C , 75-H ) :   0.9398 B( 33-C , 34-C ) :   1.4549 B( 33-C , 37-S ) :   1.0804
B( 34-C , 35-C ) :   1.2136 B( 34-C , 38-C ) :   1.0685 B( 35-C , 36-C ) :   1.5847
B( 35-C , 76-H ) :   1.0009 B( 36-C , 37-S ) :   1.1579 B( 36-C , 77-H ) :   0.9649
B( 38-C , 39-C ) :   1.1967 B( 39-C , 40-C ) :   1.6285 B( 39-C , 78-H ) :   0.9542
B( 40-C , 41-C ) :   1.1323 B( 40-C , 79-H ) :   0.9636 B( 41-C , 42-C ) :   1.4392
B( 41-C , 45-S ) :   1.1099 B( 42-C , 43-C ) :   1.3108 B( 42-C , 80-H ) :   0.9865
B( 43-C , 44-C ) :   1.4412 B( 43-C , 48-C ) :   0.9905 B( 44-C , 45-S ) :   1.1053
B( 44-C , 46-C ) :   1.1936 B( 46-C , 47-C ) :   1.4483 B( 46-C , 56-S ) :   1.1243
B( 47-C , 48-C ) :   1.0024 B( 47-C , 54-C ) :   1.2990 B( 48-C , 49-C ) :   1.7069
B( 49-C , 50-C ) :   1.1389 B( 49-C , 52-C ) :   1.1361 B( 50-C , 51-N ) :   2.9756
B( 52-C , 53-N ) :   2.9899 B( 54-C , 55-C ) :   1.5062 B( 54-C , 81-H ) :   0.9815
B( 55-C , 56-S ) :   1.0920 B( 55-C , 57-C ) :   1.0546 B( 57-C , 58-S ) :   1.1855
B( 57-C , 59-C ) :   0.1240 B( 57-C , 61-C ) :   1.4211 B( 58-S , 59-C ) :   1.2061
B( 59-C , 60-C ) :   1.4183 B( 59-C , 82-H ) :   0.9702 B( 60-C , 61-C ) :   1.1870
B( 60-C , 67-C ) :   1.1717 B( 61-C , 62-C ) :   1.1904 B( 62-C , 63-C ) :   1.0930
B( 62-C , 65-C ) :   1.5715 B( 63-C , 64-N ) :   3.0160 B( 65-C , 66-C ) :   1.1867
B( 65-C , 83-H ) :   0.9920 B( 66-C , 67-C ) :   1.5520 B( 66-C , 84-H ) :   0.9864
B( 67-C , 85-H ) :   1.0008

-----------------------------------------------------------------------------
         ABSORPTION SPECTRUM VIA TRANSITION ELECTRIC DIPOLE MOMENTS
-----------------------------------------------------------------------------
State   Energy  Wavelength   fosc         T2         TX        TY        TZ
        (cm-1)    (nm)                  (au**2)     (au)      (au)      (au)
-----------------------------------------------------------------------------
   0    9320.3   1072.9   0.174892820   6.17759   2.36547  -0.04491   0.76166
   1   10051.7    994.9   0.122688506   4.01827  -0.61724   1.89341   0.22863
   2   14988.1    667.2   0.037932040   0.83317   0.36163  -0.83008  -0.11561
   3   17746.1    563.5   0.828040282  15.36116  -3.73671   0.68812  -0.96157
   4   19007.4    526.1   0.137656411   2.38424   1.37523  -0.61480   0.33913
   5   21564.7    463.7   0.205334280   3.13469  -1.55642  -0.47145  -0.69999
   6   22112.4    452.2   0.772546570  11.50178  -0.24610   3.32027   0.64578
   7   22306.8    448.3   0.013011304   0.19203  -0.26940  -0.30911  -0.15459
   8   23425.2    426.9   0.002863020   0.04024  -0.16727   0.06433  -0.09011
   9   23819.6    419.8   0.377238980   5.21383  -0.40992   2.17432   0.56402
  10   24732.5    404.3   0.180159755   2.39809   0.22948   1.47055   0.42767
  11   25697.0    389.2   0.186464795   2.38886  -0.58498  -1.34699  -0.48195
  12   26503.2    377.3   0.029584920   0.36749   0.31747  -0.51208   0.06689
  13   27272.1    366.7   0.085731893   1.03490  -0.49362   0.88933  -0.01815
  14   27569.8    362.7   0.052049511   0.62153   0.69583   0.20835   0.30649
  15   28809.3    347.1   0.075022414   0.85730   0.21985   0.86962   0.22964
  16   29029.4    344.5   0.196975047   2.23382  -1.11565  -0.85413  -0.50951
  17   29887.8    334.6   0.380934223   4.19596  -0.19405   2.01052   0.34074
  18   30256.2    330.5   0.043923378   0.47792   0.29920  -0.59230  -0.19385
  19   30905.4    323.6   0.931016716   9.91741  -2.89109   1.12482  -0.54203
  20   31145.4    321.1   0.344473688   3.64114   0.20196   1.65096   0.93525
  21   31679.4    315.7   0.020517294   0.21322   0.28209  -0.36425   0.03099
  22   31980.8    312.7   0.037236567   0.38332  -0.56130   0.25446   0.05918
  23   32523.6    307.5   0.168791010   1.70855  -0.77267   1.05355  -0.03938
  24   32559.8    307.1   0.113222068   1.14479   0.42284   0.90331   0.38732
  25   33508.6    298.4   0.521045691   5.11912  -1.60012  -1.26503  -0.97899
  26   33650.1    297.2   0.268778065   2.62956  -1.51579  -0.24538  -0.52126
  27   33764.6    296.2   0.137237736   1.33810  -0.40879   1.07171  -0.14975
  28   34130.1    293.0   0.025280054   0.24385   0.21727   0.40624   0.17780
  29   34206.7    292.3   0.040839252   0.39304   0.62062   0.05019   0.07318
  30   34667.9    288.5   0.093142046   0.88449   0.93349   0.05968   0.09764
  31   34807.6    287.3   0.025391168   0.24015  -0.43652  -0.16109  -0.15379
  32   35386.6    282.6   0.087147490   0.81076   0.73964   0.43343   0.27536
  33   35754.0    279.7   0.011267022   0.10374   0.11534  -0.28585   0.09345
  34   36254.0    275.8   0.113585610   1.03144   0.65201   0.65996   0.41325
  35   36326.8    275.3   0.047422310   0.42976  -0.45490  -0.46983   0.04572
  36   36665.1    272.7   0.006503019   0.05839  -0.05481   0.21911  -0.08589
  37   37115.5    269.4   0.003334735   0.02958   0.05095   0.15945  -0.03949
  38   37292.2    268.2   0.031756247   0.28034  -0.41169   0.21925   0.25057
  39   37593.8    266.0   0.016393295   0.14356   0.00624   0.32507   0.19455
  40   38029.3    263.0   0.053437664   0.46260   0.51892   0.29554   0.32553
  41   38224.5    261.6   0.007428686   0.06398  -0.21545  -0.09815  -0.08905
  42   38379.0    260.6   0.044871861   0.38491  -0.55759   0.26282  -0.07014
  43   38594.7    259.1   0.011622340   0.09914  -0.28504  -0.12153  -0.05585
  44   38786.2    257.8   0.005459380   0.04634   0.06818   0.12607  -0.16062
  45   38805.0    257.7   0.009036044   0.07666   0.24025   0.03215   0.13381
  46   38959.8    256.7   0.014429222   0.12193   0.01861   0.32759   0.11944
  47   39272.9    254.6   0.081239817   0.68101  -0.81082   0.10251  -0.11431
  48   39605.7    252.5   0.035605914   0.29596   0.36120   0.40093   0.06895
  49   40058.4    249.6   0.011179166   0.09187  -0.03759   0.28855   0.08484
  50   40241.9    248.5   0.033733787   0.27597   0.31731  -0.26534   0.32385

FINAL SINGLE POINT ENERGY     -5578.399839860182

DIPOLE MOMENT
-------------
                                X             Y             Z
Electronic contribution:      0.05191      -9.43853      -0.51448
Nuclear contribution   :     -4.12649       8.77973      -0.16422
                        -----------------------------------------
Total Dipole Moment    :     -4.07459      -0.65880      -0.67869
                        -----------------------------------------
Magnitude (a.u.)       :      4.18293
Magnitude (Debye)      :     10.63216

Rotational constants in cm-1:     0.000826     0.000384     0.000266
Rotational constants in MHz :    24.777078    11.500374     7.962952

                             ****ORCA TERMINATED NORMALLY****
TOTAL RUN TIME: 0 days 0 hours 16 minutes 37 seconds 923 msec
