                         Program Version 4.2.0 -  RELEASE  -
|  1> # ORCA input file
|  2> # SCF done       -151.350441123062          0.000435826285
|  3> ! CAM-B3LYP def2-SVP def2/J RIJCOSX Grid4 TightSCF
|  4> %maxcore 5000
|  5> %tddft
|  6>     Mode sTDDFT
|  7>     Ethresh 5.0
|  8>     maxcore 5000
|  9> end
| 10>
| 11> %pal
| 12>   nprocs 6
| 13>   end
| 14> * xyz 0 1
| 15>    C        6.75279        -3.30973         2.91725
| 16>    C        6.75042        -2.20599         2.15574
| 17>    O        6.73429        -0.92949         2.65644
| 18>    C        6.86162        -0.87135         4.02324
| 19>    C        6.86777        -2.04617         4.83183
| 20>    C        6.99363        -1.76396         6.15220
| 21>    S        7.10593        -0.06454         6.42308
| 22>    C        6.98285         0.27102         4.73857
| 23>    O        6.75688        -3.29848         4.29611
| 24>    N        6.76265        -2.24495         0.77394
| 25>    C        7.02113        -1.19744        -0.05468
| 26>    S        7.21922         0.40888         0.54115
| 27>    C        7.58786         0.94208        -1.07324
| 28>    N        7.96002         2.26470        -1.22260
| 29>    O        8.23902         2.68886        -2.33480
| 30>    O        8.01402         2.93801        -0.19465
| 31>    C        7.53328        -0.05787        -2.00520
| 32>    C        7.19886        -1.30771        -1.44577
| 33>    C        7.08943        -2.53191        -2.18671
| 34>    C        7.47338        -2.62066        -3.48499
| 35>    C        7.46723        -3.75510        -4.31979
| 36>    C        7.98208        -3.67075        -5.59073
| 37>    C        8.22498        -4.68342        -6.55422
| 38>    C        8.89178        -4.25493        -7.66525
| 39>    C        9.20478        -2.87725        -7.64349
| 40>    S        8.55704        -2.13100        -6.20681
| 41>    C       10.00372        -2.08768        -8.44835
| 42>    C       10.83368        -2.37321        -9.55401
| 43>    C       11.68096        -1.35551        -9.88365
| 44>    C       11.58064        -0.21653        -9.04054
| 45>    S       10.24095        -0.43432        -7.93181
| 46>    C       12.35355         0.91581        -9.01465
| 47>    C       12.30692         1.85189        -7.95036
| 48>    C       12.04848         1.60745        -6.60222
| 49>    C       12.14566         0.33885        -6.00980
| 50>    N       12.34577        -0.67231        -5.50411
| 51>    C       11.98804         2.79760        -5.82959
| 52>    C       12.29709         3.91889        -6.58781
| 53>    S       12.59761         3.56246        -8.24855
| 54>    S       12.34946         5.40672        -5.69359
| 55>    C       11.92111         4.50668        -4.27145
| 56>    C       11.72974         3.14766        -4.47365
| 57>    C       11.30451         2.49550        -3.28023
| 58>    C       10.82385         1.17703        -3.22574
| 59>    N       10.35265         0.13087        -3.21392
| 60>    C       11.25016         3.36586        -2.20462
| 61>    S       11.66068         5.00242        -2.63953
| 62>    C       10.93731         3.02202        -0.84705
| 63>    C       10.76889         3.91607         0.14523
| 64>    O       10.49859         3.61062         1.44184
| 65>    C       10.35483         2.27358         1.67711
| 66>    C       10.53898         1.30534         0.64333
| 67>    C       10.38344         0.03200         1.07606
| 68>    S       10.00491        -0.01045         2.76034
| 69>    C       10.05459         1.71007         2.87231
| 70>    O       10.83118         1.65278        -0.64291
| 71>    H        6.75995        -4.30775         2.51911
| 72>    H        7.02333        -2.45004         6.97220
| 73>    H        7.00194         1.27522         4.37070
| 74>    H        6.73266        -3.16252         0.35338
| 75>    H        7.75154         0.12308        -3.04045
| 76>    H        6.69848        -3.40641        -1.68166
| 77>    H        7.88601        -1.73109        -3.93812
| 78>    H        7.10165        -4.70506        -3.95521
| 79>    H        7.93580        -5.70537        -6.37953
| 80>    H        9.18892        -4.89220        -8.47970
| 81>    H       10.80941        -3.32675       -10.05191
| 82>    H       12.41737        -1.40776       -10.66629
| 83>    H       13.00858         1.12660        -9.84822
| 84>    H       10.83679         4.97784        -0.02051
| 85>    H       10.46984        -0.86718         0.50244
| 86>    H        9.86955         2.19898         3.80544
| 87> *
| 88>
| 89>                          ****END OF INPUT****

CARTESIAN COORDINATES (ANGSTROEM)
---------------------------------
  C      6.752790   -3.309730    2.917250
  C      6.750420   -2.205990    2.155740
  O      6.734290   -0.929490    2.656440
  C      6.861620   -0.871350    4.023240
  C      6.867770   -2.046170    4.831830
  C      6.993630   -1.763960    6.152200
  S      7.105930   -0.064540    6.423080
  C      6.982850    0.271020    4.738570
  O      6.756880   -3.298480    4.296110
  N      6.762650   -2.244950    0.773940
  C      7.021130   -1.197440   -0.054680
  S      7.219220    0.408880    0.541150
  C      7.587860    0.942080   -1.073240
  N      7.960020    2.264700   -1.222600
  O      8.239020    2.688860   -2.334800
  O      8.014020    2.938010   -0.194650
  C      7.533280   -0.057870   -2.005200
  C      7.198860   -1.307710   -1.445770
  C      7.089430   -2.531910   -2.186710
  C      7.473380   -2.620660   -3.484990
  C      7.467230   -3.755100   -4.319790
  C      7.982080   -3.670750   -5.590730
  C      8.224980   -4.683420   -6.554220
  C      8.891780   -4.254930   -7.665250
  C      9.204780   -2.877250   -7.643490
  S      8.557040   -2.131000   -6.206810
  C     10.003720   -2.087680   -8.448350
  C     10.833680   -2.373210   -9.554010
  C     11.680960   -1.355510   -9.883650
  C     11.580640   -0.216530   -9.040540
  S     10.240950   -0.434320   -7.931810
  C     12.353550    0.915810   -9.014650
  C     12.306920    1.851890   -7.950360
  C     12.048480    1.607450   -6.602220
  C     12.145660    0.338850   -6.009800
  N     12.345770   -0.672310   -5.504110
  C     11.988040    2.797600   -5.829590
  C     12.297090    3.918890   -6.587810
  S     12.597610    3.562460   -8.248550
  S     12.349460    5.406720   -5.693590
  C     11.921110    4.506680   -4.271450
  C     11.729740    3.147660   -4.473650
  C     11.304510    2.495500   -3.280230
  C     10.823850    1.177030   -3.225740
  N     10.352650    0.130870   -3.213920
  C     11.250160    3.365860   -2.204620
  S     11.660680    5.002420   -2.639530
  C     10.937310    3.022020   -0.847050
  C     10.768890    3.916070    0.145230
  O     10.498590    3.610620    1.441840
  C     10.354830    2.273580    1.677110
  C     10.538980    1.305340    0.643330
  C     10.383440    0.032000    1.076060
  S     10.004910   -0.010450    2.760340
  C     10.054590    1.710070    2.872310
  O     10.831180    1.652780   -0.642910
  H      6.759950   -4.307750    2.519110
  H      7.023330   -2.450040    6.972200
  H      7.001940    1.275220    4.370700
  H      6.732660   -3.162520    0.353380
  H      7.751540    0.123080   -3.040450
  H      6.698480   -3.406410   -1.681660
  H      7.886010   -1.731090   -3.938120
  H      7.101650   -4.705060   -3.955210
  H      7.935800   -5.705370   -6.379530
  H      9.188920   -4.892200   -8.479700
  H     10.809410   -3.326750  -10.051910
  H     12.417370   -1.407760  -10.666290
  H     13.008580    1.126600   -9.848220
  H     10.836790    4.977840   -0.020510
  H     10.469840   -0.867180    0.502440
  H      9.869550    2.198980    3.805440

 Total Charge           Charge          ....    0
 Multiplicity           Mult            ....    1
 Number of Electrons    NEL             ....  448
 Basis Dimension        Dim             ....  896

ORBITAL ENERGIES
----------------

  NO   OCC          E(Eh)            E(eV)
   0   2.0000     -88.971841     -2421.0469
   1   2.0000     -88.971809     -2421.0460
   2   2.0000     -88.966213     -2420.8937
   3   2.0000     -88.962713     -2420.7985
   4   2.0000     -88.961826     -2420.7744
   5   2.0000     -88.949749     -2420.4457
   6   2.0000     -88.933663     -2420.0080
   7   2.0000     -88.932086     -2419.9651
   8   2.0000     -19.293002      -524.9893
   9   2.0000     -19.271517      -524.4047
  10   2.0000     -19.270182      -524.3683
  11   2.0000     -19.264574      -524.2157
  12   2.0000     -19.220782      -523.0241
  13   2.0000     -19.219765      -522.9964
  14   2.0000     -14.629402      -398.0863
  15   2.0000     -14.479865      -394.0172
  16   2.0000     -14.381280      -391.3345
  17   2.0000     -14.380305      -391.3080
  18   2.0000     -10.390804      -282.7482
  19   2.0000     -10.358152      -281.8596
  20   2.0000     -10.347742      -281.5764
  21   2.0000     -10.343965      -281.4736
  22   2.0000     -10.339072      -281.3405
  23   2.0000     -10.334915      -281.2273
  24   2.0000     -10.332853      -281.1712
  25   2.0000     -10.331877      -281.1447
  26   2.0000     -10.330560      -281.1088
  27   2.0000     -10.322018      -280.8764
  28   2.0000     -10.321016      -280.8491
  29   2.0000     -10.319908      -280.8190
  30   2.0000     -10.318358      -280.7768
  31   2.0000     -10.313706      -280.6502
  32   2.0000     -10.307857      -280.4910
  33   2.0000     -10.306826      -280.4630
  34   2.0000     -10.303675      -280.3773
  35   2.0000     -10.300642      -280.2947
  36   2.0000     -10.300103      -280.2801
  37   2.0000     -10.299883      -280.2741
  38   2.0000     -10.299339      -280.2593
  39   2.0000     -10.296296      -280.1765
  40   2.0000     -10.291932      -280.0577
  41   2.0000     -10.290932      -280.0305
  42   2.0000     -10.286940      -279.9219
  43   2.0000     -10.286743      -279.9165
  44   2.0000     -10.286698      -279.9153
  45   2.0000     -10.286027      -279.8970
  46   2.0000     -10.285430      -279.8808
  47   2.0000     -10.284250      -279.8487
  48   2.0000     -10.283865      -279.8382
  49   2.0000     -10.283715      -279.8341
  50   2.0000     -10.282289      -279.7953
  51   2.0000     -10.281929      -279.7855
  52   2.0000     -10.278891      -279.7028
  53   2.0000     -10.278823      -279.7010
  54   2.0000     -10.278142      -279.6825
  55   2.0000     -10.270106      -279.4638
  56   2.0000      -8.066961      -219.5132
  57   2.0000      -8.066691      -219.5058
  58   2.0000      -8.061587      -219.3669
  59   2.0000      -8.057630      -219.2592
  60   2.0000      -8.056726      -219.2347
  61   2.0000      -8.044746      -218.9087
  62   2.0000      -8.030083      -218.5097
  63   2.0000      -8.028317      -218.4616
  64   2.0000      -6.036757      -164.2685
  65   2.0000      -6.036697      -164.2669
  66   2.0000      -6.032470      -164.1519
  67   2.0000      -6.032451      -164.1514
  68   2.0000      -6.031247      -164.1186
  69   2.0000      -6.028319      -164.0389
  70   2.0000      -6.027464      -164.0156
  71   2.0000      -6.027116      -164.0062
  72   2.0000      -6.027042      -164.0042
  73   2.0000      -6.026601      -163.9922
  74   2.0000      -6.023011      -163.8945
  75   2.0000      -6.022945      -163.8927
  76   2.0000      -6.021987      -163.8666
  77   2.0000      -6.019326      -163.7942
  78   2.0000      -6.017995      -163.7580
  79   2.0000      -6.014329      -163.6582
  80   2.0000      -6.010159      -163.5447
  81   2.0000      -6.006408      -163.4427
  82   2.0000      -5.999852      -163.2643
  83   2.0000      -5.998172      -163.2185
  84   2.0000      -5.995722      -163.1519
  85   2.0000      -5.993996      -163.1049
  86   2.0000      -5.990900      -163.0207
  87   2.0000      -5.988975      -162.9683
  88   2.0000      -1.296789       -35.2874
  89   2.0000      -1.215779       -33.0830
  90   2.0000      -1.194245       -32.4971
  91   2.0000      -1.169166       -31.8146
  92   2.0000      -1.156955       -31.4824
  93   2.0000      -1.114120       -30.3167
  94   2.0000      -1.078357       -29.3436
  95   2.0000      -1.023777       -27.8584
  96   2.0000      -0.994612       -27.0648
  97   2.0000      -0.990815       -26.9614
  98   2.0000      -0.988504       -26.8986
  99   2.0000      -0.982943       -26.7472
 100   2.0000      -0.975328       -26.5400
 101   2.0000      -0.969750       -26.3882
 102   2.0000      -0.965284       -26.2667
 103   2.0000      -0.958755       -26.0890
 104   2.0000      -0.933488       -25.4015
 105   2.0000      -0.912200       -24.8222
 106   2.0000      -0.893733       -24.3197
 107   2.0000      -0.883588       -24.0437
 108   2.0000      -0.881205       -23.9788
 109   2.0000      -0.870499       -23.6875
 110   2.0000      -0.862360       -23.4660
 111   2.0000      -0.854515       -23.2525
 112   2.0000      -0.850620       -23.1466
 113   2.0000      -0.845002       -22.9937
 114   2.0000      -0.839524       -22.8446
 115   2.0000      -0.829418       -22.5696
 116   2.0000      -0.822047       -22.3690
 117   2.0000      -0.814480       -22.1631
 118   2.0000      -0.811550       -22.0834
 119   2.0000      -0.804350       -21.8875
 120   2.0000      -0.799913       -21.7667
 121   2.0000      -0.789636       -21.4871
 122   2.0000      -0.771755       -21.0005
 123   2.0000      -0.761117       -20.7110
 124   2.0000      -0.742806       -20.2128
 125   2.0000      -0.734536       -19.9877
 126   2.0000      -0.725524       -19.7425
 127   2.0000      -0.705392       -19.1947
 128   2.0000      -0.697923       -18.9914
 129   2.0000      -0.691907       -18.8277
 130   2.0000      -0.685499       -18.6534
 131   2.0000      -0.681504       -18.5447
 132   2.0000      -0.674141       -18.3443
 133   2.0000      -0.667737       -18.1700
 134   2.0000      -0.661658       -18.0046
 135   2.0000      -0.651362       -17.7245
 136   2.0000      -0.648425       -17.6445
 137   2.0000      -0.640549       -17.4302
 138   2.0000      -0.638312       -17.3694
 139   2.0000      -0.626288       -17.0422
 140   2.0000      -0.621726       -16.9180
 141   2.0000      -0.618487       -16.8299
 142   2.0000      -0.615993       -16.7620
 143   2.0000      -0.612995       -16.6804
 144   2.0000      -0.606550       -16.5051
 145   2.0000      -0.603121       -16.4118
 146   2.0000      -0.600573       -16.3424
 147   2.0000      -0.592263       -16.1163
 148   2.0000      -0.587613       -15.9898
 149   2.0000      -0.582013       -15.8374
 150   2.0000      -0.575619       -15.6634
 151   2.0000      -0.568686       -15.4747
 152   2.0000      -0.561773       -15.2866
 153   2.0000      -0.553087       -15.0503
 154   2.0000      -0.551166       -14.9980
 155   2.0000      -0.544941       -14.8286
 156   2.0000      -0.541308       -14.7297
 157   2.0000      -0.530981       -14.4487
 158   2.0000      -0.530540       -14.4367
 159   2.0000      -0.526596       -14.3294
 160   2.0000      -0.524152       -14.2629
 161   2.0000      -0.522172       -14.2090
 162   2.0000      -0.520954       -14.1759
 163   2.0000      -0.519664       -14.1408
 164   2.0000      -0.511383       -13.9154
 165   2.0000      -0.507426       -13.8078
 166   2.0000      -0.502916       -13.6851
 167   2.0000      -0.498432       -13.5630
 168   2.0000      -0.496057       -13.4984
 169   2.0000      -0.495060       -13.4713
 170   2.0000      -0.494619       -13.4593
 171   2.0000      -0.490430       -13.3453
 172   2.0000      -0.490136       -13.3373
 173   2.0000      -0.486593       -13.2409
 174   2.0000      -0.482928       -13.1411
 175   2.0000      -0.479620       -13.0511
 176   2.0000      -0.471791       -12.8381
 177   2.0000      -0.468622       -12.7519
 178   2.0000      -0.466586       -12.6964
 179   2.0000      -0.463633       -12.6161
 180   2.0000      -0.459789       -12.5115
 181   2.0000      -0.457459       -12.4481
 182   2.0000      -0.454010       -12.3542
 183   2.0000      -0.450432       -12.2569
 184   2.0000      -0.449392       -12.2286
 185   2.0000      -0.442259       -12.0345
 186   2.0000      -0.440370       -11.9831
 187   2.0000      -0.436958       -11.8902
 188   2.0000      -0.434393       -11.8204
 189   2.0000      -0.431861       -11.7515
 190   2.0000      -0.427163       -11.6237
 191   2.0000      -0.424078       -11.5398
 192   2.0000      -0.423395       -11.5212
 193   2.0000      -0.420802       -11.4506
 194   2.0000      -0.418389       -11.3850
 195   2.0000      -0.415975       -11.3193
 196   2.0000      -0.410084       -11.1590
 197   2.0000      -0.409937       -11.1549
 198   2.0000      -0.407411       -11.0862
 199   2.0000      -0.405807       -11.0426
 200   2.0000      -0.392554       -10.6819
 201   2.0000      -0.390904       -10.6371
 202   2.0000      -0.380579       -10.3561
 203   2.0000      -0.374405       -10.1881
 204   2.0000      -0.368679       -10.0323
 205   2.0000      -0.367101        -9.9893
 206   2.0000      -0.361508        -9.8371
 207   2.0000      -0.354590        -9.6489
 208   2.0000      -0.349811        -9.5188
 209   2.0000      -0.346518        -9.4292
 210   2.0000      -0.340974        -9.2784
 211   2.0000      -0.335335        -9.1249
 212   2.0000      -0.328556        -8.9405
 213   2.0000      -0.312562        -8.5052
 214   2.0000      -0.308857        -8.4044
 215   2.0000      -0.306581        -8.3425
 216   2.0000      -0.300743        -8.1836
 217   2.0000      -0.293789        -7.9944
 218   2.0000      -0.288247        -7.8436
 219   2.0000      -0.280746        -7.6395
 220   2.0000      -0.266401        -7.2491
 221   2.0000      -0.245578        -6.6825
 222   2.0000      -0.242493        -6.5986
 223   2.0000      -0.206303        -5.6138
 224   0.0000      -0.077458        -2.1077
 225   0.0000      -0.039572        -1.0768
 226   0.0000      -0.023063        -0.6276
 227   0.0000      -0.018867        -0.5134
 228   0.0000       0.017456         0.4750

MULLIKEN ATOMIC CHARGES
-----------------------
   0 C :    0.056477
   1 C :    0.224618
   2 O :   -0.283805
   3 C :    0.243151
   4 C :    0.210600
   5 C :   -0.170262
   6 S :    0.113597
   7 C :   -0.180584
   8 O :   -0.250115
   9 N :   -0.039950
  10 C :   -0.104876
  11 S :    0.183712
  12 C :   -0.027870
  13 N :    0.283114
  14 O :   -0.256639
  15 O :   -0.289596
  16 C :    0.057842
  17 C :    0.110776
  18 C :   -0.039404
  19 C :   -0.007999
  20 C :    0.016384
  21 C :   -0.024674
  22 C :    0.039174
  23 C :    0.030920
  24 C :   -0.018662
  25 S :    0.062206
  26 C :   -0.054267
  27 C :    0.045313
  28 C :    0.035198
  29 C :   -0.031624
  30 S :    0.081352
  31 C :   -0.003046
  32 C :   -0.114113
  33 C :   -0.015604
  34 C :   -0.294391
  35 N :    0.169159
  36 C :    0.114835
  37 C :   -0.235262
  38 S :    0.150010
  39 S :    0.173902
  40 C :   -0.231011
  41 C :    0.146124
  42 C :   -0.031131
  43 C :   -0.260867
  44 N :    0.171700
  45 C :   -0.072297
  46 S :    0.157498
  47 C :    0.161441
  48 C :    0.097765
  49 O :   -0.227298
  50 C :    0.232771
  51 C :    0.222851
  52 C :   -0.176283
  53 S :    0.103311
  54 C :   -0.179209
  55 O :   -0.276909
  56 H :    0.003159
  57 H :    0.028499
  58 H :    0.035279
  59 H :    0.137525
  60 H :    0.014811
  61 H :   -0.045253
  62 H :    0.035574
  63 H :   -0.023053
  64 H :   -0.012793
  65 H :   -0.012905
  66 H :   -0.013093
  67 H :   -0.011869
  68 H :   -0.007483
  69 H :    0.022518
  70 H :    0.032239
  71 H :    0.018794
Sum of atomic charges:    0.0000000

LOEWDIN ATOMIC CHARGES
----------------------
   0 C :   -0.036007
   1 C :    0.050150
   2 O :   -0.066783
   3 C :   -0.007206
   4 C :   -0.001816
   5 C :   -0.209468
   6 S :    0.442322
   7 C :   -0.207190
   8 O :   -0.066914
   9 N :    0.021757
  10 C :   -0.095528
  11 S :    0.489275
  12 C :   -0.224482
  13 N :    0.279886
  14 O :   -0.222766
  15 O :   -0.252057
  16 C :    0.025720
  17 C :   -0.108387
  18 C :   -0.029382
  19 C :   -0.028052
  20 C :   -0.046050
  21 C :   -0.142729
  22 C :   -0.027739
  23 C :   -0.033533
  24 C :   -0.163680
  25 S :    0.397203
  26 C :   -0.186166
  27 C :   -0.018336
  28 C :   -0.043343
  29 C :   -0.118593
  30 S :    0.419688
  31 C :   -0.107334
  32 C :   -0.133222
  33 C :   -0.122928
  34 C :   -0.057080
  35 N :   -0.049737
  36 C :   -0.059690
  37 C :   -0.338268
  38 S :    0.428530
  39 S :    0.414071
  40 C :   -0.333677
  41 C :   -0.058104
  42 C :   -0.095766
  43 C :   -0.022824
  44 N :   -0.062978
  45 C :   -0.127690
  46 S :    0.447112
  47 C :   -0.014475
  48 C :    0.040481
  49 O :   -0.037871
  50 C :   -0.000980
  51 C :   -0.010972
  52 C :   -0.212189
  53 S :    0.435314
  54 C :   -0.212005
  55 O :   -0.049476
  56 H :    0.028946
  57 H :    0.030516
  58 H :    0.031910
  59 H :    0.098334
  60 H :    0.043398
  61 H :    0.016191
  62 H :    0.023841
  63 H :    0.029040
  64 H :    0.032686
  65 H :    0.032235
  66 H :    0.032781
  67 H :    0.032323
  68 H :    0.032473
  69 H :    0.029868
  70 H :    0.031318
  71 H :    0.026098

  Mayer bond orders larger than 0.100000
B(  0-C ,  1-C ) :   1.6888 B(  0-C ,  8-O ) :   1.0227 B(  0-C , 56-H ) :   0.9873
B(  1-C ,  2-O ) :   1.0410 B(  1-C ,  9-N ) :   1.0890 B(  2-O ,  3-C ) :   0.9951
B(  3-C ,  4-C ) :   1.2077 B(  3-C ,  7-C ) :   1.5788 B(  4-C ,  5-C ) :   1.5762
B(  4-C ,  8-O ) :   1.0758 B(  5-C ,  6-S ) :   1.1411 B(  5-C , 57-H ) :   0.9727
B(  6-S ,  7-C ) :   1.1455 B(  7-C , 58-H ) :   0.9721 B(  9-N , 10-C ) :   1.2078
B(  9-N , 59-H ) :   0.9058 B( 10-C , 11-S ) :   1.1639 B( 10-C , 17-C ) :   1.3314
B( 11-S , 12-C ) :   1.0395 B( 12-C , 13-N ) :   1.0111 B( 12-C , 16-C ) :   1.4785
B( 13-N , 14-O ) :   1.5048 B( 13-N , 15-O ) :   1.4593 B( 14-O , 15-O ) :   0.2272
B( 16-C , 17-C ) :   1.2550 B( 16-C , 60-H ) :   0.9839 B( 17-C , 18-C ) :   1.0631
B( 18-C , 19-C ) :   1.6898 B( 18-C , 61-H ) :   0.9744 B( 19-C , 20-C ) :   1.1398
B( 19-C , 62-H ) :   0.9574 B( 20-C , 21-C ) :   1.5714 B( 20-C , 63-H ) :   0.9871
B( 21-C , 22-C ) :   1.1354 B( 21-C , 25-S ) :   1.0419 B( 22-C , 23-C ) :   1.5960
B( 22-C , 64-H ) :   0.9973 B( 23-C , 24-C ) :   1.1854 B( 23-C , 65-H ) :   0.9951
B( 24-C , 25-S ) :   1.0750 B( 24-C , 26-C ) :   1.4860 B( 26-C , 27-C ) :   1.1943
B( 26-C , 30-S ) :   1.0486 B( 27-C , 28-C ) :   1.5939 B( 27-C , 66-H ) :   0.9930
B( 28-C , 29-C ) :   1.1435 B( 28-C , 67-H ) :   0.9959 B( 29-C , 30-S ) :   1.0669
B( 29-C , 31-C ) :   1.5942 B( 31-C , 32-C ) :   1.1498 B( 31-C , 68-H ) :   0.9510
B( 32-C , 33-C ) :   1.4589 B( 32-C , 38-S ) :   1.1136 B( 33-C , 34-C ) :   1.1300
B( 33-C , 36-C ) :   1.2561 B( 34-C , 35-N ) :   3.0117 B( 36-C , 37-C ) :   1.4221
B( 36-C , 41-C ) :   1.0944 B( 37-C , 38-S ) :   1.0778 B( 37-C , 39-S ) :   1.0818
B( 39-S , 40-C ) :   1.0800 B( 40-C , 41-C ) :   1.4325 B( 40-C , 46-S ) :   1.0799
B( 41-C , 42-C ) :   1.2346 B( 42-C , 43-C ) :   1.1725 B( 42-C , 45-C ) :   1.5261
B( 43-C , 44-N ) :   2.9591 B( 45-C , 46-S ) :   1.1385 B( 45-C , 47-C ) :   1.1112
B( 47-C , 48-C ) :   1.6550 B( 47-C , 55-O ) :   1.0563 B( 48-C , 49-O ) :   1.0751
B( 48-C , 69-H ) :   0.9800 B( 49-O , 50-C ) :   1.0600 B( 50-C , 51-C ) :   1.1914
B( 50-C , 54-C ) :   1.5781 B( 51-C , 52-C ) :   1.5835 B( 51-C , 55-O ) :   1.0375
B( 52-C , 53-S ) :   1.1315 B( 52-C , 70-H ) :   0.9674 B( 53-S , 54-C ) :   1.1358
B( 54-C , 71-H ) :   0.9715

-----------------------------------------------------------------------------
         ABSORPTION SPECTRUM VIA TRANSITION ELECTRIC DIPOLE MOMENTS
-----------------------------------------------------------------------------
State   Energy  Wavelength   fosc         T2         TX        TY        TZ
        (cm-1)    (nm)                  (au**2)     (au)      (au)      (au)
-----------------------------------------------------------------------------
   0   13404.4    746.0   0.632233731  15.52764   2.41978   1.81218  -2.52751
   1   21263.9    470.3   0.115516046   1.78844  -0.50939  -1.15125   0.45119
   2   22172.3    451.0   0.209822390   3.11542   0.43416   1.52328   0.77881
   3   22469.7    445.0   0.011678146   0.17110   0.21717  -0.30013  -0.18401
   4   23794.6    420.3   0.013755997   0.19032   0.13977  -0.38866  -0.14047
   5   24274.2    412.0   0.567740276   7.69981  -0.09371  -1.10167  -2.54506
   6   25575.0    391.0   0.003618130   0.04657  -0.06314   0.04584   0.20121
   7   27203.3    367.6   0.410078003   4.96273   0.33375  -0.98303  -1.97104
   8   28075.1    356.2   0.352949476   4.13873  -0.44127  -1.60007   1.17635
   9   29172.6    342.8   0.434940146   4.90828  -0.41017   0.17437   2.17017
  10   29449.5    339.6   0.012266506   0.13713  -0.23736  -0.25800   0.11925
  11   30016.6    333.1   0.149008021   1.63427  -0.03092   0.89639   0.91094
  12   30800.1    324.7   0.009808068   0.10484  -0.04288  -0.31162   0.07676
  13   32400.1    308.6   0.020425553   0.20754   0.14752   0.31948  -0.28933
  14   32817.2    304.7   0.015105557   0.15153  -0.06550   0.28216   0.26006
  15   32953.7    303.5   0.042129633   0.42088   0.09238   0.44177   0.46603
  16   33026.3    302.8   0.036937012   0.36819  -0.38680  -0.46218   0.07049
  17   33334.1    300.0   0.036505478   0.36053   0.32736   0.32723   0.38248
  18   33455.6    298.9   0.005071969   0.04991  -0.05792  -0.18651  -0.10849
  19   34163.9    292.7   0.008894180   0.08571  -0.16523  -0.17454  -0.16716
  20   34252.8    291.9   0.005027672   0.04832   0.04986  -0.03084  -0.21186
  21   34882.0    286.7   0.004756464   0.04489   0.18648  -0.09629  -0.02905
  22   35289.4    283.4   0.020218248   0.18861  -0.09034  -0.39131  -0.16532
  23   35527.7    281.5   0.043746671   0.40537  -0.26710   0.03923   0.57662
  24   36175.6    276.4   0.058983001   0.53677  -0.16316   0.07082   0.71073
  25   36689.8    272.6   0.002319769   0.02081   0.00652   0.06302   0.12962
  26   37144.6    269.2   0.172389541   1.52789   0.25892   0.34935  -1.15706
  27   37306.6    268.0   0.154234565   1.36104  -0.39965  -0.75890   0.79082
  28   37535.0    266.4   0.052507733   0.46053   0.01784  -0.42410  -0.52949
  29   37676.2    265.4   0.160194278   1.39977   0.49162   1.04325   0.26403
  30   38197.9    261.8   0.078717777   0.67844  -0.06937   0.01143   0.82067
  31   38459.5    260.0   0.053843127   0.46090  -0.11167  -0.15821   0.65069
  32   38545.2    259.4   0.021916811   0.18719   0.08522   0.26003  -0.33513
  33   39299.1    254.5   0.016540192   0.13856  -0.03047  -0.12330  -0.34990
  34   39474.6    253.3   0.032637763   0.27219  -0.19272  -0.38400   0.29597
  35   39705.9    251.9   0.012506761   0.10370   0.03826   0.26247   0.18260
  36   39889.5    250.7   0.040920473   0.33772  -0.10992   0.20504   0.53254
  37   40099.2    249.4   0.060085909   0.49330  -0.17282  -0.66067   0.16415
  38   40235.8    248.5   0.003096266   0.02533   0.04329   0.02178   0.15161

FINAL SINGLE POINT ENERGY     -5309.653290912547

DIPOLE MOMENT
-------------
                                X             Y             Z
Electronic contribution:     10.17565      30.29679       1.84606
Nuclear contribution   :    -10.81081     -31.74368      -1.72591
                        -----------------------------------------
Total Dipole Moment    :     -0.63517      -1.44689       0.12014
                        -----------------------------------------
Magnitude (a.u.)       :      1.58473
Magnitude (Debye)      :      4.02806

Rotational constants in cm-1:     0.002110     0.000821     0.000624
Rotational constants in MHz :    63.261733    24.613189    18.700733

                             ****ORCA TERMINATED NORMALLY****
TOTAL RUN TIME: 0 days 0 hours 6 minutes 53 seconds 820 msec
