                         Program Version 4.2.0 -  RELEASE  -
|  1> # ORCA input file
|  2> # SCF done       -155.432503121214          0.000495733347
|  3> ! CAM-B3LYP def2-SVP def2/J RIJCOSX Grid4 TightSCF
|  4> %maxcore 5000
|  5> %tddft
|  6>     Mode sTDDFT
|  7>     Ethresh 5.0
|  8>     maxcore 5000
|  9> end
| 10>
| 11> %pal
| 12>   nprocs 6
| 13>   end
| 14> * xyz 0 1
| 15>    C       -0.16463         0.73798         0.12287
| 16>    O       -0.37996        -0.57431         0.26589
| 17>    C       -0.19646        -1.16343        -0.94276
| 18>    C        0.14070        -0.20936        -1.87360
| 19>    C        0.16205         1.02271        -1.17273
| 20>    C        0.45982         2.35858        -1.74418
| 21>    F        0.71544         3.27596        -0.79611
| 22>    F        1.52418         2.34679        -2.56383
| 23>    F       -0.56219         2.85037        -2.47367
| 24>    C       -0.35207        -2.57960        -1.09253
| 25>    C       -0.68528        -3.37071        -0.05360
| 26>    N       -0.89555        -4.71512        -0.07339
| 27>    C       -0.99482        -5.45435         1.09671
| 28>    C       -0.68858        -5.03180         2.35860
| 29>    S       -0.89074        -6.27127         3.52997
| 30>    C       -1.38692        -7.38993         2.32244
| 31>    C       -1.40503        -6.83193         1.08033
| 32>    N       -1.72911        -7.44695        -0.12593
| 33>    C       -2.04256        -6.52637        -1.20304
| 34>    C       -0.94156        -5.47459        -1.30388
| 35>    C       -2.06682        -8.77242        -0.21249
| 36>    O       -2.66982        -9.36949         0.83274
| 37>    C       -2.87997       -10.68151         0.51625
| 38>    C       -2.42304       -10.92068        -0.75199
| 39>    C       -1.88550        -9.69192        -1.22502
| 40>    C       -1.22072        -9.50177        -2.53149
| 41>    F       -0.17567        -8.64908        -2.47113
| 42>    F       -0.75180       -10.64568        -3.03861
| 43>    F       -2.03941        -8.98376        -3.48335
| 44>    C       -3.46926       -11.55153         1.48801
| 45>    C       -3.85270       -11.09189         2.69579
| 46>    N       -4.44036       -11.79336         3.70460
| 47>    C       -4.57500       -11.25888         4.97763
| 48>    C       -3.99402       -10.11626         5.45007
| 49>    S       -4.37058        -9.82480         7.10018
| 50>    C       -5.32142       -11.25287         7.18100
| 51>    C       -5.34917       -11.91891         5.99374
| 52>    N       -5.99570       -13.11963         5.69931
| 53>    C       -6.21030       -13.33960         4.28176
| 54>    C       -4.89272       -13.15627         3.53368
| 55>    C       -6.58111       -13.91132         6.64424
| 56>    O       -7.06843       -13.35333         7.76201
| 57>    C       -7.58845       -14.34295         8.54733
| 58>    C       -7.43858       -15.54650         7.91628
| 59>    C       -6.77930       -15.28182         6.68743
| 60>    C       -6.34408       -16.32159         5.72976
| 61>    F       -5.14005       -16.05787         5.17714
| 62>    F       -6.24594       -17.52539         6.30011
| 63>    F       -7.18620       -16.47888         4.67682
| 64>    C       -8.16475       -14.02374         9.82588
| 65>    C       -8.26653       -12.79280        10.31976
| 66>    H       -0.26233         1.36578         0.98544
| 67>    H        0.35134        -0.35653        -2.91172
| 68>    H       -0.17057        -2.95379        -2.08614
| 69>    H       -0.82171        -2.91323         0.91456
| 70>    H       -0.33747        -4.07377         2.68036
| 71>    H       -1.61440        -8.39536         2.60478
| 72>    H       -3.00095        -6.02787        -0.99772
| 73>    H       -2.13270        -7.06549        -2.14230
| 74>    H       -1.16462        -4.80154        -2.13081
| 75>    H        0.01816        -5.97088        -1.49164
| 76>    H       -2.44033       -11.84592        -1.28806
| 77>    H       -3.56317       -12.58052         1.18493
| 78>    H       -3.70323       -10.04586         2.91496
| 79>    H       -3.35060        -9.42661         4.94508
| 80>    H       -5.78877       -11.51635         8.10519
| 81>    H       -6.93921       -12.60614         3.90947
| 82>    H       -6.61031       -14.33351         4.10654
| 83>    H       -5.05242       -13.34818         2.47314
| 84>    H       -4.15121       -13.86626         3.91928
| 85>    H       -7.73804       -16.51009         8.27242
| 86>    H       -8.52573       -14.88044        10.37621
| 87>    H       -7.91621       -11.93570         9.77062
| 88>    H       -8.70613       -12.60742        11.28297
| 89> *
| 90>
| 91>                          ****END OF INPUT****

CARTESIAN COORDINATES (ANGSTROEM)
---------------------------------
  C     -0.164630    0.737980    0.122870
  O     -0.379960   -0.574310    0.265890
  C     -0.196460   -1.163430   -0.942760
  C      0.140700   -0.209360   -1.873600
  C      0.162050    1.022710   -1.172730
  C      0.459820    2.358580   -1.744180
  F      0.715440    3.275960   -0.796110
  F      1.524180    2.346790   -2.563830
  F     -0.562190    2.850370   -2.473670
  C     -0.352070   -2.579600   -1.092530
  C     -0.685280   -3.370710   -0.053600
  N     -0.895550   -4.715120   -0.073390
  C     -0.994820   -5.454350    1.096710
  C     -0.688580   -5.031800    2.358600
  S     -0.890740   -6.271270    3.529970
  C     -1.386920   -7.389930    2.322440
  C     -1.405030   -6.831930    1.080330
  N     -1.729110   -7.446950   -0.125930
  C     -2.042560   -6.526370   -1.203040
  C     -0.941560   -5.474590   -1.303880
  C     -2.066820   -8.772420   -0.212490
  O     -2.669820   -9.369490    0.832740
  C     -2.879970  -10.681510    0.516250
  C     -2.423040  -10.920680   -0.751990
  C     -1.885500   -9.691920   -1.225020
  C     -1.220720   -9.501770   -2.531490
  F     -0.175670   -8.649080   -2.471130
  F     -0.751800  -10.645680   -3.038610
  F     -2.039410   -8.983760   -3.483350
  C     -3.469260  -11.551530    1.488010
  C     -3.852700  -11.091890    2.695790
  N     -4.440360  -11.793360    3.704600
  C     -4.575000  -11.258880    4.977630
  C     -3.994020  -10.116260    5.450070
  S     -4.370580   -9.824800    7.100180
  C     -5.321420  -11.252870    7.181000
  C     -5.349170  -11.918910    5.993740
  N     -5.995700  -13.119630    5.699310
  C     -6.210300  -13.339600    4.281760
  C     -4.892720  -13.156270    3.533680
  C     -6.581110  -13.911320    6.644240
  O     -7.068430  -13.353330    7.762010
  C     -7.588450  -14.342950    8.547330
  C     -7.438580  -15.546500    7.916280
  C     -6.779300  -15.281820    6.687430
  C     -6.344080  -16.321590    5.729760
  F     -5.140050  -16.057870    5.177140
  F     -6.245940  -17.525390    6.300110
  F     -7.186200  -16.478880    4.676820
  C     -8.164750  -14.023740    9.825880
  C     -8.266530  -12.792800   10.319760
  H     -0.262330    1.365780    0.985440
  H      0.351340   -0.356530   -2.911720
  H     -0.170570   -2.953790   -2.086140
  H     -0.821710   -2.913230    0.914560
  H     -0.337470   -4.073770    2.680360
  H     -1.614400   -8.395360    2.604780
  H     -3.000950   -6.027870   -0.997720
  H     -2.132700   -7.065490   -2.142300
  H     -1.164620   -4.801540   -2.130810
  H      0.018160   -5.970880   -1.491640
  H     -2.440330  -11.845920   -1.288060
  H     -3.563170  -12.580520    1.184930
  H     -3.703230  -10.045860    2.914960
  H     -3.350600   -9.426610    4.945080
  H     -5.788770  -11.516350    8.105190
  H     -6.939210  -12.606140    3.909470
  H     -6.610310  -14.333510    4.106540
  H     -5.052420  -13.348180    2.473140
  H     -4.151210  -13.866260    3.919280
  H     -7.738040  -16.510090    8.272420
  H     -8.525730  -14.880440   10.376210
  H     -7.916210  -11.935700    9.770620
  H     -8.706130  -12.607420   11.282970

 Total Charge           Charge          ....    0
 Multiplicity           Mult            ....    1
 Number of Electrons    NEL             ....  386
 Basis Dimension        Dim             ....  837

ORBITAL ENERGIES
----------------

  NO   OCC          E(Eh)            E(eV)
   0   2.0000     -88.950179     -2420.4574
   1   2.0000     -88.947829     -2420.3935
   2   2.0000     -24.804041      -674.9523
   3   2.0000     -24.802045      -674.8980
   4   2.0000     -24.797999      -674.7879
   5   2.0000     -24.797633      -674.7779
   6   2.0000     -24.795813      -674.7284
   7   2.0000     -24.791788      -674.6188
   8   2.0000     -24.785379      -674.4444
   9   2.0000     -24.782785      -674.3739
  10   2.0000     -24.778268      -674.2510
  11   2.0000     -19.305499      -525.3293
  12   2.0000     -19.297877      -525.1219
  13   2.0000     -19.290716      -524.9271
  14   2.0000     -14.463512      -393.5722
  15   2.0000     -14.456147      -393.3718
  16   2.0000     -14.455545      -393.3554
  17   2.0000     -14.453417      -393.2975
  18   2.0000     -10.522965      -286.3444
  19   2.0000     -10.516674      -286.1733
  20   2.0000     -10.504631      -285.8455
  21   2.0000     -10.390073      -282.7283
  22   2.0000     -10.377518      -282.3866
  23   2.0000     -10.332708      -281.1673
  24   2.0000     -10.330532      -281.1081
  25   2.0000     -10.327945      -281.0377
  26   2.0000     -10.327067      -281.0138
  27   2.0000     -10.324914      -280.9552
  28   2.0000     -10.320638      -280.8388
  29   2.0000     -10.320498      -280.8350
  30   2.0000     -10.319826      -280.8168
  31   2.0000     -10.319671      -280.8125
  32   2.0000     -10.317295      -280.7479
  33   2.0000     -10.317121      -280.7431
  34   2.0000     -10.317118      -280.7431
  35   2.0000     -10.316428      -280.7243
  36   2.0000     -10.314803      -280.6801
  37   2.0000     -10.289138      -279.9817
  38   2.0000     -10.286323      -279.9051
  39   2.0000     -10.285993      -279.8961
  40   2.0000     -10.285967      -279.8954
  41   2.0000     -10.285667      -279.8872
  42   2.0000     -10.284066      -279.8437
  43   2.0000     -10.282961      -279.8136
  44   2.0000     -10.282619      -279.8043
  45   2.0000     -10.278627      -279.6957
  46   2.0000     -10.272730      -279.5352
  47   2.0000     -10.271328      -279.4970
  48   2.0000     -10.269704      -279.4528
  49   2.0000     -10.266498      -279.3656
  50   2.0000     -10.265199      -279.3303
  51   2.0000      -8.046154      -218.9470
  52   2.0000      -8.043803      -218.8830
  53   2.0000      -6.015613      -163.6931
  54   2.0000      -6.013259      -163.6291
  55   2.0000      -6.011330      -163.5766
  56   2.0000      -6.009024      -163.5139
  57   2.0000      -6.008079      -163.4881
  58   2.0000      -6.005704      -163.4235
  59   2.0000      -1.389985       -37.8234
  60   2.0000      -1.383736       -37.6534
  61   2.0000      -1.371613       -37.3235
  62   2.0000      -1.295572       -35.2543
  63   2.0000      -1.289399       -35.0863
  64   2.0000      -1.287503       -35.0347
  65   2.0000      -1.281309       -34.8662
  66   2.0000      -1.276286       -34.7295
  67   2.0000      -1.270815       -34.5806
  68   2.0000      -1.229651       -33.4605
  69   2.0000      -1.221120       -33.2284
  70   2.0000      -1.209850       -32.9217
  71   2.0000      -1.094234       -29.7756
  72   2.0000      -1.089466       -29.6459
  73   2.0000      -1.054482       -28.6939
  74   2.0000      -1.049188       -28.5499
  75   2.0000      -0.973029       -26.4775
  76   2.0000      -0.969780       -26.3891
  77   2.0000      -0.925445       -25.1826
  78   2.0000      -0.917381       -24.9632
  79   2.0000      -0.909814       -24.7573
  80   2.0000      -0.908098       -24.7106
  81   2.0000      -0.901749       -24.5378
  82   2.0000      -0.892854       -24.2958
  83   2.0000      -0.871216       -23.7070
  84   2.0000      -0.863568       -23.4989
  85   2.0000      -0.848529       -23.0897
  86   2.0000      -0.838307       -22.8115
  87   2.0000      -0.826581       -22.4924
  88   2.0000      -0.820110       -22.3163
  89   2.0000      -0.817476       -22.2446
  90   2.0000      -0.804994       -21.9050
  91   2.0000      -0.797817       -21.7097
  92   2.0000      -0.786334       -21.3972
  93   2.0000      -0.777385       -21.1537
  94   2.0000      -0.763901       -20.7868
  95   2.0000      -0.744725       -20.2650
  96   2.0000      -0.737119       -20.0580
  97   2.0000      -0.719547       -19.5799
  98   2.0000      -0.718079       -19.5399
  99   2.0000      -0.715357       -19.4658
 100   2.0000      -0.713920       -19.4268
 101   2.0000      -0.707539       -19.2531
 102   2.0000      -0.703898       -19.1540
 103   2.0000      -0.696908       -18.9638
 104   2.0000      -0.688417       -18.7328
 105   2.0000      -0.678742       -18.4695
 106   2.0000      -0.674111       -18.3435
 107   2.0000      -0.673243       -18.3199
 108   2.0000      -0.671642       -18.2763
 109   2.0000      -0.666794       -18.1444
 110   2.0000      -0.665239       -18.1021
 111   2.0000      -0.662634       -18.0312
 112   2.0000      -0.654691       -17.8151
 113   2.0000      -0.648801       -17.6548
 114   2.0000      -0.643039       -17.4980
 115   2.0000      -0.640158       -17.4196
 116   2.0000      -0.632533       -17.2121
 117   2.0000      -0.628225       -17.0949
 118   2.0000      -0.610785       -16.6203
 119   2.0000      -0.602703       -16.4004
 120   2.0000      -0.600480       -16.3399
 121   2.0000      -0.594919       -16.1886
 122   2.0000      -0.589852       -16.0507
 123   2.0000      -0.588415       -16.0116
 124   2.0000      -0.578088       -15.7306
 125   2.0000      -0.572043       -15.5661
 126   2.0000      -0.570705       -15.5297
 127   2.0000      -0.568684       -15.4747
 128   2.0000      -0.565745       -15.3947
 129   2.0000      -0.562605       -15.3093
 130   2.0000      -0.561839       -15.2884
 131   2.0000      -0.552858       -15.0440
 132   2.0000      -0.552319       -15.0294
 133   2.0000      -0.548923       -14.9369
 134   2.0000      -0.548378       -14.9221
 135   2.0000      -0.545081       -14.8324
 136   2.0000      -0.542866       -14.7721
 137   2.0000      -0.534363       -14.5408
 138   2.0000      -0.533709       -14.5230
 139   2.0000      -0.531355       -14.4589
 140   2.0000      -0.529393       -14.4055
 141   2.0000      -0.522600       -14.2207
 142   2.0000      -0.521056       -14.1786
 143   2.0000      -0.516430       -14.0528
 144   2.0000      -0.512483       -13.9454
 145   2.0000      -0.511232       -13.9113
 146   2.0000      -0.508590       -13.8394
 147   2.0000      -0.507626       -13.8132
 148   2.0000      -0.506393       -13.7797
 149   2.0000      -0.501911       -13.6577
 150   2.0000      -0.500904       -13.6303
 151   2.0000      -0.497872       -13.5478
 152   2.0000      -0.493410       -13.4264
 153   2.0000      -0.492260       -13.3951
 154   2.0000      -0.489568       -13.3218
 155   2.0000      -0.487719       -13.2715
 156   2.0000      -0.485539       -13.2122
 157   2.0000      -0.484982       -13.1970
 158   2.0000      -0.481822       -13.1110
 159   2.0000      -0.480185       -13.0665
 160   2.0000      -0.479280       -13.0419
 161   2.0000      -0.474247       -12.9049
 162   2.0000      -0.472686       -12.8624
 163   2.0000      -0.468218       -12.7408
 164   2.0000      -0.468159       -12.7393
 165   2.0000      -0.466529       -12.6949
 166   2.0000      -0.462479       -12.5847
 167   2.0000      -0.458007       -12.4630
 168   2.0000      -0.456524       -12.4227
 169   2.0000      -0.453720       -12.3463
 170   2.0000      -0.452110       -12.3025
 171   2.0000      -0.449307       -12.2263
 172   2.0000      -0.446552       -12.1513
 173   2.0000      -0.445145       -12.1130
 174   2.0000      -0.427025       -11.6199
 175   2.0000      -0.425067       -11.5667
 176   2.0000      -0.422759       -11.5039
 177   2.0000      -0.422103       -11.4860
 178   2.0000      -0.411696       -11.2028
 179   2.0000      -0.398445       -10.8422
 180   2.0000      -0.386412       -10.5148
 181   2.0000      -0.373263       -10.1570
 182   2.0000      -0.366989        -9.9863
 183   2.0000      -0.366589        -9.9754
 184   2.0000      -0.357039        -9.7155
 185   2.0000      -0.354612        -9.6495
 186   2.0000      -0.308186        -8.3862
 187   2.0000      -0.302853        -8.2411
 188   2.0000      -0.298502        -8.1227
 189   2.0000      -0.274365        -7.4658
 190   2.0000      -0.255367        -6.9489
 191   2.0000      -0.239135        -6.5072
 192   2.0000      -0.228096        -6.2068
 193   0.0000      -0.004554        -0.1239
 194   0.0000      -0.000594        -0.0162
 195   0.0000       0.004595         0.1250
 196   0.0000       0.027661         0.7527
 197   0.0000       0.039665         1.0793

MULLIKEN ATOMIC CHARGES
-----------------------
   0 C :    0.100696
   1 O :   -0.197107
   2 C :    0.166288
   3 C :   -0.075407
   4 C :   -0.098818
   5 C :    0.522663
   6 F :   -0.167193
   7 F :   -0.167059
   8 F :   -0.169685
   9 C :   -0.070026
  10 C :    0.109358
  11 N :   -0.205646
  12 C :    0.170478
  13 C :   -0.221954
  14 S :    0.109144
  15 C :   -0.203984
  16 C :    0.182217
  17 N :   -0.225445
  18 C :    0.138946
  19 C :    0.158342
  20 C :    0.186969
  21 O :   -0.224991
  22 C :    0.188470
  23 C :   -0.084416
  24 C :   -0.154721
  25 C :    0.525864
  26 F :   -0.171978
  27 F :   -0.151608
  28 F :   -0.177742
  29 C :   -0.074023
  30 C :    0.099184
  31 N :   -0.205743
  32 C :    0.176019
  33 C :   -0.224127
  34 S :    0.118525
  35 C :   -0.198167
  36 C :    0.176828
  37 N :   -0.218688
  38 C :    0.133100
  39 C :    0.157697
  40 C :    0.201495
  41 O :   -0.212328
  42 C :    0.157182
  43 C :   -0.061151
  44 C :   -0.172757
  45 C :    0.530440
  46 F :   -0.171629
  47 F :   -0.150492
  48 F :   -0.175001
  49 C :   -0.015300
  50 C :   -0.013369
  51 H :    0.015727
  52 H :   -0.013204
  53 H :   -0.011467
  54 H :    0.016609
  55 H :    0.016434
  56 H :    0.012888
  57 H :    0.024545
  58 H :    0.032668
  59 H :    0.031584
  60 H :    0.033230
  61 H :   -0.014710
  62 H :   -0.011678
  63 H :    0.017719
  64 H :    0.010800
  65 H :    0.018249
  66 H :    0.030587
  67 H :    0.033736
  68 H :    0.031715
  69 H :    0.033063
  70 H :   -0.006590
  71 H :   -0.002481
  72 H :    0.026111
  73 H :    0.025119
Sum of atomic charges:   -0.0000000

LOEWDIN ATOMIC CHARGES
----------------------
   0 C :    0.044364
   1 O :    0.016929
   2 C :    0.044090
   3 C :   -0.074427
   4 C :   -0.131492
   5 C :    0.169012
   6 F :   -0.065660
   7 F :   -0.064994
   8 F :   -0.072329
   9 C :   -0.122770
  10 C :    0.048129
  11 N :   -0.010261
  12 C :   -0.023197
  13 C :   -0.234667
  14 S :    0.431367
  15 C :   -0.231896
  16 C :   -0.022579
  17 N :   -0.037112
  18 C :    0.048581
  19 C :    0.048901
  20 C :    0.083689
  21 O :    0.008010
  22 C :    0.036835
  23 C :   -0.064287
  24 C :   -0.164178
  25 C :    0.172587
  26 F :   -0.070491
  27 F :   -0.049779
  28 F :   -0.080535
  29 C :   -0.119415
  30 C :    0.039876
  31 N :   -0.011539
  32 C :   -0.022593
  33 C :   -0.237151
  34 S :    0.439407
  35 C :   -0.222931
  36 C :   -0.026510
  37 N :   -0.030701
  38 C :    0.048873
  39 C :    0.047954
  40 C :    0.097823
  41 O :    0.018713
  42 C :    0.017104
  43 C :   -0.035992
  44 C :   -0.174966
  45 C :    0.171754
  46 F :   -0.070124
  47 F :   -0.048197
  48 F :   -0.078497
  49 C :   -0.036103
  50 C :   -0.045573
  51 H :    0.026954
  52 H :    0.031679
  53 H :    0.031075
  54 H :    0.031484
  55 H :    0.021008
  56 H :    0.015479
  57 H :    0.024049
  58 H :    0.027887
  59 H :    0.034684
  60 H :    0.027733
  61 H :    0.032370
  62 H :    0.031568
  63 H :    0.030096
  64 H :    0.018973
  65 H :    0.019250
  66 H :    0.027405
  67 H :    0.027815
  68 H :    0.034509
  69 H :    0.026654
  70 H :    0.036116
  71 H :    0.039064
  72 H :    0.023747
  73 H :    0.027351

  Mayer bond orders larger than 0.100000
B(  0-C ,  1-O ) :   1.1483 B(  0-C ,  4-C ) :   1.5581 B(  0-C , 51-H ) :   1.0091
B(  1-O ,  2-C ) :   1.1405 B(  2-C ,  3-C ) :   1.5003 B(  2-C ,  9-C ) :   1.1384
B(  3-C ,  4-C ) :   1.2090 B(  3-C , 52-H ) :   1.0177 B(  4-C ,  5-C ) :   0.9631
B(  5-C ,  6-F ) :   1.1705 B(  5-C ,  7-F ) :   1.1742 B(  5-C ,  8-F ) :   1.1807
B(  9-C , 10-C ) :   1.6525 B(  9-C , 53-H ) :   0.9565 B( 10-C , 11-N ) :   1.1338
B( 10-C , 54-H ) :   0.9631 B( 11-N , 12-C ) :   1.0566 B( 11-N , 19-C ) :   0.9663
B( 12-C , 13-C ) :   1.5164 B( 12-C , 16-C ) :   1.2435 B( 13-C , 14-S ) :   1.1426
B( 13-C , 55-H ) :   0.9766 B( 14-S , 15-C ) :   1.1399 B( 15-C , 16-C ) :   1.5363
B( 15-C , 56-H ) :   0.9686 B( 16-C , 17-N ) :   1.0308 B( 17-N , 18-C ) :   0.9513
B( 17-N , 20-C ) :   1.1415 B( 18-C , 19-C ) :   1.0832 B( 18-C , 57-H ) :   0.9387
B( 18-C , 58-H ) :   0.9320 B( 19-C , 59-H ) :   0.9344 B( 19-C , 60-H ) :   0.9415
B( 20-C , 21-O ) :   1.1455 B( 20-C , 24-C ) :   1.5371 B( 21-O , 22-C ) :   1.0804
B( 22-C , 23-C ) :   1.5063 B( 22-C , 29-C ) :   1.1428 B( 23-C , 24-C ) :   1.1762
B( 23-C , 61-H ) :   1.0236 B( 24-C , 25-C ) :   0.9570 B( 25-C , 26-F ) :   1.1519
B( 25-C , 27-F ) :   1.1882 B( 25-C , 28-F ) :   1.1238 B( 29-C , 30-C ) :   1.6485
B( 29-C , 62-H ) :   0.9570 B( 30-C , 31-N ) :   1.1312 B( 30-C , 63-H ) :   0.9627
B( 31-N , 32-C ) :   1.0597 B( 31-N , 39-C ) :   0.9663 B( 32-C , 33-C ) :   1.5123
B( 32-C , 36-C ) :   1.2424 B( 33-C , 34-S ) :   1.1434 B( 33-C , 64-H ) :   0.9781
B( 34-S , 35-C ) :   1.1498 B( 35-C , 36-C ) :   1.5366 B( 35-C , 65-H ) :   0.9726
B( 36-C , 37-N ) :   1.0157 B( 37-N , 38-C ) :   0.9520 B( 37-N , 40-C ) :   1.1601
B( 38-C , 39-C ) :   1.0815 B( 38-C , 66-H ) :   0.9394 B( 38-C , 67-H ) :   0.9308
B( 39-C , 68-H ) :   0.9350 B( 39-C , 69-H ) :   0.9412 B( 40-C , 41-O ) :   1.1710
B( 40-C , 44-C ) :   1.5010 B( 41-O , 42-C ) :   1.0755 B( 42-C , 43-C ) :   1.5091
B( 42-C , 49-C ) :   1.1190 B( 43-C , 44-C ) :   1.1995 B( 43-C , 70-H ) :   1.0227
B( 44-C , 45-C ) :   0.9605 B( 45-C , 46-F ) :   1.1487 B( 45-C , 47-F ) :   1.1867
B( 45-C , 48-F ) :   1.1213 B( 49-C , 50-C ) :   1.9208 B( 49-C , 71-H ) :   0.9578
B( 50-C , 72-H ) :   0.9596 B( 50-C , 73-H ) :   0.9457

-----------------------------------------------------------------------------
         ABSORPTION SPECTRUM VIA TRANSITION ELECTRIC DIPOLE MOMENTS
-----------------------------------------------------------------------------
State   Energy  Wavelength   fosc         T2         TX        TY        TZ
        (cm-1)    (nm)                  (au**2)     (au)      (au)      (au)
-----------------------------------------------------------------------------
   0   31640.5    316.1   0.434983342   4.52589  -1.02854  -1.05851   1.53218
   1   34239.9    292.1   0.373239219   3.58864  -1.01331  -1.22311   1.03240
   2   34500.0    289.9   0.868938804   8.29175   0.41493   2.14646  -1.87412
   3   36745.5    272.1   0.073074329   0.65469   0.12429  -0.77880  -0.18087
   4   37261.5    268.4   0.217563324   1.92221  -0.47064   0.47634   1.21401
   5   37484.4    266.8   0.320862562   2.81802   0.20058   1.45808   0.80734
   6   39563.0    252.8   0.128975625   1.07323   0.04874  -0.44373  -0.93486

FINAL SINGLE POINT ENERGY     -3407.699846255279

DIPOLE MOMENT
-------------
                                X             Y             Z
Electronic contribution:     19.10649      16.26709     -28.71557
Nuclear contribution   :    -20.56532     -18.00658      29.97301
                        -----------------------------------------
Total Dipole Moment    :     -1.45884      -1.73949       1.25744
                        -----------------------------------------
Magnitude (a.u.)       :      2.59522
Magnitude (Debye)      :      6.59654

Rotational constants in cm-1:     0.003122     0.000463     0.000412
Rotational constants in MHz :    93.599409    13.883685    12.356656

                             ****ORCA TERMINATED NORMALLY****
TOTAL RUN TIME: 0 days 0 hours 4 minutes 1 seconds 11 msec
