                         Program Version 4.2.0 -  RELEASE  -
|  1> # ORCA input file
|  2> # SCF done       -154.853616212601          0.000453831679
|  3> ! CAM-B3LYP def2-SVP def2/J RIJCOSX Grid4 TightSCF
|  4> %maxcore 5000
|  5> %tddft
|  6>     Mode sTDDFT
|  7>     Ethresh 5.0
|  8>     maxcore 5000
|  9> end
| 10>
| 11> %pal
| 12>   nprocs 6
| 13>   end
| 14> * xyz 0 1
| 15>    C       -3.07975        -2.32825         5.95858
| 16>    O       -2.55444        -2.80200         4.83019
| 17>    C       -3.54178        -2.87162         3.90380
| 18>    C       -4.72181        -2.43156         4.45512
| 19>    C       -4.41483        -2.08038         5.79228
| 20>    C       -5.35934        -1.54253         6.80384
| 21>    F       -4.78676        -1.39940         8.00919
| 22>    F       -5.84292        -0.33290         6.46596
| 23>    F       -6.43199        -2.33363         6.97939
| 24>    C       -3.26624        -3.34360         2.57636
| 25>    C       -2.04816        -3.71787         2.15815
| 26>    C       -1.75738        -4.21231         0.82120
| 27>    C       -2.69323        -4.98519         0.16474
| 28>    C       -2.45769        -5.48728        -1.12262
| 29>    C       -1.23139        -5.24152        -1.72035
| 30>    C       -0.23682        -4.49119        -1.08491
| 31>    C       -0.51128        -3.93819         0.19243
| 32>    C        0.45417        -3.09098         0.80183
| 33>    C        1.64624        -2.84201         0.21044
| 34>    C        1.98735        -3.42640        -1.03936
| 35>    C        1.05111        -4.25629        -1.69895
| 36>    C        1.43154        -4.82050        -2.92708
| 37>    C        2.66665        -4.57500        -3.47550
| 38>    C        3.58164        -3.74858        -2.82253
| 39>    C        3.24264        -3.18411        -1.62066
| 40>    C       -3.49387        -6.26415        -1.77087
| 41>    C       -3.64160        -6.39066        -3.10138
| 42>    C       -4.65128        -7.16092        -3.75707
| 43>    S       -5.09922        -6.73875        -5.38389
| 44>    C       -6.27469        -8.01160        -5.47821
| 45>    C       -6.29339        -8.73190        -4.29603
| 46>    C       -5.38425        -8.25293        -3.32986
| 47>    S       -5.08523        -8.99510        -1.75812
| 48>    C       -5.66876       -10.66466        -1.82249
| 49>    O       -5.24837       -11.43009        -1.00031
| 50>    C       -6.78566       -11.10058        -2.74567
| 51>    O       -7.34095       -12.14811        -2.56714
| 52>    S       -7.41229       -10.07103        -4.03756
| 53>    C       -7.04000        -8.14430        -6.67451
| 54>    N       -7.94502        -9.13219        -6.92993
| 55>    C       -8.50555        -8.96579        -8.15509
| 56>    C       -9.51870        -9.83901        -8.67745
| 57>    C       -9.93293       -10.97005        -8.10727
| 58>    C       -7.94240        -7.80735        -8.71528
| 59>    C       -7.02052        -7.30647        -7.77930
| 60>    C       -8.23494        -7.21442        -9.99280
| 61>    S       -8.62246        -8.17030       -11.38899
| 62>    C       -8.77945        -6.77892       -12.37242
| 63>    C       -8.54046        -5.63106       -11.67424
| 64>    C       -8.22555        -5.87347       -10.31671
| 65>    S       -7.95082        -4.63394        -9.09582
| 66>    C       -8.44907        -3.07686        -9.76713
| 67>    O       -8.57556        -2.16918        -8.99213
| 68>    C       -8.59207        -2.80537       -11.25301
| 69>    O       -8.67717        -1.67006       -11.63229
| 70>    S       -8.59728        -4.06872       -12.48548
| 71>    H       -2.43801        -2.20644         6.80834
| 72>    H       -5.67841        -2.36571         3.98064
| 73>    H       -4.11718        -3.35150         1.91160
| 74>    H       -1.22631        -3.65888         2.85742
| 75>    H       -3.62760        -5.21842         0.65316
| 76>    H       -1.04516        -5.66533        -2.69286
| 77>    H        0.22081        -2.62396         1.74553
| 78>    H        2.36807        -2.19128         0.68298
| 79>    H        0.75641        -5.47165        -3.45910
| 80>    H        2.93429        -5.02698        -4.41931
| 81>    H        4.54912        -3.56115        -3.26377
| 82>    H        3.94000        -2.54479        -1.09846
| 83>    H       -4.21703        -6.71933        -1.10842
| 84>    H       -2.99856        -5.83389        -3.76970
| 85>    H       -8.17853        -9.88201        -6.30083
| 86>    H       -9.96104        -9.52151        -9.61075
| 87>    H       -9.52174       -11.35090        -7.18745
| 88>    H      -10.70605       -11.56610        -8.55741
| 89>    H       -6.39049        -6.44870        -7.89757
| 90>    H       -9.03895        -6.86704       -13.40720
| 91> *
| 92>
| 93>                          ****END OF INPUT****

CARTESIAN COORDINATES (ANGSTROEM)
---------------------------------
  C     -3.079750   -2.328250    5.958580
  O     -2.554440   -2.802000    4.830190
  C     -3.541780   -2.871620    3.903800
  C     -4.721810   -2.431560    4.455120
  C     -4.414830   -2.080380    5.792280
  C     -5.359340   -1.542530    6.803840
  F     -4.786760   -1.399400    8.009190
  F     -5.842920   -0.332900    6.465960
  F     -6.431990   -2.333630    6.979390
  C     -3.266240   -3.343600    2.576360
  C     -2.048160   -3.717870    2.158150
  C     -1.757380   -4.212310    0.821200
  C     -2.693230   -4.985190    0.164740
  C     -2.457690   -5.487280   -1.122620
  C     -1.231390   -5.241520   -1.720350
  C     -0.236820   -4.491190   -1.084910
  C     -0.511280   -3.938190    0.192430
  C      0.454170   -3.090980    0.801830
  C      1.646240   -2.842010    0.210440
  C      1.987350   -3.426400   -1.039360
  C      1.051110   -4.256290   -1.698950
  C      1.431540   -4.820500   -2.927080
  C      2.666650   -4.575000   -3.475500
  C      3.581640   -3.748580   -2.822530
  C      3.242640   -3.184110   -1.620660
  C     -3.493870   -6.264150   -1.770870
  C     -3.641600   -6.390660   -3.101380
  C     -4.651280   -7.160920   -3.757070
  S     -5.099220   -6.738750   -5.383890
  C     -6.274690   -8.011600   -5.478210
  C     -6.293390   -8.731900   -4.296030
  C     -5.384250   -8.252930   -3.329860
  S     -5.085230   -8.995100   -1.758120
  C     -5.668760  -10.664660   -1.822490
  O     -5.248370  -11.430090   -1.000310
  C     -6.785660  -11.100580   -2.745670
  O     -7.340950  -12.148110   -2.567140
  S     -7.412290  -10.071030   -4.037560
  C     -7.040000   -8.144300   -6.674510
  N     -7.945020   -9.132190   -6.929930
  C     -8.505550   -8.965790   -8.155090
  C     -9.518700   -9.839010   -8.677450
  C     -9.932930  -10.970050   -8.107270
  C     -7.942400   -7.807350   -8.715280
  C     -7.020520   -7.306470   -7.779300
  C     -8.234940   -7.214420   -9.992800
  S     -8.622460   -8.170300  -11.388990
  C     -8.779450   -6.778920  -12.372420
  C     -8.540460   -5.631060  -11.674240
  C     -8.225550   -5.873470  -10.316710
  S     -7.950820   -4.633940   -9.095820
  C     -8.449070   -3.076860   -9.767130
  O     -8.575560   -2.169180   -8.992130
  C     -8.592070   -2.805370  -11.253010
  O     -8.677170   -1.670060  -11.632290
  S     -8.597280   -4.068720  -12.485480
  H     -2.438010   -2.206440    6.808340
  H     -5.678410   -2.365710    3.980640
  H     -4.117180   -3.351500    1.911600
  H     -1.226310   -3.658880    2.857420
  H     -3.627600   -5.218420    0.653160
  H     -1.045160   -5.665330   -2.692860
  H      0.220810   -2.623960    1.745530
  H      2.368070   -2.191280    0.682980
  H      0.756410   -5.471650   -3.459100
  H      2.934290   -5.026980   -4.419310
  H      4.549120   -3.561150   -3.263770
  H      3.940000   -2.544790   -1.098460
  H     -4.217030   -6.719330   -1.108420
  H     -2.998560   -5.833890   -3.769700
  H     -8.178530   -9.882010   -6.300830
  H     -9.961040   -9.521510   -9.610750
  H     -9.521740  -11.350900   -7.187450
  H    -10.706050  -11.566100   -8.557410
  H     -6.390490   -6.448700   -7.897570
  H     -9.038950   -6.867040  -13.407200

 Total Charge           Charge          ....    0
 Multiplicity           Mult            ....    1
 Number of Electrons    NEL             ....  436
 Basis Dimension        Dim             ....  908

ORBITAL ENERGIES
----------------

  NO   OCC          E(Eh)            E(eV)
   0   2.0000     -88.980456     -2421.2813
   1   2.0000     -88.979067     -2421.2435
   2   2.0000     -88.977838     -2421.2101
   3   2.0000     -88.973036     -2421.0794
   4   2.0000     -88.965478     -2420.8737
   5   2.0000     -88.965403     -2420.8717
   6   2.0000     -24.794894      -674.7034
   7   2.0000     -24.789842      -674.5659
   8   2.0000     -24.788246      -674.5225
   9   2.0000     -19.304687      -525.3072
  10   2.0000     -19.251546      -523.8612
  11   2.0000     -19.249275      -523.7994
  12   2.0000     -19.237959      -523.4915
  13   2.0000     -19.236043      -523.4394
  14   2.0000     -14.478366      -393.9764
  15   2.0000     -10.514171      -286.1051
  16   2.0000     -10.415138      -283.4103
  17   2.0000     -10.411078      -283.2998
  18   2.0000     -10.401429      -283.0373
  19   2.0000     -10.401266      -283.0328
  20   2.0000     -10.343070      -281.4492
  21   2.0000     -10.338464      -281.3239
  22   2.0000     -10.336133      -281.2605
  23   2.0000     -10.335479      -281.2427
  24   2.0000     -10.332313      -281.1565
  25   2.0000     -10.327935      -281.0374
  26   2.0000     -10.327141      -281.0158
  27   2.0000     -10.326950      -281.0106
  28   2.0000     -10.325823      -280.9799
  29   2.0000     -10.324741      -280.9505
  30   2.0000     -10.320960      -280.8476
  31   2.0000     -10.313390      -280.6416
  32   2.0000     -10.295381      -280.1516
  33   2.0000     -10.291572      -280.0479
  34   2.0000     -10.291493      -280.0458
  35   2.0000     -10.291438      -280.0443
  36   2.0000     -10.291203      -280.0379
  37   2.0000     -10.288019      -279.9512
  38   2.0000     -10.285618      -279.8859
  39   2.0000     -10.285360      -279.8789
  40   2.0000     -10.285213      -279.8749
  41   2.0000     -10.284065      -279.8436
  42   2.0000     -10.283858      -279.8380
  43   2.0000     -10.282394      -279.7982
  44   2.0000     -10.281858      -279.7836
  45   2.0000     -10.279804      -279.7277
  46   2.0000     -10.278090      -279.6810
  47   2.0000     -10.277910      -279.6762
  48   2.0000     -10.276797      -279.6459
  49   2.0000     -10.276345      -279.6336
  50   2.0000     -10.274152      -279.5739
  51   2.0000     -10.272713      -279.5347
  52   2.0000     -10.272655      -279.5332
  53   2.0000     -10.271737      -279.5082
  54   2.0000     -10.271583      -279.5040
  55   2.0000     -10.270852      -279.4841
  56   2.0000      -8.077043      -219.7875
  57   2.0000      -8.074532      -219.7192
  58   2.0000      -8.073290      -219.6854
  59   2.0000      -8.069246      -219.5753
  60   2.0000      -8.062361      -219.3880
  61   2.0000      -8.061711      -219.3703
  62   2.0000      -6.046890      -164.5442
  63   2.0000      -6.043932      -164.4637
  64   2.0000      -6.042634      -164.4284
  65   2.0000      -6.042532      -164.4257
  66   2.0000      -6.039855      -164.3528
  67   2.0000      -6.039196      -164.3349
  68   2.0000      -6.038277      -164.3099
  69   2.0000      -6.037827      -164.2976
  70   2.0000      -6.036313      -164.2564
  71   2.0000      -6.035486      -164.2339
  72   2.0000      -6.034580      -164.2093
  73   2.0000      -6.032233      -164.1454
  74   2.0000      -6.031658      -164.1298
  75   2.0000      -6.029981      -164.0841
  76   2.0000      -6.027752      -164.0235
  77   2.0000      -6.027034      -164.0039
  78   2.0000      -6.023056      -163.8957
  79   2.0000      -6.022471      -163.8798
  80   2.0000      -1.380864       -37.5752
  81   2.0000      -1.285288       -34.9745
  82   2.0000      -1.280160       -34.8349
  83   2.0000      -1.225407       -33.3450
  84   2.0000      -1.187512       -32.3138
  85   2.0000      -1.175119       -31.9766
  86   2.0000      -1.155714       -31.4486
  87   2.0000      -1.142593       -31.0915
  88   2.0000      -1.101383       -29.9701
  89   2.0000      -1.022759       -27.8307
  90   2.0000      -1.016405       -27.6578
  91   2.0000      -0.983180       -26.7537
  92   2.0000      -0.953695       -25.9513
  93   2.0000      -0.942058       -25.6347
  94   2.0000      -0.933821       -25.4106
  95   2.0000      -0.929989       -25.3063
  96   2.0000      -0.921943       -25.0873
  97   2.0000      -0.917701       -24.9719
  98   2.0000      -0.914791       -24.8927
  99   2.0000      -0.909786       -24.7565
 100   2.0000      -0.898078       -24.4379
 101   2.0000      -0.888935       -24.1892
 102   2.0000      -0.884098       -24.0575
 103   2.0000      -0.874847       -23.8058
 104   2.0000      -0.859521       -23.3887
 105   2.0000      -0.845665       -23.0117
 106   2.0000      -0.834944       -22.7200
 107   2.0000      -0.830890       -22.6097
 108   2.0000      -0.830486       -22.5987
 109   2.0000      -0.818555       -22.2740
 110   2.0000      -0.811816       -22.0906
 111   2.0000      -0.805180       -21.9101
 112   2.0000      -0.788227       -21.4487
 113   2.0000      -0.783055       -21.3080
 114   2.0000      -0.758374       -20.6364
 115   2.0000      -0.747366       -20.3369
 116   2.0000      -0.743209       -20.2238
 117   2.0000      -0.736004       -20.0277
 118   2.0000      -0.727654       -19.8005
 119   2.0000      -0.715427       -19.4677
 120   2.0000      -0.712401       -19.3854
 121   2.0000      -0.709916       -19.3178
 122   2.0000      -0.701977       -19.1018
 123   2.0000      -0.694766       -18.9055
 124   2.0000      -0.686481       -18.6801
 125   2.0000      -0.682587       -18.5741
 126   2.0000      -0.668480       -18.1903
 127   2.0000      -0.664339       -18.0776
 128   2.0000      -0.663652       -18.0589
 129   2.0000      -0.661553       -18.0018
 130   2.0000      -0.655393       -17.8342
 131   2.0000      -0.645607       -17.5679
 132   2.0000      -0.637591       -17.3497
 133   2.0000      -0.633850       -17.2479
 134   2.0000      -0.624488       -16.9932
 135   2.0000      -0.618864       -16.8401
 136   2.0000      -0.616270       -16.7696
 137   2.0000      -0.613842       -16.7035
 138   2.0000      -0.602139       -16.3850
 139   2.0000      -0.592946       -16.1349
 140   2.0000      -0.581658       -15.8277
 141   2.0000      -0.575324       -15.6554
 142   2.0000      -0.571749       -15.5581
 143   2.0000      -0.568432       -15.4678
 144   2.0000      -0.566157       -15.4059
 145   2.0000      -0.562309       -15.3012
 146   2.0000      -0.560450       -15.2506
 147   2.0000      -0.558500       -15.1976
 148   2.0000      -0.554886       -15.0992
 149   2.0000      -0.554278       -15.0827
 150   2.0000      -0.547856       -14.9079
 151   2.0000      -0.546550       -14.8724
 152   2.0000      -0.543847       -14.7988
 153   2.0000      -0.543531       -14.7902
 154   2.0000      -0.540217       -14.7001
 155   2.0000      -0.539919       -14.6919
 156   2.0000      -0.537823       -14.6349
 157   2.0000      -0.534480       -14.5440
 158   2.0000      -0.533663       -14.5217
 159   2.0000      -0.526405       -14.3242
 160   2.0000      -0.522871       -14.2280
 161   2.0000      -0.513843       -13.9824
 162   2.0000      -0.512686       -13.9509
 163   2.0000      -0.511534       -13.9196
 164   2.0000      -0.506717       -13.7885
 165   2.0000      -0.505827       -13.7643
 166   2.0000      -0.504114       -13.7176
 167   2.0000      -0.502600       -13.6764
 168   2.0000      -0.498545       -13.5661
 169   2.0000      -0.497303       -13.5323
 170   2.0000      -0.496335       -13.5060
 171   2.0000      -0.494851       -13.4656
 172   2.0000      -0.491630       -13.3779
 173   2.0000      -0.490019       -13.3341
 174   2.0000      -0.485897       -13.2219
 175   2.0000      -0.480439       -13.0734
 176   2.0000      -0.477942       -13.0055
 177   2.0000      -0.476757       -12.9732
 178   2.0000      -0.474855       -12.9215
 179   2.0000      -0.468509       -12.7488
 180   2.0000      -0.464827       -12.6486
 181   2.0000      -0.461378       -12.5547
 182   2.0000      -0.458169       -12.4674
 183   2.0000      -0.455804       -12.4030
 184   2.0000      -0.453545       -12.3416
 185   2.0000      -0.451598       -12.2886
 186   2.0000      -0.448074       -12.1927
 187   2.0000      -0.442795       -12.0491
 188   2.0000      -0.441321       -12.0090
 189   2.0000      -0.438122       -11.9219
 190   2.0000      -0.430485       -11.7141
 191   2.0000      -0.428217       -11.6524
 192   2.0000      -0.424162       -11.5420
 193   2.0000      -0.412216       -11.2170
 194   2.0000      -0.409408       -11.1405
 195   2.0000      -0.404841       -11.0163
 196   2.0000      -0.401258       -10.9188
 197   2.0000      -0.399839       -10.8802
 198   2.0000      -0.397539       -10.8176
 199   2.0000      -0.396250       -10.7825
 200   2.0000      -0.391985       -10.6665
 201   2.0000      -0.386346       -10.5130
 202   2.0000      -0.381291       -10.3755
 203   2.0000      -0.373310       -10.1583
 204   2.0000      -0.370576       -10.0839
 205   2.0000      -0.357362        -9.7243
 206   2.0000      -0.351894        -9.5755
 207   2.0000      -0.348407        -9.4806
 208   2.0000      -0.339644        -9.2422
 209   2.0000      -0.336263        -9.1502
 210   2.0000      -0.315723        -8.5912
 211   2.0000      -0.310661        -8.4535
 212   2.0000      -0.301602        -8.2070
 213   2.0000      -0.301444        -8.2027
 214   2.0000      -0.292956        -7.9717
 215   2.0000      -0.281582        -7.6622
 216   2.0000      -0.264889        -7.2080
 217   2.0000      -0.247007        -6.7214
 218   0.0000      -0.069179        -1.8825
 219   0.0000      -0.054381        -1.4798
 220   0.0000      -0.053420        -1.4536
 221   0.0000      -0.032996        -0.8979
 222   0.0000      -0.023293        -0.6338

MULLIKEN ATOMIC CHARGES
-----------------------
   0 C :    0.115321
   1 O :   -0.179386
   2 C :    0.156886
   3 C :   -0.058946
   4 C :   -0.111831
   5 C :    0.531169
   6 F :   -0.164131
   7 F :   -0.166535
   8 F :   -0.166217
   9 C :    0.002416
  10 C :   -0.028863
  11 C :    0.097921
  12 C :   -0.107311
  13 C :    0.140619
  14 C :   -0.114883
  15 C :    0.124388
  16 C :    0.056324
  17 C :   -0.037900
  18 C :   -0.005788
  19 C :    0.060377
  20 C :    0.095854
  21 C :   -0.050235
  22 C :    0.032652
  23 C :    0.035488
  24 C :   -0.025822
  25 C :   -0.020935
  26 C :    0.043641
  27 C :   -0.116028
  28 S :    0.163498
  29 C :   -0.114737
  30 C :   -0.034214
  31 C :   -0.045869
  32 S :    0.078064
  33 C :    0.076748
  34 O :   -0.122916
  35 C :    0.089852
  36 O :   -0.125192
  37 S :    0.038650
  38 C :    0.076836
  39 N :   -0.031232
  40 C :   -0.016054
  41 C :    0.006600
  42 C :   -0.037239
  43 C :    0.077377
  44 C :   -0.115390
  45 C :   -0.185864
  46 S :    0.164819
  47 C :   -0.103113
  48 C :   -0.051158
  49 C :    0.007356
  50 S :    0.077613
  51 C :    0.073899
  52 O :   -0.132165
  53 C :    0.069147
  54 O :   -0.137024
  55 S :    0.099171
  56 H :    0.023017
  57 H :   -0.002413
  58 H :   -0.000860
  59 H :    0.018202
  60 H :   -0.033027
  61 H :   -0.040232
  62 H :   -0.027957
  63 H :   -0.028517
  64 H :   -0.033495
  65 H :   -0.017451
  66 H :   -0.014901
  67 H :   -0.026936
  68 H :    0.009905
  69 H :   -0.002981
  70 H :    0.128617
  71 H :   -0.006245
  72 H :    0.011755
  73 H :    0.030553
  74 H :   -0.003282
  75 H :    0.030538
Sum of atomic charges:   -0.0000000

LOEWDIN ATOMIC CHARGES
----------------------
   0 C :    0.059389
   1 O :    0.030567
   2 C :    0.030364
   3 C :   -0.047627
   4 C :   -0.133122
   5 C :    0.167877
   6 F :   -0.062228
   7 F :   -0.067217
   8 F :   -0.065120
   9 C :   -0.033021
  10 C :   -0.007769
  11 C :   -0.016718
  12 C :   -0.009817
  13 C :   -0.029708
  14 C :   -0.005193
  15 C :   -0.003870
  16 C :   -0.009301
  17 C :   -0.022519
  18 C :   -0.008260
  19 C :   -0.018019
  20 C :   -0.008402
  21 C :   -0.016481
  22 C :   -0.021339
  23 C :   -0.022613
  24 C :   -0.013895
  25 C :   -0.005863
  26 C :   -0.054221
  27 C :   -0.181608
  28 S :    0.472199
  29 C :   -0.181818
  30 C :   -0.230519
  31 C :   -0.219550
  32 S :    0.389962
  33 C :   -0.111647
  34 O :   -0.093806
  35 C :   -0.107639
  36 O :   -0.097865
  37 S :    0.371113
  38 C :   -0.032994
  39 N :    0.103757
  40 C :   -0.002563
  41 C :   -0.038189
  42 C :   -0.046815
  43 C :   -0.087176
  44 C :   -0.066448
  45 C :   -0.177802
  46 S :    0.478578
  47 C :   -0.209417
  48 C :   -0.221458
  49 C :   -0.223753
  50 S :    0.388085
  51 C :   -0.113260
  52 O :   -0.103230
  53 C :   -0.115013
  54 O :   -0.107355
  55 S :    0.378932
  56 H :    0.030731
  57 H :    0.036586
  58 H :    0.037272
  59 H :    0.031306
  60 H :    0.025890
  61 H :    0.022873
  62 H :    0.028801
  63 H :    0.029174
  64 H :    0.024931
  65 H :    0.028501
  66 H :    0.029002
  67 H :    0.027679
  68 H :    0.019713
  69 H :    0.029908
  70 H :    0.061557
  71 H :    0.024220
  72 H :    0.017569
  73 H :    0.030921
  74 H :    0.016288
  75 H :    0.028503

  Mayer bond orders larger than 0.100000
B(  0-C ,  1-O ) :   1.1701 B(  0-C ,  4-C ) :   1.5479 B(  0-C , 56-H ) :   1.0091
B(  1-O ,  2-C ) :   1.1460 B(  2-C ,  3-C ) :   1.4947 B(  2-C ,  9-C ) :   1.1145
B(  3-C ,  4-C ) :   1.2123 B(  3-C , 57-H ) :   1.0204 B(  4-C ,  5-C ) :   0.9617
B(  5-C ,  6-F ) :   1.1708 B(  5-C ,  7-F ) :   1.1801 B(  5-C ,  8-F ) :   1.1771
B(  9-C , 10-C ) :   1.7562 B(  9-C , 58-H ) :   0.9638 B( 10-C , 11-C ) :   1.0118
B( 10-C , 59-H ) :   0.9578 B( 11-C , 12-C ) :   1.4326 B( 11-C , 16-C ) :   1.2524
B( 12-C , 13-C ) :   1.2467 B( 12-C , 60-H ) :   0.9988 B( 13-C , 14-C ) :   1.3923
B( 13-C , 25-C ) :   1.0524 B( 14-C , 15-C ) :   1.3015 B( 14-C , 61-H ) :   0.9879
B( 15-C , 16-C ) :   1.2853 B( 15-C , 20-C ) :   1.0895 B( 16-C , 17-C ) :   1.1648
B( 17-C , 18-C ) :   1.5700 B( 17-C , 62-H ) :   0.9856 B( 18-C , 19-C ) :   1.1489
B( 18-C , 63-H ) :   0.9930 B( 19-C , 20-C ) :   1.3051 B( 19-C , 24-C ) :   1.2779
B( 20-C , 21-C ) :   1.3067 B( 21-C , 22-C ) :   1.4652 B( 21-C , 64-H ) :   0.9868
B( 22-C , 23-C ) :   1.2986 B( 22-C , 65-H ) :   0.9844 B( 23-C , 24-C ) :   1.4546
B( 23-C , 66-H ) :   0.9903 B( 24-C , 67-H ) :   0.9971 B( 25-C , 26-C ) :   1.7255
B( 25-C , 68-H ) :   0.9650 B( 26-C , 27-C ) :   1.1008 B( 26-C , 69-H ) :   0.9506
B( 27-C , 28-S ) :   1.1120 B( 27-C , 29-C ) :   0.1169 B( 27-C , 31-C ) :   1.5946
B( 28-S , 29-C ) :   1.1521 B( 29-C , 30-C ) :   1.5886 B( 29-C , 38-C ) :   1.0783
B( 30-C , 31-C ) :   1.2579 B( 30-C , 37-S ) :   0.9450 B( 31-C , 32-S ) :   0.9714
B( 32-S , 33-C ) :   1.0498 B( 32-S , 34-O ) :   0.1326 B( 33-C , 34-O ) :   2.1637
B( 33-C , 35-C ) :   0.7710 B( 35-C , 36-O ) :   2.1682 B( 35-C , 37-S ) :   1.0389
B( 36-O , 37-S ) :   0.1347 B( 38-C , 39-N ) :   1.2430 B( 38-C , 40-C ) :   0.1015
B( 38-C , 44-C ) :   1.4459 B( 39-N , 40-C ) :   1.2483 B( 39-N , 70-H ) :   0.9066
B( 40-C , 41-C ) :   1.1195 B( 40-C , 43-C ) :   1.3659 B( 41-C , 42-C ) :   1.9134
B( 41-C , 71-H ) :   0.9388 B( 42-C , 72-H ) :   0.9669 B( 42-C , 73-H ) :   0.9414
B( 43-C , 44-C ) :   1.3147 B( 43-C , 45-C ) :   1.0337 B( 44-C , 74-H ) :   0.9846
B( 45-C , 46-S ) :   1.1715 B( 45-C , 47-C ) :   0.1080 B( 45-C , 49-C ) :   1.5945
B( 46-S , 47-C ) :   1.1604 B( 47-C , 48-C ) :   1.5984 B( 47-C , 75-H ) :   0.9710
B( 48-C , 49-C ) :   1.2553 B( 48-C , 55-S ) :   0.9572 B( 49-C , 50-S ) :   0.9693
B( 50-S , 51-C ) :   1.0523 B( 50-S , 52-O ) :   0.1350 B( 51-C , 52-O ) :   2.1571
B( 51-C , 53-C ) :   0.7691 B( 53-C , 54-O ) :   2.1513 B( 53-C , 55-S ) :   1.0570
B( 54-O , 55-S ) :   0.1403

-----------------------------------------------------------------------------
         ABSORPTION SPECTRUM VIA TRANSITION ELECTRIC DIPOLE MOMENTS
-----------------------------------------------------------------------------
State   Energy  Wavelength   fosc         T2         TX        TY        TZ
        (cm-1)    (nm)                  (au**2)     (au)      (au)      (au)
-----------------------------------------------------------------------------
   0   21806.1    458.6   0.141609668   2.13791  -0.96246  -0.44661  -1.00605
   1   26142.6    382.5   1.255062684  15.80489  -2.85339  -1.19922  -2.49498
   2   27590.9    362.4   0.138196357   1.64894   0.86579   0.92837   0.19356
   3   28346.9    352.8   0.059964305   0.69641   0.36335   0.62324  -0.41946
   4   29252.5    341.9   0.009268829   0.10431   0.01584  -0.32252   0.00664
   5   29300.0    341.3   0.039605481   0.44500   0.39757  -0.09983  -0.52629
   6   30528.6    327.6   0.173146615   1.86717   0.69281   0.17203  -1.16515
   7   31772.9    314.7   0.477948235   4.95222   0.93450  -0.62178  -1.92154
   8   32463.2    308.0   0.160952606   1.63223  -0.64316  -1.05191  -0.33476
   9   32944.3    303.5   0.056105784   0.56066  -0.05061  -0.61967  -0.41727
  10   33349.4    299.9   0.006036222   0.05959   0.01515  -0.22236  -0.09957
  11   33988.7    294.2   0.084718783   0.82058   0.16078   0.64782  -0.61242
  12   34264.7    291.8   0.377604305   3.62799  -0.07033  -1.56089   1.08935
  13   34399.2    290.7   0.222634816   2.13069   0.20598  -0.88258  -1.14425
  14   34848.5    287.0   0.199572354   1.88535   0.36900  -0.74971  -1.08955
  15   35709.2    280.0   0.157180655   1.44909   0.00047  -1.02871   0.62518
  16   36762.8    272.0   0.022518051   0.20165  -0.31280   0.31171  -0.08150
  17   37027.1    270.1   0.107522218   0.95599   0.78598  -0.00021  -0.58157
  18   37536.7    266.4   0.004661986   0.04089  -0.11844   0.07986   0.14311
  19   37605.0    265.9   0.045048095   0.39437  -0.29534   0.53948   0.12690
  20   38237.5    261.5   0.110098817   0.94791  -0.76084  -0.58789   0.15306
  21   38879.8    257.2   0.016529031   0.13996  -0.15593  -0.32074   0.11299
  22   39100.6    255.8   0.013173179   0.11091   0.05298   0.27680  -0.17746
  23   39508.5    253.1   0.112517008   0.93757  -0.30497   0.34795  -0.85058
  24   40091.5    249.4   0.033036534   0.27128   0.39164   0.25058   0.23475

FINAL SINGLE POINT ENERGY     -4690.408034984299

DIPOLE MOMENT
-------------
                                X             Y             Z
Electronic contribution:    -35.43022       8.49448      13.63752
Nuclear contribution   :     36.66138      -9.61282     -14.90954
                        -----------------------------------------
Total Dipole Moment    :      1.23116      -1.11834      -1.27202
                        -----------------------------------------
Magnitude (a.u.)       :      2.09392
Magnitude (Debye)      :      5.32231

Rotational constants in cm-1:     0.001329     0.000426     0.000411
Rotational constants in MHz :    39.843489    12.778824    12.317296

                             ****ORCA TERMINATED NORMALLY****
TOTAL RUN TIME: 0 days 0 hours 5 minutes 8 seconds 762 msec
