                         Program Version 4.2.0 -  RELEASE  -
|  1> # ORCA input file
|  2> # SCF done       -171.017938033820          0.000580640203
|  3> ! CAM-B3LYP def2-SVP def2/J RIJCOSX Grid4 TightSCF
|  4> %maxcore 5000
|  5> %tddft
|  6>     Mode sTDDFT
|  7>     Ethresh 5.0
|  8>     maxcore 5000
|  9> end
| 10>
| 11> %pal
| 12>   nprocs 6
| 13>   end
| 14> * xyz 0 1
| 15>    C        1.10501         0.79759         0.50942
| 16>    C        0.87361         0.30516        -0.70926
| 17>    C        1.82552        -0.41037        -1.50796
| 18>    C        1.59279        -0.93532        -2.74799
| 19>    C        2.78791        -1.56901        -3.22628
| 20>    C        2.99187        -2.20693        -4.41823
| 21>    C        4.19633        -2.82290        -4.89726
| 22>    C        3.96788        -3.34634        -6.14326
| 23>    C        4.94188        -4.03407        -6.94275
| 24>    C        4.68303        -4.65477        -8.16161
| 25>    F        3.44391        -4.64875        -8.68092
| 26>    C        5.65532        -5.32172        -8.92721
| 27>    F        5.25243        -5.83827       -10.09267
| 28>    C        6.98569        -5.40230        -8.55247
| 29>    C        7.99652        -6.06665        -9.35079
| 30>    N        7.68346        -7.16298       -10.00148
| 31>    N        8.52033        -7.82136       -10.75616
| 32>    C        9.78536        -7.49836       -10.89133
| 33>    C       10.61180        -8.32159       -11.75450
| 34>    C       11.55790        -7.81472       -12.62954
| 35>    F       11.74259        -6.48911       -12.71772
| 36>    C       12.30608        -8.61674       -13.50788
| 37>    F       13.16637        -7.96671       -14.31043
| 38>    C       12.18193       -10.00129       -13.57933
| 39>    C       12.87653       -10.90084       -14.45161
| 40>    C       13.75364       -10.58216       -15.43321
| 41>    C       14.38017       -11.53765       -16.27877
| 42>    C       15.23161       -11.24452       -17.31269
| 43>    C       15.64321       -12.46359       -17.94910
| 44>    C       16.46378       -12.61986       -19.02692
| 45>    C       16.86479       -13.85202       -19.68164
| 46>    C       17.66730       -13.54348       -20.71980
| 47>    C       17.83706       -12.09712       -20.79716
| 48>    C       17.12418       -11.56089       -19.79295
| 49>    F       17.00709       -10.25798       -19.50301
| 50>    C       14.96627       -13.52553       -17.19201
| 51>    F       15.09711       -14.82722       -17.47173
| 52>    C       14.22112       -12.99824       -16.21227
| 53>    C       11.23205       -10.53424       -12.67209
| 54>    N       10.86990       -11.80683       -12.45687
| 55>    N        9.96669       -11.73023       -11.51794
| 56>    C        9.32471       -12.89837       -10.99997
| 57>    N        9.67911       -10.54093       -11.07359
| 58>    C       10.45946        -9.72292       -11.79013
| 59>    C       10.27787        -6.35385       -10.19781
| 60>    N       11.45303        -5.76961       -10.07900
| 61>    O       11.25401        -4.70534        -9.31249
| 62>    N        9.99586        -4.56546        -8.91061
| 63>    C        9.33781        -5.58497        -9.42373
| 64>    C        7.29131        -4.79399        -7.31753
| 65>    N        8.44538        -4.73352        -6.64040
| 66>    N        8.14836        -4.07592        -5.55705
| 67>    C        9.13431        -3.78595        -4.56314
| 68>    N        6.90976        -3.69465        -5.42403
| 69>    C        6.29755        -4.13610        -6.53103
| 70>    C        2.57109        -3.07578        -6.51133
| 71>    C        2.01534        -2.40505        -5.49178
| 72>    F        0.75283        -1.96510        -5.42907
| 73>    C        3.76948        -1.37899        -2.14966
| 74>    F        5.02748        -1.83462        -2.20691
| 75>    C        3.21751        -0.70173        -1.13421
| 76>    H        0.34286         1.32640         1.05482
| 77>    H        2.05603         0.69006         1.00159
| 78>    H       -0.09969         0.43510        -1.16520
| 79>    H        0.67034        -0.88771        -3.29241
| 80>    H        5.12368        -2.86407        -4.36360
| 81>    H       12.62070       -11.93641       -14.27757
| 82>    H       14.01282        -9.55288       -15.63207
| 83>    H       15.54312       -10.26408       -17.61476
| 84>    H       16.55598       -14.82929       -19.36861
| 85>    H       18.12836       -14.23071       -21.40455
| 86>    H       18.42589       -11.57913       -21.52908
| 87>    H       13.61949       -13.53211       -15.50393
| 88>    H        9.62510       -13.74833       -11.60771
| 89>    H        8.24421       -12.76366       -11.03579
| 90>    H        9.62188       -13.05731        -9.96256
| 91>    H       10.09164        -4.15374        -4.92352
| 92>    H        8.86979        -4.27324        -3.62411
| 93>    H        9.18024        -2.70998        -4.39599
| 94>    H        2.09170        -3.35681        -7.42677
| 95>    H        3.69107        -0.41709        -0.21592
| 96> *
| 97>
| 98>                          ****END OF INPUT****

CARTESIAN COORDINATES (ANGSTROEM)
---------------------------------
  C      1.105010    0.797590    0.509420
  C      0.873610    0.305160   -0.709260
  C      1.825520   -0.410370   -1.507960
  C      1.592790   -0.935320   -2.747990
  C      2.787910   -1.569010   -3.226280
  C      2.991870   -2.206930   -4.418230
  C      4.196330   -2.822900   -4.897260
  C      3.967880   -3.346340   -6.143260
  C      4.941880   -4.034070   -6.942750
  C      4.683030   -4.654770   -8.161610
  F      3.443910   -4.648750   -8.680920
  C      5.655320   -5.321720   -8.927210
  F      5.252430   -5.838270  -10.092670
  C      6.985690   -5.402300   -8.552470
  C      7.996520   -6.066650   -9.350790
  N      7.683460   -7.162980  -10.001480
  N      8.520330   -7.821360  -10.756160
  C      9.785360   -7.498360  -10.891330
  C     10.611800   -8.321590  -11.754500
  C     11.557900   -7.814720  -12.629540
  F     11.742590   -6.489110  -12.717720
  C     12.306080   -8.616740  -13.507880
  F     13.166370   -7.966710  -14.310430
  C     12.181930  -10.001290  -13.579330
  C     12.876530  -10.900840  -14.451610
  C     13.753640  -10.582160  -15.433210
  C     14.380170  -11.537650  -16.278770
  C     15.231610  -11.244520  -17.312690
  C     15.643210  -12.463590  -17.949100
  C     16.463780  -12.619860  -19.026920
  C     16.864790  -13.852020  -19.681640
  C     17.667300  -13.543480  -20.719800
  C     17.837060  -12.097120  -20.797160
  C     17.124180  -11.560890  -19.792950
  F     17.007090  -10.257980  -19.503010
  C     14.966270  -13.525530  -17.192010
  F     15.097110  -14.827220  -17.471730
  C     14.221120  -12.998240  -16.212270
  C     11.232050  -10.534240  -12.672090
  N     10.869900  -11.806830  -12.456870
  N      9.966690  -11.730230  -11.517940
  C      9.324710  -12.898370  -10.999970
  N      9.679110  -10.540930  -11.073590
  C     10.459460   -9.722920  -11.790130
  C     10.277870   -6.353850  -10.197810
  N     11.453030   -5.769610  -10.079000
  O     11.254010   -4.705340   -9.312490
  N      9.995860   -4.565460   -8.910610
  C      9.337810   -5.584970   -9.423730
  C      7.291310   -4.793990   -7.317530
  N      8.445380   -4.733520   -6.640400
  N      8.148360   -4.075920   -5.557050
  C      9.134310   -3.785950   -4.563140
  N      6.909760   -3.694650   -5.424030
  C      6.297550   -4.136100   -6.531030
  C      2.571090   -3.075780   -6.511330
  C      2.015340   -2.405050   -5.491780
  F      0.752830   -1.965100   -5.429070
  C      3.769480   -1.378990   -2.149660
  F      5.027480   -1.834620   -2.206910
  C      3.217510   -0.701730   -1.134210
  H      0.342860    1.326400    1.054820
  H      2.056030    0.690060    1.001590
  H     -0.099690    0.435100   -1.165200
  H      0.670340   -0.887710   -3.292410
  H      5.123680   -2.864070   -4.363600
  H     12.620700  -11.936410  -14.277570
  H     14.012820   -9.552880  -15.632070
  H     15.543120  -10.264080  -17.614760
  H     16.555980  -14.829290  -19.368610
  H     18.128360  -14.230710  -21.404550
  H     18.425890  -11.579130  -21.529080
  H     13.619490  -13.532110  -15.503930
  H      9.625100  -13.748330  -11.607710
  H      8.244210  -12.763660  -11.035790
  H      9.621880  -13.057310   -9.962560
  H     10.091640   -4.153740   -4.923520
  H      8.869790   -4.273240   -3.624110
  H      9.180240   -2.709980   -4.395990
  H      2.091700   -3.356810   -7.426770
  H      3.691070   -0.417090   -0.215920

 Total Charge           Charge          ....    0
 Multiplicity           Mult            ....    1
 Number of Electrons    NEL             ....  422
 Basis Dimension        Dim             ....  954

ORBITAL ENERGIES
----------------

  NO   OCC          E(Eh)            E(eV)
   0   2.0000     -24.796042      -674.7346
   1   2.0000     -24.795546      -674.7211
   2   2.0000     -24.794958      -674.7051
   3   2.0000     -24.788809      -674.5378
   4   2.0000     -24.788053      -674.5172
   5   2.0000     -24.788034      -674.5167
   6   2.0000     -24.783389      -674.3903
   7   2.0000     -24.782292      -674.3605
   8   2.0000     -19.370468      -527.0972
   9   2.0000     -14.547092      -395.8465
  10   2.0000     -14.544651      -395.7801
  11   2.0000     -14.492686      -394.3660
  12   2.0000     -14.492484      -394.3605
  13   2.0000     -14.447561      -393.1381
  14   2.0000     -14.446626      -393.1127
  15   2.0000     -14.446351      -393.1052
  16   2.0000     -14.445162      -393.0728
  17   2.0000     -14.444963      -393.0674
  18   2.0000     -14.441658      -392.9775
  19   2.0000     -10.379804      -282.4488
  20   2.0000     -10.379123      -282.4303
  21   2.0000     -10.376014      -282.3457
  22   2.0000     -10.374111      -282.2939
  23   2.0000     -10.354852      -281.7698
  24   2.0000     -10.354398      -281.7575
  25   2.0000     -10.348676      -281.6018
  26   2.0000     -10.347939      -281.5817
  27   2.0000     -10.347455      -281.5686
  28   2.0000     -10.346587      -281.5449
  29   2.0000     -10.336821      -281.2792
  30   2.0000     -10.336459      -281.2693
  31   2.0000     -10.324723      -280.9500
  32   2.0000     -10.323074      -280.9051
  33   2.0000     -10.314877      -280.6821
  34   2.0000     -10.314057      -280.6598
  35   2.0000     -10.312259      -280.6108
  36   2.0000     -10.311344      -280.5859
  37   2.0000     -10.310290      -280.5573
  38   2.0000     -10.308711      -280.5143
  39   2.0000     -10.308081      -280.4971
  40   2.0000     -10.307118      -280.4709
  41   2.0000     -10.305748      -280.4337
  42   2.0000     -10.304961      -280.4122
  43   2.0000     -10.301769      -280.3254
  44   2.0000     -10.300842      -280.3002
  45   2.0000     -10.291321      -280.0411
  46   2.0000     -10.288073      -279.9527
  47   2.0000     -10.287779      -279.9447
  48   2.0000     -10.287162      -279.9279
  49   2.0000     -10.284310      -279.8503
  50   2.0000     -10.279044      -279.7070
  51   2.0000     -10.274491      -279.5831
  52   2.0000     -10.273835      -279.5653
  53   2.0000     -10.273635      -279.5598
  54   2.0000     -10.273477      -279.5555
  55   2.0000     -10.268265      -279.4137
  56   2.0000     -10.268219      -279.4124
  57   2.0000     -10.266154      -279.3563
  58   2.0000     -10.262640      -279.2606
  59   2.0000     -10.261926      -279.2412
  60   2.0000     -10.260104      -279.1916
  61   2.0000      -1.324354       -36.0375
  62   2.0000      -1.319408       -35.9029
  63   2.0000      -1.317877       -35.8613
  64   2.0000      -1.301270       -35.4094
  65   2.0000      -1.300797       -35.3965
  66   2.0000      -1.300171       -35.3795
  67   2.0000      -1.298378       -35.3307
  68   2.0000      -1.295912       -35.2636
  69   2.0000      -1.294297       -35.2196
  70   2.0000      -1.226429       -33.3728
  71   2.0000      -1.222884       -33.2764
  72   2.0000      -1.129016       -30.7221
  73   2.0000      -1.026682       -27.9374
  74   2.0000      -1.000471       -27.2242
  75   2.0000      -0.998262       -27.1641
  76   2.0000      -0.996083       -27.1048
  77   2.0000      -0.994446       -27.0602
  78   2.0000      -0.984262       -26.7831
  79   2.0000      -0.984078       -26.7781
  80   2.0000      -0.981037       -26.6954
  81   2.0000      -0.964965       -26.2580
  82   2.0000      -0.961650       -26.1678
  83   2.0000      -0.953414       -25.9437
  84   2.0000      -0.930849       -25.3297
  85   2.0000      -0.927601       -25.2413
  86   2.0000      -0.906167       -24.6581
  87   2.0000      -0.888108       -24.1666
  88   2.0000      -0.878387       -23.9021
  89   2.0000      -0.863712       -23.5028
  90   2.0000      -0.845386       -23.0041
  91   2.0000      -0.837426       -22.7875
  92   2.0000      -0.828077       -22.5331
  93   2.0000      -0.820607       -22.3298
  94   2.0000      -0.813860       -22.1463
  95   2.0000      -0.799913       -21.7667
  96   2.0000      -0.799138       -21.7456
  97   2.0000      -0.792010       -21.5517
  98   2.0000      -0.790757       -21.5176
  99   2.0000      -0.783575       -21.3221
 100   2.0000      -0.766968       -20.8703
 101   2.0000      -0.760965       -20.7069
 102   2.0000      -0.741687       -20.1823
 103   2.0000      -0.739352       -20.1188
 104   2.0000      -0.736422       -20.0390
 105   2.0000      -0.734414       -19.9844
 106   2.0000      -0.717046       -19.5118
 107   2.0000      -0.705167       -19.1886
 108   2.0000      -0.691825       -18.8255
 109   2.0000      -0.689545       -18.7635
 110   2.0000      -0.677889       -18.4463
 111   2.0000      -0.674570       -18.3560
 112   2.0000      -0.668914       -18.2021
 113   2.0000      -0.665879       -18.1195
 114   2.0000      -0.660160       -17.9639
 115   2.0000      -0.657245       -17.8845
 116   2.0000      -0.652839       -17.7646
 117   2.0000      -0.650989       -17.7143
 118   2.0000      -0.648273       -17.6404
 119   2.0000      -0.643860       -17.5203
 120   2.0000      -0.641395       -17.4532
 121   2.0000      -0.637668       -17.3518
 122   2.0000      -0.627532       -17.0760
 123   2.0000      -0.624527       -16.9943
 124   2.0000      -0.621407       -16.9093
 125   2.0000      -0.620015       -16.8715
 126   2.0000      -0.618638       -16.8340
 127   2.0000      -0.617046       -16.7907
 128   2.0000      -0.612797       -16.6751
 129   2.0000      -0.610738       -16.6190
 130   2.0000      -0.610079       -16.6011
 131   2.0000      -0.607544       -16.5321
 132   2.0000      -0.585028       -15.9194
 133   2.0000      -0.582059       -15.8386
 134   2.0000      -0.580911       -15.8074
 135   2.0000      -0.580404       -15.7936
 136   2.0000      -0.576191       -15.6790
 137   2.0000      -0.574163       -15.6238
 138   2.0000      -0.565672       -15.3927
 139   2.0000      -0.562051       -15.2942
 140   2.0000      -0.557442       -15.1688
 141   2.0000      -0.557383       -15.1672
 142   2.0000      -0.552410       -15.0318
 143   2.0000      -0.549983       -14.9658
 144   2.0000      -0.549211       -14.9448
 145   2.0000      -0.547911       -14.9094
 146   2.0000      -0.545819       -14.8525
 147   2.0000      -0.543994       -14.8028
 148   2.0000      -0.543130       -14.7793
 149   2.0000      -0.541286       -14.7291
 150   2.0000      -0.538988       -14.6666
 151   2.0000      -0.536337       -14.5945
 152   2.0000      -0.529807       -14.4168
 153   2.0000      -0.526387       -14.3237
 154   2.0000      -0.525119       -14.2892
 155   2.0000      -0.522241       -14.2109
 156   2.0000      -0.516919       -14.0661
 157   2.0000      -0.516801       -14.0629
 158   2.0000      -0.510030       -13.8786
 159   2.0000      -0.509351       -13.8601
 160   2.0000      -0.508391       -13.8340
 161   2.0000      -0.507321       -13.8049
 162   2.0000      -0.505979       -13.7684
 163   2.0000      -0.504432       -13.7263
 164   2.0000      -0.495507       -13.4834
 165   2.0000      -0.493734       -13.4352
 166   2.0000      -0.484787       -13.1917
 167   2.0000      -0.482639       -13.1333
 168   2.0000      -0.474675       -12.9166
 169   2.0000      -0.472069       -12.8457
 170   2.0000      -0.471492       -12.8300
 171   2.0000      -0.469847       -12.7852
 172   2.0000      -0.466157       -12.6848
 173   2.0000      -0.461916       -12.5694
 174   2.0000      -0.458486       -12.4760
 175   2.0000      -0.456746       -12.4287
 176   2.0000      -0.453794       -12.3484
 177   2.0000      -0.452460       -12.3121
 178   2.0000      -0.449739       -12.2380
 179   2.0000      -0.446027       -12.1370
 180   2.0000      -0.444064       -12.0836
 181   2.0000      -0.433416       -11.7939
 182   2.0000      -0.431704       -11.7473
 183   2.0000      -0.429740       -11.6938
 184   2.0000      -0.424525       -11.5519
 185   2.0000      -0.421878       -11.4799
 186   2.0000      -0.417581       -11.3630
 187   2.0000      -0.413074       -11.2403
 188   2.0000      -0.412326       -11.2200
 189   2.0000      -0.408506       -11.1160
 190   2.0000      -0.408379       -11.1126
 191   2.0000      -0.402154       -10.9432
 192   2.0000      -0.398198       -10.8355
 193   2.0000      -0.393956       -10.7201
 194   2.0000      -0.387392       -10.5415
 195   2.0000      -0.375001       -10.2043
 196   2.0000      -0.372130       -10.1262
 197   2.0000      -0.369045       -10.0422
 198   2.0000      -0.368563       -10.0291
 199   2.0000      -0.347234        -9.4487
 200   2.0000      -0.327710        -8.9174
 201   2.0000      -0.321791        -8.7564
 202   2.0000      -0.321509        -8.7487
 203   2.0000      -0.316233        -8.6051
 204   2.0000      -0.305854        -8.3227
 205   2.0000      -0.301434        -8.2024
 206   2.0000      -0.297949        -8.1076
 207   2.0000      -0.283158        -7.7051
 208   2.0000      -0.279377        -7.6022
 209   2.0000      -0.263532        -7.1711
 210   2.0000      -0.254986        -6.9385
 211   0.0000      -0.103373        -2.8129
 212   0.0000      -0.093341        -2.5399
 213   0.0000      -0.076239        -2.0746
 214   0.0000      -0.034818        -0.9474
 215   0.0000      -0.029200        -0.7946

MULLIKEN ATOMIC CHARGES
-----------------------
   0 C :   -0.008570
   1 C :   -0.001428
   2 C :    0.096766
   3 C :   -0.079790
   4 C :   -0.004989
   5 C :    0.032836
   6 C :   -0.102684
   7 C :    0.003866
   8 C :    0.133732
   9 C :    0.109860
  10 F :   -0.174199
  11 C :    0.175143
  12 F :   -0.148195
  13 C :   -0.037063
  14 C :   -0.082227
  15 N :   -0.029618
  16 N :   -0.029888
  17 C :   -0.073920
  18 C :   -0.061826
  19 C :    0.182074
  20 F :   -0.163521
  21 C :    0.137469
  22 F :   -0.173850
  23 C :    0.057451
  24 C :   -0.048331
  25 C :    0.021627
  26 C :    0.105674
  27 C :   -0.078519
  28 C :    0.021949
  29 C :   -0.039378
  30 C :   -0.005007
  31 C :    0.043904
  32 C :   -0.063066
  33 C :    0.246597
  34 F :   -0.181861
  35 C :    0.257966
  36 F :   -0.175517
  37 C :   -0.074164
  38 C :   -0.056659
  39 N :   -0.060840
  40 N :   -0.076020
  41 C :    0.147599
  42 N :   -0.024292
  43 C :    0.016026
  44 C :   -0.010147
  45 N :    0.083979
  46 O :   -0.086851
  47 N :    0.092234
  48 C :   -0.011437
  49 C :   -0.004005
  50 N :   -0.037872
  51 N :   -0.068994
  52 C :    0.149342
  53 N :   -0.066711
  54 C :   -0.052453
  55 C :   -0.083982
  56 C :    0.258439
  57 F :   -0.178361
  58 C :    0.252200
  59 F :   -0.174288
  60 C :   -0.071911
  61 H :    0.029899
  62 H :    0.019018
  63 H :   -0.009172
  64 H :   -0.013026
  65 H :   -0.003257
  66 H :   -0.004406
  67 H :   -0.000045
  68 H :   -0.009157
  69 H :   -0.010398
  70 H :   -0.007954
  71 H :   -0.010129
  72 H :   -0.011637
  73 H :    0.050750
  74 H :    0.061487
  75 H :    0.054211
  76 H :    0.055028
  77 H :    0.054876
  78 H :    0.057498
  79 H :   -0.007340
  80 H :   -0.020546
Sum of atomic charges:   -0.0000000

LOEWDIN ATOMIC CHARGES
----------------------
   0 C :   -0.026529
   1 C :   -0.020586
   2 C :    0.002721
   3 C :   -0.053934
   4 C :    0.011933
   5 C :   -0.001241
   6 C :   -0.029868
   7 C :   -0.009932
   8 C :   -0.034712
   9 C :    0.064594
  10 F :   -0.045017
  11 C :    0.085613
  12 F :   -0.033033
  13 C :   -0.068165
  14 C :    0.007248
  15 N :   -0.032956
  16 N :   -0.025665
  17 C :    0.007623
  18 C :   -0.068298
  19 C :    0.077909
  20 F :   -0.041465
  21 C :    0.063538
  22 F :   -0.045553
  23 C :   -0.040213
  24 C :   -0.013780
  25 C :    0.003148
  26 C :   -0.002127
  27 C :   -0.041432
  28 C :    0.005858
  29 C :    0.004546
  30 C :   -0.054091
  31 C :    0.002689
  32 C :   -0.060396
  33 C :    0.068103
  34 F :   -0.056861
  35 C :    0.080660
  36 F :   -0.051433
  37 C :   -0.052799
  38 C :   -0.051885
  39 N :   -0.095332
  40 N :    0.157495
  41 C :    0.034116
  42 N :   -0.074918
  43 C :   -0.039573
  44 C :   -0.068372
  45 N :   -0.004981
  46 O :    0.091756
  47 N :    0.005361
  48 C :   -0.064940
  49 C :   -0.048316
  50 N :   -0.076982
  51 N :    0.158903
  52 C :    0.035367
  53 N :   -0.083473
  54 C :   -0.039595
  55 C :   -0.053604
  56 C :    0.071245
  57 F :   -0.054576
  58 C :    0.079462
  59 F :   -0.052214
  60 C :   -0.052482
  61 H :    0.028488
  62 H :    0.022381
  63 H :    0.034272
  64 H :    0.024660
  65 H :    0.020878
  66 H :    0.034310
  67 H :    0.032977
  68 H :    0.025911
  69 H :    0.023749
  70 H :    0.026512
  71 H :    0.030208
  72 H :    0.031216
  73 H :    0.041541
  74 H :    0.045030
  75 H :    0.041584
  76 H :    0.044000
  77 H :    0.041832
  78 H :    0.043558
  79 H :    0.029366
  80 H :    0.028967

  Mayer bond orders larger than 0.100000
B(  0-C ,  1-C ) :   1.8993 B(  0-C , 61-H ) :   0.9505 B(  0-C , 62-H ) :   0.9535
B(  1-C ,  2-C ) :   1.1123 B(  1-C , 63-H ) :   0.9678 B(  2-C ,  3-C ) :   1.5759
B(  2-C , 60-C ) :   1.0102 B(  3-C ,  4-C ) :   1.0928 B(  3-C , 64-H ) :   1.0207
B(  4-C ,  5-C ) :   1.5059 B(  4-C , 58-C ) :   1.0118 B(  5-C ,  6-C ) :   1.0529
B(  5-C , 56-C ) :   1.0230 B(  6-C ,  7-C ) :   1.6087 B(  6-C , 65-H ) :   0.9991
B(  7-C ,  8-C ) :   1.0803 B(  7-C , 55-C ) :   1.0207 B(  8-C ,  9-C ) :   1.3590
B(  8-C , 13-C ) :   0.1329 B(  8-C , 54-C ) :   1.1658 B(  9-C , 10-F ) :   1.1277
B(  9-C , 11-C ) :   1.1513 B( 11-C , 12-F ) :   1.2075 B( 11-C , 13-C ) :   1.4197
B( 13-C , 14-C ) :   0.9877 B( 13-C , 49-C ) :   1.2270 B( 14-C , 15-N ) :   1.7865
B( 14-C , 17-C ) :   0.1073 B( 14-C , 48-C ) :   1.0960 B( 15-N , 16-N ) :   1.1711
B( 16-N , 17-C ) :   1.7662 B( 17-C , 18-C ) :   0.9897 B( 17-C , 44-C ) :   1.0834
B( 18-C , 19-C ) :   1.4289 B( 18-C , 23-C ) :   0.1288 B( 18-C , 43-C ) :   1.2201
B( 19-C , 20-F ) :   1.1775 B( 19-C , 21-C ) :   1.1699 B( 21-C , 22-F ) :   1.1252
B( 21-C , 23-C ) :   1.3482 B( 23-C , 24-C ) :   1.1441 B( 23-C , 38-C ) :   1.1526
B( 24-C , 25-C ) :   1.6024 B( 24-C , 66-H ) :   0.9779 B( 25-C , 26-C ) :   1.1175
B( 25-C , 67-H ) :   0.9842 B( 26-C , 27-C ) :   1.5473 B( 26-C , 37-C ) :   1.0082
B( 27-C , 28-C ) :   1.0815 B( 27-C , 68-H ) :   1.0245 B( 28-C , 29-C ) :   1.5508
B( 28-C , 35-C ) :   1.0139 B( 29-C , 30-C ) :   1.0796 B( 29-C , 33-C ) :   1.0182
B( 30-C , 31-C ) :   1.6814 B( 30-C , 69-H ) :   1.0113 B( 31-C , 32-C ) :   1.0343
B( 31-C , 70-H ) :   1.0004 B( 32-C , 33-C ) :   1.6759 B( 32-C , 71-H ) :   1.0083
B( 33-C , 34-F ) :   1.1149 B( 35-C , 36-F ) :   1.1291 B( 35-C , 37-C ) :   1.6760
B( 37-C , 72-H ) :   1.0137 B( 38-C , 39-N ) :   1.4863 B( 38-C , 43-C ) :   1.2139
B( 39-N , 40-N ) :   1.2301 B( 39-N , 42-N ) :   0.1625 B( 40-N , 41-C ) :   0.9516
B( 40-N , 42-N ) :   1.2134 B( 41-C , 73-H ) :   0.9669 B( 41-C , 74-H ) :   0.9688
B( 41-C , 75-H ) :   0.9698 B( 42-N , 43-C ) :   1.4992 B( 44-C , 45-N ) :   1.6103
B( 44-C , 48-C ) :   1.1763 B( 45-N , 46-O ) :   1.0761 B( 45-N , 47-N ) :   0.1885
B( 46-O , 47-N ) :   1.0776 B( 47-N , 48-C ) :   1.5978 B( 49-C , 50-N ) :   1.4819
B( 49-C , 54-C ) :   1.2152 B( 50-N , 51-N ) :   1.2465 B( 50-N , 53-N ) :   0.1599
B( 51-N , 52-C ) :   0.9518 B( 51-N , 53-N ) :   1.2148 B( 52-C , 76-H ) :   0.9665
B( 52-C , 77-H ) :   0.9698 B( 52-C , 78-H ) :   0.9691 B( 53-N , 54-C ) :   1.4848
B( 55-C , 56-C ) :   1.6469 B( 55-C , 79-H ) :   1.0171 B( 56-C , 57-F ) :   1.1226
B( 58-C , 59-F ) :   1.1251 B( 58-C , 60-C ) :   1.6816 B( 60-C , 80-H ) :   1.0124

-----------------------------------------------------------------------------
         ABSORPTION SPECTRUM VIA TRANSITION ELECTRIC DIPOLE MOMENTS
-----------------------------------------------------------------------------
State   Energy  Wavelength   fosc         T2         TX        TY        TZ
        (cm-1)    (nm)                  (au**2)     (au)      (au)      (au)
-----------------------------------------------------------------------------
   0   17150.2    583.1   0.973082878  18.67914  -2.20272   1.99493   3.13806
   1   18364.6    544.5   0.374332521   6.71045   1.69230  -0.78900  -1.79556
   2   19297.6    518.2   0.013160140   0.22451  -0.01975   0.19596   0.43095
   3   19316.9    517.7   0.010127707   0.17260  -0.21472   0.10504   0.33980
   4   20131.5    496.7   0.031707889   0.51852   0.38828  -0.42639  -0.43122
   5   21598.6    463.0   0.607299981   9.25664  -1.82657   1.67519   1.76466
   6   24150.2    414.1   0.009147965   0.12470  -0.34948  -0.04636   0.02054
   7   26507.5    377.3   0.122603885   1.52269  -0.52392   0.67996   0.88648
   8   26776.2    373.5   0.602433666   7.40689  -1.44497   1.02585   2.06557
   9   28925.3    345.7   0.107644744   1.22515   0.37998  -0.53011  -0.89429
  10   29941.7    334.0   0.168256777   1.85000  -0.09400  -0.58471  -1.22445
  11   30443.1    328.5   0.009346701   0.10108   0.19357  -0.01980   0.25143
  12   30767.8    325.0   0.487755156   5.21892  -1.25719   1.05500   1.58914
  13   31054.0    322.0   0.162306028   1.72065   0.85319   0.09720  -0.99160
  14   31248.0    320.0   0.014701669   0.15489   0.15391  -0.02265  -0.36151
  15   31529.4    317.2   0.034698013   0.36230   0.13023   0.53406   0.24519
  16   31596.3    316.5   0.137345005   1.43104  -0.73197   0.12465   0.93794
  17   33097.6    302.1   0.014501838   0.14425  -0.17309   0.32931  -0.07640
  18   33296.1    300.3   0.035397052   0.34998   0.49781   0.17845  -0.26520
  19   33480.4    298.7   0.027654594   0.27193   0.43397  -0.22756   0.17835
  20   33790.7    295.9   0.057744797   0.56259  -0.30734   0.53456   0.42705
  21   34498.2    289.9   0.038368578   0.36615  -0.14814  -0.29494  -0.50716
  22   34709.8    288.1   0.003103074   0.02943  -0.12108   0.03805   0.11543
  23   35035.7    285.4   0.084301532   0.79214   0.52491   0.06673  -0.71565
  24   36018.5    277.6   0.009918649   0.09066  -0.18670  -0.23527  -0.02115
  25   36169.4    276.5   0.004232797   0.03853  -0.06876  -0.07702   0.16693
  26   36791.1    271.8   0.035576878   0.31835   0.34027  -0.28687  -0.34680
  27   37230.6    268.6   0.009472058   0.08376  -0.19423   0.08086   0.19873
  28   37787.4    264.6   0.012511310   0.10900   0.00189   0.17290  -0.28125
  29   38175.1    262.0   0.017800737   0.15351   0.07473  -0.36207  -0.12972
  30   38508.1    259.7   0.078444826   0.67064   0.40948  -0.20148  -0.67998
  31   38728.9    258.2   0.005891804   0.05008  -0.20332  -0.08157  -0.04571
  32   39099.4    255.8   0.028152800   0.23704  -0.35196   0.04924   0.33278
  33   39413.9    253.7   0.012257889   0.10239   0.15916  -0.04431  -0.27403
  34   39736.5    251.7   0.009949791   0.08243   0.23192  -0.13809  -0.09786
  35   39990.8    250.1   0.007246370   0.05965   0.12125  -0.05267   0.20537
  36   40277.4    248.3   0.001944748   0.01590  -0.09419  -0.07007   0.04599

FINAL SINGLE POINT ENERGY     -3029.999787081769

DIPOLE MOMENT
-------------
                                X             Y             Z
Electronic contribution:      1.91370       4.34528     -24.38894
Nuclear contribution   :     -1.63330      -4.89251      26.22780
                        -----------------------------------------
Total Dipole Moment    :      0.28040      -0.54723       1.83886
                        -----------------------------------------
Magnitude (a.u.)       :      1.93894
Magnitude (Debye)      :      4.92839

Rotational constants in cm-1:     0.005145     0.000293     0.000289
Rotational constants in MHz :   154.239978     8.787195     8.660241

                             ****ORCA TERMINATED NORMALLY****
TOTAL RUN TIME: 0 days 0 hours 6 minutes 35 seconds 711 msec
