                         Program Version 4.2.0 -  RELEASE  -
|  1> # ORCA input file
|  2> # SCF done       -151.692864239515          0.000524869463
|  3> ! CAM-B3LYP def2-SVP def2/J RIJCOSX Grid4 TightSCF
|  4> %maxcore 5000
|  5> %tddft
|  6>     Mode sTDDFT
|  7>     Ethresh 5.0
|  8>     maxcore 5000
|  9> end
| 10>
| 11> %pal
| 12>   nprocs 6
| 13>   end
| 14> * xyz 0 1
| 15>    C       -1.95179        -5.03135         4.83382
| 16>    S       -2.97408        -3.78193         4.21741
| 17>    C       -1.62313        -3.01156         3.44987
| 18>    O       -1.76192        -1.88080         2.73895
| 19>    C       -0.44584        -3.69616         3.66627
| 20>    C       -0.66611        -4.85723         4.46764
| 21>    C        0.83635        -3.29741         3.16058
| 22>    C        1.14674        -2.19163         2.40019
| 23>    C        2.51263        -2.12776         2.10307
| 24>    C        3.24102        -3.19700         2.64205
| 25>    S        2.24811        -4.27939         3.51284
| 26>    C        4.60903        -3.03450         2.29820
| 27>    C        4.74328        -1.85880         1.54316
| 28>    C        3.42861        -1.25309         1.38913
| 29>    C        3.12413        -0.10770         0.71410
| 30>    C        1.80797         0.39245         0.62639
| 31>    N        0.74308         0.81059         0.54706
| 32>    C        4.10954         0.65620         0.05411
| 33>    N        4.90849         1.27808        -0.48470
| 34>    C        6.06260        -1.60052         1.16892
| 35>    C        6.93083        -2.57147         1.62997
| 36>    S        6.10094        -3.82846         2.54064
| 37>    C        8.33718        -2.62989         1.46058
| 38>    C        9.19931        -3.62321         1.88578
| 39>    C       10.52601        -3.33622         1.56231
| 40>    C       10.67314        -2.11290         0.88849
| 41>    S        9.17965        -1.31952         0.64401
| 42>    C       12.05019        -1.90545         0.62244
| 43>    C       12.77373        -2.99980         1.12413
| 44>    C       11.84010        -3.93757         1.72755
| 45>    C       12.13460        -5.12899         2.32281
| 46>    C       11.13721        -5.95787         2.87768
| 47>    N       10.32915        -6.63500         3.32887
| 48>    C       13.45627        -5.61163         2.42243
| 49>    N       14.52916        -6.00776         2.50561
| 50>    C       14.14933        -2.88087         0.92292
| 51>    C       14.47745        -1.70375         0.27689
| 52>    S       13.06054        -0.72973        -0.09552
| 53>    C       15.76974        -1.23942        -0.07521
| 54>    C       16.10229        -0.04369        -0.68293
| 55>    C       17.47991         0.08479        -0.86415
| 56>    C       18.20017        -1.02448        -0.39237
| 57>    S       17.18540        -2.22470         0.27551
| 58>    C       19.58217        -0.79574        -0.61811
| 59>    C       19.73546         0.45667        -1.22970
| 60>    C       18.42065         1.05383        -1.40480
| 61>    C       18.13100         2.26789        -1.95446
| 62>    C       16.80766         2.74367        -2.06706
| 63>    N       15.73315         3.13338        -2.15985
| 64>    C       19.13429         3.13028        -2.44398
| 65>    N       19.94555         3.83483        -2.84470
| 66>    C       21.07049         0.77559        -1.49184
| 67>    C       21.93040        -0.22443        -1.08475
| 68>    S       21.07932        -1.58312        -0.36546
| 69>    C       23.34690        -0.24830        -1.18941
| 70>    S       24.20469         1.10217        -1.89676
| 71>    C       25.72808         0.30164        -1.64326
| 72>    O       26.89411         0.85918        -2.00104
| 73>    C       25.57132        -0.92028        -1.05407
| 74>    C       24.22509        -1.22706        -0.79922
| 75>    H       -2.38380        -5.81022         5.42828
| 76>    H       -2.67998        -1.58502         2.72355
| 77>    H        0.12838        -5.52503         4.74881
| 78>    H        0.41070        -1.47581         2.08717
| 79>    H        6.38983        -0.75412         0.59200
| 80>    H        8.86301        -4.50320         2.40420
| 81>    H       14.88621        -3.60161         1.22921
| 82>    H       15.36770         0.68720        -0.97016
| 83>    H       21.41340         1.68397        -1.95382
| 84>    H       26.76097         1.72630        -2.40171
| 85>    H       26.39825        -1.56285        -0.81872
| 86>    H       23.90063        -2.14403        -0.34029
| 87> *
| 88>
| 89>                          ****END OF INPUT****

CARTESIAN COORDINATES (ANGSTROEM)
---------------------------------
  C     -1.951790   -5.031350    4.833820
  S     -2.974080   -3.781930    4.217410
  C     -1.623130   -3.011560    3.449870
  O     -1.761920   -1.880800    2.738950
  C     -0.445840   -3.696160    3.666270
  C     -0.666110   -4.857230    4.467640
  C      0.836350   -3.297410    3.160580
  C      1.146740   -2.191630    2.400190
  C      2.512630   -2.127760    2.103070
  C      3.241020   -3.197000    2.642050
  S      2.248110   -4.279390    3.512840
  C      4.609030   -3.034500    2.298200
  C      4.743280   -1.858800    1.543160
  C      3.428610   -1.253090    1.389130
  C      3.124130   -0.107700    0.714100
  C      1.807970    0.392450    0.626390
  N      0.743080    0.810590    0.547060
  C      4.109540    0.656200    0.054110
  N      4.908490    1.278080   -0.484700
  C      6.062600   -1.600520    1.168920
  C      6.930830   -2.571470    1.629970
  S      6.100940   -3.828460    2.540640
  C      8.337180   -2.629890    1.460580
  C      9.199310   -3.623210    1.885780
  C     10.526010   -3.336220    1.562310
  C     10.673140   -2.112900    0.888490
  S      9.179650   -1.319520    0.644010
  C     12.050190   -1.905450    0.622440
  C     12.773730   -2.999800    1.124130
  C     11.840100   -3.937570    1.727550
  C     12.134600   -5.128990    2.322810
  C     11.137210   -5.957870    2.877680
  N     10.329150   -6.635000    3.328870
  C     13.456270   -5.611630    2.422430
  N     14.529160   -6.007760    2.505610
  C     14.149330   -2.880870    0.922920
  C     14.477450   -1.703750    0.276890
  S     13.060540   -0.729730   -0.095520
  C     15.769740   -1.239420   -0.075210
  C     16.102290   -0.043690   -0.682930
  C     17.479910    0.084790   -0.864150
  C     18.200170   -1.024480   -0.392370
  S     17.185400   -2.224700    0.275510
  C     19.582170   -0.795740   -0.618110
  C     19.735460    0.456670   -1.229700
  C     18.420650    1.053830   -1.404800
  C     18.131000    2.267890   -1.954460
  C     16.807660    2.743670   -2.067060
  N     15.733150    3.133380   -2.159850
  C     19.134290    3.130280   -2.443980
  N     19.945550    3.834830   -2.844700
  C     21.070490    0.775590   -1.491840
  C     21.930400   -0.224430   -1.084750
  S     21.079320   -1.583120   -0.365460
  C     23.346900   -0.248300   -1.189410
  S     24.204690    1.102170   -1.896760
  C     25.728080    0.301640   -1.643260
  O     26.894110    0.859180   -2.001040
  C     25.571320   -0.920280   -1.054070
  C     24.225090   -1.227060   -0.799220
  H     -2.383800   -5.810220    5.428280
  H     -2.679980   -1.585020    2.723550
  H      0.128380   -5.525030    4.748810
  H      0.410700   -1.475810    2.087170
  H      6.389830   -0.754120    0.592000
  H      8.863010   -4.503200    2.404200
  H     14.886210   -3.601610    1.229210
  H     15.367700    0.687200   -0.970160
  H     21.413400    1.683970   -1.953820
  H     26.760970    1.726300   -2.401710
  H     26.398250   -1.562850   -0.818720
  H     23.900630   -2.144030   -0.340290

 Total Charge           Charge          ....    0
 Multiplicity           Mult            ....    1
 Number of Electrons    NEL             ....  462
 Basis Dimension        Dim             ....  932

ORBITAL ENERGIES
----------------

  NO   OCC          E(Eh)            E(eV)
   0   2.0000     -88.988062     -2421.4883
   1   2.0000     -88.987434     -2421.4712
   2   2.0000     -88.987113     -2421.4625
   3   2.0000     -88.985195     -2421.4103
   4   2.0000     -88.983405     -2421.3615
   5   2.0000     -88.979116     -2421.2448
   6   2.0000     -88.966090     -2420.8904
   7   2.0000     -88.964182     -2420.8385
   8   2.0000     -19.277704      -524.5730
   9   2.0000     -19.270152      -524.3675
  10   2.0000     -14.429820      -392.6554
  11   2.0000     -14.429681      -392.6516
  12   2.0000     -14.427722      -392.5983
  13   2.0000     -14.427357      -392.5884
  14   2.0000     -14.424904      -392.5216
  15   2.0000     -14.423498      -392.4833
  16   2.0000     -10.366792      -282.0947
  17   2.0000     -10.363872      -282.0153
  18   2.0000     -10.363298      -281.9997
  19   2.0000     -10.361020      -281.9377
  20   2.0000     -10.357378      -281.8386
  21   2.0000     -10.350670      -281.6561
  22   2.0000     -10.348268      -281.5907
  23   2.0000     -10.344782      -281.4958
  24   2.0000     -10.330311      -281.1021
  25   2.0000     -10.330179      -281.0985
  26   2.0000     -10.329162      -281.0708
  27   2.0000     -10.328805      -281.0611
  28   2.0000     -10.328360      -281.0490
  29   2.0000     -10.328224      -281.0453
  30   2.0000     -10.327887      -281.0361
  31   2.0000     -10.326710      -281.0041
  32   2.0000     -10.326690      -281.0035
  33   2.0000     -10.326428      -280.9964
  34   2.0000     -10.325590      -280.9736
  35   2.0000     -10.324713      -280.9497
  36   2.0000     -10.324053      -280.9318
  37   2.0000     -10.323452      -280.9154
  38   2.0000     -10.323368      -280.9131
  39   2.0000     -10.322658      -280.8938
  40   2.0000     -10.318886      -280.7912
  41   2.0000     -10.315400      -280.6963
  42   2.0000     -10.307985      -280.4945
  43   2.0000     -10.300445      -280.2894
  44   2.0000     -10.300367      -280.2872
  45   2.0000     -10.299191      -280.2552
  46   2.0000     -10.298767      -280.2437
  47   2.0000     -10.298358      -280.2326
  48   2.0000     -10.298330      -280.2318
  49   2.0000     -10.297789      -280.2171
  50   2.0000     -10.297511      -280.2095
  51   2.0000     -10.296984      -280.1952
  52   2.0000     -10.295158      -280.1455
  53   2.0000     -10.292188      -280.0647
  54   2.0000     -10.291985      -280.0591
  55   2.0000     -10.286265      -279.9035
  56   2.0000     -10.284305      -279.8502
  57   2.0000     -10.283800      -279.8364
  58   2.0000     -10.282396      -279.7982
  59   2.0000     -10.268233      -279.4128
  60   2.0000      -8.082507      -219.9362
  61   2.0000      -8.081909      -219.9199
  62   2.0000      -8.081609      -219.9118
  63   2.0000      -8.079674      -219.8591
  64   2.0000      -8.078045      -219.8148
  65   2.0000      -8.073646      -219.6951
  66   2.0000      -8.063117      -219.4086
  67   2.0000      -8.060762      -219.3445
  68   2.0000      -6.051825      -164.6785
  69   2.0000      -6.051228      -164.6623
  70   2.0000      -6.050923      -164.6540
  71   2.0000      -6.048988      -164.6013
  72   2.0000      -6.047645      -164.5648
  73   2.0000      -6.047381      -164.5576
  74   2.0000      -6.047044      -164.5484
  75   2.0000      -6.046756      -164.5406
  76   2.0000      -6.044816      -164.4878
  77   2.0000      -6.044731      -164.4855
  78   2.0000      -6.044133      -164.4692
  79   2.0000      -6.043829      -164.4610
  80   2.0000      -6.043205      -164.4440
  81   2.0000      -6.042895      -164.4355
  82   2.0000      -6.041914      -164.4088
  83   2.0000      -6.040223      -164.3628
  84   2.0000      -6.038732      -164.3222
  85   2.0000      -6.036068      -164.2498
  86   2.0000      -6.032571      -164.1546
  87   2.0000      -6.030117      -164.0878
  88   2.0000      -6.028325      -164.0391
  89   2.0000      -6.026282      -163.9835
  90   2.0000      -6.024790      -163.9429
  91   2.0000      -6.022243      -163.8736
  92   2.0000      -1.174101       -31.9489
  93   2.0000      -1.167687       -31.7744
  94   2.0000      -1.043302       -28.3897
  95   2.0000      -1.039453       -28.2849
  96   2.0000      -1.036094       -28.1936
  97   2.0000      -1.021348       -27.7923
  98   2.0000      -1.018921       -27.7262
  99   2.0000      -1.015725       -27.6393
 100   2.0000      -1.007510       -27.4157
 101   2.0000      -1.005393       -27.3581
 102   2.0000      -1.003558       -27.3082
 103   2.0000      -1.001638       -27.2559
 104   2.0000      -0.996139       -27.1063
 105   2.0000      -0.989300       -26.9202
 106   2.0000      -0.980040       -26.6682
 107   2.0000      -0.975176       -26.5359
 108   2.0000      -0.958334       -26.0776
 109   2.0000      -0.950889       -25.8750
 110   2.0000      -0.948329       -25.8054
 111   2.0000      -0.917875       -24.9766
 112   2.0000      -0.907641       -24.6982
 113   2.0000      -0.897787       -24.4300
 114   2.0000      -0.869795       -23.6683
 115   2.0000      -0.867810       -23.6143
 116   2.0000      -0.864722       -23.5303
 117   2.0000      -0.857664       -23.3382
 118   2.0000      -0.854914       -23.2634
 119   2.0000      -0.849286       -23.1102
 120   2.0000      -0.844969       -22.9928
 121   2.0000      -0.842941       -22.9376
 122   2.0000      -0.832651       -22.6576
 123   2.0000      -0.823089       -22.3974
 124   2.0000      -0.815569       -22.1928
 125   2.0000      -0.795557       -21.6482
 126   2.0000      -0.776429       -21.1277
 127   2.0000      -0.771376       -20.9902
 128   2.0000      -0.768338       -20.9075
 129   2.0000      -0.762223       -20.7411
 130   2.0000      -0.740980       -20.1631
 131   2.0000      -0.719243       -19.5716
 132   2.0000      -0.708816       -19.2879
 133   2.0000      -0.704155       -19.1610
 134   2.0000      -0.694731       -18.9046
 135   2.0000      -0.694323       -18.8935
 136   2.0000      -0.685332       -18.6488
 137   2.0000      -0.683211       -18.5911
 138   2.0000      -0.677528       -18.4365
 139   2.0000      -0.671852       -18.2820
 140   2.0000      -0.665084       -18.0979
 141   2.0000      -0.656639       -17.8681
 142   2.0000      -0.646010       -17.5788
 143   2.0000      -0.632609       -17.2142
 144   2.0000      -0.626684       -17.0529
 145   2.0000      -0.623541       -16.9674
 146   2.0000      -0.623137       -16.9564
 147   2.0000      -0.618637       -16.8340
 148   2.0000      -0.615975       -16.7615
 149   2.0000      -0.614516       -16.7218
 150   2.0000      -0.612493       -16.6668
 151   2.0000      -0.607726       -16.5371
 152   2.0000      -0.601208       -16.3597
 153   2.0000      -0.588844       -16.0232
 154   2.0000      -0.569357       -15.4930
 155   2.0000      -0.566104       -15.4045
 156   2.0000      -0.564165       -15.3517
 157   2.0000      -0.546851       -14.8806
 158   2.0000      -0.546723       -14.8771
 159   2.0000      -0.542413       -14.7598
 160   2.0000      -0.539591       -14.6830
 161   2.0000      -0.538566       -14.6551
 162   2.0000      -0.526967       -14.3395
 163   2.0000      -0.526820       -14.3355
 164   2.0000      -0.521762       -14.1979
 165   2.0000      -0.519886       -14.1468
 166   2.0000      -0.518059       -14.0971
 167   2.0000      -0.513736       -13.9795
 168   2.0000      -0.510378       -13.8881
 169   2.0000      -0.506565       -13.7843
 170   2.0000      -0.504388       -13.7251
 171   2.0000      -0.503446       -13.6994
 172   2.0000      -0.498377       -13.5615
 173   2.0000      -0.495836       -13.4924
 174   2.0000      -0.492473       -13.4009
 175   2.0000      -0.491906       -13.3854
 176   2.0000      -0.488751       -13.2996
 177   2.0000      -0.486651       -13.2424
 178   2.0000      -0.484931       -13.1956
 179   2.0000      -0.480464       -13.0741
 180   2.0000      -0.478184       -13.0120
 181   2.0000      -0.474820       -12.9205
 182   2.0000      -0.473281       -12.8786
 183   2.0000      -0.470547       -12.8042
 184   2.0000      -0.465945       -12.6790
 185   2.0000      -0.462389       -12.5822
 186   2.0000      -0.461169       -12.5490
 187   2.0000      -0.458980       -12.4895
 188   2.0000      -0.457430       -12.4473
 189   2.0000      -0.456084       -12.4107
 190   2.0000      -0.455597       -12.3974
 191   2.0000      -0.453857       -12.3501
 192   2.0000      -0.451926       -12.2975
 193   2.0000      -0.446356       -12.1460
 194   2.0000      -0.445117       -12.1123
 195   2.0000      -0.441004       -12.0003
 196   2.0000      -0.440723       -11.9927
 197   2.0000      -0.439536       -11.9604
 198   2.0000      -0.439300       -11.9540
 199   2.0000      -0.437640       -11.9088
 200   2.0000      -0.436969       -11.8905
 201   2.0000      -0.435317       -11.8456
 202   2.0000      -0.434546       -11.8246
 203   2.0000      -0.433595       -11.7987
 204   2.0000      -0.432089       -11.7577
 205   2.0000      -0.431564       -11.7434
 206   2.0000      -0.430437       -11.7128
 207   2.0000      -0.426113       -11.5951
 208   2.0000      -0.424747       -11.5580
 209   2.0000      -0.423263       -11.5176
 210   2.0000      -0.420699       -11.4478
 211   2.0000      -0.419991       -11.4285
 212   2.0000      -0.417443       -11.3592
 213   2.0000      -0.405978       -11.0472
 214   2.0000      -0.402789       -10.9604
 215   2.0000      -0.387195       -10.5361
 216   2.0000      -0.378287       -10.2937
 217   2.0000      -0.360342        -9.8054
 218   2.0000      -0.348867        -9.4932
 219   2.0000      -0.344667        -9.3789
 220   2.0000      -0.341419        -9.2905
 221   2.0000      -0.334759        -9.1093
 222   2.0000      -0.331922        -9.0321
 223   2.0000      -0.322221        -8.7681
 224   2.0000      -0.318590        -8.6693
 225   2.0000      -0.316980        -8.6255
 226   2.0000      -0.311644        -8.4803
 227   2.0000      -0.297525        -8.0961
 228   2.0000      -0.272951        -7.4274
 229   2.0000      -0.245874        -6.6906
 230   2.0000      -0.227054        -6.1785
 231   0.0000      -0.104670        -2.8482
 232   0.0000      -0.099227        -2.7001
 233   0.0000      -0.096019        -2.6128
 234   0.0000      -0.044048        -1.1986
 235   0.0000      -0.024889        -0.6773

MULLIKEN ATOMIC CHARGES
-----------------------
   0 C :   -0.080501
   1 S :    0.067867
   2 C :   -0.069938
   3 O :   -0.158007
   4 C :    0.098044
   5 C :    0.022792
   6 C :   -0.068309
   7 C :   -0.058816
   8 C :    0.018842
   9 C :   -0.103244
  10 S :    0.160161
  11 C :   -0.094958
  12 C :    0.009874
  13 C :    0.301153
  14 C :   -0.303925
  15 C :   -0.185606
  16 N :    0.170356
  17 C :   -0.191427
  18 N :    0.170717
  19 C :   -0.066790
  20 C :   -0.053755
  21 S :    0.186376
  22 C :   -0.047467
  23 C :   -0.070165
  24 C :    0.013896
  25 C :   -0.098854
  26 S :    0.194132
  27 C :   -0.098860
  28 C :    0.012996
  29 C :    0.300797
  30 C :   -0.299748
  31 C :   -0.189328
  32 N :    0.172889
  33 C :   -0.186430
  34 N :    0.169815
  35 C :   -0.068534
  36 C :   -0.048807
  37 S :    0.194043
  38 C :   -0.053434
  39 C :   -0.064911
  40 C :    0.008624
  41 C :   -0.096613
  42 S :    0.188345
  43 C :   -0.106571
  44 C :    0.015149
  45 C :    0.301047
  46 C :   -0.299951
  47 C :   -0.186884
  48 N :    0.169814
  49 C :   -0.188527
  50 N :    0.171785
  51 C :   -0.077784
  52 C :   -0.012759
  53 S :    0.180028
  54 C :   -0.092329
  55 S :    0.077379
  56 C :    0.051842
  57 O :   -0.164299
  58 C :   -0.003553
  59 C :    0.001261
  60 H :    0.030898
  61 H :    0.200104
  62 H :   -0.000278
  63 H :    0.009577
  64 H :    0.009199
  65 H :    0.009056
  66 H :    0.009039
  67 H :    0.009553
  68 H :    0.007935
  69 H :    0.196078
  70 H :   -0.011564
  71 H :   -0.008540
Sum of atomic charges:   -0.0000000

LOEWDIN ATOMIC CHARGES
----------------------
   0 C :   -0.190081
   1 S :    0.393548
   2 C :   -0.095353
   3 O :   -0.032260
   4 C :   -0.131998
   5 C :   -0.053390
   6 C :   -0.146631
   7 C :   -0.039846
   8 C :   -0.068166
   9 C :   -0.193626
  10 S :    0.467845
  11 C :   -0.172687
  12 C :   -0.075451
  13 C :    0.085311
  14 C :   -0.105147
  15 C :   -0.015952
  16 N :   -0.035338
  17 C :   -0.015954
  18 N :   -0.037859
  19 C :   -0.038124
  20 C :   -0.186899
  21 S :    0.477948
  22 C :   -0.176584
  23 C :   -0.043542
  24 C :   -0.069936
  25 C :   -0.182223
  26 S :    0.483302
  27 C :   -0.179983
  28 C :   -0.071117
  29 C :    0.084901
  30 C :   -0.103615
  31 C :   -0.016118
  32 N :   -0.034599
  33 C :   -0.015814
  34 N :   -0.035096
  35 C :   -0.042264
  36 C :   -0.178826
  37 S :    0.483104
  38 C :   -0.184682
  39 C :   -0.038774
  40 C :   -0.074948
  41 C :   -0.174559
  42 S :    0.479318
  43 C :   -0.190215
  44 C :   -0.066992
  45 C :    0.085115
  46 C :   -0.103775
  47 C :   -0.016015
  48 N :   -0.035218
  49 C :   -0.015886
  50 N :   -0.034942
  51 C :   -0.051136
  52 C :   -0.165233
  53 S :    0.471481
  54 C :   -0.208343
  55 S :    0.390392
  56 C :   -0.089948
  57 O :   -0.041293
  58 C :   -0.110334
  59 C :   -0.045167
  60 H :    0.026054
  61 H :    0.103889
  62 H :    0.026766
  63 H :    0.037212
  64 H :    0.034795
  65 H :    0.034667
  66 H :    0.034703
  67 H :    0.035002
  68 H :    0.034238
  69 H :    0.100295
  70 H :    0.034526
  71 H :    0.027524

  Mayer bond orders larger than 0.100000
B(  0-C ,  1-S ) :   1.1151 B(  0-C ,  5-C ) :   1.6326 B(  0-C , 60-H ) :   0.9688
B(  1-S ,  2-C ) :   1.1248 B(  2-C ,  3-O ) :   1.2128 B(  2-C ,  4-C ) :   1.4697
B(  3-O , 61-H ) :   0.9456 B(  4-C ,  5-C ) :   1.2132 B(  4-C ,  6-C ) :   1.0888
B(  5-C , 62-H ) :   0.9897 B(  6-C ,  7-C ) :   1.5058 B(  6-C , 10-S ) :   1.1042
B(  7-C ,  8-C ) :   1.2452 B(  7-C , 63-H ) :   0.9938 B(  8-C ,  9-C ) :   1.4602
B(  8-C , 13-C ) :   0.9969 B(  9-C , 10-S ) :   1.1088 B(  9-C , 11-C ) :   1.1757
B( 11-C , 12-C ) :   1.4536 B( 11-C , 21-S ) :   1.1225 B( 12-C , 13-C ) :   0.9938
B( 12-C , 19-C ) :   1.2936 B( 13-C , 14-C ) :   1.7085 B( 14-C , 15-C ) :   1.1362
B( 14-C , 17-C ) :   1.1327 B( 15-C , 16-N ) :   2.9918 B( 17-C , 18-N ) :   2.9929
B( 19-C , 20-C ) :   1.4659 B( 19-C , 64-H ) :   0.9865 B( 20-C , 21-S ) :   1.0996
B( 20-C , 22-C ) :   1.1669 B( 22-C , 23-C ) :   1.4639 B( 22-C , 26-S ) :   1.1088
B( 23-C , 24-C ) :   1.2936 B( 23-C , 65-H ) :   0.9869 B( 24-C , 25-C ) :   1.4512
B( 24-C , 29-C ) :   0.9950 B( 25-C , 26-S ) :   1.1159 B( 25-C , 27-C ) :   1.1825
B( 27-C , 28-C ) :   1.4503 B( 27-C , 37-S ) :   1.1185 B( 28-C , 29-C ) :   0.9945
B( 28-C , 35-C ) :   1.2952 B( 29-C , 30-C ) :   1.7111 B( 30-C , 31-C ) :   1.1336
B( 30-C , 33-C ) :   1.1334 B( 31-C , 32-N ) :   2.9927 B( 33-C , 34-N ) :   2.9914
B( 35-C , 36-C ) :   1.4640 B( 35-C , 66-H ) :   0.9867 B( 36-C , 37-S ) :   1.1059
B( 36-C , 38-C ) :   1.1679 B( 38-C , 39-C ) :   1.4660 B( 38-C , 42-S ) :   1.1004
B( 39-C , 40-C ) :   1.2951 B( 39-C , 67-H ) :   0.9865 B( 40-C , 41-C ) :   1.4508
B( 40-C , 45-C ) :   0.9944 B( 41-C , 42-S ) :   1.1223 B( 41-C , 43-C ) :   1.1826
B( 43-C , 44-C ) :   1.4599 B( 43-C , 53-S ) :   1.1066 B( 44-C , 45-C ) :   0.9964
B( 44-C , 51-C ) :   1.2848 B( 45-C , 46-C ) :   1.7112 B( 46-C , 47-C ) :   1.1321
B( 46-C , 49-C ) :   1.1336 B( 47-C , 48-N ) :   2.9919 B( 49-C , 50-N ) :   2.9933
B( 51-C , 52-C ) :   1.4721 B( 51-C , 68-H ) :   0.9880 B( 52-C , 53-S ) :   1.1093
B( 52-C , 54-C ) :   1.1658 B( 54-C , 55-S ) :   1.0880 B( 54-C , 59-C ) :   1.5384
B( 55-S , 56-C ) :   1.1090 B( 56-C , 57-O ) :   1.2047 B( 56-C , 58-C ) :   1.5244
B( 57-O , 69-H ) :   0.9532 B( 58-C , 59-C ) :   1.2335 B( 58-C , 70-H ) :   1.0025
B( 59-C , 71-H ) :   0.9909

-----------------------------------------------------------------------------
         ABSORPTION SPECTRUM VIA TRANSITION ELECTRIC DIPOLE MOMENTS
-----------------------------------------------------------------------------
State   Energy  Wavelength   fosc         T2         TX        TY        TZ
        (cm-1)    (nm)                  (au**2)     (au)      (au)      (au)
-----------------------------------------------------------------------------
   0    9926.3   1007.4   0.341026356  11.31038   3.26979   0.48129  -0.62228
   1   10585.6    944.7   0.012748128   0.39647  -0.60391  -0.14729   0.10033
   2   11285.7    886.1   0.051084682   1.49018  -1.18934  -0.06755   0.26663
   3   18298.9    546.5   0.000970056   0.01745   0.00437   0.13201   0.00258
   4   19829.1    504.3   0.052962368   0.87931  -0.90816  -0.15128   0.17796
   5   20803.8    480.7   0.058930145   0.93255  -0.93594  -0.15939   0.17652
   6   22913.2    436.4   1.235325531  17.74890  -4.10412  -0.55320   0.77401
   7   25023.3    399.6   0.900394657  11.84581   3.35075   0.48541  -0.61859
   8   25522.1    391.8   0.444576171   5.73464   2.32004   0.35422  -0.47599
   9   25895.6    386.2   0.246728579   3.13667  -1.73103  -0.24280   0.28508
  10   28403.3    352.1   0.049251986   0.57086   0.26100  -0.69700   0.13013
  11   29466.8    339.4   0.048645222   0.54348   0.40268   0.52838  -0.31960
  12   30003.0    333.3   0.042884604   0.47056   0.26279  -0.59911   0.20633
  13   30667.6    326.1   0.052031588   0.55855   0.68971  -0.27733   0.07711
  14   31544.8    317.0   0.680487120   7.10179   1.63206  -1.99013   0.69105
  15   31825.2    314.2   0.424653020   4.39277   0.10519   1.79271  -1.08069
  16   32148.7    311.1   1.058480168  10.83914   0.84750  -2.77999   1.54679
  17   32336.9    309.2   0.231378178   2.35559   1.40545   0.47842  -0.38911
  18   32692.5    305.9   0.002731906   0.02751   0.07397   0.13980  -0.04994
  19   33095.4    302.2   0.130099113   1.29414   0.66846  -0.83749   0.38198
  20   33502.3    298.5   0.386665902   3.79959  -1.75099  -0.65468   0.55230
  21   33523.8    298.3   0.050016511   0.49117  -0.23543  -0.60286   0.26890
  22   33699.5    296.7   0.014935387   0.14590  -0.24456  -0.21049   0.20442
  23   33955.5    294.5   0.205646507   1.99382  -1.34617  -0.22689   0.36080
  24   34290.8    291.6   0.022905532   0.21991  -0.44807   0.13824   0.00547
  25   34940.3    286.2   0.044247028   0.41690   0.13292   0.55912  -0.29431
  26   35105.7    284.9   0.012122996   0.11369   0.28589  -0.17747   0.02140
  27   35529.4    281.5   0.025635246   0.23753   0.48718   0.01365  -0.00230
  28   36079.4    277.2   0.003099387   0.02828   0.00337   0.14826  -0.07931
  29   36708.7    272.4   0.026869603   0.24097   0.47605  -0.11895  -0.01400
  30   37278.6    268.3   0.115403426   1.01914   0.94167   0.25810  -0.25648
  31   37679.5    265.4   0.095979633   0.83859  -0.84933  -0.16827   0.29819
  32   38060.9    262.7   0.015896038   0.13749  -0.27276  -0.17778   0.17745
  33   38818.2    257.6   0.026076373   0.22115   0.31752   0.28241  -0.20144
  34   39079.4    255.9   0.020740119   0.17472  -0.00419  -0.36605   0.20177
  35   39234.3    254.9   0.006015965   0.05048  -0.22250  -0.02956  -0.00993
  36   39496.3    253.2   0.050993842   0.42505   0.64277   0.01001  -0.10860
  37   39561.6    252.8   0.020944934   0.17429  -0.41330   0.02683   0.05248
  38   40088.1    249.5   0.054109546   0.44436  -0.35625   0.51185  -0.23548
  39   40255.2    248.4   0.028630116   0.23414   0.17438  -0.40029   0.20857

FINAL SINGLE POINT ENERGY     -5344.501061761241

DIPOLE MOMENT
-------------
                                X             Y             Z
Electronic contribution:     -3.50951       1.42294      -1.66378
Nuclear contribution   :      3.12496      -2.70996       2.67045
                        -----------------------------------------
Total Dipole Moment    :     -0.38455      -1.28702       1.00667
                        -----------------------------------------
Magnitude (a.u.)       :      1.67859
Magnitude (Debye)      :      4.26665

Rotational constants in cm-1:     0.003613     0.000244     0.000229
Rotational constants in MHz :   108.307887     7.317465     6.862938

                             ****ORCA TERMINATED NORMALLY****
TOTAL RUN TIME: 0 days 0 hours 6 minutes 1 seconds 12 msec
