                         Program Version 4.2.0 -  RELEASE  -
|  1> # ORCA input file
|  2> # SCF done       -148.935614984534          0.000896693795
|  3> ! CAM-B3LYP def2-SVP def2/J RIJCOSX Grid4 TightSCF
|  4> %maxcore 5000
|  5> %tddft
|  6>     Mode sTDDFT
|  7>     Ethresh 5.0
|  8>     maxcore 5000
|  9> end
| 10>
| 11> %pal
| 12>   nprocs 6
| 13>   end
| 14> * xyz 0 1
| 15>    C        5.22488         9.61462         9.00285
| 16>    S        4.37305        10.49337        10.18754
| 17>    C        3.92999        11.66426         8.99300
| 18>    N        3.13591        12.76032         9.37920
| 19>    O        2.83950        13.56735         8.52111
| 20>    O        2.80261        12.81537        10.54719
| 21>    C        4.42422        11.37442         7.75054
| 22>    C        5.18188        10.17905         7.74203
| 23>    C        5.79773         9.66156         6.54558
| 24>    C        6.49948         8.51693         6.46704
| 25>    C        7.09137         7.99753         5.27274
| 26>    C        7.12225         8.51325         4.00812
| 27>    C        7.79038         7.68716         3.07125
| 28>    C        8.28406         6.49576         3.66772
| 29>    S        7.91086         6.44591         5.36561
| 30>    C        8.95340         5.52955         2.95031
| 31>    C        9.13974         5.74334         1.58550
| 32>    C        8.65152         6.93678         0.98913
| 33>    C        7.98790         7.90542         1.70714
| 34>    S        8.99004         6.97252        -0.72050
| 35>    C        9.76062         5.39695        -0.63027
| 36>    C        9.76388         4.89496         0.63777
| 37>    C       10.26318         4.77844        -1.81316
| 38>    C       10.24153         5.26449        -3.08782
| 39>    C       10.78018         4.36950        -4.04475
| 40>    C       11.22742         3.15957        -3.44649
| 41>    S       10.97593         3.17672        -1.72237
| 42>    C       11.76541         2.12651        -4.17766
| 43>    C       11.86106         2.28729        -5.56134
| 44>    C       11.42030         3.49972        -6.15947
| 45>    C       10.88901         4.53654        -5.42492
| 46>    S       11.62701         3.46167        -7.88723
| 47>    C       12.27888         1.83094        -7.79977
| 48>    C       12.34368         1.36259        -6.51580
| 49>    C       12.65040         1.14752        -8.98947
| 50>    S       12.50838         1.93400       -10.54632
| 51>    C       13.11796        -0.13673        -9.16570
| 52>    C       13.39720        -1.32013        -8.34089
| 53>    O       13.35287        -1.47846        -7.14409
| 54>    N       13.74330        -2.31491        -9.24752
| 55>    C       14.05987        -3.66459        -8.85099
| 56>    C       13.71107        -1.91060       -10.57711
| 57>    O       13.90954        -2.63636       -11.51854
| 58>    C       13.35295        -0.48245       -10.52139
| 59>    C       13.08426         0.52391       -11.41542
| 60>    C       13.19065         0.53838       -12.83841
| 61>    S       12.01541         1.40330       -13.77537
| 62>    C       12.78704         0.86689       -15.22356
| 63>    N       12.25030         1.27830       -16.45712
| 64>    O       12.80257         0.89304       -17.46798
| 65>    O       11.26912         1.99656       -16.41543
| 66>    C       13.88690         0.08162       -14.99840
| 67>    C       14.14102        -0.10983       -13.62733
| 68>    C       15.30337        -0.79433       -13.09570
| 69>    C       16.01246        -1.69717       -13.76213
| 70>    H        5.72565         8.71154         9.29070
| 71>    H        4.24581        11.99463         6.89084
| 72>    H        5.65411        10.26455         5.66097
| 73>    H        6.63807         7.90782         7.34924
| 74>    H        6.68149         9.45547         3.73777
| 75>    H        9.31733         4.63005         3.42058
| 76>    H        7.62221         8.80330         1.23508
| 77>    H       10.19268         3.94010         0.88637
| 78>    H        9.84157         6.23164        -3.33677
| 79>    H       12.09634         1.21347        -3.70973
| 80>    H       10.55613         5.44760        -5.89591
| 81>    H       12.71375         0.38421        -6.26651
| 82>    H       13.88935        -3.74593        -7.77948
| 83>    H       15.10228        -3.88986        -9.07895
| 84>    H       13.42287        -4.36581        -9.38953
| 85>    H       14.48994        -0.31222       -15.79568
| 86>    H       15.58735        -0.51187       -12.09111
| 87>    H       15.73842        -2.02759       -14.74880
| 88>    H       16.88064        -2.15793       -13.32595
| 89> *
| 90>
| 91>                          ****END OF INPUT****

CARTESIAN COORDINATES (ANGSTROEM)
---------------------------------
  C      5.224880    9.614620    9.002850
  S      4.373050   10.493370   10.187540
  C      3.929990   11.664260    8.993000
  N      3.135910   12.760320    9.379200
  O      2.839500   13.567350    8.521110
  O      2.802610   12.815370   10.547190
  C      4.424220   11.374420    7.750540
  C      5.181880   10.179050    7.742030
  C      5.797730    9.661560    6.545580
  C      6.499480    8.516930    6.467040
  C      7.091370    7.997530    5.272740
  C      7.122250    8.513250    4.008120
  C      7.790380    7.687160    3.071250
  C      8.284060    6.495760    3.667720
  S      7.910860    6.445910    5.365610
  C      8.953400    5.529550    2.950310
  C      9.139740    5.743340    1.585500
  C      8.651520    6.936780    0.989130
  C      7.987900    7.905420    1.707140
  S      8.990040    6.972520   -0.720500
  C      9.760620    5.396950   -0.630270
  C      9.763880    4.894960    0.637770
  C     10.263180    4.778440   -1.813160
  C     10.241530    5.264490   -3.087820
  C     10.780180    4.369500   -4.044750
  C     11.227420    3.159570   -3.446490
  S     10.975930    3.176720   -1.722370
  C     11.765410    2.126510   -4.177660
  C     11.861060    2.287290   -5.561340
  C     11.420300    3.499720   -6.159470
  C     10.889010    4.536540   -5.424920
  S     11.627010    3.461670   -7.887230
  C     12.278880    1.830940   -7.799770
  C     12.343680    1.362590   -6.515800
  C     12.650400    1.147520   -8.989470
  S     12.508380    1.934000  -10.546320
  C     13.117960   -0.136730   -9.165700
  C     13.397200   -1.320130   -8.340890
  O     13.352870   -1.478460   -7.144090
  N     13.743300   -2.314910   -9.247520
  C     14.059870   -3.664590   -8.850990
  C     13.711070   -1.910600  -10.577110
  O     13.909540   -2.636360  -11.518540
  C     13.352950   -0.482450  -10.521390
  C     13.084260    0.523910  -11.415420
  C     13.190650    0.538380  -12.838410
  S     12.015410    1.403300  -13.775370
  C     12.787040    0.866890  -15.223560
  N     12.250300    1.278300  -16.457120
  O     12.802570    0.893040  -17.467980
  O     11.269120    1.996560  -16.415430
  C     13.886900    0.081620  -14.998400
  C     14.141020   -0.109830  -13.627330
  C     15.303370   -0.794330  -13.095700
  C     16.012460   -1.697170  -13.762130
  H      5.725650    8.711540    9.290700
  H      4.245810   11.994630    6.890840
  H      5.654110   10.264550    5.660970
  H      6.638070    7.907820    7.349240
  H      6.681490    9.455470    3.737770
  H      9.317330    4.630050    3.420580
  H      7.622210    8.803300    1.235080
  H     10.192680    3.940100    0.886370
  H      9.841570    6.231640   -3.336770
  H     12.096340    1.213470   -3.709730
  H     10.556130    5.447600   -5.895910
  H     12.713750    0.384210   -6.266510
  H     13.889350   -3.745930   -7.779480
  H     15.102280   -3.889860   -9.078950
  H     13.422870   -4.365810   -9.389530
  H     14.489940   -0.312220  -15.795680
  H     15.587350   -0.511870  -12.091110
  H     15.738420   -2.027590  -14.748800
  H     16.880640   -2.157930  -13.325950

 Total Charge           Charge          ....    0
 Multiplicity           Mult            ....    1
 Number of Electrons    NEL             ....  434
 Basis Dimension        Dim             ....  893

ORBITAL ENERGIES
----------------

  NO   OCC          E(Eh)            E(eV)
   0   2.0000     -88.987355     -2421.4690
   1   2.0000     -88.986972     -2421.4586
   2   2.0000     -88.985105     -2421.4078
   3   2.0000     -88.958236     -2420.6767
   4   2.0000     -88.954740     -2420.5815
   5   2.0000     -88.953240     -2420.5407
   6   2.0000     -88.952250     -2420.5138
   7   2.0000     -19.242153      -523.6056
   8   2.0000     -19.242128      -523.6049
   9   2.0000     -19.241840      -523.5971
  10   2.0000     -19.241622      -523.5911
  11   2.0000     -19.219373      -522.9857
  12   2.0000     -19.215534      -522.8813
  13   2.0000     -14.653299      -398.7365
  14   2.0000     -14.653161      -398.7328
  15   2.0000     -14.462634      -393.5483
  16   2.0000     -10.402660      -283.0708
  17   2.0000     -10.398579      -282.9597
  18   2.0000     -10.348998      -281.6105
  19   2.0000     -10.347000      -281.5562
  20   2.0000     -10.345940      -281.5274
  21   2.0000     -10.344142      -281.4784
  22   2.0000     -10.334016      -281.2029
  23   2.0000     -10.320823      -280.8439
  24   2.0000     -10.320360      -280.8313
  25   2.0000     -10.317686      -280.7585
  26   2.0000     -10.315435      -280.6973
  27   2.0000     -10.311295      -280.5846
  28   2.0000     -10.310120      -280.5526
  29   2.0000     -10.308507      -280.5087
  30   2.0000     -10.307503      -280.4814
  31   2.0000     -10.307459      -280.4802
  32   2.0000     -10.306687      -280.4592
  33   2.0000     -10.305651      -280.4310
  34   2.0000     -10.305324      -280.4221
  35   2.0000     -10.305199      -280.4187
  36   2.0000     -10.304808      -280.4081
  37   2.0000     -10.304642      -280.4036
  38   2.0000     -10.301383      -280.3149
  39   2.0000     -10.295825      -280.1636
  40   2.0000     -10.294277      -280.1215
  41   2.0000     -10.291835      -280.0551
  42   2.0000     -10.289555      -279.9930
  43   2.0000     -10.289026      -279.9786
  44   2.0000     -10.288264      -279.9579
  45   2.0000     -10.287927      -279.9487
  46   2.0000     -10.287840      -279.9464
  47   2.0000     -10.285964      -279.8953
  48   2.0000     -10.285442      -279.8811
  49   2.0000     -10.284091      -279.8443
  50   2.0000     -10.282890      -279.8117
  51   2.0000     -10.282541      -279.8022
  52   2.0000     -10.282034      -279.7884
  53   2.0000     -10.279586      -279.7218
  54   2.0000     -10.270091      -279.4634
  55   2.0000      -8.082797      -219.9441
  56   2.0000      -8.082585      -219.9383
  57   2.0000      -8.080579      -219.8837
  58   2.0000      -8.054304      -219.1688
  59   2.0000      -8.050616      -219.0684
  60   2.0000      -8.049109      -219.0274
  61   2.0000      -8.048436      -219.0091
  62   2.0000      -6.052236      -164.6897
  63   2.0000      -6.051905      -164.6807
  64   2.0000      -6.050021      -164.6295
  65   2.0000      -6.047864      -164.5707
  66   2.0000      -6.047264      -164.5544
  67   2.0000      -6.045605      -164.5093
  68   2.0000      -6.045005      -164.4930
  69   2.0000      -6.044713      -164.4850
  70   2.0000      -6.042501      -164.4248
  71   2.0000      -6.024002      -163.9214
  72   2.0000      -6.020294      -163.8205
  73   2.0000      -6.019951      -163.8112
  74   2.0000      -6.018789      -163.7796
  75   2.0000      -6.017987      -163.7578
  76   2.0000      -6.016296      -163.7117
  77   2.0000      -6.015385      -163.6869
  78   2.0000      -6.014809      -163.6713
  79   2.0000      -6.014073      -163.6512
  80   2.0000      -6.011702      -163.5867
  81   2.0000      -6.010174      -163.5452
  82   2.0000      -6.009686      -163.5319
  83   2.0000      -1.324253       -36.0347
  84   2.0000      -1.324058       -36.0294
  85   2.0000      -1.164703       -31.6932
  86   2.0000      -1.143178       -31.1075
  87   2.0000      -1.143111       -31.1056
  88   2.0000      -1.140676       -31.0394
  89   2.0000      -1.056038       -28.7363
  90   2.0000      -1.025503       -27.9054
  91   2.0000      -1.015609       -27.6361
  92   2.0000      -1.011593       -27.5268
  93   2.0000      -1.006269       -27.3820
  94   2.0000      -1.000152       -27.2155
  95   2.0000      -0.986103       -26.8332
  96   2.0000      -0.973974       -26.5032
  97   2.0000      -0.930962       -25.3328
  98   2.0000      -0.923110       -25.1191
  99   2.0000      -0.915744       -24.9187
 100   2.0000      -0.904800       -24.6209
 101   2.0000      -0.902001       -24.5447
 102   2.0000      -0.888016       -24.1641
 103   2.0000      -0.882677       -24.0189
 104   2.0000      -0.881610       -23.9898
 105   2.0000      -0.878174       -23.8963
 106   2.0000      -0.863559       -23.4986
 107   2.0000      -0.855160       -23.2701
 108   2.0000      -0.840176       -22.8624
 109   2.0000      -0.837664       -22.7940
 110   2.0000      -0.832172       -22.6446
 111   2.0000      -0.822626       -22.3848
 112   2.0000      -0.806696       -21.9513
 113   2.0000      -0.800710       -21.7884
 114   2.0000      -0.790937       -21.5225
 115   2.0000      -0.781990       -21.2790
 116   2.0000      -0.780221       -21.2309
 117   2.0000      -0.771844       -21.0029
 118   2.0000      -0.756130       -20.5754
 119   2.0000      -0.740133       -20.1400
 120   2.0000      -0.723834       -19.6965
 121   2.0000      -0.708804       -19.2875
 122   2.0000      -0.699030       -19.0216
 123   2.0000      -0.694143       -18.8886
 124   2.0000      -0.686429       -18.6787
 125   2.0000      -0.682789       -18.5796
 126   2.0000      -0.672831       -18.3087
 127   2.0000      -0.663792       -18.0627
 128   2.0000      -0.658486       -17.9183
 129   2.0000      -0.650151       -17.6915
 130   2.0000      -0.648927       -17.6582
 131   2.0000      -0.646529       -17.5930
 132   2.0000      -0.635873       -17.3030
 133   2.0000      -0.634480       -17.2651
 134   2.0000      -0.634445       -17.2641
 135   2.0000      -0.628450       -17.1010
 136   2.0000      -0.627150       -17.0656
 137   2.0000      -0.625557       -17.0223
 138   2.0000      -0.618073       -16.8186
 139   2.0000      -0.608151       -16.5486
 140   2.0000      -0.596804       -16.2399
 141   2.0000      -0.585750       -15.9391
 142   2.0000      -0.585221       -15.9247
 143   2.0000      -0.583770       -15.8852
 144   2.0000      -0.577940       -15.7266
 145   2.0000      -0.575635       -15.6638
 146   2.0000      -0.573310       -15.6006
 147   2.0000      -0.565776       -15.3956
 148   2.0000      -0.562289       -15.3007
 149   2.0000      -0.555426       -15.1139
 150   2.0000      -0.553973       -15.0744
 151   2.0000      -0.547123       -14.8880
 152   2.0000      -0.544935       -14.8284
 153   2.0000      -0.538959       -14.6658
 154   2.0000      -0.534548       -14.5458
 155   2.0000      -0.531163       -14.4537
 156   2.0000      -0.529880       -14.4188
 157   2.0000      -0.523753       -14.2520
 158   2.0000      -0.520938       -14.1754
 159   2.0000      -0.519279       -14.1303
 160   2.0000      -0.514450       -13.9989
 161   2.0000      -0.511443       -13.9171
 162   2.0000      -0.506905       -13.7936
 163   2.0000      -0.505991       -13.7687
 164   2.0000      -0.501217       -13.6388
 165   2.0000      -0.500089       -13.6081
 166   2.0000      -0.496931       -13.5222
 167   2.0000      -0.495204       -13.4752
 168   2.0000      -0.490788       -13.3550
 169   2.0000      -0.487983       -13.2787
 170   2.0000      -0.485627       -13.2146
 171   2.0000      -0.484527       -13.1846
 172   2.0000      -0.481781       -13.1099
 173   2.0000      -0.477676       -12.9982
 174   2.0000      -0.472635       -12.8611
 175   2.0000      -0.471825       -12.8390
 176   2.0000      -0.468275       -12.7424
 177   2.0000      -0.463244       -12.6055
 178   2.0000      -0.459913       -12.5149
 179   2.0000      -0.456904       -12.4330
 180   2.0000      -0.453718       -12.3463
 181   2.0000      -0.449765       -12.2387
 182   2.0000      -0.448295       -12.1987
 183   2.0000      -0.444670       -12.1001
 184   2.0000      -0.437867       -11.9150
 185   2.0000      -0.435379       -11.8473
 186   2.0000      -0.426771       -11.6130
 187   2.0000      -0.425462       -11.5774
 188   2.0000      -0.418078       -11.3765
 189   2.0000      -0.410264       -11.1638
 190   2.0000      -0.408323       -11.1110
 191   2.0000      -0.405808       -11.0426
 192   2.0000      -0.391596       -10.6559
 193   2.0000      -0.388421       -10.5695
 194   2.0000      -0.388291       -10.5659
 195   2.0000      -0.388201       -10.5635
 196   2.0000      -0.382109       -10.3977
 197   2.0000      -0.381008       -10.3677
 198   2.0000      -0.380290       -10.3482
 199   2.0000      -0.376609       -10.2481
 200   2.0000      -0.370194       -10.0735
 201   2.0000      -0.369377       -10.0512
 202   2.0000      -0.367850       -10.0097
 203   2.0000      -0.364007        -9.9051
 204   2.0000      -0.357611        -9.7311
 205   2.0000      -0.350169        -9.5286
 206   2.0000      -0.345125        -9.3913
 207   2.0000      -0.341826        -9.3016
 208   2.0000      -0.335067        -9.1176
 209   2.0000      -0.332334        -9.0433
 210   2.0000      -0.331351        -9.0165
 211   2.0000      -0.312356        -8.4996
 212   2.0000      -0.296845        -8.0776
 213   2.0000      -0.283669        -7.7190
 214   2.0000      -0.281280        -7.6540
 215   2.0000      -0.265172        -7.2157
 216   2.0000      -0.246122        -6.6973
 217   0.0000      -0.079767        -2.1706
 218   0.0000      -0.065171        -1.7734
 219   0.0000      -0.059015        -1.6059
 220   0.0000      -0.046900        -1.2762
 221   0.0000      -0.029406        -0.8002

MULLIKEN ATOMIC CHARGES
-----------------------
   0 C :   -0.113136
   1 S :    0.203221
   2 C :   -0.039981
   3 N :    0.274386
   4 O :   -0.243724
   5 O :   -0.254149
   6 C :    0.026581
   7 C :    0.091613
   8 C :    0.010944
   9 C :    0.077091
  10 C :   -0.062033
  11 C :   -0.033203
  12 C :    0.110956
  13 C :   -0.046356
  14 S :    0.104602
  15 C :   -0.057145
  16 C :    0.121321
  17 C :   -0.039752
  18 C :   -0.059080
  19 S :    0.106700
  20 C :   -0.019735
  21 C :   -0.058224
  22 C :   -0.016297
  23 C :   -0.060246
  24 C :    0.125729
  25 C :   -0.042561
  26 S :    0.109893
  27 C :   -0.049800
  28 C :    0.108553
  29 C :   -0.034912
  30 C :   -0.058947
  31 S :    0.105996
  32 C :   -0.053779
  33 C :   -0.043871
  34 C :   -0.075404
  35 S :    0.180635
  36 C :   -0.043153
  37 C :    0.205426
  38 O :   -0.173463
  39 N :   -0.307176
  40 C :    0.139063
  41 C :    0.160636
  42 O :   -0.148495
  43 C :    0.036094
  44 C :   -0.179705
  45 C :   -0.129221
  46 S :    0.205211
  47 C :    0.007433
  48 N :    0.273739
  49 O :   -0.240155
  50 O :   -0.253437
  51 C :   -0.015396
  52 C :    0.127049
  53 C :    0.002318
  54 C :    0.001560
  55 H :    0.035645
  56 H :    0.012497
  57 H :   -0.014141
  58 H :   -0.022984
  59 H :   -0.026069
  60 H :   -0.030362
  61 H :   -0.030938
  62 H :   -0.013239
  63 H :   -0.013249
  64 H :   -0.021316
  65 H :   -0.027934
  66 H :    0.000707
  67 H :    0.052881
  68 H :    0.037618
  69 H :    0.042698
  70 H :    0.010442
  71 H :   -0.000074
  72 H :    0.018252
  73 H :    0.025351
Sum of atomic charges:   -0.0000000

LOEWDIN ATOMIC CHARGES
----------------------
   0 C :   -0.160773
   1 S :    0.504907
   2 C :   -0.202408
   3 N :    0.273600
   4 O :   -0.208730
   5 O :   -0.219727
   6 C :   -0.011268
   7 C :   -0.065886
   8 C :   -0.012391
   9 C :   -0.032578
  10 C :   -0.151843
  11 C :   -0.053012
  12 C :   -0.041699
  13 C :   -0.154504
  14 S :    0.391336
  15 C :   -0.034700
  16 C :   -0.044152
  17 C :   -0.149404
  18 C :   -0.037783
  19 S :    0.392801
  20 C :   -0.165144
  21 C :   -0.053362
  22 C :   -0.158301
  23 C :   -0.057813
  24 C :   -0.036881
  25 C :   -0.151412
  26 S :    0.396920
  27 C :   -0.026147
  28 C :   -0.048452
  29 C :   -0.146928
  30 C :   -0.037183
  31 S :    0.382141
  32 C :   -0.185792
  33 C :   -0.017345
  34 C :   -0.135567
  35 S :    0.454942
  36 C :   -0.099487
  37 C :    0.094690
  38 O :   -0.164341
  39 N :   -0.036269
  40 C :    0.036916
  41 C :    0.083742
  42 O :   -0.146540
  43 C :   -0.086767
  44 C :   -0.161622
  45 C :   -0.179303
  46 S :    0.482382
  47 C :   -0.193464
  48 N :    0.272745
  49 O :   -0.206145
  50 O :   -0.219534
  51 C :   -0.001887
  52 C :   -0.037841
  53 C :   -0.018333
  54 C :   -0.020971
  55 H :    0.026739
  56 H :    0.044060
  57 H :    0.031117
  58 H :    0.025781
  59 H :    0.028051
  60 H :    0.031334
  61 H :    0.030753
  62 H :    0.027798
  63 H :    0.028279
  64 H :    0.034940
  65 H :    0.032207
  66 H :    0.034996
  67 H :    0.037574
  68 H :    0.031619
  69 H :    0.034644
  70 H :    0.045429
  71 H :    0.029734
  72 H :    0.022996
  73 H :    0.028517

  Mayer bond orders larger than 0.100000
B(  0-C ,  1-S ) :   1.2000 B(  0-C ,  7-C ) :   1.4968 B(  0-C , 55-H ) :   0.9609
B(  1-S ,  2-C ) :   1.1502 B(  2-C ,  3-N ) :   0.9467 B(  2-C ,  6-C ) :   1.4868
B(  3-N ,  4-O ) :   1.5463 B(  3-N ,  5-O ) :   1.5268 B(  4-O ,  5-O ) :   0.2685
B(  6-C ,  7-C ) :   1.2152 B(  6-C , 56-H ) :   1.0043 B(  7-C ,  8-C ) :   1.0795
B(  8-C ,  9-C ) :   1.7538 B(  8-C , 57-H ) :   0.9766 B(  9-C , 10-C ) :   1.0901
B(  9-C , 58-H ) :   0.9561 B( 10-C , 11-C ) :   1.5843 B( 10-C , 14-S ) :   1.0723
B( 11-C , 12-C ) :   1.1600 B( 11-C , 59-H ) :   0.9961 B( 12-C , 13-C ) :   1.2837
B( 12-C , 18-C ) :   1.3113 B( 13-C , 14-S ) :   1.0450 B( 13-C , 15-C ) :   1.3820
B( 15-C , 16-C ) :   1.3227 B( 15-C , 18-C ) :   0.1009 B( 15-C , 60-H ) :   1.0018
B( 16-C , 17-C ) :   1.2808 B( 16-C , 21-C ) :   1.1476 B( 17-C , 18-C ) :   1.3934
B( 17-C , 19-S ) :   1.0391 B( 18-C , 61-H ) :   1.0003 B( 19-S , 20-C ) :   1.0725
B( 20-C , 21-C ) :   1.5786 B( 20-C , 22-C ) :   1.1449 B( 21-C , 62-H ) :   0.9959
B( 22-C , 23-C ) :   1.5763 B( 22-C , 26-S ) :   1.0770 B( 23-C , 24-C ) :   1.1506
B( 23-C , 63-H ) :   0.9966 B( 24-C , 25-C ) :   1.2764 B( 24-C , 30-C ) :   1.3212
B( 25-C , 26-S ) :   1.0391 B( 25-C , 27-C ) :   1.3936 B( 27-C , 28-C ) :   1.3097
B( 27-C , 64-H ) :   1.0018 B( 28-C , 29-C ) :   1.2771 B( 28-C , 33-C ) :   1.1413
B( 29-C , 30-C ) :   1.3843 B( 29-C , 31-S ) :   1.0452 B( 30-C , 65-H ) :   1.0009
B( 31-S , 32-C ) :   1.0519 B( 32-C , 33-C ) :   1.5792 B( 32-C , 34-C ) :   1.1380
B( 33-C , 66-H ) :   0.9807 B( 34-C , 35-S ) :   1.1271 B( 34-C , 36-C ) :   1.5610
B( 35-S , 44-C ) :   1.1242 B( 36-C , 37-C ) :   0.9078 B( 36-C , 43-C ) :   1.2399
B( 37-C , 38-O ) :   2.1080 B( 37-C , 39-N ) :   1.0856 B( 39-N , 40-C ) :   0.9408
B( 39-N , 41-C ) :   1.0664 B( 40-C , 67-H ) :   0.9608 B( 40-C , 68-H ) :   0.9783
B( 40-C , 69-H ) :   0.9717 B( 41-C , 42-O ) :   2.2043 B( 41-C , 43-C ) :   0.8891
B( 43-C , 44-C ) :   1.5703 B( 44-C , 45-C ) :   1.0991 B( 45-C , 46-S ) :   1.1319
B( 45-C , 47-C ) :   0.1038 B( 45-C , 52-C ) :   1.4745 B( 46-S , 47-C ) :   1.1195
B( 47-C , 48-N ) :   0.9460 B( 47-C , 51-C ) :   1.4924 B( 48-N , 49-O ) :   1.5459
B( 48-N , 50-O ) :   1.5228 B( 49-O , 50-O ) :   0.2687 B( 51-C , 52-C ) :   1.2174
B( 51-C , 70-H ) :   1.0016 B( 52-C , 53-C ) :   1.0839 B( 53-C , 54-C ) :   1.9627
B( 53-C , 71-H ) :   0.9489 B( 54-C , 72-H ) :   0.9556 B( 54-C , 73-H ) :   0.9484

-----------------------------------------------------------------------------
         ABSORPTION SPECTRUM VIA TRANSITION ELECTRIC DIPOLE MOMENTS
-----------------------------------------------------------------------------
State   Energy  Wavelength   fosc         T2         TX        TY        TZ
        (cm-1)    (nm)                  (au**2)     (au)      (au)      (au)
-----------------------------------------------------------------------------
   0   22915.4    436.4   2.802930255  40.26811  -1.69470   1.95514   5.79427
   1   26189.1    381.8   0.406774798   5.11339   1.14323  -1.34242  -1.41574
   2   27374.2    365.3   0.058044780   0.69807  -0.18826  -0.07864   0.81021
   3   28100.7    355.9   0.113833938   1.33361  -0.45679   1.06009  -0.03424
   4   29000.3    344.8   0.105829274   1.20138  -0.28390   0.85097   0.62978
   5   29773.0    335.9   0.491846011   5.43854  -0.92910   0.57409   2.06052
   6   30312.4    329.9   0.160068587   1.73845   0.68269  -1.11293  -0.18380
   7   31758.4    314.9   0.009877746   0.10239   0.30155   0.10128   0.03466
   8   32917.2    303.8   0.075717854   0.75727  -0.43397   0.67275   0.34110
   9   33759.8    296.2   0.046909349   0.45744   0.30760  -0.55800   0.22683
  10   34093.7    293.3   0.130763215   1.26266  -0.45374   0.69007  -0.76196
  11   34836.1    287.1   0.073717712   0.69666  -0.05302   0.02712  -0.83253
  12   35002.0    285.7   0.049796637   0.46836   0.48679  -0.17026  -0.44990
  13   35593.6    280.9   0.025115958   0.23230  -0.31817   0.23560   0.27489
  14   36065.6    277.3   0.025729119   0.23486  -0.09633   0.40401  -0.24970
  15   36678.0    272.6   0.054473254   0.48894  -0.19230   0.40189   0.53893
  16   36991.9    270.3   0.006937254   0.06174   0.03828  -0.14592   0.19743
  17   37897.9    263.9   0.050779457   0.44111  -0.32399   0.23862  -0.52839
  18   38265.7    261.3   0.255971450   2.20220  -0.82518   1.00163   0.71973
  19   39053.7    256.1   0.027083079   0.22830   0.43256  -0.18024   0.09335
  20   39247.3    254.8   0.012347686   0.10357   0.15197   0.10244  -0.26454
  21   39587.9    252.6   0.090932654   0.75619   0.09693  -0.27700   0.81858
  22   39839.7    251.0   0.067632810   0.55888  -0.04701   0.01137  -0.74602

FINAL SINGLE POINT ENERGY     -4896.922163983027

DIPOLE MOMENT
-------------
                                X             Y             Z
Electronic contribution:    -11.52237      15.53402      -1.97221
Nuclear contribution   :     13.01607     -16.85334       3.43039
                        -----------------------------------------
Total Dipole Moment    :      1.49370      -1.31932       1.45817
                        -----------------------------------------
Magnitude (a.u.)       :      2.46942
Magnitude (Debye)      :      6.27676

Rotational constants in cm-1:     0.004770     0.000207     0.000200
Rotational constants in MHz :   143.013153     6.214235     5.990429

                             ****ORCA TERMINATED NORMALLY****
TOTAL RUN TIME: 0 days 0 hours 5 minutes 41 seconds 41 msec
