                         Program Version 4.2.0 -  RELEASE  -
|  1> # ORCA input file
|  2> # SCF done       -162.106487984852          0.000595290183
|  3> ! CAM-B3LYP def2-SVP def2/J RIJCOSX Grid4 TightSCF
|  4> %maxcore 5000
|  5> %tddft
|  6>     Mode sTDDFT
|  7>     Ethresh 5.0
|  8>     maxcore 5000
|  9> end
| 10>
| 11> %pal
| 12>   nprocs 6
| 13>   end
| 14> * xyz 0 1
| 15>    C       15.82052         3.71658        -5.27592
| 16>    S       17.33272         3.85448        -4.50038
| 17>    C       16.55470         4.57079        -3.13158
| 18>    N       17.30873         4.91070        -2.00823
| 19>    O       16.71126         5.40798        -1.06328
| 20>    O       18.50215         4.67005        -2.02331
| 21>    C       15.19751         4.68805        -3.28587
| 22>    C       14.75585         4.19063        -4.53224
| 23>    C       13.35927         4.17051        -4.88672
| 24>    C       12.84081         3.54472        -5.95787
| 25>    C       11.44979         3.36489        -6.23852
| 26>    N       11.03731         2.53400        -7.24357
| 27>    C       11.81079         1.93202        -8.29641
| 28>    C       12.22302         2.95664        -9.35142
| 29>    N        9.73114         2.33611        -7.21746
| 30>    C        9.24992         3.04139        -6.20214
| 31>    C       10.28601         3.73271        -5.54818
| 32>    C       10.12044         4.70961        -4.43373
| 33>    C       10.36762         6.14206        -4.91270
| 34>    C        7.83773         2.87960        -5.76038
| 35>    C        7.73936         1.65741        -4.80556
| 36>    C        8.75143         1.78745        -3.72099
| 37>    C        9.99765         1.31575        -3.85750
| 38>    C       11.07911         1.61236        -2.97095
| 39>    S       12.71590         1.10829        -3.34368
| 40>    C       13.42526         1.93137        -1.98411
| 41>    C       12.42065         2.56558        -1.26054
| 42>    C       11.12490         2.37898        -1.82995
| 43>    O       10.19036         3.03547        -1.10489
| 44>    C       10.87755         3.63051        -0.08828
| 45>    N       10.13899         4.40591         0.83290
| 46>    O       10.77097         4.92728         1.73377
| 47>    O        8.94157         4.50279         0.66136
| 48>    C       12.22603         3.38736        -0.12447
| 49>    C       14.81486         1.90472        -1.72973
| 50>    O       15.28510         2.51208        -0.59213
| 51>    C       16.61569         2.33091        -0.60555
| 52>    C       17.78121         2.59598         0.14206
| 53>    C       17.88273         3.27398         1.46443
| 54>    O       18.63220         2.91311         2.34763
| 55>    N       17.00080         4.28508         1.60751
| 56>    C       18.80305         2.04118        -0.63186
| 57>    O       18.33621         1.45628        -1.77401
| 58>    C       17.00255         1.62247        -1.74982
| 59>    C       15.84398         1.34100        -2.47812
| 60>    C       20.20818         2.05005        -0.41012
| 61>    O       20.66610         2.61103         0.74177
| 62>    C       21.99170         2.47455         0.70979
| 63>    C       23.15304         2.74425         1.47231
| 64>    C       23.23404         3.37354         2.81123
| 65>    O       24.28397         3.64248         3.35609
| 66>    N       22.02339         3.61325         3.35820
| 67>    C       24.17399         2.25927         0.68740
| 68>    O       23.74450         1.71566        -0.47389
| 69>    C       22.40224         1.84293        -0.46470
| 70>    C       21.24028         1.55929        -1.19940
| 71>    H       15.78529         3.29392        -6.26049
| 72>    H       14.55734         5.10866        -2.53150
| 73>    H       12.71734         4.66624        -4.17871
| 74>    H       13.51935         3.05341        -6.64118
| 75>    H       11.16482         1.17545        -8.74659
| 76>    H       12.68949         1.43519        -7.87346
| 77>    H       11.33926         3.42101        -9.78148
| 78>    H       12.78044         2.46695       -10.14511
| 79>    H       12.84383         3.73651        -8.91612
| 80>    H       10.79686         4.46730        -3.61093
| 81>    H        9.10525         4.63663        -4.04303
| 82>    H       11.36959         6.24881        -5.32260
| 83>    H       10.25016         6.84196        -4.08863
| 84>    H        9.65333         6.40246        -5.69050
| 85>    H        7.20108         2.69722        -6.62548
| 86>    H        7.49200         3.77700        -5.24756
| 87>    H        7.93229         0.75808        -5.39184
| 88>    H        6.72998         1.61096        -4.39660
| 89>    H        8.49158         2.38807        -2.86154
| 90>    H       10.25589         0.70866        -4.71474
| 91>    H       12.95698         3.74797         0.56922
| 92>    H       16.56664         4.71643         0.80472
| 93>    H       17.04537         4.82138         2.45928
| 94>    H       15.73121         0.81151        -3.40047
| 95>    H       21.15602         3.34807         2.91851
| 96>    H       21.98808         4.01742         4.27914
| 97>    H       25.22964         2.25278         0.87333
| 98>    H       21.13331         1.08246        -2.15039
| 99> *
|100>
|101>                          ****END OF INPUT****

CARTESIAN COORDINATES (ANGSTROEM)
---------------------------------
  C     15.820520    3.716580   -5.275920
  S     17.332720    3.854480   -4.500380
  C     16.554700    4.570790   -3.131580
  N     17.308730    4.910700   -2.008230
  O     16.711260    5.407980   -1.063280
  O     18.502150    4.670050   -2.023310
  C     15.197510    4.688050   -3.285870
  C     14.755850    4.190630   -4.532240
  C     13.359270    4.170510   -4.886720
  C     12.840810    3.544720   -5.957870
  C     11.449790    3.364890   -6.238520
  N     11.037310    2.534000   -7.243570
  C     11.810790    1.932020   -8.296410
  C     12.223020    2.956640   -9.351420
  N      9.731140    2.336110   -7.217460
  C      9.249920    3.041390   -6.202140
  C     10.286010    3.732710   -5.548180
  C     10.120440    4.709610   -4.433730
  C     10.367620    6.142060   -4.912700
  C      7.837730    2.879600   -5.760380
  C      7.739360    1.657410   -4.805560
  C      8.751430    1.787450   -3.720990
  C      9.997650    1.315750   -3.857500
  C     11.079110    1.612360   -2.970950
  S     12.715900    1.108290   -3.343680
  C     13.425260    1.931370   -1.984110
  C     12.420650    2.565580   -1.260540
  C     11.124900    2.378980   -1.829950
  O     10.190360    3.035470   -1.104890
  C     10.877550    3.630510   -0.088280
  N     10.138990    4.405910    0.832900
  O     10.770970    4.927280    1.733770
  O      8.941570    4.502790    0.661360
  C     12.226030    3.387360   -0.124470
  C     14.814860    1.904720   -1.729730
  O     15.285100    2.512080   -0.592130
  C     16.615690    2.330910   -0.605550
  C     17.781210    2.595980    0.142060
  C     17.882730    3.273980    1.464430
  O     18.632200    2.913110    2.347630
  N     17.000800    4.285080    1.607510
  C     18.803050    2.041180   -0.631860
  O     18.336210    1.456280   -1.774010
  C     17.002550    1.622470   -1.749820
  C     15.843980    1.341000   -2.478120
  C     20.208180    2.050050   -0.410120
  O     20.666100    2.611030    0.741770
  C     21.991700    2.474550    0.709790
  C     23.153040    2.744250    1.472310
  C     23.234040    3.373540    2.811230
  O     24.283970    3.642480    3.356090
  N     22.023390    3.613250    3.358200
  C     24.173990    2.259270    0.687400
  O     23.744500    1.715660   -0.473890
  C     22.402240    1.842930   -0.464700
  C     21.240280    1.559290   -1.199400
  H     15.785290    3.293920   -6.260490
  H     14.557340    5.108660   -2.531500
  H     12.717340    4.666240   -4.178710
  H     13.519350    3.053410   -6.641180
  H     11.164820    1.175450   -8.746590
  H     12.689490    1.435190   -7.873460
  H     11.339260    3.421010   -9.781480
  H     12.780440    2.466950  -10.145110
  H     12.843830    3.736510   -8.916120
  H     10.796860    4.467300   -3.610930
  H      9.105250    4.636630   -4.043030
  H     11.369590    6.248810   -5.322600
  H     10.250160    6.841960   -4.088630
  H      9.653330    6.402460   -5.690500
  H      7.201080    2.697220   -6.625480
  H      7.492000    3.777000   -5.247560
  H      7.932290    0.758080   -5.391840
  H      6.729980    1.610960   -4.396600
  H      8.491580    2.388070   -2.861540
  H     10.255890    0.708660   -4.714740
  H     12.956980    3.747970    0.569220
  H     16.566640    4.716430    0.804720
  H     17.045370    4.821380    2.459280
  H     15.731210    0.811510   -3.400470
  H     21.156020    3.348070    2.918510
  H     21.988080    4.017420    4.279140
  H     25.229640    2.252780    0.873330
  H     21.133310    1.082460   -2.150390

 Total Charge           Charge          ....    0
 Multiplicity           Mult            ....    1
 Number of Electrons    NEL             ....  412
 Basis Dimension        Dim             ....  932

ORBITAL ENERGIES
----------------

  NO   OCC          E(Eh)            E(eV)
   0   2.0000     -88.997702     -2421.7506
   1   2.0000     -88.983446     -2421.3627
   2   2.0000     -19.314890      -525.5849
   3   2.0000     -19.313838      -525.5562
   4   2.0000     -19.311515      -525.4930
   5   2.0000     -19.297275      -525.1055
   6   2.0000     -19.297251      -525.1049
   7   2.0000     -19.265197      -524.2327
   8   2.0000     -19.261225      -524.1246
   9   2.0000     -19.246101      -523.7130
  10   2.0000     -19.244095      -523.6585
  11   2.0000     -19.171575      -521.6851
  12   2.0000     -19.156837      -521.2840
  13   2.0000     -14.672503      -399.2591
  14   2.0000     -14.657970      -398.8636
  15   2.0000     -14.486358      -394.1939
  16   2.0000     -14.418211      -392.3395
  17   2.0000     -14.416726      -392.2991
  18   2.0000     -14.407350      -392.0439
  19   2.0000     -10.390954      -282.7522
  20   2.0000     -10.372636      -282.2538
  21   2.0000     -10.359283      -281.8904
  22   2.0000     -10.359247      -281.8895
  23   2.0000     -10.359125      -281.8861
  24   2.0000     -10.358923      -281.8806
  25   2.0000     -10.351019      -281.6655
  26   2.0000     -10.342841      -281.4430
  27   2.0000     -10.341576      -281.4086
  28   2.0000     -10.340121      -281.3690
  29   2.0000     -10.333345      -281.1846
  30   2.0000     -10.332944      -281.1737
  31   2.0000     -10.331092      -281.1233
  32   2.0000     -10.324016      -280.9308
  33   2.0000     -10.322771      -280.8969
  34   2.0000     -10.321376      -280.8589
  35   2.0000     -10.320396      -280.8323
  36   2.0000     -10.318633      -280.7843
  37   2.0000     -10.317408      -280.7509
  38   2.0000     -10.313277      -280.6385
  39   2.0000     -10.307561      -280.4830
  40   2.0000     -10.305682      -280.4319
  41   2.0000     -10.301943      -280.3301
  42   2.0000     -10.300246      -280.2839
  43   2.0000     -10.295111      -280.1442
  44   2.0000     -10.293296      -280.0948
  45   2.0000     -10.290337      -280.0143
  46   2.0000     -10.283050      -279.8160
  47   2.0000     -10.281182      -279.7652
  48   2.0000     -10.279815      -279.7280
  49   2.0000     -10.276443      -279.6362
  50   2.0000     -10.273761      -279.5633
  51   2.0000     -10.273621      -279.5594
  52   2.0000     -10.271920      -279.5132
  53   2.0000     -10.271311      -279.4966
  54   2.0000     -10.265749      -279.3452
  55   2.0000     -10.260253      -279.1957
  56   2.0000      -8.092879      -220.2184
  57   2.0000      -8.077448      -219.7985
  58   2.0000      -6.062263      -164.9626
  59   2.0000      -6.057685      -164.8380
  60   2.0000      -6.055166      -164.7694
  61   2.0000      -6.046917      -164.5450
  62   2.0000      -6.042828      -164.4337
  63   2.0000      -6.039432      -164.3413
  64   2.0000      -1.341492       -36.5038
  65   2.0000      -1.328635       -36.1540
  66   2.0000      -1.235729       -33.6259
  67   2.0000      -1.232075       -33.5265
  68   2.0000      -1.224259       -33.3138
  69   2.0000      -1.217314       -33.1248
  70   2.0000      -1.204749       -32.7829
  71   2.0000      -1.159512       -31.5519
  72   2.0000      -1.148118       -31.2419
  73   2.0000      -1.144992       -31.1568
  74   2.0000      -1.111123       -30.2352
  75   2.0000      -1.096973       -29.8502
  76   2.0000      -1.026933       -27.9443
  77   2.0000      -1.006075       -27.3767
  78   2.0000      -0.979853       -26.6631
  79   2.0000      -0.968389       -26.3512
  80   2.0000      -0.953465       -25.9451
  81   2.0000      -0.941822       -25.6283
  82   2.0000      -0.935724       -25.4623
  83   2.0000      -0.925818       -25.1928
  84   2.0000      -0.919575       -25.0229
  85   2.0000      -0.914696       -24.8901
  86   2.0000      -0.910002       -24.7624
  87   2.0000      -0.904340       -24.6083
  88   2.0000      -0.902223       -24.5507
  89   2.0000      -0.892184       -24.2776
  90   2.0000      -0.887106       -24.1394
  91   2.0000      -0.880989       -23.9729
  92   2.0000      -0.864708       -23.5299
  93   2.0000      -0.855579       -23.2815
  94   2.0000      -0.840505       -22.8713
  95   2.0000      -0.828955       -22.5570
  96   2.0000      -0.815100       -22.1800
  97   2.0000      -0.800959       -21.7952
  98   2.0000      -0.787769       -21.4363
  99   2.0000      -0.782594       -21.2955
 100   2.0000      -0.763463       -20.7749
 101   2.0000      -0.748059       -20.3557
 102   2.0000      -0.743110       -20.2210
 103   2.0000      -0.740337       -20.1456
 104   2.0000      -0.729486       -19.8503
 105   2.0000      -0.722453       -19.6589
 106   2.0000      -0.720367       -19.6022
 107   2.0000      -0.714392       -19.4396
 108   2.0000      -0.699166       -19.0253
 109   2.0000      -0.680839       -18.5266
 110   2.0000      -0.676448       -18.4071
 111   2.0000      -0.672274       -18.2935
 112   2.0000      -0.668069       -18.1791
 113   2.0000      -0.664851       -18.0915
 114   2.0000      -0.663361       -18.0510
 115   2.0000      -0.658191       -17.9103
 116   2.0000      -0.657701       -17.8970
 117   2.0000      -0.655164       -17.8279
 118   2.0000      -0.653430       -17.7807
 119   2.0000      -0.643226       -17.5031
 120   2.0000      -0.638474       -17.3737
 121   2.0000      -0.632311       -17.2061
 122   2.0000      -0.627518       -17.0756
 123   2.0000      -0.618166       -16.8211
 124   2.0000      -0.615957       -16.7610
 125   2.0000      -0.610410       -16.6101
 126   2.0000      -0.605067       -16.4647
 127   2.0000      -0.603825       -16.4309
 128   2.0000      -0.596968       -16.2443
 129   2.0000      -0.593570       -16.1519
 130   2.0000      -0.593263       -16.1435
 131   2.0000      -0.587757       -15.9937
 132   2.0000      -0.580607       -15.7991
 133   2.0000      -0.578734       -15.7482
 134   2.0000      -0.575071       -15.6485
 135   2.0000      -0.572534       -15.5794
 136   2.0000      -0.569905       -15.5079
 137   2.0000      -0.565531       -15.3889
 138   2.0000      -0.557288       -15.1646
 139   2.0000      -0.551889       -15.0177
 140   2.0000      -0.550462       -14.9788
 141   2.0000      -0.548983       -14.9386
 142   2.0000      -0.545798       -14.8519
 143   2.0000      -0.541550       -14.7363
 144   2.0000      -0.536431       -14.5970
 145   2.0000      -0.531521       -14.4634
 146   2.0000      -0.527675       -14.3588
 147   2.0000      -0.524577       -14.2745
 148   2.0000      -0.521550       -14.1921
 149   2.0000      -0.518981       -14.1222
 150   2.0000      -0.517900       -14.0928
 151   2.0000      -0.512725       -13.9519
 152   2.0000      -0.508149       -13.8274
 153   2.0000      -0.507059       -13.7978
 154   2.0000      -0.505352       -13.7513
 155   2.0000      -0.503849       -13.7104
 156   2.0000      -0.502720       -13.6797
 157   2.0000      -0.496303       -13.5051
 158   2.0000      -0.491124       -13.3642
 159   2.0000      -0.487721       -13.2716
 160   2.0000      -0.486287       -13.2326
 161   2.0000      -0.481076       -13.0907
 162   2.0000      -0.480470       -13.0742
 163   2.0000      -0.477111       -12.9829
 164   2.0000      -0.472307       -12.8521
 165   2.0000      -0.467682       -12.7263
 166   2.0000      -0.466486       -12.6937
 167   2.0000      -0.465555       -12.6684
 168   2.0000      -0.461536       -12.5590
 169   2.0000      -0.453340       -12.3360
 170   2.0000      -0.451732       -12.2922
 171   2.0000      -0.447671       -12.1817
 172   2.0000      -0.444989       -12.1088
 173   2.0000      -0.443981       -12.0813
 174   2.0000      -0.442390       -12.0380
 175   2.0000      -0.433906       -11.8072
 176   2.0000      -0.428580       -11.6623
 177   2.0000      -0.427683       -11.6378
 178   2.0000      -0.424341       -11.5469
 179   2.0000      -0.415133       -11.2964
 180   2.0000      -0.413449       -11.2505
 181   2.0000      -0.411346       -11.1933
 182   2.0000      -0.410019       -11.1572
 183   2.0000      -0.404177       -10.9982
 184   2.0000      -0.394617       -10.7381
 185   2.0000      -0.392536       -10.6815
 186   2.0000      -0.389182       -10.5902
 187   2.0000      -0.383158       -10.4263
 188   2.0000      -0.375076       -10.2063
 189   2.0000      -0.373880       -10.1738
 190   2.0000      -0.360607        -9.8126
 191   2.0000      -0.358784        -9.7630
 192   2.0000      -0.355790        -9.6815
 193   2.0000      -0.354846        -9.6558
 194   2.0000      -0.344815        -9.3829
 195   2.0000      -0.339394        -9.2354
 196   2.0000      -0.334507        -9.1024
 197   2.0000      -0.326267        -8.8782
 198   2.0000      -0.325825        -8.8662
 199   2.0000      -0.322925        -8.7872
 200   2.0000      -0.319872        -8.7042
 201   2.0000      -0.313585        -8.5331
 202   2.0000      -0.303675        -8.2634
 203   2.0000      -0.277879        -7.5615
 204   2.0000      -0.269587        -7.3358
 205   2.0000      -0.230961        -6.2848
 206   0.0000      -0.080877        -2.2008
 207   0.0000      -0.079613        -2.1664
 208   0.0000      -0.036633        -0.9968
 209   0.0000      -0.034983        -0.9519
 210   0.0000      -0.011363        -0.3092

MULLIKEN ATOMIC CHARGES
-----------------------
   0 C :   -0.122345
   1 S :    0.207703
   2 C :   -0.081945
   3 N :    0.292060
   4 O :   -0.273454
   5 O :   -0.230857
   6 C :    0.086102
   7 C :    0.077144
   8 C :    0.005144
   9 C :    0.020400
  10 C :    0.117754
  11 N :   -0.162414
  12 C :    0.119301
  13 C :   -0.004211
  14 N :   -0.080713
  15 C :   -0.205057
  16 C :   -0.146104
  17 C :    0.078015
  18 C :    0.031921
  19 C :    0.153830
  20 C :    0.101302
  21 C :   -0.136340
  22 C :    0.134300
  23 C :   -0.216167
  24 S :    0.166461
  25 C :   -0.181221
  26 C :    0.133440
  27 C :    0.185518
  28 O :   -0.196245
  29 C :    0.243971
  30 N :    0.273946
  31 O :   -0.248844
  32 O :   -0.234311
  33 C :   -0.109220
  34 C :    0.189913
  35 O :   -0.212732
  36 C :    0.101059
  37 C :   -0.098803
  38 C :    0.073181
  39 O :   -0.219033
  40 N :   -0.081862
  41 C :    0.151876
  42 O :   -0.195804
  43 C :    0.201576
  44 C :   -0.162816
  45 C :    0.134512
  46 O :   -0.183558
  47 C :    0.105770
  48 C :   -0.069818
  49 C :    0.057256
  50 O :   -0.208070
  51 N :   -0.094252
  52 C :    0.109334
  53 O :   -0.181815
  54 C :    0.186438
  55 C :   -0.135012
  56 H :    0.032824
  57 H :    0.012807
  58 H :   -0.031654
  59 H :   -0.039434
  60 H :    0.035628
  61 H :    0.018155
  62 H :    0.034732
  63 H :    0.024389
  64 H :    0.016980
  65 H :    0.016419
  66 H :   -0.006168
  67 H :    0.011816
  68 H :    0.014771
  69 H :    0.013165
  70 H :    0.010117
  71 H :    0.001506
  72 H :    0.013943
  73 H :    0.009855
  74 H :    0.019470
  75 H :   -0.025986
  76 H :    0.015247
  77 H :    0.126706
  78 H :    0.126684
  79 H :   -0.006952
  80 H :    0.138835
  81 H :    0.127267
  82 H :    0.028108
  83 H :   -0.005432
Sum of atomic charges:   -0.0000000

LOEWDIN ATOMIC CHARGES
----------------------
   0 C :   -0.163002
   1 S :    0.505773
   2 C :   -0.207117
   3 N :    0.286778
   4 O :   -0.221778
   5 O :   -0.198589
   6 C :   -0.001090
   7 C :   -0.060781
   8 C :   -0.034561
   9 C :   -0.020257
  10 C :   -0.029852
  11 N :    0.092957
  12 C :    0.032843
  13 C :   -0.060752
  14 N :   -0.098492
  15 C :   -0.056030
  16 C :   -0.065747
  17 C :   -0.032749
  18 C :   -0.049716
  19 C :   -0.021870
  20 C :   -0.020881
  21 C :   -0.011423
  22 C :   -0.049094
  23 C :   -0.192515
  24 S :    0.476412
  25 C :   -0.189025
  26 C :   -0.079283
  27 C :    0.016584
  28 O :   -0.001067
  29 C :    0.023332
  30 N :    0.271436
  31 O :   -0.211219
  32 O :   -0.196029
  33 C :   -0.006242
  34 C :    0.019277
  35 O :    0.007242
  36 C :   -0.003334
  37 C :   -0.116526
  38 C :    0.062351
  39 O :   -0.219227
  40 N :    0.001428
  41 C :    0.063568
  42 O :    0.013995
  43 C :   -0.011723
  44 C :   -0.076641
  45 C :    0.021415
  46 O :    0.035497
  47 C :    0.000431
  48 C :   -0.121072
  49 C :    0.057938
  50 O :   -0.224096
  51 N :    0.000136
  52 C :    0.091158
  53 O :    0.016955
  54 C :   -0.009999
  55 C :   -0.052199
  56 H :    0.025559
  57 H :    0.043380
  58 H :    0.030073
  59 H :    0.023766
  60 H :    0.037883
  61 H :    0.020926
  62 H :    0.034035
  63 H :    0.030550
  64 H :    0.023274
  65 H :    0.021912
  66 H :    0.027434
  67 H :    0.020602
  68 H :    0.024069
  69 H :    0.026538
  70 H :    0.036330
  71 H :    0.026886
  72 H :    0.030925
  73 H :    0.028797
  74 H :    0.025983
  75 H :    0.025995
  76 H :    0.048341
  77 H :    0.060087
  78 H :    0.080175
  79 H :    0.032089
  80 H :    0.077053
  81 H :    0.081573
  82 H :    0.034076
  83 H :    0.038166

  Mayer bond orders larger than 0.100000
B(  0-C ,  1-S ) :   1.1889 B(  0-C ,  7-C ) :   1.4924 B(  0-C , 56-H ) :   0.9589
B(  1-S ,  2-C ) :   1.1480 B(  2-C ,  3-N ) :   0.9692 B(  2-C ,  6-C ) :   1.4529
B(  3-N ,  4-O ) :   1.4694 B(  3-N ,  5-O ) :   1.5289 B(  4-O ,  5-O ) :   0.2428
B(  6-C ,  7-C ) :   1.2241 B(  6-C , 57-H ) :   1.0000 B(  7-C ,  8-C ) :   1.0744
B(  8-C ,  9-C ) :   1.6999 B(  8-C , 58-H ) :   0.9783 B(  9-C , 10-C ) :   1.1032
B(  9-C , 59-H ) :   0.9500 B( 10-C , 11-N ) :   1.1562 B( 10-C , 16-C ) :   1.4013
B( 11-N , 12-C ) :   0.9567 B( 11-N , 14-N ) :   1.1716 B( 12-C , 13-C ) :   1.1127
B( 12-C , 60-H ) :   0.9401 B( 12-C , 61-H ) :   0.9462 B( 13-C , 62-H ) :   0.9647
B( 13-C , 63-H ) :   0.9670 B( 13-C , 64-H ) :   0.9684 B( 14-N , 15-C ) :   1.5738
B( 15-C , 16-C ) :   1.3413 B( 15-C , 19-C ) :   1.0885 B( 16-C , 17-C ) :   1.0774
B( 17-C , 18-C ) :   1.1107 B( 17-C , 65-H ) :   0.9086 B( 17-C , 66-H ) :   0.9100
B( 18-C , 67-H ) :   0.9683 B( 18-C , 68-H ) :   0.9671 B( 18-C , 69-H ) :   0.9633
B( 19-C , 20-C ) :   1.0754 B( 19-C , 70-H ) :   0.9038 B( 19-C , 71-H ) :   0.9162
B( 20-C , 21-C ) :   1.0541 B( 20-C , 72-H ) :   0.9386 B( 20-C , 73-H ) :   0.9306
B( 21-C , 22-C ) :   1.8241 B( 21-C , 74-H ) :   0.9558 B( 22-C , 23-C ) :   1.1008
B( 22-C , 75-H ) :   0.9396 B( 23-C , 24-S ) :   1.1050 B( 23-C , 25-C ) :   0.1168
B( 23-C , 27-C ) :   1.5002 B( 24-S , 25-C ) :   1.1626 B( 25-C , 26-C ) :   1.3514
B( 25-C , 34-C ) :   1.1613 B( 26-C , 27-C ) :   1.2118 B( 26-C , 33-C ) :   1.0860
B( 27-C , 28-O ) :   1.0881 B( 28-O , 29-C ) :   1.1144 B( 29-C , 30-N ) :   0.9212
B( 29-C , 33-C ) :   1.5386 B( 30-N , 31-O ) :   1.5297 B( 30-N , 32-O ) :   1.5075
B( 31-O , 32-O ) :   0.2784 B( 33-C , 76-H ) :   1.0305 B( 34-C , 35-O ) :   1.1216
B( 34-C , 44-C ) :   1.4282 B( 35-O , 36-C ) :   1.1353 B( 36-C , 37-C ) :   1.2317
B( 36-C , 43-C ) :   1.3598 B( 37-C , 38-C ) :   0.8521 B( 37-C , 41-C ) :   1.4581
B( 38-C , 39-O ) :   2.1410 B( 38-C , 40-N ) :   1.3019 B( 40-N , 77-H ) :   0.9240
B( 40-N , 78-H ) :   0.9377 B( 41-C , 42-O ) :   1.1669 B( 41-C , 45-C ) :   1.0946
B( 42-O , 43-C ) :   1.1197 B( 43-C , 44-C ) :   1.2169 B( 44-C , 79-H ) :   1.0258
B( 45-C , 46-O ) :   1.1512 B( 45-C , 47-C ) :   0.1060 B( 45-C , 55-C ) :   1.4353
B( 46-O , 47-C ) :   1.1447 B( 47-C , 48-C ) :   1.1800 B( 47-C , 54-C ) :   1.3885
B( 48-C , 49-C ) :   0.8809 B( 48-C , 52-C ) :   1.5384 B( 49-C , 50-O ) :   2.2246
B( 49-C , 51-N ) :   1.3006 B( 51-N , 80-H ) :   0.9209 B( 51-N , 81-H ) :   0.9362
B( 52-C , 53-O ) :   1.1418 B( 52-C , 82-H ) :   1.0045 B( 53-O , 54-C ) :   1.1349
B( 54-C , 55-C ) :   1.1929 B( 55-C , 83-H ) :   1.0390

-----------------------------------------------------------------------------
         ABSORPTION SPECTRUM VIA TRANSITION ELECTRIC DIPOLE MOMENTS
-----------------------------------------------------------------------------
State   Energy  Wavelength   fosc         T2         TX        TY        TZ
        (cm-1)    (nm)                  (au**2)     (au)      (au)      (au)
-----------------------------------------------------------------------------
   0   14107.1    708.9   0.015387041   0.35908  -0.06008  -0.43685   0.40575
   1   17378.0    575.4   0.763905307  14.47155   3.76910  -0.39928   0.32558
   2   24172.3    413.7   0.001935034   0.02635  -0.14940   0.01601   0.06145
   3   24499.1    408.2   0.048418897   0.65064  -0.37933   0.03702  -0.71090
   4   25740.9    388.5   0.048696957   0.62281   0.71013  -0.34198   0.03968
   5   26221.8    381.4   0.042460161   0.53308   0.53341   0.04470   0.49655
   6   26721.9    374.2   0.679671807   8.37351   2.78727   0.23671   0.74068
   7   28395.9    352.2   0.193089027   2.23861  -1.41538  -0.03255  -0.48400
   8   32292.3    309.7   0.296230302   3.01999  -1.73394  -0.05483  -0.10222
   9   32469.4    308.0   0.001410395   0.01430   0.00942   0.07147   0.09541
  10   32614.6    306.6   0.045737402   0.46167  -0.05240  -0.41247  -0.53739
  11   32788.0    305.0   0.001100836   0.01105  -0.05925  -0.00872   0.08641
  12   33737.4    296.4   0.009820439   0.09583   0.28117   0.08030   0.10162
  13   33962.5    294.4   0.403974471   3.91589  -1.83027  -0.27437  -0.70053
  14   34660.7    288.5   0.119805164   1.13792   0.76671   0.26148   0.69406
  15   35011.6    285.6   0.002707642   0.02546  -0.09756   0.11446  -0.05329
  16   35132.6    284.6   0.315409989   2.95557  -1.14396   0.72177   1.06112
  17   35297.1    283.3   0.242557489   2.26230   0.63040   0.75519   1.13780
  18   35580.4    281.1   0.021416101   0.19816   0.12134  -0.42759   0.02447
  19   36081.5    277.2   0.014163824   0.12923  -0.20786  -0.06496  -0.28602
  20   36135.1    276.7   0.003730174   0.03398  -0.03751   0.05217   0.17279
  21   37113.5    269.4   0.459132611   4.07270   1.47799   0.68000   1.19409
  22   37364.0    267.6   0.053042526   0.46735  -0.49693   0.24648   0.39957
  23   37571.4    266.2   0.006334532   0.05551   0.04878  -0.01756  -0.22982
  24   38163.8    262.0   0.012667795   0.10928  -0.24954   0.19351   0.09778
  25   38290.7    261.2   0.013689671   0.11770   0.05343  -0.20646  -0.26874
  26   38763.1    258.0   0.001253592   0.01065   0.08016  -0.04537   0.04650
  27   39292.5    254.5   0.000508330   0.00426  -0.04812  -0.03226  -0.03005
  28   39888.3    250.7   0.198797015   1.64074  -0.11096  -0.57021  -1.14162
  29   40235.8    248.5   0.005626797   0.04604   0.02662  -0.10099  -0.18743

FINAL SINGLE POINT ENERGY     -3375.498407818935

DIPOLE MOMENT
-------------
                                X             Y             Z
Electronic contribution:     50.61103      -8.69337      43.38788
Nuclear contribution   :    -52.14166       8.02335     -47.66653
                        -----------------------------------------
Total Dipole Moment    :     -1.53063      -0.67002      -4.27865
                        -----------------------------------------
Magnitude (a.u.)       :      4.59332
Magnitude (Debye)      :     11.67529

Rotational constants in cm-1:     0.003203     0.000773     0.000681
Rotational constants in MHz :    96.022278    23.181329    20.422454

                             ****ORCA TERMINATED NORMALLY****
TOTAL RUN TIME: 0 days 0 hours 8 minutes 2 seconds 424 msec
