                         Program Version 4.2.0 -  RELEASE  -
|  1> # ORCA input file
|  2> # SCF done       -171.588295198805          0.000726294225
|  3> ! CAM-B3LYP def2-SVP def2/J RIJCOSX Grid4 TightSCF
|  4> %maxcore 5000
|  5> %tddft
|  6>     Mode sTDDFT
|  7>     Ethresh 5.0
|  8>     maxcore 5000
|  9> end
| 10>
| 11> %pal
| 12>   nprocs 6
| 13>   end
| 14> * xyz 0 1
| 15>    N        3.08090        16.78772        -9.94694
| 16>    C        2.83985        15.43293       -10.22046
| 17>    C        3.19189        14.81095       -11.37906
| 18>    S        2.76780        13.14806       -11.39701
| 19>    C        2.13175        13.26817        -9.80681
| 20>    C        2.19060        14.53756        -9.30071
| 21>    N        1.69877        14.92229        -8.05765
| 22>    C        2.12012        16.19343        -7.49575
| 23>    C        3.63226        16.35792        -7.61179
| 24>    O        4.39392        15.98498        -6.76171
| 25>    C        4.06210        17.01771        -8.89753
| 26>    C        0.70608        14.24875        -7.39611
| 27>    C       -0.19745        13.39962        -7.91662
| 28>    N       -1.11711        12.74726        -7.11766
| 29>    C       -2.09798        11.93787        -7.54821
| 30>    S       -2.37609        11.68965        -9.24443
| 31>    C       -3.73418        10.66585        -8.85816
| 32>    N       -4.43112        10.09711        -9.91038
| 33>    O       -5.38883         9.38208        -9.64512
| 34>    O       -4.03709        10.35411       -11.04225
| 35>    C       -3.94445        10.53538        -7.50911
| 36>    C       -3.01730        11.24470        -6.73258
| 37>    C       -2.95626        11.23890        -5.29736
| 38>    C       -3.92409        10.78758        -4.47592
| 39>    C       -3.76897        10.77101        -3.05203
| 40>    C       -4.69499        10.46895        -2.12777
| 41>    C       -6.11621        10.10018        -2.39980
| 42>    C       -4.32047        10.56627        -0.66032
| 43>    N       -3.95571        11.92140        -0.31575
| 44>    C       -4.73396        12.80031         0.32446
| 45>    C       -4.45528        14.13762         0.37513
| 46>    C       -5.18797        15.07707         1.10563
| 47>    C       -4.89561        16.42196         1.11704
| 48>    C       -5.53019        17.44728         1.84814
| 49>    C       -4.99092        18.68778         1.65725
| 50>    C       -3.90923        18.70529         0.75310
| 51>    S       -3.58520        17.10468         0.15741
| 52>    C       -3.15327        19.79586         0.34042
| 53>    C       -3.24239        21.12825         0.77334
| 54>    C       -2.33319        21.96026         0.17625
| 55>    C       -1.49938        21.32379        -0.76206
| 56>    S       -1.88768        19.62588        -0.85936
| 57>    C       -0.50712        21.93029        -1.52197
| 58>    C        0.24081        21.27726        -2.48244
| 59>    C        1.23407        21.88019        -3.24740
| 60>    C        1.97777        21.28010        -4.31017
| 61>    C        1.83755        20.00675        -4.82969
| 62>    C        2.53511        19.53613        -5.95076
| 63>    N        3.03774        19.08112        -6.88144
| 64>    C        0.96860        19.00197        -4.37049
| 65>    N        0.30914        18.10128        -4.08979
| 66>    C        2.92362        22.27534        -4.81780
| 67>    C        2.74364        23.47599        -4.09218
| 68>    C        1.67280        23.27476        -3.08767
| 69>    O        1.26659        24.11541        -2.30639
| 70>    C        3.48396        24.60539        -4.33097
| 71>    C        4.45483        24.54827        -5.33897
| 72>    C        4.63342        23.34278        -6.05218
| 73>    C        3.88318        22.19765        -5.80706
| 74>    S        5.88651        23.48815        -7.24953
| 75>    C        6.14561        25.14740        -6.78128
| 76>    C        5.33949        25.57111        -5.78022
| 77>   Br        7.45598        26.16336        -7.66124
| 78>    H        3.33763        17.28264       -10.79390
| 79>    H        3.66018        15.25016       -12.23763
| 80>    H        1.75999        12.38285        -9.33550
| 81>    H        1.85138        16.21643        -6.43734
| 82>    H        1.62994        17.02603        -8.01189
| 83>    H        5.07516        16.67622        -9.15981
| 84>    H        4.10049        18.09128        -8.68858
| 85>    H        0.65729        14.47615        -6.33735
| 86>    H       -0.27143        13.18317        -8.96823
| 87>    H       -1.05938        12.92249        -6.12292
| 88>    H       -4.73420         9.92038        -7.11936
| 89>    H       -2.04411        11.61994        -4.85218
| 90>    H       -4.85319        10.43401        -4.89275
| 91>    H       -2.77472        11.03425        -2.70474
| 92>    H       -6.32033        10.02042        -3.46142
| 93>    H       -6.78376        10.85252        -1.97750
| 94>    H       -6.35150         9.14569        -1.92880
| 95>    H       -3.46422         9.91628        -0.44517
| 96>    H       -5.15615        10.26008        -0.02990
| 97>    H       -3.18401        12.30751        -0.84329
| 98>    H       -5.58984        12.39121         0.84440
| 99>    H       -3.60262        14.50425        -0.18221
|100>    H       -6.02532        14.73942         1.70185
|101>    H       -6.36219        17.24194         2.49882
|102>    H       -5.34684        19.58213         2.13563
|103>    H       -3.95773        21.44548         1.51089
|104>    H       -2.24446        23.01221         0.38103
|105>    H       -0.33000        22.98196        -1.34976
|106>    H        0.02872        20.22806        -2.65460
|107>    H        3.32257        25.50642        -3.76019
|108>    H        4.06455        21.30130        -6.37569
|109>    H        5.36461        26.56353        -5.36843
|110> *
|111>
|112>                          ****END OF INPUT****

CARTESIAN COORDINATES (ANGSTROEM)
---------------------------------
  N      3.080900   16.787720   -9.946940
  C      2.839850   15.432930  -10.220460
  C      3.191890   14.810950  -11.379060
  S      2.767800   13.148060  -11.397010
  C      2.131750   13.268170   -9.806810
  C      2.190600   14.537560   -9.300710
  N      1.698770   14.922290   -8.057650
  C      2.120120   16.193430   -7.495750
  C      3.632260   16.357920   -7.611790
  O      4.393920   15.984980   -6.761710
  C      4.062100   17.017710   -8.897530
  C      0.706080   14.248750   -7.396110
  C     -0.197450   13.399620   -7.916620
  N     -1.117110   12.747260   -7.117660
  C     -2.097980   11.937870   -7.548210
  S     -2.376090   11.689650   -9.244430
  C     -3.734180   10.665850   -8.858160
  N     -4.431120   10.097110   -9.910380
  O     -5.388830    9.382080   -9.645120
  O     -4.037090   10.354110  -11.042250
  C     -3.944450   10.535380   -7.509110
  C     -3.017300   11.244700   -6.732580
  C     -2.956260   11.238900   -5.297360
  C     -3.924090   10.787580   -4.475920
  C     -3.768970   10.771010   -3.052030
  C     -4.694990   10.468950   -2.127770
  C     -6.116210   10.100180   -2.399800
  C     -4.320470   10.566270   -0.660320
  N     -3.955710   11.921400   -0.315750
  C     -4.733960   12.800310    0.324460
  C     -4.455280   14.137620    0.375130
  C     -5.187970   15.077070    1.105630
  C     -4.895610   16.421960    1.117040
  C     -5.530190   17.447280    1.848140
  C     -4.990920   18.687780    1.657250
  C     -3.909230   18.705290    0.753100
  S     -3.585200   17.104680    0.157410
  C     -3.153270   19.795860    0.340420
  C     -3.242390   21.128250    0.773340
  C     -2.333190   21.960260    0.176250
  C     -1.499380   21.323790   -0.762060
  S     -1.887680   19.625880   -0.859360
  C     -0.507120   21.930290   -1.521970
  C      0.240810   21.277260   -2.482440
  C      1.234070   21.880190   -3.247400
  C      1.977770   21.280100   -4.310170
  C      1.837550   20.006750   -4.829690
  C      2.535110   19.536130   -5.950760
  N      3.037740   19.081120   -6.881440
  C      0.968600   19.001970   -4.370490
  N      0.309140   18.101280   -4.089790
  C      2.923620   22.275340   -4.817800
  C      2.743640   23.475990   -4.092180
  C      1.672800   23.274760   -3.087670
  O      1.266590   24.115410   -2.306390
  C      3.483960   24.605390   -4.330970
  C      4.454830   24.548270   -5.338970
  C      4.633420   23.342780   -6.052180
  C      3.883180   22.197650   -5.807060
  S      5.886510   23.488150   -7.249530
  C      6.145610   25.147400   -6.781280
  C      5.339490   25.571110   -5.780220
  Br     7.455980   26.163360   -7.661240
  H      3.337630   17.282640  -10.793900
  H      3.660180   15.250160  -12.237630
  H      1.759990   12.382850   -9.335500
  H      1.851380   16.216430   -6.437340
  H      1.629940   17.026030   -8.011890
  H      5.075160   16.676220   -9.159810
  H      4.100490   18.091280   -8.688580
  H      0.657290   14.476150   -6.337350
  H     -0.271430   13.183170   -8.968230
  H     -1.059380   12.922490   -6.122920
  H     -4.734200    9.920380   -7.119360
  H     -2.044110   11.619940   -4.852180
  H     -4.853190   10.434010   -4.892750
  H     -2.774720   11.034250   -2.704740
  H     -6.320330   10.020420   -3.461420
  H     -6.783760   10.852520   -1.977500
  H     -6.351500    9.145690   -1.928800
  H     -3.464220    9.916280   -0.445170
  H     -5.156150   10.260080   -0.029900
  H     -3.184010   12.307510   -0.843290
  H     -5.589840   12.391210    0.844400
  H     -3.602620   14.504250   -0.182210
  H     -6.025320   14.739420    1.701850
  H     -6.362190   17.241940    2.498820
  H     -5.346840   19.582130    2.135630
  H     -3.957730   21.445480    1.510890
  H     -2.244460   23.012210    0.381030
  H     -0.330000   22.981960   -1.349760
  H      0.028720   20.228060   -2.654600
  H      3.322570   25.506420   -3.760190
  H      4.064550   21.301300   -6.375690
  H      5.364610   26.563530   -5.368430

 Total Charge           Charge          ....    0
 Multiplicity           Mult            ....    1
 Number of Electrons    NEL             ....  504
 Basis Dimension        Dim             .... 1080

ORBITAL ENERGIES
----------------

  NO   OCC          E(Eh)            E(eV)
   0   2.0000    -482.872818    -13139.6374
   1   2.0000     -88.966948     -2420.9137
   2   2.0000     -88.964602     -2420.8499
   3   2.0000     -88.959599     -2420.7137
   4   2.0000     -88.953601     -2420.5505
   5   2.0000     -88.936425     -2420.0831
   6   2.0000     -62.550540     -1702.0867
   7   2.0000     -56.384468     -1534.2994
   8   2.0000     -56.381795     -1534.2266
   9   2.0000     -56.381748     -1534.2254
  10   2.0000     -19.213894      -522.8366
  11   2.0000     -19.212529      -522.7995
  12   2.0000     -19.192189      -522.2460
  13   2.0000     -19.188097      -522.1347
  14   2.0000     -14.625478      -397.9795
  15   2.0000     -14.478101      -393.9692
  16   2.0000     -14.469947      -393.7473
  17   2.0000     -14.437163      -392.8552
  18   2.0000     -14.402110      -391.9013
  19   2.0000     -14.398606      -391.8060
  20   2.0000     -14.394616      -391.6974
  21   2.0000     -10.360986      -281.9368
  22   2.0000     -10.358571      -281.8710
  23   2.0000     -10.342829      -281.4427
  24   2.0000     -10.339758      -281.3591
  25   2.0000     -10.339173      -281.3432
  26   2.0000     -10.338372      -281.3214
  27   2.0000     -10.337137      -281.2878
  28   2.0000     -10.320287      -280.8293
  29   2.0000     -10.319733      -280.8142
  30   2.0000     -10.317515      -280.7539
  31   2.0000     -10.315032      -280.6863
  32   2.0000     -10.314820      -280.6805
  33   2.0000     -10.309547      -280.5370
  34   2.0000     -10.308779      -280.5161
  35   2.0000     -10.308133      -280.4986
  36   2.0000     -10.308072      -280.4969
  37   2.0000     -10.307337      -280.4769
  38   2.0000     -10.306309      -280.4489
  39   2.0000     -10.301939      -280.3300
  40   2.0000     -10.300796      -280.2989
  41   2.0000     -10.299766      -280.2709
  42   2.0000     -10.297040      -280.1967
  43   2.0000     -10.295422      -280.1527
  44   2.0000     -10.294967      -280.1403
  45   2.0000     -10.294699      -280.1330
  46   2.0000     -10.294287      -280.1218
  47   2.0000     -10.292442      -280.0716
  48   2.0000     -10.288921      -279.9758
  49   2.0000     -10.287836      -279.9462
  50   2.0000     -10.287145      -279.9274
  51   2.0000     -10.286888      -279.9204
  52   2.0000     -10.285629      -279.8862
  53   2.0000     -10.285410      -279.8802
  54   2.0000     -10.285089      -279.8715
  55   2.0000     -10.285026      -279.8698
  56   2.0000     -10.281795      -279.7819
  57   2.0000     -10.281483      -279.7734
  58   2.0000     -10.279889      -279.7300
  59   2.0000     -10.279835      -279.7285
  60   2.0000     -10.279016      -279.7063
  61   2.0000     -10.278637      -279.6959
  62   2.0000     -10.272674      -279.5337
  63   2.0000     -10.270198      -279.4663
  64   2.0000     -10.268812      -279.4286
  65   2.0000     -10.259974      -279.1881
  66   2.0000     -10.257782      -279.1284
  67   2.0000      -8.779965      -238.9150
  68   2.0000      -8.062268      -219.3855
  69   2.0000      -8.060742      -219.3439
  70   2.0000      -8.055517      -219.2018
  71   2.0000      -8.049447      -219.0366
  72   2.0000      -8.032551      -218.5768
  73   2.0000      -6.616173      -180.0352
  74   2.0000      -6.601707      -179.6416
  75   2.0000      -6.601600      -179.6387
  76   2.0000      -6.032056      -164.1406
  77   2.0000      -6.030272      -164.0920
  78   2.0000      -6.027696      -164.0219
  79   2.0000      -6.026283      -163.9835
  80   2.0000      -6.025204      -163.9541
  81   2.0000      -6.023451      -163.9064
  82   2.0000      -6.022036      -163.8679
  83   2.0000      -6.020979      -163.8392
  84   2.0000      -6.018931      -163.7834
  85   2.0000      -6.016763      -163.7245
  86   2.0000      -6.014932      -163.6746
  87   2.0000      -6.010906      -163.5651
  88   2.0000      -6.001917      -163.3205
  89   2.0000      -5.997775      -163.2078
  90   2.0000      -5.994500      -163.1186
  91   2.0000      -2.732076       -74.3436
  92   2.0000      -2.728001       -74.2327
  93   2.0000      -2.727873       -74.2292
  94   2.0000      -2.716403       -73.9171
  95   2.0000      -2.716389       -73.9167
  96   2.0000      -1.291331       -35.1389
  97   2.0000      -1.111637       -30.2492
  98   2.0000      -1.109831       -30.2000
  99   2.0000      -1.101299       -29.9679
 100   2.0000      -1.077342       -29.3160
 101   2.0000      -1.076405       -29.2905
 102   2.0000      -1.052926       -28.6516
 103   2.0000      -1.008510       -27.4430
 104   2.0000      -1.006622       -27.3916
 105   2.0000      -1.003369       -27.3031
 106   2.0000      -0.995968       -27.1017
 107   2.0000      -0.985027       -26.8039
 108   2.0000      -0.982965       -26.7478
 109   2.0000      -0.976425       -26.5699
 110   2.0000      -0.967436       -26.3253
 111   2.0000      -0.949143       -25.8275
 112   2.0000      -0.940171       -25.5834
 113   2.0000      -0.923758       -25.1367
 114   2.0000      -0.921203       -25.0672
 115   2.0000      -0.904245       -24.6058
 116   2.0000      -0.894223       -24.3331
 117   2.0000      -0.888453       -24.1760
 118   2.0000      -0.879052       -23.9202
 119   2.0000      -0.870400       -23.6848
 120   2.0000      -0.866389       -23.5757
 121   2.0000      -0.856633       -23.3102
 122   2.0000      -0.855260       -23.2728
 123   2.0000      -0.848950       -23.1011
 124   2.0000      -0.839989       -22.8573
 125   2.0000      -0.830721       -22.6051
 126   2.0000      -0.830662       -22.6035
 127   2.0000      -0.825395       -22.4602
 128   2.0000      -0.810404       -22.0522
 129   2.0000      -0.810118       -22.0444
 130   2.0000      -0.801600       -21.8126
 131   2.0000      -0.793849       -21.6017
 132   2.0000      -0.785003       -21.3610
 133   2.0000      -0.776316       -21.1246
 134   2.0000      -0.754285       -20.5251
 135   2.0000      -0.750154       -20.4127
 136   2.0000      -0.738595       -20.0982
 137   2.0000      -0.736569       -20.0431
 138   2.0000      -0.730841       -19.8872
 139   2.0000      -0.710819       -19.3424
 140   2.0000      -0.709812       -19.3150
 141   2.0000      -0.702002       -19.1024
 142   2.0000      -0.691177       -18.8079
 143   2.0000      -0.676152       -18.3990
 144   2.0000      -0.671070       -18.2607
 145   2.0000      -0.668550       -18.1922
 146   2.0000      -0.656514       -17.8647
 147   2.0000      -0.654748       -17.8166
 148   2.0000      -0.647443       -17.6178
 149   2.0000      -0.644670       -17.5424
 150   2.0000      -0.642248       -17.4765
 151   2.0000      -0.637283       -17.3414
 152   2.0000      -0.634218       -17.2580
 153   2.0000      -0.624173       -16.9846
 154   2.0000      -0.617081       -16.7916
 155   2.0000      -0.614791       -16.7293
 156   2.0000      -0.612196       -16.6587
 157   2.0000      -0.609914       -16.5966
 158   2.0000      -0.606677       -16.5085
 159   2.0000      -0.604354       -16.4453
 160   2.0000      -0.602249       -16.3880
 161   2.0000      -0.596918       -16.2430
 162   2.0000      -0.588843       -16.0232
 163   2.0000      -0.580732       -15.8025
 164   2.0000      -0.578902       -15.7527
 165   2.0000      -0.578358       -15.7379
 166   2.0000      -0.573806       -15.6140
 167   2.0000      -0.566255       -15.4086
 168   2.0000      -0.563201       -15.3255
 169   2.0000      -0.559648       -15.2288
 170   2.0000      -0.557567       -15.1722
 171   2.0000      -0.552886       -15.0448
 172   2.0000      -0.547422       -14.8961
 173   2.0000      -0.541161       -14.7257
 174   2.0000      -0.536986       -14.6121
 175   2.0000      -0.532639       -14.4938
 176   2.0000      -0.528553       -14.3827
 177   2.0000      -0.525934       -14.3114
 178   2.0000      -0.524283       -14.2665
 179   2.0000      -0.520037       -14.1509
 180   2.0000      -0.518135       -14.0992
 181   2.0000      -0.516782       -14.0624
 182   2.0000      -0.512388       -13.9428
 183   2.0000      -0.511242       -13.9116
 184   2.0000      -0.510488       -13.8911
 185   2.0000      -0.509343       -13.8599
 186   2.0000      -0.507133       -13.7998
 187   2.0000      -0.504414       -13.7258
 188   2.0000      -0.495682       -13.4882
 189   2.0000      -0.493912       -13.4400
 190   2.0000      -0.490766       -13.3544
 191   2.0000      -0.490732       -13.3535
 192   2.0000      -0.490415       -13.3449
 193   2.0000      -0.487325       -13.2608
 194   2.0000      -0.485472       -13.2104
 195   2.0000      -0.479175       -13.0390
 196   2.0000      -0.477236       -12.9863
 197   2.0000      -0.474883       -12.9222
 198   2.0000      -0.474043       -12.8994
 199   2.0000      -0.472505       -12.8575
 200   2.0000      -0.471634       -12.8338
 201   2.0000      -0.467300       -12.7159
 202   2.0000      -0.464698       -12.6451
 203   2.0000      -0.464304       -12.6344
 204   2.0000      -0.458772       -12.4838
 205   2.0000      -0.456630       -12.4255
 206   2.0000      -0.455568       -12.3966
 207   2.0000      -0.451189       -12.2775
 208   2.0000      -0.447027       -12.1642
 209   2.0000      -0.444837       -12.1046
 210   2.0000      -0.442499       -12.0410
 211   2.0000      -0.440620       -11.9899
 212   2.0000      -0.437974       -11.9179
 213   2.0000      -0.434784       -11.8311
 214   2.0000      -0.431998       -11.7553
 215   2.0000      -0.429024       -11.6743
 216   2.0000      -0.428676       -11.6649
 217   2.0000      -0.426166       -11.5966
 218   2.0000      -0.423150       -11.5145
 219   2.0000      -0.421988       -11.4829
 220   2.0000      -0.414807       -11.2875
 221   2.0000      -0.412752       -11.2315
 222   2.0000      -0.410756       -11.1772
 223   2.0000      -0.408909       -11.1270
 224   2.0000      -0.407453       -11.0874
 225   2.0000      -0.404991       -11.0204
 226   2.0000      -0.398396       -10.8409
 227   2.0000      -0.393893       -10.7184
 228   2.0000      -0.390426       -10.6240
 229   2.0000      -0.376226       -10.2376
 230   2.0000      -0.366969        -9.9857
 231   2.0000      -0.363720        -9.8973
 232   2.0000      -0.362550        -9.8655
 233   2.0000      -0.358089        -9.7441
 234   2.0000      -0.351565        -9.5666
 235   2.0000      -0.349481        -9.5099
 236   2.0000      -0.344612        -9.3774
 237   2.0000      -0.342730        -9.3262
 238   2.0000      -0.342016        -9.3067
 239   2.0000      -0.330082        -8.9820
 240   2.0000      -0.328539        -8.9400
 241   2.0000      -0.317846        -8.6490
 242   2.0000      -0.309715        -8.4278
 243   2.0000      -0.308855        -8.4044
 244   2.0000      -0.298944        -8.1347
 245   2.0000      -0.297007        -8.0820
 246   2.0000      -0.279431        -7.6037
 247   2.0000      -0.273146        -7.4327
 248   2.0000      -0.271554        -7.3894
 249   2.0000      -0.259816        -7.0700
 250   2.0000      -0.217811        -5.9269
 251   2.0000      -0.215100        -5.8532
 252   0.0000      -0.099694        -2.7128
 253   0.0000      -0.050798        -1.3823
 254   0.0000      -0.037333        -1.0159
 255   0.0000      -0.029852        -0.8123
 256   0.0000      -0.022263        -0.6058

MULLIKEN ATOMIC CHARGES
-----------------------
   0 N :   -0.169602
   1 C :    0.055177
   2 C :   -0.177636
   3 S :    0.108118
   4 C :   -0.214539
   5 C :    0.184415
   6 N :   -0.231474
   7 C :    0.232727
   8 C :   -0.109664
   9 O :   -0.166094
  10 C :    0.232488
  11 C :    0.071638
  12 C :    0.008219
  13 N :   -0.030321
  14 C :   -0.106270
  15 S :    0.139735
  16 C :   -0.023480
  17 N :    0.282899
  18 O :   -0.275930
  19 O :   -0.282905
  20 C :    0.008741
  21 C :    0.116175
  22 C :   -0.041453
  23 C :    0.004161
  24 C :    0.005248
  25 C :   -0.198123
  26 C :    0.102011
  27 C :    0.202576
  28 N :   -0.123061
  29 C :    0.081177
  30 C :   -0.049426
  31 C :    0.036580
  32 C :   -0.063636
  33 C :    0.060587
  34 C :    0.004339
  35 C :   -0.015748
  36 S :    0.100836
  37 C :   -0.069692
  38 C :    0.045256
  39 C :    0.009731
  40 C :    0.011774
  41 S :    0.109568
  42 C :   -0.035547
  43 C :   -0.028103
  44 C :   -0.114323
  45 C :    0.339208
  46 C :   -0.384383
  47 C :   -0.153992
  48 N :    0.092359
  49 C :   -0.194100
  50 N :    0.109099
  51 C :    0.009856
  52 C :   -0.004354
  53 C :    0.137266
  54 O :   -0.174630
  55 C :   -0.079953
  56 C :    0.113587
  57 C :   -0.094156
  58 C :   -0.027110
  59 S :    0.168213
  60 C :   -0.123935
  61 C :    0.039484
  62 Br:    0.008496
  63 H :    0.109497
  64 H :   -0.002737
  65 H :    0.014492
  66 H :    0.026994
  67 H :    0.040851
  68 H :    0.001486
  69 H :    0.047340
  70 H :    0.003898
  71 H :    0.042509
  72 H :    0.129999
  73 H :    0.001171
  74 H :   -0.036091
  75 H :   -0.015544
  76 H :   -0.036073
  77 H :    0.017483
  78 H :    0.023805
  79 H :    0.027240
  80 H :    0.038810
  81 H :    0.009992
  82 H :    0.131817
  83 H :    0.016555
  84 H :    0.004261
  85 H :   -0.005042
  86 H :   -0.006440
  87 H :   -0.010586
  88 H :   -0.010567
  89 H :   -0.005411
  90 H :    0.011926
  91 H :    0.004243
  92 H :   -0.018582
  93 H :   -0.016617
  94 H :   -0.008785
Sum of atomic charges:   -0.0000000

LOEWDIN ATOMIC CHARGES
----------------------
   0 N :   -0.068864
   1 C :   -0.039912
   2 C :   -0.226736
   3 S :    0.428157
   4 C :   -0.231208
   5 C :   -0.022723
   6 N :   -0.012576
   7 C :    0.025214
   8 C :    0.070901
   9 O :   -0.124384
  10 C :    0.002476
  11 C :    0.005302
  12 C :   -0.059063
  13 N :    0.045261
  14 C :   -0.086205
  15 S :    0.444209
  16 C :   -0.225617
  17 N :    0.274573
  18 O :   -0.241971
  19 O :   -0.249281
  20 C :    0.006790
  21 C :   -0.130797
  22 C :   -0.015972
  23 C :   -0.041564
  24 C :   -0.042012
  25 C :   -0.057037
  26 C :   -0.046135
  27 C :    0.048461
  28 N :    0.041335
  29 C :    0.082620
  30 C :   -0.130331
  31 C :    0.014445
  32 C :   -0.192320
  33 C :   -0.001175
  34 C :   -0.061856
  35 C :   -0.130363
  36 S :    0.403490
  37 C :   -0.217042
  38 C :   -0.006027
  39 C :   -0.060904
  40 C :   -0.100732
  41 S :    0.412334
  42 C :   -0.088470
  43 C :    0.044972
  44 C :   -0.129043
  45 C :    0.077777
  46 C :   -0.185368
  47 C :    0.010378
  48 N :   -0.094651
  49 C :   -0.019548
  50 N :   -0.093779
  51 C :   -0.017140
  52 C :   -0.045195
  53 C :    0.081063
  54 O :   -0.165734
  55 C :    0.014006
  56 C :   -0.038397
  57 C :   -0.148203
  58 C :   -0.019424
  59 S :    0.419299
  60 C :   -0.277536
  61 C :   -0.070363
  62 Br:    0.124773
  63 H :    0.072819
  64 H :    0.018575
  65 H :    0.018053
  66 H :    0.035888
  67 H :    0.027824
  68 H :    0.016927
  69 H :    0.041283
  70 H :    0.026229
  71 H :    0.022753
  72 H :    0.091146
  73 H :    0.040519
  74 H :    0.018683
  75 H :    0.024801
  76 H :    0.018036
  77 H :    0.032182
  78 H :    0.034779
  79 H :    0.035344
  80 H :    0.036499
  81 H :    0.030281
  82 H :    0.084761
  83 H :    0.034458
  84 H :    0.022025
  85 H :    0.037741
  86 H :    0.036493
  87 H :    0.032725
  88 H :    0.033379
  89 H :    0.036252
  90 H :    0.036751
  91 H :    0.029489
  92 H :    0.037543
  93 H :    0.036836
  94 H :    0.036746

  Mayer bond orders larger than 0.100000
B(  0-N ,  1-C ) :   1.1148 B(  0-N , 10-C ) :   1.0091 B(  0-N , 63-H ) :   0.9237
B(  1-C ,  2-C ) :   1.5514 B(  1-C ,  5-C ) :   1.2594 B(  2-C ,  3-S ) :   1.1499
B(  2-C , 64-H ) :   0.9735 B(  3-S ,  4-C ) :   1.1482 B(  4-C ,  5-C ) :   1.5137
B(  4-C , 65-H ) :   0.9683 B(  5-C ,  6-N ) :   1.0484 B(  6-N ,  7-C ) :   0.9587
B(  6-N , 11-C ) :   1.1254 B(  7-C ,  8-C ) :   0.9628 B(  7-C , 66-H ) :   0.9208
B(  7-C , 67-H ) :   0.9283 B(  8-C ,  9-O ) :   2.2325 B(  8-C , 10-C ) :   0.9553
B( 10-C , 68-H ) :   0.9170 B( 10-C , 69-H ) :   0.8954 B( 11-C , 12-C ) :   1.7028
B( 11-C , 70-H ) :   0.9687 B( 12-C , 13-N ) :   1.0370 B( 12-C , 71-H ) :   0.9577
B( 13-N , 14-C ) :   1.3155 B( 13-N , 72-H ) :   0.9171 B( 14-C , 15-S ) :   1.1331
B( 14-C , 21-C ) :   1.2841 B( 15-S , 16-C ) :   1.0410 B( 16-C , 17-N ) :   1.0089
B( 16-C , 20-C ) :   1.4666 B( 17-N , 18-O ) :   1.5053 B( 17-N , 19-O ) :   1.4905
B( 18-O , 19-O ) :   0.2422 B( 20-C , 21-C ) :   1.2611 B( 20-C , 73-H ) :   0.9989
B( 21-C , 22-C ) :   1.0531 B( 22-C , 23-C ) :   1.7427 B( 22-C , 74-H ) :   0.9731
B( 23-C , 24-C ) :   1.1094 B( 23-C , 75-H ) :   0.9718 B( 24-C , 25-C ) :   1.7709
B( 24-C , 76-H ) :   0.9686 B( 25-C , 26-C ) :   1.0941 B( 25-C , 27-C ) :   1.0042
B( 26-C , 77-H ) :   0.9561 B( 26-C , 78-H ) :   0.9472 B( 26-C , 79-H ) :   0.9460
B( 27-C , 28-N ) :   1.0004 B( 27-C , 80-H ) :   0.9399 B( 27-C , 81-H ) :   0.9397
B( 28-N , 29-C ) :   1.3235 B( 28-N , 82-H ) :   0.9322 B( 29-C , 30-C ) :   1.4884
B( 29-C , 83-H ) :   0.9700 B( 30-C , 31-C ) :   1.2531 B( 30-C , 84-H ) :   0.9628
B( 31-C , 32-C ) :   1.5027 B( 31-C , 85-H ) :   0.9796 B( 32-C , 33-C ) :   1.1960
B( 32-C , 36-S ) :   1.0177 B( 33-C , 34-C ) :   1.5244 B( 33-C , 86-H ) :   0.9989
B( 34-C , 35-C ) :   1.2423 B( 34-C , 87-H ) :   0.9958 B( 35-C , 36-S ) :   1.1186
B( 35-C , 37-C ) :   1.3851 B( 37-C , 38-C ) :   1.2793 B( 37-C , 41-S ) :   1.0438
B( 38-C , 39-C ) :   1.4696 B( 38-C , 88-H ) :   0.9952 B( 39-C , 40-C ) :   1.2434
B( 39-C , 89-H ) :   1.0021 B( 40-C , 41-S ) :   1.1113 B( 40-C , 42-C ) :   1.3207
B( 42-C , 43-C ) :   1.3680 B( 42-C , 90-H ) :   0.9742 B( 43-C , 44-C ) :   1.3738
B( 43-C , 91-H ) :   0.9459 B( 44-C , 45-C ) :   1.1830 B( 44-C , 53-C ) :   0.9814
B( 45-C , 46-C ) :   1.4973 B( 45-C , 51-C ) :   0.9776 B( 46-C , 47-C ) :   1.1787
B( 46-C , 49-C ) :   1.1677 B( 47-C , 48-N ) :   2.8668 B( 49-C , 50-N ) :   2.9389
B( 51-C , 52-C ) :   1.2811 B( 51-C , 58-C ) :   1.4263 B( 52-C , 53-C ) :   0.9286
B( 52-C , 55-C ) :   1.4434 B( 53-C , 54-O ) :   2.1705 B( 55-C , 56-C ) :   1.2288
B( 55-C , 92-H ) :   1.0156 B( 56-C , 57-C ) :   1.3282 B( 56-C , 61-C ) :   1.1615
B( 57-C , 58-C ) :   1.3143 B( 57-C , 59-S ) :   1.0786 B( 58-C , 93-H ) :   0.9779
B( 59-S , 60-C ) :   1.0848 B( 60-C , 61-C ) :   1.6217 B( 60-C , 62-Br) :   1.0093
B( 61-C , 94-H ) :   0.9994

-----------------------------------------------------------------------------
         ABSORPTION SPECTRUM VIA TRANSITION ELECTRIC DIPOLE MOMENTS
-----------------------------------------------------------------------------
State   Energy  Wavelength   fosc         T2         TX        TY        TZ
        (cm-1)    (nm)                  (au**2)     (au)      (au)      (au)
-----------------------------------------------------------------------------
   0   11367.8    879.7   1.087751369  31.50119  -3.44690  -3.71011   2.41974
   1   15202.7    657.8   0.030668130   0.66411   0.45072   0.06312  -0.67600
   2   20946.5    477.4   0.210128489   3.30255  -0.07186   1.62138   0.81764
   3   23122.3    432.5   0.568749607   8.09776   1.46048   1.94017   1.48341
   4   23341.9    428.4   0.167160293   2.35762   1.38407  -0.50078  -0.43725
   5   23990.4    416.8   0.103338961   1.41809   0.65308   0.79427  -0.60058
   6   25471.0    392.6   0.508401554   6.57108  -1.50067   0.90578   1.87046
   7   25638.0    390.0   0.224507688   2.88285   0.06156   1.65300   0.38295
   8   26111.3    383.0   0.531026490   6.69520  -1.58241  -1.48012   1.41436
   9   27047.7    369.7   0.209249176   2.54688  -1.06878   0.72995   0.93369
  10   27881.7    358.7   0.000988290   0.01167   0.07899  -0.07011  -0.02267
  11   27919.5    358.2   0.009671463   0.11404  -0.24167   0.17703   0.15588
  12   29443.6    339.6   0.004410198   0.04931  -0.02813   0.01513  -0.21975
  13   29599.5    337.8   0.008136381   0.09049   0.20734  -0.11598  -0.18454
  14   30662.4    326.1   0.001606291   0.01725   0.00806  -0.12723  -0.03152
  15   30672.5    326.0   0.000098833   0.00106   0.00944  -0.00394  -0.03092
  16   30979.6    322.8   0.001884837   0.02003   0.07837   0.04427  -0.10922
  17   31232.1    320.2   0.030380750   0.32024  -0.24664   0.32517   0.39201
  18   31901.5    313.5   0.029628225   0.30575   0.21541   0.50219   0.08458
  19   32074.1    311.8   0.129895894   1.33326   0.88134   0.54718  -0.50705
  20   32282.0    309.8   0.175472904   1.78948  -0.23988  -0.34487  -1.27004
  21   32394.8    308.7   0.026137955   0.26563   0.32359   0.35103   0.19415
  22   32902.5    303.9   0.230850234   2.30981   1.03829   1.02358  -0.42900
  23   33103.3    302.1   0.002193831   0.02182   0.06414   0.04974   0.12341
  24   33512.7    298.4   0.013312305   0.13077   0.19109   0.28618  -0.11119
  25   33670.8    297.0   0.230960869   2.25819   0.82885   1.20686  -0.33868
  26   34827.2    287.1   0.035243520   0.33315  -0.08450  -0.56477  -0.08394
  27   34919.0    286.4   0.074830599   0.70549   0.08495   0.81209   0.19696
  28   35384.2    282.6   0.033946357   0.31583   0.04493   0.55996   0.01615
  29   36368.8    275.0   0.212958364   1.92771   0.29022  -1.14750  -0.72576
  30   36449.9    274.3   0.000348141   0.00314  -0.04992   0.02394  -0.00892
  31   36850.1    271.4   0.189271640   1.69092  -0.69503  -0.28754   1.06074
  32   37275.9    268.3   0.003360384   0.02968  -0.16961  -0.00027  -0.03018
  33   37537.6    266.4   0.172690112   1.51452   0.77035   0.13455  -0.95025
  34   37604.4    265.9   0.022658771   0.19837  -0.03319   0.37247  -0.24193
  35   37996.0    263.2   0.059513086   0.51564   0.19865   0.68102   0.11133
  36   38169.6    262.0   0.024429093   0.21070   0.24765   0.18049   0.34175
  37   38346.0    260.8   0.003729212   0.03202   0.04706  -0.17120  -0.02216
  38   38679.2    258.5   0.170123301   1.44798  -0.24872   1.04538   0.54157
  39   38905.6    257.0   0.008378583   0.07090  -0.15533   0.16319   0.14191
  40   40128.3    249.2   0.011187982   0.09179  -0.12991   0.13324   0.23908
  41   40243.8    248.5   0.052467700   0.42921   0.24759  -0.16358  -0.58408

FINAL SINGLE POINT ENERGY     -7017.304933284850

DIPOLE MOMENT
-------------
                                X             Y             Z
Electronic contribution:    115.27864     138.90314     -55.88701
Nuclear contribution   :   -117.89981    -139.78001      61.08186
                        -----------------------------------------
Total Dipole Moment    :     -2.62117      -0.87687       5.19485
                        -----------------------------------------
Magnitude (a.u.)       :      5.88438
Magnitude (Debye)      :     14.95689

Rotational constants in cm-1:     0.000842     0.000443     0.000301
Rotational constants in MHz :    25.247632    13.279219     9.013189

                             ****ORCA TERMINATED NORMALLY****
TOTAL RUN TIME: 0 days 0 hours 8 minutes 23 seconds 695 msec
