                         Program Version 4.2.0 -  RELEASE  -
|  1> # ORCA input file
|  2> # SCF done       -184.009663977830          0.000451361412
|  3> ! CAM-B3LYP def2-SVP def2/J RIJCOSX Grid4 TightSCF
|  4> %maxcore 5000
|  5> %tddft
|  6>     Mode sTDDFT
|  7>     Ethresh 5.0
|  8>     maxcore 5000
|  9> end
| 10>
| 11> %pal
| 12>   nprocs 6
| 13>   end
| 14> * xyz 0 1
| 15>    C       -1.65291         6.77055         4.48919
| 16>    N       -1.41874         8.04600         4.51155
| 17>    O       -2.48038         8.68073         3.99914
| 18>    C       -3.41729         7.77115         3.63606
| 19>    C       -4.64052         8.24610         3.05735
| 20>    O       -5.54562         7.53572         2.67027
| 21>    C       -2.93986         6.48631         3.93430
| 22>    C       -3.54982         5.22414         3.73528
| 23>    S       -5.08726         5.06049         2.92758
| 24>    C       -5.06423         3.32525         3.04651
| 25>    C       -3.91842         2.90645         3.70084
| 26>    C       -3.05799         3.96548         4.10090
| 27>    C       -1.92721         3.47182         4.79504
| 28>    C       -1.93903         2.11259         4.90501
| 29>    C       -0.95605         1.24872         5.56565
| 30>    O       -1.04382         0.04907         5.63284
| 31>    O        0.05397         1.95887         6.09370
| 32>    C        1.04966         1.19627         6.76221
| 33>    S       -3.32108         1.34789         4.16793
| 34>    C       -6.11732         2.53695         2.52022
| 35>    C       -6.17623         1.15687         2.42317
| 36>    C       -7.36667         0.72914         1.83742
| 37>    C       -8.22347         1.79038         1.49681
| 38>    S       -7.55913         3.31385         1.88330
| 39>    C       -9.40035         1.25121         0.91604
| 40>    C       -9.28326        -0.14747         0.87921
| 41>    C       -8.00272        -0.52339         1.45743
| 42>    C       -7.50320        -1.78276         1.60797
| 43>    C       -6.23672        -2.02878         2.18036
| 44>    N       -5.20869        -2.24293         2.64002
| 45>    C       -8.21764        -2.92838         1.19708
| 46>    N       -8.79479        -3.86249         0.86730
| 47>    C      -10.39836        -0.77060         0.31531
| 48>    C      -11.36113         0.14153        -0.06655
| 49>    S      -10.88369         1.79845         0.27074
| 50>    C      -12.62217        -0.12873        -0.66444
| 51>    C      -13.61806         0.76020        -0.95063
| 52>    C      -14.75938         0.16785        -1.54160
| 53>    C      -15.96347         0.79138        -1.92177
| 54>    C      -16.23030         2.19312        -1.67392
| 55>    C      -16.91754         3.07253        -2.46136
| 56>    C      -17.04791         4.34867        -1.87252
| 57>    C      -16.48441         4.46233        -0.63485
| 58>    S      -15.75600         2.96050        -0.17923
| 59>    C      -16.44507         5.64029         0.26750
| 60>   Cl      -17.85644         5.64452        -2.66410
| 61>    C      -16.92225        -0.02164        -2.52542
| 62>    C      -16.74209        -1.41366        -2.72234
| 63>    C      -15.54912        -2.04671        -2.31079
| 64>    C      -14.58302        -1.22578        -1.74277
| 65>    S      -13.03833        -1.76267        -1.13806
| 66>    C      -15.33145        -3.47286        -2.44295
| 67>    C      -14.17332        -4.11652        -2.77349
| 68>    C      -14.30149        -5.52237        -2.75326
| 69>    C      -15.53949        -5.97238        -2.39758
| 70>    S      -16.58848        -4.63014        -2.08949
| 71>    C      -16.02122        -7.37001        -2.26447
| 72>   Cl      -12.99217        -6.56779        -3.14791
| 73>    C      -17.86516        -1.99588        -3.34938
| 74>    C      -18.87734        -1.10833        -3.59739
| 75>    S      -18.48207         0.51264        -3.08046
| 76>    C      -20.12257        -1.43344        -4.21384
| 77>    C      -21.21740        -0.63307        -4.53850
| 78>    O      -22.16723        -1.40889        -5.11072
| 79>    N      -21.73613        -2.67524        -5.16991
| 80>    C      -20.54502        -2.72295        -4.65386
| 81>    C      -21.49599         0.77705        -4.38586
| 82>    O      -20.74601         1.58575        -3.89410
| 83>    H       -0.90987         6.09248         4.85074
| 84>    H       -4.69486         9.34476         2.98962
| 85>    H       -1.13735         4.06226         5.21694
| 86>    H        1.77429         1.91141         7.14218
| 87>    H        1.52312         0.49982         6.06734
| 88>    H        0.60425         0.62657         7.58024
| 89>    H       -5.38473         0.51132         2.75620
| 90>    H      -10.52101        -1.83086         0.18552
| 91>    H      -13.52519         1.81069        -0.74453
| 92>    H      -17.29610         2.84309        -3.43960
| 93>    H      -16.88068         6.49947        -0.23619
| 94>    H      -15.41972         5.87433         0.55086
| 95>    H      -17.00842         5.44371         1.17968
| 96>    H      -13.26563        -3.61868        -3.05901
| 97>    H      -15.22364        -8.05736        -2.53464
| 98>    H      -16.87771        -7.54652        -2.91426
| 99>    H      -16.33084        -7.57331        -1.23960
|100>    H      -17.92148        -3.03377        -3.61798
|101>    H      -20.01697        -3.65251        -4.60111
|102>    H      -22.49068         1.05889        -4.77207
|103> *
|104>
|105>                          ****END OF INPUT****

CARTESIAN COORDINATES (ANGSTROEM)
---------------------------------
  C     -1.652910    6.770550    4.489190
  N     -1.418740    8.046000    4.511550
  O     -2.480380    8.680730    3.999140
  C     -3.417290    7.771150    3.636060
  C     -4.640520    8.246100    3.057350
  O     -5.545620    7.535720    2.670270
  C     -2.939860    6.486310    3.934300
  C     -3.549820    5.224140    3.735280
  S     -5.087260    5.060490    2.927580
  C     -5.064230    3.325250    3.046510
  C     -3.918420    2.906450    3.700840
  C     -3.057990    3.965480    4.100900
  C     -1.927210    3.471820    4.795040
  C     -1.939030    2.112590    4.905010
  C     -0.956050    1.248720    5.565650
  O     -1.043820    0.049070    5.632840
  O      0.053970    1.958870    6.093700
  C      1.049660    1.196270    6.762210
  S     -3.321080    1.347890    4.167930
  C     -6.117320    2.536950    2.520220
  C     -6.176230    1.156870    2.423170
  C     -7.366670    0.729140    1.837420
  C     -8.223470    1.790380    1.496810
  S     -7.559130    3.313850    1.883300
  C     -9.400350    1.251210    0.916040
  C     -9.283260   -0.147470    0.879210
  C     -8.002720   -0.523390    1.457430
  C     -7.503200   -1.782760    1.607970
  C     -6.236720   -2.028780    2.180360
  N     -5.208690   -2.242930    2.640020
  C     -8.217640   -2.928380    1.197080
  N     -8.794790   -3.862490    0.867300
  C    -10.398360   -0.770600    0.315310
  C    -11.361130    0.141530   -0.066550
  S    -10.883690    1.798450    0.270740
  C    -12.622170   -0.128730   -0.664440
  C    -13.618060    0.760200   -0.950630
  C    -14.759380    0.167850   -1.541600
  C    -15.963470    0.791380   -1.921770
  C    -16.230300    2.193120   -1.673920
  C    -16.917540    3.072530   -2.461360
  C    -17.047910    4.348670   -1.872520
  C    -16.484410    4.462330   -0.634850
  S    -15.756000    2.960500   -0.179230
  C    -16.445070    5.640290    0.267500
  Cl   -17.856440    5.644520   -2.664100
  C    -16.922250   -0.021640   -2.525420
  C    -16.742090   -1.413660   -2.722340
  C    -15.549120   -2.046710   -2.310790
  C    -14.583020   -1.225780   -1.742770
  S    -13.038330   -1.762670   -1.138060
  C    -15.331450   -3.472860   -2.442950
  C    -14.173320   -4.116520   -2.773490
  C    -14.301490   -5.522370   -2.753260
  C    -15.539490   -5.972380   -2.397580
  S    -16.588480   -4.630140   -2.089490
  C    -16.021220   -7.370010   -2.264470
  Cl   -12.992170   -6.567790   -3.147910
  C    -17.865160   -1.995880   -3.349380
  C    -18.877340   -1.108330   -3.597390
  S    -18.482070    0.512640   -3.080460
  C    -20.122570   -1.433440   -4.213840
  C    -21.217400   -0.633070   -4.538500
  O    -22.167230   -1.408890   -5.110720
  N    -21.736130   -2.675240   -5.169910
  C    -20.545020   -2.722950   -4.653860
  C    -21.495990    0.777050   -4.385860
  O    -20.746010    1.585750   -3.894100
  H     -0.909870    6.092480    4.850740
  H     -4.694860    9.344760    2.989620
  H     -1.137350    4.062260    5.216940
  H      1.774290    1.911410    7.142180
  H      1.523120    0.499820    6.067340
  H      0.604250    0.626570    7.580240
  H     -5.384730    0.511320    2.756200
  H    -10.521010   -1.830860    0.185520
  H    -13.525190    1.810690   -0.744530
  H    -17.296100    2.843090   -3.439600
  H    -16.880680    6.499470   -0.236190
  H    -15.419720    5.874330    0.550860
  H    -17.008420    5.443710    1.179680
  H    -13.265630   -3.618680   -3.059010
  H    -15.223640   -8.057360   -2.534640
  H    -16.877710   -7.546520   -2.914260
  H    -16.330840   -7.573310   -1.239600
  H    -17.921480   -3.033770   -3.617980
  H    -20.016970   -3.652510   -4.601110
  H    -22.490680    1.058890   -4.772070

 Total Charge           Charge          ....    0
 Multiplicity           Mult            ....    1
 Number of Electrons    NEL             ....  546
 Basis Dimension        Dim             .... 1092

ORBITAL ENERGIES
----------------

  NO   OCC          E(Eh)            E(eV)
   0   2.0000    -101.582631     -2764.2039
   1   2.0000    -101.580456     -2764.1447
   2   2.0000     -88.989069     -2421.5157
   3   2.0000     -88.988607     -2421.5031
   4   2.0000     -88.976458     -2421.1725
   5   2.0000     -88.965942     -2420.8864
   6   2.0000     -88.960055     -2420.7262
   7   2.0000     -88.957168     -2420.6476
   8   2.0000     -88.957106     -2420.6459
   9   2.0000     -88.951986     -2420.5066
  10   2.0000     -19.331260      -526.0303
  11   2.0000     -19.328576      -525.9573
  12   2.0000     -19.267223      -524.2878
  13   2.0000     -19.236084      -523.4404
  14   2.0000     -19.233300      -523.3647
  15   2.0000     -19.211300      -522.7660
  16   2.0000     -14.483822      -394.1248
  17   2.0000     -14.478776      -393.9875
  18   2.0000     -14.427835      -392.6013
  19   2.0000     -14.427111      -392.5816
  20   2.0000     -10.410830      -283.2931
  21   2.0000     -10.381457      -282.4938
  22   2.0000     -10.379116      -282.4301
  23   2.0000     -10.362938      -281.9899
  24   2.0000     -10.353150      -281.7235
  25   2.0000     -10.351408      -281.6761
  26   2.0000     -10.349671      -281.6289
  27   2.0000     -10.331036      -281.1218
  28   2.0000     -10.330778      -281.1148
  29   2.0000     -10.328420      -281.0506
  30   2.0000     -10.328150      -281.0432
  31   2.0000     -10.328078      -281.0413
  32   2.0000     -10.327964      -281.0382
  33   2.0000     -10.327948      -281.0377
  34   2.0000     -10.327039      -281.0130
  35   2.0000     -10.327039      -281.0130
  36   2.0000     -10.324709      -280.9496
  37   2.0000     -10.323241      -280.9097
  38   2.0000     -10.322796      -280.8976
  39   2.0000     -10.320052      -280.8229
  40   2.0000     -10.319331      -280.8033
  41   2.0000     -10.318948      -280.7928
  42   2.0000     -10.317964      -280.7661
  43   2.0000     -10.316601      -280.7290
  44   2.0000     -10.316365      -280.7226
  45   2.0000     -10.313770      -280.6519
  46   2.0000     -10.309356      -280.5318
  47   2.0000     -10.308804      -280.5168
  48   2.0000     -10.305661      -280.4313
  49   2.0000     -10.305036      -280.4143
  50   2.0000     -10.304008      -280.3863
  51   2.0000     -10.302763      -280.3524
  52   2.0000     -10.302504      -280.3454
  53   2.0000     -10.302236      -280.3381
  54   2.0000     -10.302056      -280.3332
  55   2.0000     -10.301476      -280.3174
  56   2.0000     -10.301171      -280.3091
  57   2.0000     -10.301008      -280.3047
  58   2.0000     -10.299533      -280.2645
  59   2.0000     -10.299340      -280.2593
  60   2.0000     -10.292859      -280.0829
  61   2.0000     -10.290209      -280.0108
  62   2.0000     -10.284046      -279.8431
  63   2.0000     -10.281250      -279.7670
  64   2.0000     -10.280291      -279.7409
  65   2.0000     -10.277299      -279.6595
  66   2.0000     -10.276836      -279.6469
  67   2.0000     -10.275864      -279.6205
  68   2.0000      -9.537357      -259.5247
  69   2.0000      -9.535274      -259.4680
  70   2.0000      -8.083717      -219.9691
  71   2.0000      -8.082985      -219.9492
  72   2.0000      -8.070070      -219.5978
  73   2.0000      -8.060633      -219.3410
  74   2.0000      -8.055674      -219.2060
  75   2.0000      -8.052680      -219.1246
  76   2.0000      -8.052153      -219.1102
  77   2.0000      -8.046145      -218.9467
  78   2.0000      -7.307633      -198.8508
  79   2.0000      -7.305524      -198.7934
  80   2.0000      -7.297411      -198.5726
  81   2.0000      -7.297335      -198.5706
  82   2.0000      -7.295337      -198.5162
  83   2.0000      -7.295247      -198.5138
  84   2.0000      -6.053024      -164.7112
  85   2.0000      -6.052287      -164.6911
  86   2.0000      -6.048766      -164.5953
  87   2.0000      -6.048088      -164.5768
  88   2.0000      -6.046025      -164.5207
  89   2.0000      -6.045325      -164.5017
  90   2.0000      -6.039566      -164.3450
  91   2.0000      -6.034946      -164.2192
  92   2.0000      -6.032219      -164.1450
  93   2.0000      -6.030402      -164.0956
  94   2.0000      -6.026124      -163.9792
  95   2.0000      -6.025004      -163.9487
  96   2.0000      -6.021985      -163.8665
  97   2.0000      -6.021927      -163.8650
  98   2.0000      -6.021923      -163.8648
  99   2.0000      -6.020831      -163.8352
 100   2.0000      -6.017842      -163.7538
 101   2.0000      -6.017720      -163.7505
 102   2.0000      -6.017692      -163.7497
 103   2.0000      -6.015870      -163.7001
 104   2.0000      -6.014761      -163.6700
 105   2.0000      -6.013386      -163.6325
 106   2.0000      -6.011356      -163.5773
 107   2.0000      -6.007595      -163.4750
 108   2.0000      -1.272666       -34.6310
 109   2.0000      -1.269795       -34.5529
 110   2.0000      -1.198330       -32.6082
 111   2.0000      -1.148316       -31.2473
 112   2.0000      -1.146663       -31.2023
 113   2.0000      -1.105299       -30.0767
 114   2.0000      -1.043499       -28.3951
 115   2.0000      -1.023868       -27.8609
 116   2.0000      -1.019289       -27.7363
 117   2.0000      -1.015146       -27.6235
 118   2.0000      -1.005085       -27.3498
 119   2.0000      -1.001831       -27.2612
 120   2.0000      -0.999409       -27.1953
 121   2.0000      -0.994475       -27.0610
 122   2.0000      -0.984226       -26.7821
 123   2.0000      -0.980903       -26.6917
 124   2.0000      -0.974426       -26.5155
 125   2.0000      -0.964311       -26.2402
 126   2.0000      -0.955905       -26.0115
 127   2.0000      -0.944111       -25.6906
 128   2.0000      -0.941763       -25.6267
 129   2.0000      -0.931094       -25.3364
 130   2.0000      -0.929622       -25.2963
 131   2.0000      -0.912118       -24.8200
 132   2.0000      -0.900692       -24.5091
 133   2.0000      -0.898002       -24.4359
 134   2.0000      -0.876603       -23.8536
 135   2.0000      -0.865422       -23.5493
 136   2.0000      -0.860528       -23.4162
 137   2.0000      -0.859547       -23.3895
 138   2.0000      -0.852901       -23.2086
 139   2.0000      -0.849161       -23.1068
 140   2.0000      -0.842426       -22.9236
 141   2.0000      -0.835625       -22.7385
 142   2.0000      -0.822170       -22.3724
 143   2.0000      -0.809493       -22.0274
 144   2.0000      -0.807248       -21.9663
 145   2.0000      -0.805118       -21.9084
 146   2.0000      -0.801019       -21.7968
 147   2.0000      -0.799054       -21.7434
 148   2.0000      -0.786572       -21.4037
 149   2.0000      -0.774926       -21.0868
 150   2.0000      -0.771767       -21.0009
 151   2.0000      -0.761761       -20.7286
 152   2.0000      -0.746508       -20.3135
 153   2.0000      -0.743558       -20.2332
 154   2.0000      -0.729888       -19.8613
 155   2.0000      -0.726537       -19.7701
 156   2.0000      -0.722244       -19.6532
 157   2.0000      -0.712249       -19.3813
 158   2.0000      -0.699284       -19.0285
 159   2.0000      -0.694906       -18.9093
 160   2.0000      -0.687172       -18.6989
 161   2.0000      -0.682110       -18.5611
 162   2.0000      -0.666999       -18.1500
 163   2.0000      -0.660629       -17.9766
 164   2.0000      -0.652271       -17.7492
 165   2.0000      -0.649518       -17.6743
 166   2.0000      -0.644354       -17.5338
 167   2.0000      -0.643744       -17.5172
 168   2.0000      -0.638244       -17.3675
 169   2.0000      -0.631937       -17.1959
 170   2.0000      -0.628531       -17.1032
 171   2.0000      -0.623662       -16.9707
 172   2.0000      -0.620476       -16.8840
 173   2.0000      -0.615431       -16.7467
 174   2.0000      -0.612884       -16.6774
 175   2.0000      -0.607527       -16.5316
 176   2.0000      -0.604793       -16.4572
 177   2.0000      -0.594739       -16.1837
 178   2.0000      -0.594636       -16.1809
 179   2.0000      -0.591405       -16.0929
 180   2.0000      -0.589707       -16.0468
 181   2.0000      -0.583076       -15.8663
 182   2.0000      -0.578492       -15.7416
 183   2.0000      -0.577342       -15.7103
 184   2.0000      -0.577242       -15.7076
 185   2.0000      -0.561831       -15.2882
 186   2.0000      -0.557511       -15.1706
 187   2.0000      -0.551667       -15.0116
 188   2.0000      -0.548785       -14.9332
 189   2.0000      -0.546182       -14.8624
 190   2.0000      -0.542636       -14.7659
 191   2.0000      -0.538560       -14.6550
 192   2.0000      -0.536474       -14.5982
 193   2.0000      -0.533099       -14.5063
 194   2.0000      -0.528690       -14.3864
 195   2.0000      -0.524103       -14.2616
 196   2.0000      -0.522813       -14.2265
 197   2.0000      -0.522341       -14.2136
 198   2.0000      -0.519407       -14.1338
 199   2.0000      -0.518684       -14.1141
 200   2.0000      -0.514183       -13.9916
 201   2.0000      -0.512294       -13.9402
 202   2.0000      -0.508799       -13.8451
 203   2.0000      -0.504144       -13.7184
 204   2.0000      -0.503014       -13.6877
 205   2.0000      -0.502632       -13.6773
 206   2.0000      -0.502057       -13.6617
 207   2.0000      -0.500493       -13.6191
 208   2.0000      -0.496629       -13.5140
 209   2.0000      -0.496033       -13.4977
 210   2.0000      -0.494490       -13.4558
 211   2.0000      -0.493363       -13.4251
 212   2.0000      -0.491932       -13.3861
 213   2.0000      -0.486238       -13.2312
 214   2.0000      -0.483985       -13.1699
 215   2.0000      -0.480450       -13.0737
 216   2.0000      -0.478811       -13.0291
 217   2.0000      -0.477308       -12.9882
 218   2.0000      -0.475849       -12.9485
 219   2.0000      -0.470637       -12.8067
 220   2.0000      -0.469798       -12.7839
 221   2.0000      -0.468076       -12.7370
 222   2.0000      -0.465262       -12.6604
 223   2.0000      -0.463739       -12.6190
 224   2.0000      -0.459637       -12.5074
 225   2.0000      -0.458207       -12.4684
 226   2.0000      -0.455466       -12.3939
 227   2.0000      -0.450555       -12.2602
 228   2.0000      -0.449097       -12.2206
 229   2.0000      -0.442344       -12.0368
 230   2.0000      -0.441045       -12.0015
 231   2.0000      -0.437551       -11.9064
 232   2.0000      -0.437465       -11.9040
 233   2.0000      -0.436550       -11.8791
 234   2.0000      -0.435127       -11.8404
 235   2.0000      -0.431897       -11.7525
 236   2.0000      -0.431277       -11.7357
 237   2.0000      -0.425240       -11.5714
 238   2.0000      -0.423015       -11.5108
 239   2.0000      -0.421877       -11.4799
 240   2.0000      -0.420728       -11.4486
 241   2.0000      -0.418915       -11.3992
 242   2.0000      -0.416371       -11.3300
 243   2.0000      -0.413603       -11.2547
 244   2.0000      -0.410568       -11.1721
 245   2.0000      -0.401924       -10.9369
 246   2.0000      -0.399811       -10.8794
 247   2.0000      -0.396284       -10.7834
 248   2.0000      -0.391390       -10.6503
 249   2.0000      -0.388756       -10.5786
 250   2.0000      -0.385158       -10.4807
 251   2.0000      -0.382025       -10.3954
 252   2.0000      -0.380107       -10.3432
 253   2.0000      -0.377108       -10.2616
 254   2.0000      -0.374929       -10.2023
 255   2.0000      -0.367326        -9.9954
 256   2.0000      -0.364859        -9.9283
 257   2.0000      -0.354032        -9.6337
 258   2.0000      -0.348749        -9.4899
 259   2.0000      -0.346997        -9.4423
 260   2.0000      -0.346476        -9.4281
 261   2.0000      -0.344924        -9.3859
 262   2.0000      -0.329443        -8.9646
 263   2.0000      -0.320729        -8.7275
 264   2.0000      -0.318904        -8.6778
 265   2.0000      -0.318005        -8.6533
 266   2.0000      -0.313764        -8.5380
 267   2.0000      -0.304994        -8.2993
 268   2.0000      -0.301439        -8.2026
 269   2.0000      -0.290006        -7.8915
 270   2.0000      -0.277506        -7.5513
 271   2.0000      -0.251886        -6.8542
 272   2.0000      -0.236462        -6.4345
 273   0.0000      -0.104610        -2.8466
 274   0.0000      -0.077955        -2.1213
 275   0.0000      -0.068604        -1.8668
 276   0.0000      -0.039329        -1.0702
 277   0.0000      -0.033128        -0.9015

MULLIKEN ATOMIC CHARGES
-----------------------
   0 C :   -0.008444
   1 N :    0.049521
   2 O :   -0.170185
   3 C :    0.053946
   4 C :    0.162179
   5 O :   -0.192881
   6 C :   -0.003256
   7 C :   -0.093235
   8 S :    0.191797
   9 C :   -0.102216
  10 C :   -0.047600
  11 C :    0.129032
  12 C :   -0.017345
  13 C :   -0.133537
  14 C :    0.209841
  15 O :   -0.190025
  16 O :   -0.306739
  17 C :    0.189363
  18 S :    0.174043
  19 C :   -0.072275
  20 C :   -0.056961
  21 C :    0.005581
  22 C :   -0.097470
  23 S :    0.196721
  24 C :   -0.100031
  25 C :    0.016616
  26 C :    0.303197
  27 C :   -0.297995
  28 C :   -0.190100
  29 N :    0.181107
  30 C :   -0.191323
  31 N :    0.177122
  32 C :   -0.063827
  33 C :   -0.046741
  34 S :    0.188801
  35 C :   -0.007714
  36 C :   -0.097913
  37 C :    0.087842
  38 C :    0.141332
  39 C :   -0.214006
  40 C :    0.040234
  41 C :    0.084460
  42 C :   -0.266009
  43 S :    0.128606
  44 C :    0.123909
  45 Cl:   -0.085746
  46 C :   -0.130394
  47 C :    0.096105
  48 C :    0.147812
  49 C :   -0.139572
  50 S :    0.117824
  51 C :   -0.213985
  52 C :    0.034566
  53 C :    0.086415
  54 C :   -0.265874
  55 S :    0.128558
  56 C :    0.124402
  57 Cl:   -0.083617
  58 C :   -0.095365
  59 C :   -0.010750
  60 S :    0.150400
  61 C :   -0.000311
  62 C :    0.053719
  63 O :   -0.167872
  64 N :    0.043743
  65 C :    0.005545
  66 C :    0.163457
  67 O :   -0.167853
  68 H :    0.014374
  69 H :    0.012825
  70 H :   -0.009805
  71 H :    0.034928
  72 H :    0.037634
  73 H :    0.037107
  74 H :    0.012074
  75 H :    0.017452
  76 H :   -0.010920
  77 H :   -0.000976
  78 H :    0.024629
  79 H :    0.029711
  80 H :    0.038138
  81 H :   -0.004065
  82 H :    0.026053
  83 H :    0.030965
  84 H :    0.038074
  85 H :   -0.018580
  86 H :    0.022523
  87 H :    0.009230
Sum of atomic charges:   -0.0000000

LOEWDIN ATOMIC CHARGES
----------------------
   0 C :   -0.023083
   1 N :    0.004932
   2 O :    0.030832
   3 C :   -0.038672
   4 C :    0.095372
   5 O :   -0.146605
   6 C :   -0.053052
   7 C :   -0.183727
   8 S :    0.510790
   9 C :   -0.212744
  10 C :   -0.186841
  11 C :   -0.063906
  12 C :   -0.026121
  13 C :   -0.191600
  14 C :    0.064595
  15 O :   -0.166610
  16 O :   -0.096004
  17 C :    0.083412
  18 S :    0.452808
  19 C :   -0.181834
  20 C :   -0.032434
  21 C :   -0.067830
  22 C :   -0.180860
  23 S :    0.475623
  24 C :   -0.178508
  25 C :   -0.069842
  26 C :    0.081108
  27 C :   -0.098719
  28 C :   -0.019334
  29 N :   -0.026222
  30 C :   -0.016958
  31 N :   -0.029880
  32 C :   -0.032149
  33 C :   -0.177281
  34 S :    0.481178
  35 C :   -0.166652
  36 C :   -0.073295
  37 C :   -0.037915
  38 C :   -0.054523
  39 C :   -0.172845
  40 C :   -0.071709
  41 C :   -0.176159
  42 C :   -0.199141
  43 S :    0.442784
  44 C :   -0.061314
  45 Cl:    0.131555
  46 C :   -0.148150
  47 C :   -0.044602
  48 C :   -0.053007
  49 C :   -0.141509
  50 S :    0.424102
  51 C :   -0.173004
  52 C :   -0.074063
  53 C :   -0.176087
  54 C :   -0.197912
  55 S :    0.441586
  56 C :   -0.060994
  57 Cl:    0.132953
  58 C :   -0.053855
  59 C :   -0.164259
  60 S :    0.468986
  61 C :   -0.055476
  62 C :   -0.031985
  63 O :    0.032893
  64 N :   -0.000344
  65 C :   -0.016433
  66 C :    0.097438
  67 O :   -0.126538
  68 H :    0.032452
  69 H :    0.013891
  70 H :    0.032450
  71 H :    0.026408
  72 H :    0.025690
  73 H :    0.025441
  74 H :    0.031260
  75 H :    0.038293
  76 H :    0.011734
  77 H :    0.028242
  78 H :    0.034139
  79 H :    0.037060
  80 H :    0.040178
  81 H :    0.027531
  82 H :    0.034946
  83 H :    0.037680
  84 H :    0.040331
  85 H :    0.014724
  86 H :    0.035423
  87 H :    0.011769

  Mayer bond orders larger than 0.100000
B(  0-C ,  1-N ) :   1.7418 B(  0-C ,  6-C ) :   1.1801 B(  0-C , 68-H ) :   0.9925
B(  1-N ,  2-O ) :   1.0488 B(  2-O ,  3-C ) :   1.1021 B(  3-C ,  4-C ) :   1.0597
B(  3-C ,  6-C ) :   1.4169 B(  4-C ,  5-O ) :   2.0712 B(  4-C , 69-H ) :   0.9545
B(  6-C ,  7-C ) :   1.1477 B(  7-C ,  8-S ) :   1.1367 B(  7-C ,  9-C ) :   0.1232
B(  7-C , 11-C ) :   1.3662 B(  8-S ,  9-C ) :   1.1090 B(  9-C , 10-C ) :   1.5012
B(  9-C , 19-C ) :   1.1529 B( 10-C , 11-C ) :   1.2679 B( 10-C , 18-S ) :   1.0555
B( 11-C , 12-C ) :   1.1198 B( 12-C , 13-C ) :   1.6213 B( 12-C , 70-H ) :   0.9988
B( 13-C , 14-C ) :   0.9550 B( 13-C , 18-S ) :   1.0836 B( 14-C , 15-O ) :   2.1490
B( 14-C , 16-O ) :   1.2330 B( 16-O , 17-C ) :   0.9186 B( 17-C , 71-H ) :   0.9809
B( 17-C , 72-H ) :   0.9766 B( 17-C , 73-H ) :   0.9759 B( 19-C , 20-C ) :   1.4720
B( 19-C , 23-S ) :   1.0962 B( 20-C , 21-C ) :   1.3068 B( 20-C , 74-H ) :   0.9811
B( 21-C , 22-C ) :   1.4452 B( 21-C , 26-C ) :   0.9922 B( 22-C , 23-S ) :   1.1213
B( 22-C , 24-C ) :   1.1851 B( 24-C , 25-C ) :   1.4493 B( 24-C , 34-S ) :   1.1227
B( 25-C , 26-C ) :   0.9925 B( 25-C , 32-C ) :   1.2846 B( 26-C , 27-C ) :   1.7161
B( 27-C , 28-C ) :   1.1340 B( 27-C , 30-C ) :   1.1337 B( 28-C , 29-N ) :   2.9905
B( 30-C , 31-N ) :   2.9940 B( 32-C , 33-C ) :   1.4657 B( 32-C , 75-H ) :   0.9916
B( 33-C , 34-S ) :   1.1036 B( 33-C , 35-C ) :   1.1532 B( 35-C , 36-C ) :   1.5708
B( 35-C , 50-S ) :   1.0688 B( 36-C , 37-C ) :   1.1829 B( 36-C , 76-H ) :   0.9684
B( 37-C , 38-C ) :   1.3016 B( 37-C , 49-C ) :   1.2626 B( 38-C , 39-C ) :   0.9929
B( 38-C , 46-C ) :   1.4026 B( 39-C , 40-C ) :   1.5513 B( 39-C , 43-S ) :   1.1249
B( 40-C , 41-C ) :   1.2228 B( 40-C , 77-H ) :   0.9930 B( 41-C , 42-C ) :   1.6046
B( 41-C , 45-Cl) :   1.0097 B( 42-C , 43-S ) :   1.1277 B( 42-C , 44-C ) :   1.0822
B( 44-C , 78-H ) :   0.9437 B( 44-C , 79-H ) :   0.9481 B( 44-C , 80-H ) :   0.9489
B( 46-C , 47-C ) :   1.2680 B( 46-C , 60-S ) :   1.0351 B( 47-C , 48-C ) :   1.2818
B( 47-C , 58-C ) :   1.1837 B( 48-C , 49-C ) :   1.4346 B( 48-C , 51-C ) :   0.9864
B( 49-C , 50-S ) :   1.0515 B( 51-C , 52-C ) :   1.5521 B( 51-C , 55-S ) :   1.1257
B( 52-C , 53-C ) :   1.2213 B( 52-C , 81-H ) :   0.9947 B( 53-C , 54-C ) :   1.6054
B( 53-C , 57-Cl) :   1.0099 B( 54-C , 55-S ) :   1.1256 B( 54-C , 56-C ) :   1.0827
B( 56-C , 82-H ) :   0.9435 B( 56-C , 83-H ) :   0.9481 B( 56-C , 84-H ) :   0.9488
B( 58-C , 59-C ) :   1.5606 B( 58-C , 85-H ) :   0.9771 B( 59-C , 60-S ) :   1.0847
B( 59-C , 61-C ) :   1.0849 B( 61-C , 62-C ) :   1.4558 B( 61-C , 65-C ) :   1.2074
B( 62-C , 63-O ) :   1.1149 B( 62-C , 66-C ) :   1.0244 B( 63-O , 64-N ) :   1.0452
B( 64-N , 65-C ) :   1.7340 B( 65-C , 86-H ) :   0.9868 B( 66-C , 67-O ) :   2.1284
B( 66-C , 87-H ) :   0.9524

-----------------------------------------------------------------------------
         ABSORPTION SPECTRUM VIA TRANSITION ELECTRIC DIPOLE MOMENTS
-----------------------------------------------------------------------------
State   Energy  Wavelength   fosc         T2         TX        TY        TZ
        (cm-1)    (nm)                  (au**2)     (au)      (au)      (au)
-----------------------------------------------------------------------------
   0   11412.5    876.2   0.181231420   5.22791  -1.90818  -0.88786  -0.89357
   1   18678.8    535.4   0.041537123   0.73209   0.77328  -0.27545   0.24136
   2   19846.6    503.9   0.953739862  15.82046  -2.77075  -2.59420  -1.18893
   3   22205.3    450.3   0.396909799   5.88451   1.64207  -1.71351   0.50201
   4   22922.9    436.2   0.229923732   3.30209   1.50686  -0.82850   0.58740
   5   25422.2    393.4   0.811817184  10.51285  -2.85322  -0.45087  -1.47265
   6   27244.7    367.0   0.185995313   2.24747  -0.95682   1.07253  -0.42621
   7   28643.9    349.1   0.024012950   0.27599   0.16220   0.39202   0.30983
   8   28837.3    346.8   0.067382087   0.76925   0.81863  -0.19551   0.24672
   9   29281.8    341.5   0.068913216   0.77478   0.44450   0.66996   0.35827
  10   29400.6    340.1   0.017106285   0.19155  -0.14399   0.41289   0.01841
  11   30223.0    330.9   0.191770691   2.08891  -0.03654   1.41512   0.29157
  12   30483.4    328.0   0.017082561   0.18449   0.17155   0.38537   0.08089
  13   30606.5    326.7   0.043685555   0.46989   0.59322  -0.11660   0.32309
  14   31062.0    321.9   0.082212300   0.87133  -0.38627  -0.75302  -0.39381
  15   31121.5    321.3   0.104296466   1.10328  -0.31827  -0.96279  -0.27391
  16   31385.1    318.6   0.175146474   1.83719  -0.71387  -1.07183  -0.42280
  17   31627.3    316.2   0.518110248   5.39307  -1.51608   1.61806  -0.69026
  18   31928.7    313.2   0.251170024   2.58977   1.30842   0.58860   0.72895
  19   32500.7    307.7   0.074176255   0.75136   0.67351  -0.40150   0.36952
  20   33390.6    299.5   0.042848822   0.42246  -0.20568  -0.61597  -0.02726
  21   33455.6    298.9   0.116315713   1.14458   0.71176   0.73315   0.31697
  22   33555.2    298.0   0.099167571   0.97294  -0.27270   0.94540  -0.06927
  23   33996.0    294.2   0.155912411   1.50983   1.02170   0.42151   0.53694
  24   34260.7    291.9   0.090007982   0.86489   0.68931   0.48788   0.38950
  25   34651.1    288.6   0.017898873   0.17005   0.24693  -0.32966  -0.02004
  26   35028.6    285.5   0.136652311   1.28431   0.76068  -0.72771   0.41965
  27   35429.4    282.3   0.035598014   0.33078  -0.13414   0.55488  -0.06999
  28   36540.7    273.7   0.039425157   0.35520  -0.46030   0.29104  -0.24211
  29   36784.0    271.9   0.013058078   0.11687  -0.09270   0.30314   0.12798
  30   37031.1    270.0   0.030490251   0.27106   0.19037  -0.48445  -0.01130
  31   37430.4    267.2   0.018461081   0.16237  -0.12631   0.38079   0.03762
  32   37710.5    265.2   0.063806410   0.55703   0.58207   0.30377   0.35489
  33   38081.1    262.6   0.080841502   0.69888   0.20535   0.74358   0.32216
  34   38257.6    261.4   0.025551352   0.21987   0.31383  -0.30470   0.16895
  35   38299.4    261.1   0.026213874   0.22533   0.06180   0.47060  -0.00674
  36   38527.5    259.6   0.030602704   0.26150   0.00311   0.42113   0.29007
  37   38689.1    258.5   0.069023135   0.58733   0.23637   0.69141   0.23112
  38   38906.0    257.0   0.041084667   0.34765   0.35779   0.43442   0.17583
  39   39640.5    252.3   0.045013829   0.37384   0.00351  -0.54629  -0.27458
  40   39834.4    251.0   0.026244465   0.21690  -0.21229   0.28172  -0.30408
  41   40145.3    249.1   0.090833979   0.74488  -0.36235   0.71714  -0.31512

FINAL SINGLE POINT ENERGY     -6612.935927191304

DIPOLE MOMENT
-------------
                                X             Y             Z
Electronic contribution:    -12.45053       3.72706     -14.79181
Nuclear contribution   :     12.75733      -2.42401      15.43953
                        -----------------------------------------
Total Dipole Moment    :      0.30679       1.30305       0.64772
                        -----------------------------------------
Magnitude (a.u.)       :      1.48715
Magnitude (Debye)      :      3.78003

Rotational constants in cm-1:     0.001387     0.000286     0.000240
Rotational constants in MHz :    41.569946     8.589053     7.192249

                             ****ORCA TERMINATED NORMALLY****
TOTAL RUN TIME: 0 days 0 hours 7 minutes 55 seconds 620 msec
