                         Program Version 4.2.0 -  RELEASE  -
|  1> # ORCA input file
|  2> # SCF done       -172.966253970592          0.000674420420
|  3> ! CAM-B3LYP def2-SVP def2/J RIJCOSX Grid4 TightSCF
|  4> %maxcore 5000
|  5> %tddft
|  6>     Mode sTDDFT
|  7>     Ethresh 5.0
|  8>     maxcore 5000
|  9> end
| 10>
| 11> %pal
| 12>   nprocs 6
| 13>   end
| 14> * xyz 0 1
| 15>    C       -1.64622         0.84979         2.13501
| 16>    N       -0.60521         1.59170         2.36469
| 17>    O       -1.03042         2.75723         2.86328
| 18>    C       -2.38160         2.75664         2.95226
| 19>    C       -2.99039         3.95297         3.50195
| 20>    O       -4.17028         4.13889         3.66515
| 21>    C       -2.85115         1.52668         2.48582
| 22>    C       -4.16967         0.99990         2.36095
| 23>    C       -5.38431         1.60911         2.59992
| 24>    C       -6.45416         0.74287         2.36451
| 25>    C       -6.04268        -0.53439         1.94699
| 26>    S       -4.34991        -0.66962         1.83097
| 27>    C       -7.19188        -1.34569         1.76431
| 28>    C       -8.33080        -0.58372         2.06662
| 29>    C       -7.90825         0.76370         2.42746
| 30>    C       -8.71149         1.82429         2.71708
| 31>    C      -10.12197         1.73834         2.68715
| 32>    N      -11.26651         1.69864         2.64644
| 33>    C       -8.21158         3.10911         3.02734
| 34>    N       -7.84361         4.16599         3.27305
| 35>    C       -9.51861        -1.30830         1.95363
| 36>    C       -9.28874        -2.61394         1.56045
| 37>    S       -7.57875        -2.94609         1.31991
| 38>    C      -10.22982        -3.66273         1.35486
| 39>    C      -11.55919        -3.72165         1.75222
| 40>    C      -12.22332        -2.66909         2.40236
| 41>    N      -12.76535        -1.79145         2.90295
| 42>    C      -12.17791        -4.95055         1.38980
| 43>    C      -11.30300        -5.77576         0.69358
| 44>    S       -9.72775        -5.11186         0.50937
| 45>    S      -11.98204        -7.27474         0.14385
| 46>    C      -13.48179        -6.80316         0.87407
| 47>    C      -13.45572        -5.57023         1.52166
| 48>    C      -14.70038        -5.29313         2.14527
| 49>    C      -14.88475        -4.27330         3.09582
| 50>    N      -14.95806        -3.53066         3.96707
| 51>    C      -15.63618        -6.29536         1.91572
| 52>    S      -14.98365        -7.63332         1.01013
| 53>    C      -16.99721        -6.31216         2.35374
| 54>    C      -17.70744        -7.51032         2.54557
| 55>    C      -19.02683        -7.53719         3.11850
| 56>    N      -19.64734        -8.73586         3.23430
| 57>    C      -19.04272        -9.81304         2.86234
| 58>    C      -17.72353        -9.78316         2.33248
| 59>    N      -17.10039        -8.66264         2.18598
| 60>    F      -17.10435       -10.89897         1.96479
| 61>    F      -19.70343       -10.96256         2.98317
| 62>    C      -19.70102        -6.36091         3.51191
| 63>    C      -19.04076        -5.15553         3.19195
| 64>    C      -17.71602        -5.13287         2.61425
| 65>    N      -17.30434        -3.89028         2.35628
| 66>    S      -18.41807        -2.85885         2.84709
| 67>    N      -19.50079        -3.91112         3.37355
| 68>    C      -20.96934        -6.34977         4.21511
| 69>    C      -21.85903        -5.34513         4.07909
| 70>    C      -23.04586        -5.25760         4.88541
| 71>    C      -23.41587        -6.24500         5.70137
| 72>    C      -22.65715        -7.54138         5.75626
| 73>    C      -21.19557        -7.43237         5.25691
| 74>    N      -20.21906        -7.16479         6.28840
| 75>    C      -20.50298        -7.42760         7.48377
| 76>    C      -21.81077        -7.97664         7.88695
| 77>    N      -22.78764        -8.05521         7.10064
| 78>    F      -21.94446        -8.41080         9.13566
| 79>    F      -19.60739        -7.18631         8.43740
| 80>    H       -1.53716        -0.13616         1.72983
| 81>    H       -2.23347         4.70781         3.77739
| 82>    H       -5.46617         2.62757         2.93618
| 83>    H      -10.49942        -0.91355         2.14199
| 84>    H      -21.68075        -4.56280         3.35987
| 85>    H      -23.62863        -4.35162         4.82007
| 86>    H      -24.28411        -6.18512         6.33828
| 87>    H      -23.19769        -8.25777         5.12099
| 88>    H      -20.89749        -8.39025         4.81503
| 89> *
| 90>
| 91>                          ****END OF INPUT****

CARTESIAN COORDINATES (ANGSTROEM)
---------------------------------
  C     -1.646220    0.849790    2.135010
  N     -0.605210    1.591700    2.364690
  O     -1.030420    2.757230    2.863280
  C     -2.381600    2.756640    2.952260
  C     -2.990390    3.952970    3.501950
  O     -4.170280    4.138890    3.665150
  C     -2.851150    1.526680    2.485820
  C     -4.169670    0.999900    2.360950
  C     -5.384310    1.609110    2.599920
  C     -6.454160    0.742870    2.364510
  C     -6.042680   -0.534390    1.946990
  S     -4.349910   -0.669620    1.830970
  C     -7.191880   -1.345690    1.764310
  C     -8.330800   -0.583720    2.066620
  C     -7.908250    0.763700    2.427460
  C     -8.711490    1.824290    2.717080
  C    -10.121970    1.738340    2.687150
  N    -11.266510    1.698640    2.646440
  C     -8.211580    3.109110    3.027340
  N     -7.843610    4.165990    3.273050
  C     -9.518610   -1.308300    1.953630
  C     -9.288740   -2.613940    1.560450
  S     -7.578750   -2.946090    1.319910
  C    -10.229820   -3.662730    1.354860
  C    -11.559190   -3.721650    1.752220
  C    -12.223320   -2.669090    2.402360
  N    -12.765350   -1.791450    2.902950
  C    -12.177910   -4.950550    1.389800
  C    -11.303000   -5.775760    0.693580
  S     -9.727750   -5.111860    0.509370
  S    -11.982040   -7.274740    0.143850
  C    -13.481790   -6.803160    0.874070
  C    -13.455720   -5.570230    1.521660
  C    -14.700380   -5.293130    2.145270
  C    -14.884750   -4.273300    3.095820
  N    -14.958060   -3.530660    3.967070
  C    -15.636180   -6.295360    1.915720
  S    -14.983650   -7.633320    1.010130
  C    -16.997210   -6.312160    2.353740
  C    -17.707440   -7.510320    2.545570
  C    -19.026830   -7.537190    3.118500
  N    -19.647340   -8.735860    3.234300
  C    -19.042720   -9.813040    2.862340
  C    -17.723530   -9.783160    2.332480
  N    -17.100390   -8.662640    2.185980
  F    -17.104350  -10.898970    1.964790
  F    -19.703430  -10.962560    2.983170
  C    -19.701020   -6.360910    3.511910
  C    -19.040760   -5.155530    3.191950
  C    -17.716020   -5.132870    2.614250
  N    -17.304340   -3.890280    2.356280
  S    -18.418070   -2.858850    2.847090
  N    -19.500790   -3.911120    3.373550
  C    -20.969340   -6.349770    4.215110
  C    -21.859030   -5.345130    4.079090
  C    -23.045860   -5.257600    4.885410
  C    -23.415870   -6.245000    5.701370
  C    -22.657150   -7.541380    5.756260
  C    -21.195570   -7.432370    5.256910
  N    -20.219060   -7.164790    6.288400
  C    -20.502980   -7.427600    7.483770
  C    -21.810770   -7.976640    7.886950
  N    -22.787640   -8.055210    7.100640
  F    -21.944460   -8.410800    9.135660
  F    -19.607390   -7.186310    8.437400
  H     -1.537160   -0.136160    1.729830
  H     -2.233470    4.707810    3.777390
  H     -5.466170    2.627570    2.936180
  H    -10.499420   -0.913550    2.141990
  H    -21.680750   -4.562800    3.359870
  H    -23.628630   -4.351620    4.820070
  H    -24.284110   -6.185120    6.338280
  H    -23.197690   -8.257770    5.120990
  H    -20.897490   -8.390250    4.815030

 Total Charge           Charge          ....    0
 Multiplicity           Mult            ....    1
 Number of Electrons    NEL             ....  486
 Basis Dimension        Dim             ....  979

ORBITAL ENERGIES
----------------

  NO   OCC          E(Eh)            E(eV)
   0   2.0000     -89.041318     -2422.9375
   1   2.0000     -88.995831     -2421.6997
   2   2.0000     -88.995017     -2421.6775
   3   2.0000     -88.991931     -2421.5936
   4   2.0000     -88.988628     -2421.5037
   5   2.0000     -88.982258     -2421.3304
   6   2.0000     -24.825556      -675.5377
   7   2.0000     -24.821339      -675.4230
   8   2.0000     -24.799129      -674.8186
   9   2.0000     -24.797280      -674.7683
  10   2.0000     -19.332587      -526.0664
  11   2.0000     -19.234306      -523.3921
  12   2.0000     -14.482912      -394.1001
  13   2.0000     -14.464412      -393.5967
  14   2.0000     -14.462482      -393.5441
  15   2.0000     -14.446750      -393.1161
  16   2.0000     -14.445931      -393.0938
  17   2.0000     -14.426937      -392.5769
  18   2.0000     -14.426801      -392.5732
  19   2.0000     -14.424949      -392.5228
  20   2.0000     -14.424481      -392.5101
  21   2.0000     -14.406056      -392.0087
  22   2.0000     -14.392787      -391.6476
  23   2.0000     -10.441277      -284.1216
  24   2.0000     -10.437227      -284.0114
  25   2.0000     -10.413000      -283.3521
  26   2.0000     -10.410774      -283.2916
  27   2.0000     -10.380038      -282.4552
  28   2.0000     -10.364822      -282.0411
  29   2.0000     -10.355647      -281.7915
  30   2.0000     -10.352287      -281.7000
  31   2.0000     -10.350546      -281.6527
  32   2.0000     -10.349553      -281.6256
  33   2.0000     -10.345886      -281.5259
  34   2.0000     -10.340616      -281.3825
  35   2.0000     -10.339249      -281.3453
  36   2.0000     -10.338534      -281.3258
  37   2.0000     -10.337816      -281.3063
  38   2.0000     -10.336552      -281.2719
  39   2.0000     -10.335158      -281.2339
  40   2.0000     -10.334086      -281.2048
  41   2.0000     -10.333950      -281.2011
  42   2.0000     -10.331355      -281.1305
  43   2.0000     -10.328084      -281.0415
  44   2.0000     -10.327658      -281.0299
  45   2.0000     -10.326446      -280.9969
  46   2.0000     -10.323717      -280.9226
  47   2.0000     -10.323316      -280.9117
  48   2.0000     -10.323134      -280.9068
  49   2.0000     -10.321910      -280.8735
  50   2.0000     -10.319945      -280.8200
  51   2.0000     -10.318227      -280.7732
  52   2.0000     -10.316696      -280.7316
  53   2.0000     -10.312599      -280.6201
  54   2.0000     -10.307902      -280.4923
  55   2.0000     -10.306879      -280.4644
  56   2.0000     -10.304945      -280.4118
  57   2.0000     -10.304854      -280.4093
  58   2.0000     -10.303915      -280.3838
  59   2.0000     -10.299774      -280.2711
  60   2.0000     -10.296437      -280.1803
  61   2.0000     -10.293315      -280.0953
  62   2.0000     -10.282982      -279.8142
  63   2.0000     -10.282610      -279.8040
  64   2.0000     -10.278341      -279.6879
  65   2.0000      -8.132448      -221.2952
  66   2.0000      -8.090616      -220.1568
  67   2.0000      -8.089710      -220.1322
  68   2.0000      -8.087404      -220.0694
  69   2.0000      -8.083664      -219.9677
  70   2.0000      -8.076281      -219.7668
  71   2.0000      -6.103382      -166.0815
  72   2.0000      -6.095624      -165.8704
  73   2.0000      -6.095482      -165.8665
  74   2.0000      -6.059945      -164.8995
  75   2.0000      -6.058989      -164.8735
  76   2.0000      -6.057034      -164.8203
  77   2.0000      -6.055715      -164.7844
  78   2.0000      -6.054786      -164.7591
  79   2.0000      -6.053660      -164.7285
  80   2.0000      -6.052861      -164.7067
  81   2.0000      -6.052810      -164.7053
  82   2.0000      -6.052065      -164.6850
  83   2.0000      -6.049389      -164.6122
  84   2.0000      -6.048851      -164.5976
  85   2.0000      -6.046020      -164.5206
  86   2.0000      -6.044511      -164.4795
  87   2.0000      -6.041378      -164.3942
  88   2.0000      -6.037968      -164.3015
  89   2.0000      -1.352281       -36.7974
  90   2.0000      -1.337551       -36.3966
  91   2.0000      -1.328117       -36.1399
  92   2.0000      -1.313119       -35.7318
  93   2.0000      -1.274399       -34.6782
  94   2.0000      -1.146943       -31.2099
  95   2.0000      -1.138777       -30.9877
  96   2.0000      -1.121584       -30.5199
  97   2.0000      -1.076804       -29.3013
  98   2.0000      -1.049296       -28.5528
  99   2.0000      -1.047928       -28.5156
 100   2.0000      -1.041517       -28.3411
 101   2.0000      -1.018240       -27.7077
 102   2.0000      -1.014804       -27.6142
 103   2.0000      -1.010657       -27.5014
 104   2.0000      -1.002521       -27.2800
 105   2.0000      -1.000653       -27.2292
 106   2.0000      -0.993747       -27.0412
 107   2.0000      -0.988548       -26.8997
 108   2.0000      -0.981073       -26.6963
 109   2.0000      -0.977591       -26.6016
 110   2.0000      -0.974595       -26.5201
 111   2.0000      -0.961712       -26.1695
 112   2.0000      -0.946774       -25.7630
 113   2.0000      -0.939031       -25.5523
 114   2.0000      -0.931050       -25.3352
 115   2.0000      -0.904393       -24.6098
 116   2.0000      -0.899606       -24.4795
 117   2.0000      -0.889598       -24.2072
 118   2.0000      -0.887585       -24.1524
 119   2.0000      -0.876028       -23.8379
 120   2.0000      -0.866005       -23.5652
 121   2.0000      -0.857964       -23.3464
 122   2.0000      -0.854182       -23.2435
 123   2.0000      -0.848797       -23.0969
 124   2.0000      -0.840373       -22.8677
 125   2.0000      -0.817703       -22.2508
 126   2.0000      -0.814774       -22.1711
 127   2.0000      -0.804122       -21.8813
 128   2.0000      -0.781279       -21.2597
 129   2.0000      -0.774710       -21.0809
 130   2.0000      -0.772972       -21.0336
 131   2.0000      -0.769398       -20.9364
 132   2.0000      -0.759675       -20.6718
 133   2.0000      -0.751734       -20.4557
 134   2.0000      -0.745343       -20.2818
 135   2.0000      -0.728556       -19.8250
 136   2.0000      -0.720806       -19.6141
 137   2.0000      -0.711639       -19.3647
 138   2.0000      -0.705538       -19.1987
 139   2.0000      -0.697924       -18.9915
 140   2.0000      -0.691898       -18.8275
 141   2.0000      -0.685573       -18.6554
 142   2.0000      -0.684464       -18.6252
 143   2.0000      -0.679122       -18.4798
 144   2.0000      -0.677070       -18.4240
 145   2.0000      -0.668239       -18.1837
 146   2.0000      -0.660672       -17.9778
 147   2.0000      -0.656026       -17.8514
 148   2.0000      -0.650257       -17.6944
 149   2.0000      -0.645225       -17.5575
 150   2.0000      -0.638991       -17.3878
 151   2.0000      -0.633358       -17.2345
 152   2.0000      -0.631598       -17.1866
 153   2.0000      -0.628268       -17.0960
 154   2.0000      -0.626275       -17.0418
 155   2.0000      -0.625594       -17.0233
 156   2.0000      -0.618020       -16.8172
 157   2.0000      -0.610619       -16.6158
 158   2.0000      -0.608322       -16.5533
 159   2.0000      -0.604420       -16.4471
 160   2.0000      -0.595488       -16.2041
 161   2.0000      -0.588019       -16.0008
 162   2.0000      -0.582392       -15.8477
 163   2.0000      -0.579049       -15.7567
 164   2.0000      -0.578008       -15.7284
 165   2.0000      -0.571419       -15.5491
 166   2.0000      -0.564491       -15.3606
 167   2.0000      -0.559533       -15.2257
 168   2.0000      -0.555886       -15.1264
 169   2.0000      -0.551217       -14.9994
 170   2.0000      -0.548659       -14.9298
 171   2.0000      -0.544804       -14.8249
 172   2.0000      -0.542139       -14.7524
 173   2.0000      -0.541050       -14.7227
 174   2.0000      -0.537680       -14.6310
 175   2.0000      -0.536369       -14.5953
 176   2.0000      -0.533651       -14.5214
 177   2.0000      -0.528628       -14.3847
 178   2.0000      -0.526205       -14.3188
 179   2.0000      -0.522568       -14.2198
 180   2.0000      -0.521418       -14.1885
 181   2.0000      -0.519631       -14.1399
 182   2.0000      -0.514673       -14.0050
 183   2.0000      -0.511761       -13.9257
 184   2.0000      -0.508991       -13.8504
 185   2.0000      -0.507699       -13.8152
 186   2.0000      -0.503514       -13.7013
 187   2.0000      -0.501868       -13.6565
 188   2.0000      -0.501253       -13.6398
 189   2.0000      -0.495544       -13.4844
 190   2.0000      -0.493323       -13.4240
 191   2.0000      -0.492701       -13.4071
 192   2.0000      -0.486832       -13.2474
 193   2.0000      -0.484254       -13.1772
 194   2.0000      -0.478480       -13.0201
 195   2.0000      -0.475368       -12.9354
 196   2.0000      -0.472110       -12.8468
 197   2.0000      -0.470352       -12.7989
 198   2.0000      -0.462927       -12.5969
 199   2.0000      -0.459636       -12.5073
 200   2.0000      -0.458455       -12.4752
 201   2.0000      -0.456515       -12.4224
 202   2.0000      -0.454098       -12.3566
 203   2.0000      -0.452310       -12.3080
 204   2.0000      -0.449359       -12.2277
 205   2.0000      -0.448924       -12.2158
 206   2.0000      -0.441464       -12.0128
 207   2.0000      -0.437618       -11.9082
 208   2.0000      -0.434993       -11.8368
 209   2.0000      -0.433830       -11.8051
 210   2.0000      -0.433098       -11.7852
 211   2.0000      -0.432394       -11.7660
 212   2.0000      -0.430076       -11.7030
 213   2.0000      -0.425404       -11.5758
 214   2.0000      -0.422094       -11.4858
 215   2.0000      -0.421085       -11.4583
 216   2.0000      -0.420242       -11.4354
 217   2.0000      -0.416860       -11.3433
 218   2.0000      -0.408707       -11.1215
 219   2.0000      -0.406368       -11.0578
 220   2.0000      -0.404046       -10.9947
 221   2.0000      -0.401485       -10.9250
 222   2.0000      -0.397279       -10.8105
 223   2.0000      -0.396552       -10.7907
 224   2.0000      -0.392527       -10.6812
 225   2.0000      -0.385599       -10.4927
 226   2.0000      -0.381505       -10.3813
 227   2.0000      -0.377729       -10.2785
 228   2.0000      -0.372461       -10.1352
 229   2.0000      -0.364532        -9.9194
 230   2.0000      -0.359439        -9.7808
 231   2.0000      -0.354270        -9.6402
 232   2.0000      -0.351420        -9.5626
 233   2.0000      -0.345938        -9.4135
 234   2.0000      -0.343119        -9.3367
 235   2.0000      -0.342788        -9.3277
 236   2.0000      -0.332893        -9.0585
 237   2.0000      -0.323950        -8.8151
 238   2.0000      -0.321936        -8.7603
 239   2.0000      -0.302600        -8.2342
 240   2.0000      -0.301506        -8.2044
 241   2.0000      -0.262487        -7.1426
 242   2.0000      -0.259296        -7.0558
 243   0.0000      -0.111203        -3.0260
 244   0.0000      -0.106159        -2.8887
 245   0.0000      -0.065126        -1.7722
 246   0.0000      -0.044350        -1.2068
 247   0.0000      -0.036331        -0.9886

MULLIKEN ATOMIC CHARGES
-----------------------
   0 C :   -0.008067
   1 N :    0.047565
   2 O :   -0.167057
   3 C :    0.057513
   4 C :    0.163441
   5 O :   -0.151243
   6 C :    0.002758
   7 C :   -0.057950
   8 C :   -0.044795
   9 C :    0.007419
  10 C :   -0.091534
  11 S :    0.167606
  12 C :   -0.093126
  13 C :    0.017265
  14 C :    0.306989
  15 C :   -0.292582
  16 C :   -0.199810
  17 N :    0.195014
  18 C :   -0.195042
  19 N :    0.197897
  20 C :   -0.048134
  21 C :   -0.094285
  22 S :    0.180097
  23 C :   -0.070812
  24 C :   -0.015949
  25 C :   -0.307946
  26 N :    0.214046
  27 C :    0.142799
  28 C :   -0.232165
  29 S :    0.163430
  30 S :    0.186663
  31 C :   -0.206110
  32 C :    0.088585
  33 C :    0.059178
  34 C :   -0.320641
  35 N :    0.202630
  36 C :   -0.212826
  37 S :    0.208140
  38 C :    0.126318
  39 C :   -0.041206
  40 C :   -0.043787
  41 N :   -0.009007
  42 C :    0.141754
  43 C :    0.147976
  44 N :   -0.024590
  45 F :   -0.134292
  46 F :   -0.142432
  47 C :    0.119591
  48 C :    0.017581
  49 C :   -0.024387
  50 N :   -0.280947
  51 S :    0.577618
  52 N :   -0.299919
  53 C :   -0.069509
  54 C :   -0.008290
  55 C :    0.051517
  56 C :   -0.034405
  57 C :    0.116200
  58 C :    0.093987
  59 N :   -0.079684
  60 C :    0.105507
  61 C :    0.097544
  62 N :   -0.093339
  63 F :   -0.145507
  64 F :   -0.147168
  65 H :    0.026332
  66 H :    0.013455
  67 H :    0.022691
  68 H :    0.029791
  69 H :   -0.003602
  70 H :   -0.005150
  71 H :    0.014848
  72 H :    0.040283
  73 H :    0.045267
Sum of atomic charges:   -0.0000000

LOEWDIN ATOMIC CHARGES
----------------------
   0 C :   -0.032476
   1 N :    0.000935
   2 O :    0.036411
   3 C :   -0.024477
   4 C :    0.100179
   5 O :   -0.109286
   6 C :   -0.064686
   7 C :   -0.170261
   8 C :   -0.008596
   9 C :   -0.067647
  10 C :   -0.175977
  11 S :    0.470350
  12 C :   -0.181103
  13 C :   -0.061186
  14 C :    0.072594
  15 C :   -0.085832
  16 C :   -0.023252
  17 N :   -0.011121
  18 C :   -0.022768
  19 N :   -0.013735
  20 C :   -0.013786
  21 C :   -0.185582
  22 S :    0.465178
  23 C :   -0.149429
  24 C :   -0.094776
  25 C :   -0.038513
  26 N :   -0.021433
  27 C :   -0.058404
  28 C :   -0.335526
  29 S :    0.438470
  30 S :    0.422999
  31 C :   -0.335112
  32 C :   -0.065932
  33 C :   -0.081500
  34 C :   -0.039916
  35 N :   -0.048347
  36 C :   -0.134051
  37 S :    0.487720
  38 C :   -0.049037
  39 C :   -0.006711
  40 C :   -0.007656
  41 N :   -0.029782
  42 C :    0.055248
  43 C :    0.063219
  44 N :   -0.057169
  45 F :   -0.023726
  46 F :   -0.031018
  47 C :    0.002431
  48 C :   -0.034499
  49 C :   -0.038753
  50 N :   -0.260756
  51 S :    0.708412
  52 N :   -0.283474
  53 C :   -0.023826
  54 C :    0.008755
  55 C :   -0.037138
  56 C :   -0.004000
  57 C :    0.011645
  58 C :    0.010958
  59 N :   -0.068723
  60 C :    0.041201
  61 C :    0.045274
  62 N :   -0.070624
  63 F :   -0.034315
  64 F :   -0.036443
  65 H :    0.030789
  66 H :    0.013193
  67 H :    0.040259
  68 H :    0.047949
  69 H :    0.030493
  70 H :    0.033850
  71 H :    0.032542
  72 H :    0.047524
  73 H :    0.033784

  Mayer bond orders larger than 0.100000
B(  0-C ,  1-N ) :   1.7335 B(  0-C ,  6-C ) :   1.1969 B(  0-C , 65-H ) :   0.9827
B(  1-N ,  2-O ) :   1.0514 B(  2-O ,  3-C ) :   1.1149 B(  3-C ,  4-C ) :   1.0184
B(  3-C ,  6-C ) :   1.4617 B(  4-C ,  5-O ) :   2.1257 B(  4-C , 66-H ) :   0.9465
B(  6-C ,  7-C ) :   1.1096 B(  7-C ,  8-C ) :   1.4861 B(  7-C , 11-S ) :   1.0901
B(  8-C ,  9-C ) :   1.2631 B(  8-C , 67-H ) :   0.9742 B(  9-C , 10-C ) :   1.4412
B(  9-C , 14-C ) :   0.9899 B( 10-C , 11-S ) :   1.1290 B( 10-C , 12-C ) :   1.1826
B( 12-C , 13-C ) :   1.4478 B( 12-C , 22-S ) :   1.1210 B( 13-C , 14-C ) :   0.9874
B( 13-C , 20-C ) :   1.2805 B( 14-C , 15-C ) :   1.7226 B( 15-C , 16-C ) :   1.1353
B( 15-C , 18-C ) :   1.1355 B( 16-C , 17-N ) :   2.9925 B( 18-C , 19-N ) :   3.0003
B( 20-C , 21-C ) :   1.4829 B( 20-C , 68-H ) :   0.9842 B( 21-C , 22-S ) :   1.0904
B( 21-C , 23-C ) :   1.1414 B( 23-C , 24-C ) :   1.5372 B( 23-C , 29-S ) :   1.1275
B( 24-C , 25-C ) :   1.1736 B( 24-C , 27-C ) :   1.2556 B( 25-C , 26-N ) :   2.9350
B( 27-C , 28-C ) :   1.4217 B( 27-C , 32-C ) :   1.0749 B( 28-C , 29-S ) :   1.0823
B( 28-C , 30-S ) :   1.0810 B( 30-S , 31-C ) :   1.0863 B( 31-C , 32-C ) :   1.4130
B( 31-C , 37-S ) :   1.0680 B( 32-C , 33-C ) :   1.2626 B( 33-C , 34-C ) :   1.1429
B( 33-C , 36-C ) :   1.4861 B( 34-C , 35-N ) :   3.0037 B( 36-C , 37-S ) :   1.1583
B( 36-C , 38-C ) :   1.1248 B( 38-C , 39-C ) :   1.3278 B( 38-C , 47-C ) :   0.1366
B( 38-C , 49-C ) :   1.2296 B( 39-C , 40-C ) :   1.1129 B( 39-C , 44-N ) :   1.3804
B( 40-C , 41-N ) :   1.3917 B( 40-C , 47-C ) :   1.3113 B( 41-N , 42-C ) :   1.6790
B( 42-C , 43-C ) :   1.0978 B( 42-C , 46-F ) :   1.1716 B( 43-C , 44-N ) :   1.6737
B( 43-C , 45-F ) :   1.1879 B( 47-C , 48-C ) :   1.2523 B( 47-C , 53-C ) :   1.0763
B( 48-C , 49-C ) :   1.1041 B( 48-C , 52-N ) :   1.4684 B( 49-C , 50-N ) :   1.4819
B( 50-N , 51-S ) :   1.2990 B( 50-N , 52-N ) :   0.1531 B( 51-S , 52-N ) :   1.3007
B( 53-C , 54-C ) :   1.7484 B( 53-C , 58-C ) :   0.9755 B( 54-C , 55-C ) :   1.0549
B( 54-C , 69-H ) :   0.9740 B( 55-C , 56-C ) :   1.8012 B( 55-C , 70-H ) :   0.9828
B( 56-C , 57-C ) :   0.9704 B( 56-C , 71-H ) :   0.9820 B( 57-C , 58-C ) :   0.9721
B( 57-C , 62-N ) :   1.0048 B( 57-C , 72-H ) :   0.8826 B( 58-C , 59-N ) :   1.0363
B( 58-C , 73-H ) :   0.8657 B( 59-N , 60-C ) :   1.9582 B( 60-C , 61-C ) :   0.9364
B( 60-C , 64-F ) :   1.1616 B( 61-C , 62-N ) :   1.9616 B( 61-C , 63-F ) :   1.1616

-----------------------------------------------------------------------------
         ABSORPTION SPECTRUM VIA TRANSITION ELECTRIC DIPOLE MOMENTS
-----------------------------------------------------------------------------
State   Energy  Wavelength   fosc         T2         TX        TY        TZ
        (cm-1)    (nm)                  (au**2)     (au)      (au)      (au)
-----------------------------------------------------------------------------
   0   14525.7    688.4   0.221100436   5.01104  -1.89481  -1.19013  -0.06571
   1   15841.4    631.3   0.414703381   8.61827   2.74249   0.18010  -1.03179
   2   20520.4    487.3   0.012200517   0.19573   0.20264   0.36159   0.15468
   3   23934.5    417.8   0.074162017   1.02008  -0.76505  -0.65254  -0.09465
   4   23981.1    417.0   0.013777275   0.18913   0.25775   0.32517   0.13025
   5   25613.8    390.4   1.123237414  14.43688   2.89585   2.41183   0.48376
   6   26793.8    373.2   0.016685233   0.20501   0.40442   0.08816  -0.18352
   7   27078.0    369.3   0.189222041   2.30054   1.15241   0.94232   0.29075
   8   29403.5    340.1   0.032450300   0.36332  -0.53242  -0.23829   0.15189
   9   29802.1    335.5   0.117087090   1.29341  -0.41031  -1.06026  -0.03008
  10   30067.8    332.6   0.081692927   0.89445  -0.23486  -0.91476   0.05013
  11   30241.9    330.7   0.095970881   1.04474  -0.90237   0.14130   0.45880
  12   30875.7    323.9   0.101667405   1.08403   0.59726  -0.85272   0.01338
  13   30977.6    322.8   0.133762906   1.42155  -0.54546   0.98118   0.40164
  14   31195.9    320.6   0.230026577   2.42748  -0.57545   1.41578   0.30318
  15   31364.9    318.8   0.070416197   0.73910  -0.24109  -0.81966   0.09555
  16   31496.4    317.5   0.007377402   0.07711   0.12278   0.24864   0.01468
  17   31915.5    313.3   0.469043470   4.83824  -2.02812   0.72925   0.43950
  18   32146.8    311.1   0.010275188   0.10523  -0.14054   0.18236   0.22852
  19   32759.3    305.3   0.135390828   1.36060  -0.91355  -0.64950   0.32275
  20   32934.9    303.6   0.165734899   1.65666  -1.15574  -0.42026   0.37987
  21   33523.4    298.3   0.224391399   2.20360  -0.36367  -1.37301  -0.43149
  22   34300.5    291.5   0.075051030   0.72033  -0.79137  -0.10701   0.28743
  23   34894.1    286.6   0.056106858   0.52935  -0.64956  -0.32156  -0.06335
  24   35625.3    280.7   0.005815028   0.05374   0.15292   0.16540   0.05473
  25   36825.8    271.5   0.038753775   0.34645  -0.55124   0.20361  -0.03351
  26   36988.6    270.4   0.142961808   1.27241   0.00949  -1.11847  -0.14614
  27   37128.9    269.3   0.005933992   0.05262  -0.16023   0.15183   0.06238
  28   37176.9    269.0   0.011131661   0.09857  -0.26758  -0.15944  -0.03945
  29   37212.0    268.7   0.002958170   0.02617   0.03081  -0.13312  -0.08661
  30   37323.2    267.9   0.000781848   0.00690   0.01444   0.07985   0.01768
  31   37418.5    267.2   0.267272087   2.35149   0.43358  -1.43171  -0.33721
  32   37708.2    265.2   0.001072556   0.00936   0.09424   0.00260  -0.02183
  33   38560.0    259.3   0.019705492   0.16824  -0.40355  -0.06808  -0.02740
  34   38870.9    257.3   0.019635921   0.16630   0.40112  -0.02593  -0.06882
  35   39146.0    255.5   0.030554733   0.25696   0.19466  -0.46125  -0.07948
  36   39382.7    253.9   0.005085241   0.04251   0.14441   0.05344   0.13711
  37   40309.1    248.1   0.017056181   0.13930  -0.32875   0.14883   0.09526

FINAL SINGLE POINT ENERGY     -5142.820130117670

DIPOLE MOMENT
-------------
                                X             Y             Z
Electronic contribution:     -9.59271     -32.37397      -0.81517
Nuclear contribution   :      9.92018      29.62600      -1.61446
                        -----------------------------------------
Total Dipole Moment    :      0.32747      -2.74797      -2.42963
                        -----------------------------------------
Magnitude (a.u.)       :      3.68262
Magnitude (Debye)      :      9.36047

Rotational constants in cm-1:     0.002315     0.000313     0.000291
Rotational constants in MHz :    69.399044     9.387044     8.735763

                             ****ORCA TERMINATED NORMALLY****
TOTAL RUN TIME: 0 days 0 hours 6 minutes 48 seconds 450 msec
