                         Program Version 4.2.0 -  RELEASE  -
|  1> # ORCA input file
|  2> # SCF done       -185.038126945881          0.000757027302
|  3> ! CAM-B3LYP def2-SVP def2/J RIJCOSX Grid4 TightSCF
|  4> %maxcore 5000
|  5> %tddft
|  6>     Mode sTDDFT
|  7>     Ethresh 5.0
|  8>     maxcore 5000
|  9> end
| 10>
| 11> %pal
| 12>   nprocs 6
| 13>   end
| 14> * xyz 0 1
| 15>    C       -1.05031        -1.64866        -2.97581
| 16>    N        0.11712        -1.25255        -3.38428
| 17>    O        0.42905        -0.13361        -2.72199
| 18>    C       -0.56992         0.19132        -1.86690
| 19>    C       -0.37237         1.38903        -1.07434
| 20>    O       -1.14109         1.83875        -0.26125
| 21>    C       -1.57779        -0.76897        -1.98517
| 22>    C       -2.83515        -0.91032        -1.33025
| 23>    C       -3.42253        -0.10702        -0.37457
| 24>    C       -4.67344        -0.59155         0.01303
| 25>    C       -5.03473        -1.77563        -0.65572
| 26>    S       -3.84394        -2.29090        -1.75697
| 27>    C       -6.31280        -2.18590        -0.19953
| 28>    C       -6.76320        -1.26040         0.75480
| 29>    C       -5.74578        -0.22998         0.92496
| 30>    C       -5.80396         0.83530         1.77264
| 31>    C       -6.91910         1.05287         2.61118
| 32>    N       -7.82561         1.22542         3.29151
| 33>    C       -4.77391         1.79448         1.89091
| 34>    N       -3.95980         2.59075         2.01618
| 35>    C       -8.02225        -1.57577         1.26346
| 36>    C       -8.52893        -2.73642         0.70653
| 37>    S       -7.43340        -3.44871        -0.46708
| 38>    C       -9.77367        -3.35378         0.98895
| 39>    C      -10.25975        -4.54738         0.48747
| 40>    C      -11.52447        -4.84801         0.99278
| 41>    C      -12.00455        -3.86914         1.88113
| 42>    S      -10.89955        -2.58602         2.10019
| 43>    C      -13.28674        -4.26199         2.33565
| 44>    C      -13.61707        -5.49283         1.74208
| 45>    C      -12.52045        -5.90025         0.87578
| 46>    C      -12.44643        -7.02931         0.11439
| 47>    C      -13.48661        -7.98202         0.08520
| 48>    N      -14.33373        -8.75424         0.06094
| 49>    C      -11.32593        -7.31572        -0.69381
| 50>    N      -10.41420        -7.54766        -1.34905
| 51>    C      -14.86771        -5.96587         2.13190
| 52>    C      -15.50098        -5.10395         3.01172
| 53>    S      -14.51920        -3.68363         3.36370
| 54>    C      -16.78479        -5.25773         3.60880
| 55>    C      -17.35947        -4.28518         4.39639
| 56>    C      -18.61020        -4.38527         4.99489
| 57>    C      -19.43446        -5.58397         4.83774
| 58>    C      -19.06980        -6.66219         4.10784
| 59>    S      -17.58497        -6.78260         3.26112
| 60>    C      -20.61881        -5.32713         5.58094
| 61>    C      -20.55994        -4.05650         6.16027
| 62>    C      -21.72578        -3.77207         6.90763
| 63>    C      -22.60817        -4.80516         6.87225
| 64>    S      -22.07519        -6.16101         5.94032
| 65>    C      -19.30080        -3.44582         5.79838
| 66>    C      -18.81854        -2.17069         6.13346
| 67>    C      -19.49326        -1.23114         6.86579
| 68>    C      -18.94999         0.03136         7.13701
| 69>    C      -19.59359         1.01922         7.84559
| 70>    C      -19.09055         2.34176         8.13882
| 71>    C      -17.87219         2.86683         7.77985
| 72>    C      -17.44761         4.17207         8.10030
| 73>    N      -17.04029         5.22150         8.32749
| 74>    C      -16.87304         2.19719         7.04582
| 75>    N      -16.01081         1.72343         6.45167
| 76>    C      -20.11923         3.05099         8.89598
| 77>    C      -21.22909         2.18947         9.07116
| 78>    C      -20.94474         0.89005         8.42918
| 79>    O      -21.69020        -0.07110         8.40292
| 80>    C      -22.36522         2.56937         9.74197
| 81>    C      -22.41079         3.86538        10.26674
| 82>    C      -21.29740         4.71918        10.08848
| 83>    C      -20.14727         4.33358         9.41005
| 84>    S      -21.56351         6.27607        10.81412
| 85>    C      -23.14573         5.76464        11.33856
| 86>    C      -23.46057         4.49467        10.99049
| 87>   Br      -24.23384         6.95620        12.29560
| 88>    H       -1.49922        -2.53463        -3.37799
| 89>    H        0.59543         1.87151        -1.29586
| 90>    H       -2.94956         0.78064         0.00710
| 91>    H       -8.55542        -1.00434         2.00182
| 92>    H       -9.70758        -5.15590        -0.20615
| 93>    H      -15.30953        -6.88644         1.79543
| 94>    H      -16.78378        -3.38103         4.54536
| 95>    H      -19.69757        -7.53275         4.00255
| 96>    H      -21.92621        -2.86665         7.44974
| 97>    H      -23.56766        -4.86064         7.34807
| 98>    H      -17.83222        -1.91040         5.76743
| 99>    H      -20.47763        -1.44411         7.24345
|100>    H      -17.95906         0.23211         6.75084
|101>    H      -23.19421         1.88878         9.85767
|102>    H      -19.32710         5.02315         9.30174
|103>    H      -24.39383         4.01975        11.23240
|104> *
|105>
|106>                          ****END OF INPUT****

CARTESIAN COORDINATES (ANGSTROEM)
---------------------------------
  C     -1.050310   -1.648660   -2.975810
  N      0.117120   -1.252550   -3.384280
  O      0.429050   -0.133610   -2.721990
  C     -0.569920    0.191320   -1.866900
  C     -0.372370    1.389030   -1.074340
  O     -1.141090    1.838750   -0.261250
  C     -1.577790   -0.768970   -1.985170
  C     -2.835150   -0.910320   -1.330250
  C     -3.422530   -0.107020   -0.374570
  C     -4.673440   -0.591550    0.013030
  C     -5.034730   -1.775630   -0.655720
  S     -3.843940   -2.290900   -1.756970
  C     -6.312800   -2.185900   -0.199530
  C     -6.763200   -1.260400    0.754800
  C     -5.745780   -0.229980    0.924960
  C     -5.803960    0.835300    1.772640
  C     -6.919100    1.052870    2.611180
  N     -7.825610    1.225420    3.291510
  C     -4.773910    1.794480    1.890910
  N     -3.959800    2.590750    2.016180
  C     -8.022250   -1.575770    1.263460
  C     -8.528930   -2.736420    0.706530
  S     -7.433400   -3.448710   -0.467080
  C     -9.773670   -3.353780    0.988950
  C    -10.259750   -4.547380    0.487470
  C    -11.524470   -4.848010    0.992780
  C    -12.004550   -3.869140    1.881130
  S    -10.899550   -2.586020    2.100190
  C    -13.286740   -4.261990    2.335650
  C    -13.617070   -5.492830    1.742080
  C    -12.520450   -5.900250    0.875780
  C    -12.446430   -7.029310    0.114390
  C    -13.486610   -7.982020    0.085200
  N    -14.333730   -8.754240    0.060940
  C    -11.325930   -7.315720   -0.693810
  N    -10.414200   -7.547660   -1.349050
  C    -14.867710   -5.965870    2.131900
  C    -15.500980   -5.103950    3.011720
  S    -14.519200   -3.683630    3.363700
  C    -16.784790   -5.257730    3.608800
  C    -17.359470   -4.285180    4.396390
  C    -18.610200   -4.385270    4.994890
  C    -19.434460   -5.583970    4.837740
  C    -19.069800   -6.662190    4.107840
  S    -17.584970   -6.782600    3.261120
  C    -20.618810   -5.327130    5.580940
  C    -20.559940   -4.056500    6.160270
  C    -21.725780   -3.772070    6.907630
  C    -22.608170   -4.805160    6.872250
  S    -22.075190   -6.161010    5.940320
  C    -19.300800   -3.445820    5.798380
  C    -18.818540   -2.170690    6.133460
  C    -19.493260   -1.231140    6.865790
  C    -18.949990    0.031360    7.137010
  C    -19.593590    1.019220    7.845590
  C    -19.090550    2.341760    8.138820
  C    -17.872190    2.866830    7.779850
  C    -17.447610    4.172070    8.100300
  N    -17.040290    5.221500    8.327490
  C    -16.873040    2.197190    7.045820
  N    -16.010810    1.723430    6.451670
  C    -20.119230    3.050990    8.895980
  C    -21.229090    2.189470    9.071160
  C    -20.944740    0.890050    8.429180
  O    -21.690200   -0.071100    8.402920
  C    -22.365220    2.569370    9.741970
  C    -22.410790    3.865380   10.266740
  C    -21.297400    4.719180   10.088480
  C    -20.147270    4.333580    9.410050
  S    -21.563510    6.276070   10.814120
  C    -23.145730    5.764640   11.338560
  C    -23.460570    4.494670   10.990490
  Br   -24.233840    6.956200   12.295600
  H     -1.499220   -2.534630   -3.377990
  H      0.595430    1.871510   -1.295860
  H     -2.949560    0.780640    0.007100
  H     -8.555420   -1.004340    2.001820
  H     -9.707580   -5.155900   -0.206150
  H    -15.309530   -6.886440    1.795430
  H    -16.783780   -3.381030    4.545360
  H    -19.697570   -7.532750    4.002550
  H    -21.926210   -2.866650    7.449740
  H    -23.567660   -4.860640    7.348070
  H    -17.832220   -1.910400    5.767430
  H    -20.477630   -1.444110    7.243450
  H    -17.959060    0.232110    6.750840
  H    -23.194210    1.888780    9.857670
  H    -19.327100    5.023150    9.301740
  H    -24.393830    4.019750   11.232400

 Total Charge           Charge          ....    0
 Multiplicity           Mult            ....    1
 Number of Electrons    NEL             ....  566
 Basis Dimension        Dim             .... 1148

ORBITAL ENERGIES
----------------

  NO   OCC          E(Eh)            E(eV)
   0   2.0000    -482.880553    -13139.8479
   1   2.0000     -89.003052     -2421.8962
   2   2.0000     -89.001281     -2421.8480
   3   2.0000     -88.999447     -2421.7981
   4   2.0000     -88.997826     -2421.7540
   5   2.0000     -88.995901     -2421.7016
   6   2.0000     -88.968849     -2420.9655
   7   2.0000     -88.964207     -2420.8391
   8   2.0000     -62.558232     -1702.2960
   9   2.0000     -56.392175     -1534.5091
  10   2.0000     -56.389476     -1534.4356
  11   2.0000     -56.389439     -1534.4346
  12   2.0000     -19.334057      -526.1064
  13   2.0000     -19.236123      -523.4415
  14   2.0000     -19.207023      -522.6497
  15   2.0000     -14.484535      -394.1442
  16   2.0000     -14.440716      -392.9519
  17   2.0000     -14.440636      -392.9497
  18   2.0000     -14.434224      -392.7752
  19   2.0000     -14.429591      -392.6491
  20   2.0000     -14.406817      -392.0294
  21   2.0000     -14.403570      -391.9411
  22   2.0000     -10.381764      -282.5022
  23   2.0000     -10.375887      -282.3422
  24   2.0000     -10.369905      -282.1794
  25   2.0000     -10.362858      -281.9877
  26   2.0000     -10.357292      -281.8363
  27   2.0000     -10.356971      -281.8275
  28   2.0000     -10.355557      -281.7890
  29   2.0000     -10.352537      -281.7068
  30   2.0000     -10.350260      -281.6449
  31   2.0000     -10.345417      -281.5131
  32   2.0000     -10.343794      -281.4689
  33   2.0000     -10.342319      -281.4288
  34   2.0000     -10.341565      -281.4083
  35   2.0000     -10.340826      -281.3882
  36   2.0000     -10.340705      -281.3849
  37   2.0000     -10.340623      -281.3826
  38   2.0000     -10.340270      -281.3731
  39   2.0000     -10.339043      -281.3397
  40   2.0000     -10.338985      -281.3381
  41   2.0000     -10.334168      -281.2070
  42   2.0000     -10.333555      -281.1903
  43   2.0000     -10.330026      -281.0943
  44   2.0000     -10.329656      -281.0842
  45   2.0000     -10.328329      -281.0481
  46   2.0000     -10.328320      -281.0479
  47   2.0000     -10.328301      -281.0474
  48   2.0000     -10.317651      -280.7576
  49   2.0000     -10.315379      -280.6957
  50   2.0000     -10.315112      -280.6885
  51   2.0000     -10.315056      -280.6870
  52   2.0000     -10.314604      -280.6747
  53   2.0000     -10.314229      -280.6644
  54   2.0000     -10.312804      -280.6257
  55   2.0000     -10.312092      -280.6063
  56   2.0000     -10.310759      -280.5700
  57   2.0000     -10.310299      -280.5575
  58   2.0000     -10.309039      -280.5232
  59   2.0000     -10.307594      -280.4839
  60   2.0000     -10.307467      -280.4804
  61   2.0000     -10.302673      -280.3500
  62   2.0000     -10.302179      -280.3365
  63   2.0000     -10.301671      -280.3227
  64   2.0000     -10.300518      -280.2914
  65   2.0000     -10.299818      -280.2723
  66   2.0000     -10.298810      -280.2449
  67   2.0000     -10.297100      -280.1983
  68   2.0000     -10.296858      -280.1917
  69   2.0000     -10.292892      -280.0838
  70   2.0000     -10.290539      -280.0198
  71   2.0000     -10.288442      -279.9627
  72   2.0000     -10.285152      -279.8732
  73   2.0000     -10.282874      -279.8112
  74   2.0000     -10.281340      -279.7695
  75   2.0000     -10.278340      -279.6878
  76   2.0000     -10.270353      -279.4705
  77   2.0000      -8.787644      -239.1239
  78   2.0000      -8.097261      -220.3377
  79   2.0000      -8.095568      -220.2916
  80   2.0000      -8.093812      -220.2438
  81   2.0000      -8.092528      -220.2089
  82   2.0000      -8.091029      -220.1681
  83   2.0000      -8.064803      -219.4544
  84   2.0000      -8.059739      -219.3166
  85   2.0000      -6.623885      -180.2451
  86   2.0000      -6.609398      -179.8509
  87   2.0000      -6.609221      -179.8460
  88   2.0000      -6.066555      -165.0794
  89   2.0000      -6.064874      -165.0336
  90   2.0000      -6.063140      -164.9864
  91   2.0000      -6.062404      -164.9664
  92   2.0000      -6.061778      -164.9494
  93   2.0000      -6.060669      -164.9192
  94   2.0000      -6.060573      -164.9166
  95   2.0000      -6.059540      -164.8885
  96   2.0000      -6.058958      -164.8726
  97   2.0000      -6.057871      -164.8431
  98   2.0000      -6.057601      -164.8357
  99   2.0000      -6.056052      -164.7936
 100   2.0000      -6.055965      -164.7912
 101   2.0000      -6.054891      -164.7620
 102   2.0000      -6.053008      -164.7107
 103   2.0000      -6.034502      -164.2072
 104   2.0000      -6.030222      -164.0907
 105   2.0000      -6.029161      -164.0618
 106   2.0000      -6.026042      -163.9769
 107   2.0000      -6.024874      -163.9452
 108   2.0000      -6.021812      -163.8618
 109   2.0000      -2.739797       -74.5537
 110   2.0000      -2.735676       -74.4415
 111   2.0000      -2.735560       -74.4384
 112   2.0000      -2.724032       -74.1247
 113   2.0000      -2.724022       -74.1244
 114   2.0000      -1.275792       -34.7161
 115   2.0000      -1.148639       -31.2560
 116   2.0000      -1.120056       -30.4783
 117   2.0000      -1.056920       -28.7603
 118   2.0000      -1.050961       -28.5981
 119   2.0000      -1.032837       -28.1049
 120   2.0000      -1.025236       -27.8981
 121   2.0000      -1.022801       -27.8318
 122   2.0000      -1.018220       -27.7072
 123   2.0000      -1.014462       -27.6049
 124   2.0000      -1.014191       -27.5976
 125   2.0000      -1.008595       -27.4453
 126   2.0000      -1.004377       -27.3305
 127   2.0000      -1.003697       -27.3120
 128   2.0000      -0.986476       -26.8434
 129   2.0000      -0.984438       -26.7879
 130   2.0000      -0.981541       -26.7091
 131   2.0000      -0.979599       -26.6562
 132   2.0000      -0.969551       -26.3828
 133   2.0000      -0.962254       -26.1843
 134   2.0000      -0.942943       -25.6588
 135   2.0000      -0.935507       -25.4564
 136   2.0000      -0.934583       -25.4313
 137   2.0000      -0.927300       -25.2331
 138   2.0000      -0.911748       -24.8099
 139   2.0000      -0.906633       -24.6707
 140   2.0000      -0.899902       -24.4876
 141   2.0000      -0.898115       -24.4390
 142   2.0000      -0.881844       -23.9962
 143   2.0000      -0.878075       -23.8936
 144   2.0000      -0.876865       -23.8607
 145   2.0000      -0.875215       -23.8158
 146   2.0000      -0.868405       -23.6305
 147   2.0000      -0.859796       -23.3962
 148   2.0000      -0.854158       -23.2428
 149   2.0000      -0.845334       -23.0027
 150   2.0000      -0.830264       -22.5926
 151   2.0000      -0.822609       -22.3843
 152   2.0000      -0.820984       -22.3401
 153   2.0000      -0.804504       -21.8917
 154   2.0000      -0.797291       -21.6954
 155   2.0000      -0.787981       -21.4420
 156   2.0000      -0.781002       -21.2521
 157   2.0000      -0.773590       -21.0504
 158   2.0000      -0.762664       -20.7531
 159   2.0000      -0.750698       -20.4275
 160   2.0000      -0.748660       -20.3721
 161   2.0000      -0.731508       -19.9054
 162   2.0000      -0.727662       -19.8007
 163   2.0000      -0.721470       -19.6322
 164   2.0000      -0.713698       -19.4207
 165   2.0000      -0.705492       -19.1974
 166   2.0000      -0.699003       -19.0209
 167   2.0000      -0.692256       -18.8372
 168   2.0000      -0.689469       -18.7614
 169   2.0000      -0.683353       -18.5950
 170   2.0000      -0.682346       -18.5676
 171   2.0000      -0.671261       -18.2660
 172   2.0000      -0.665410       -18.1067
 173   2.0000      -0.664535       -18.0829
 174   2.0000      -0.652986       -17.7687
 175   2.0000      -0.649379       -17.6705
 176   2.0000      -0.646934       -17.6040
 177   2.0000      -0.638280       -17.3685
 178   2.0000      -0.633663       -17.2429
 179   2.0000      -0.632005       -17.1977
 180   2.0000      -0.629370       -17.1260
 181   2.0000      -0.627421       -17.0730
 182   2.0000      -0.620254       -16.8780
 183   2.0000      -0.615025       -16.7357
 184   2.0000      -0.613526       -16.6949
 185   2.0000      -0.600707       -16.3461
 186   2.0000      -0.598064       -16.2741
 187   2.0000      -0.597008       -16.2454
 188   2.0000      -0.588276       -16.0078
 189   2.0000      -0.585022       -15.9192
 190   2.0000      -0.579172       -15.7601
 191   2.0000      -0.574730       -15.6392
 192   2.0000      -0.570283       -15.5182
 193   2.0000      -0.560076       -15.2404
 194   2.0000      -0.559622       -15.2281
 195   2.0000      -0.555972       -15.1288
 196   2.0000      -0.552575       -15.0363
 197   2.0000      -0.548065       -14.9136
 198   2.0000      -0.544477       -14.8160
 199   2.0000      -0.540440       -14.7061
 200   2.0000      -0.533942       -14.5293
 201   2.0000      -0.531175       -14.4540
 202   2.0000      -0.530483       -14.4352
 203   2.0000      -0.528536       -14.3822
 204   2.0000      -0.528025       -14.3683
 205   2.0000      -0.526105       -14.3161
 206   2.0000      -0.524415       -14.2701
 207   2.0000      -0.518032       -14.0964
 208   2.0000      -0.517158       -14.0726
 209   2.0000      -0.514800       -14.0084
 210   2.0000      -0.510523       -13.8920
 211   2.0000      -0.507140       -13.8000
 212   2.0000      -0.506474       -13.7819
 213   2.0000      -0.505668       -13.7599
 214   2.0000      -0.502173       -13.6648
 215   2.0000      -0.500925       -13.6309
 216   2.0000      -0.500272       -13.6131
 217   2.0000      -0.497244       -13.5307
 218   2.0000      -0.495364       -13.4795
 219   2.0000      -0.493392       -13.4259
 220   2.0000      -0.491920       -13.3858
 221   2.0000      -0.489209       -13.3120
 222   2.0000      -0.487231       -13.2582
 223   2.0000      -0.484203       -13.1758
 224   2.0000      -0.482788       -13.1373
 225   2.0000      -0.478612       -13.0237
 226   2.0000      -0.471478       -12.8296
 227   2.0000      -0.470668       -12.8075
 228   2.0000      -0.470341       -12.7986
 229   2.0000      -0.467269       -12.7150
 230   2.0000      -0.464106       -12.6290
 231   2.0000      -0.463548       -12.6138
 232   2.0000      -0.458969       -12.4892
 233   2.0000      -0.457748       -12.4559
 234   2.0000      -0.456664       -12.4265
 235   2.0000      -0.452194       -12.3048
 236   2.0000      -0.450824       -12.2676
 237   2.0000      -0.450707       -12.2644
 238   2.0000      -0.450486       -12.2583
 239   2.0000      -0.448571       -12.2062
 240   2.0000      -0.445840       -12.1319
 241   2.0000      -0.442479       -12.0405
 242   2.0000      -0.442041       -12.0285
 243   2.0000      -0.441781       -12.0215
 244   2.0000      -0.440843       -11.9960
 245   2.0000      -0.440629       -11.9901
 246   2.0000      -0.439939       -11.9713
 247   2.0000      -0.437608       -11.9079
 248   2.0000      -0.435925       -11.8621
 249   2.0000      -0.434152       -11.8139
 250   2.0000      -0.431890       -11.7523
 251   2.0000      -0.430635       -11.7182
 252   2.0000      -0.427096       -11.6219
 253   2.0000      -0.423902       -11.5350
 254   2.0000      -0.423461       -11.5230
 255   2.0000      -0.417828       -11.3697
 256   2.0000      -0.414031       -11.2664
 257   2.0000      -0.411634       -11.2011
 258   2.0000      -0.408104       -11.1051
 259   2.0000      -0.405612       -11.0373
 260   2.0000      -0.398071       -10.8321
 261   2.0000      -0.397944       -10.8286
 262   2.0000      -0.392093       -10.6694
 263   2.0000      -0.389843       -10.6082
 264   2.0000      -0.379212       -10.3189
 265   2.0000      -0.375242       -10.2109
 266   2.0000      -0.369965       -10.0672
 267   2.0000      -0.362542        -9.8653
 268   2.0000      -0.359831        -9.7915
 269   2.0000      -0.356385        -9.6977
 270   2.0000      -0.356093        -9.6898
 271   2.0000      -0.347173        -9.4470
 272   2.0000      -0.341399        -9.2900
 273   2.0000      -0.332450        -9.0464
 274   2.0000      -0.327492        -8.9115
 275   2.0000      -0.326413        -8.8821
 276   2.0000      -0.310232        -8.4418
 277   2.0000      -0.308063        -8.3828
 278   2.0000      -0.307422        -8.3654
 279   2.0000      -0.287294        -7.8177
 280   2.0000      -0.284069        -7.7299
 281   2.0000      -0.259878        -7.0716
 282   2.0000      -0.237144        -6.4530
 283   0.0000      -0.118896        -3.2353
 284   0.0000      -0.109331        -2.9750
 285   0.0000      -0.096385        -2.6228
 286   0.0000      -0.066703        -1.8151
 287   0.0000      -0.060694        -1.6516

MULLIKEN ATOMIC CHARGES
-----------------------
   0 C :   -0.010542
   1 N :    0.048982
   2 O :   -0.168528
   3 C :    0.059104
   4 C :    0.164402
   5 O :   -0.153516
   6 C :    0.005597
   7 C :   -0.059342
   8 C :   -0.047250
   9 C :    0.008532
  10 C :   -0.092129
  11 S :    0.171645
  12 C :   -0.099026
  13 C :    0.024079
  14 C :    0.302660
  15 C :   -0.294430
  16 C :   -0.190440
  17 N :    0.172690
  18 C :   -0.193885
  19 N :    0.201919
  20 C :   -0.072380
  21 C :   -0.046312
  22 S :    0.196805
  23 C :   -0.047742
  24 C :   -0.071205
  25 C :    0.021047
  26 C :   -0.097891
  27 S :    0.208087
  28 C :   -0.090729
  29 C :    0.014567
  30 C :    0.299082
  31 C :   -0.293600
  32 C :   -0.185237
  33 N :    0.175778
  34 C :   -0.187027
  35 N :    0.173750
  36 C :   -0.047396
  37 C :   -0.070883
  38 S :    0.187848
  39 C :   -0.014130
  40 C :   -0.096011
  41 C :    0.076254
  42 C :    0.058701
  43 C :   -0.115773
  44 S :    0.151213
  45 C :   -0.115603
  46 C :    0.057774
  47 C :   -0.010142
  48 C :   -0.063314
  49 S :    0.132921
  50 C :    0.100792
  51 C :    0.000409
  52 C :   -0.017910
  53 C :   -0.022675
  54 C :   -0.085661
  55 C :    0.338761
  56 C :   -0.367628
  57 C :   -0.186084
  58 N :    0.142674
  59 C :   -0.186068
  60 N :    0.129048
  61 C :    0.011362
  62 C :   -0.003686
  63 C :    0.143879
  64 O :   -0.169760
  65 C :   -0.081490
  66 C :    0.121020
  67 C :   -0.089357
  68 C :   -0.028614
  69 S :    0.182530
  70 C :   -0.123988
  71 C :    0.037727
  72 Br:    0.017830
  73 H :    0.027611
  74 H :    0.013730
  75 H :    0.022974
  76 H :    0.015409
  77 H :    0.012851
  78 H :    0.022299
  79 H :   -0.000152
  80 H :    0.044692
  81 H :    0.017857
  82 H :    0.029396
  83 H :   -0.020225
  84 H :    0.002546
  85 H :   -0.002673
  86 H :   -0.014865
  87 H :   -0.007596
  88 H :   -0.005938
Sum of atomic charges:   -0.0000000

LOEWDIN ATOMIC CHARGES
----------------------
   0 C :   -0.032571
   1 N :    0.001917
   2 O :    0.036203
   3 C :   -0.024376
   4 C :    0.100694
   5 O :   -0.110732
   6 C :   -0.064593
   7 C :   -0.170847
   8 C :   -0.008056
   9 C :   -0.072018
  10 C :   -0.172843
  11 S :    0.473758
  12 C :   -0.183977
  13 C :   -0.060397
  14 C :    0.076437
  15 C :   -0.091408
  16 C :   -0.014774
  17 N :   -0.029701
  18 C :   -0.024660
  19 N :   -0.010768
  20 C :   -0.037708
  21 C :   -0.178986
  22 S :    0.483445
  23 C :   -0.175447
  24 C :   -0.038855
  25 C :   -0.064811
  26 C :   -0.182226
  27 S :    0.494247
  28 C :   -0.171931
  29 C :   -0.069749
  30 C :    0.081975
  31 C :   -0.098452
  32 C :   -0.016431
  33 N :   -0.029506
  34 C :   -0.016068
  35 N :   -0.030027
  36 C :   -0.032909
  37 C :   -0.185742
  38 S :    0.489804
  39 C :   -0.168417
  40 C :   -0.034670
  41 C :    0.007621
  42 C :   -0.046303
  43 C :   -0.137208
  44 S :    0.482064
  45 C :   -0.203443
  46 C :   -0.031409
  47 C :   -0.058717
  48 C :   -0.159046
  49 S :    0.427417
  50 C :   -0.058877
  51 C :    0.038091
  52 C :   -0.050033
  53 C :    0.067433
  54 C :   -0.112296
  55 C :    0.076683
  56 C :   -0.153118
  57 C :   -0.018961
  58 N :   -0.063636
  59 C :   -0.017543
  60 N :   -0.067974
  61 C :   -0.019362
  62 C :   -0.048998
  63 C :    0.085659
  64 O :   -0.162135
  65 C :    0.018116
  66 C :   -0.034732
  67 C :   -0.145000
  68 C :   -0.011774
  69 S :    0.429546
  70 C :   -0.273435
  71 C :   -0.071120
  72 Br:    0.132359
  73 H :    0.031090
  74 H :    0.013438
  75 H :    0.040239
  76 H :    0.036377
  77 H :    0.036239
  78 H :    0.035753
  79 H :    0.029230
  80 H :    0.040484
  81 H :    0.039638
  82 H :    0.025994
  83 H :    0.030758
  84 H :    0.029922
  85 H :    0.038851
  86 H :    0.038967
  87 H :    0.040574
  88 H :    0.037753

  Mayer bond orders larger than 0.100000
B(  0-C ,  1-N ) :   1.7331 B(  0-C ,  6-C ) :   1.1948 B(  0-C , 73-H ) :   0.9836
B(  1-N ,  2-O ) :   1.0513 B(  2-O ,  3-C ) :   1.1123 B(  3-C ,  4-C ) :   1.0189
B(  3-C ,  6-C ) :   1.4617 B(  4-C ,  5-O ) :   2.1213 B(  4-C , 74-H ) :   0.9475
B(  6-C ,  7-C ) :   1.1117 B(  7-C ,  8-C ) :   1.4865 B(  7-C , 11-S ) :   1.0883
B(  8-C ,  9-C ) :   1.2578 B(  8-C , 75-H ) :   0.9755 B(  9-C , 10-C ) :   1.4364
B(  9-C , 14-C ) :   0.9939 B( 10-C , 11-S ) :   1.1340 B( 10-C , 12-C ) :   1.1870
B( 12-C , 13-C ) :   1.4501 B( 12-C , 22-S ) :   1.1143 B( 13-C , 14-C ) :   0.9905
B( 13-C , 20-C ) :   1.3035 B( 14-C , 15-C ) :   1.7195 B( 15-C , 16-C ) :   1.1352
B( 15-C , 18-C ) :   1.1335 B( 16-C , 17-N ) :   2.9866 B( 18-C , 19-N ) :   3.0032
B( 20-C , 21-C ) :   1.4548 B( 20-C , 76-H ) :   0.9858 B( 21-C , 22-S ) :   1.1109
B( 21-C , 23-C ) :   1.1675 B( 23-C , 24-C ) :   1.4568 B( 23-C , 27-S ) :   1.1123
B( 24-C , 25-C ) :   1.3023 B( 24-C , 77-H ) :   0.9874 B( 25-C , 26-C ) :   1.4396
B( 25-C , 30-C ) :   0.9950 B( 26-C , 27-S ) :   1.1210 B( 26-C , 28-C ) :   1.1892
B( 28-C , 29-C ) :   1.4402 B( 28-C , 38-S ) :   1.1333 B( 29-C , 30-C ) :   0.9968
B( 29-C , 36-C ) :   1.3098 B( 30-C , 31-C ) :   1.7162 B( 31-C , 32-C ) :   1.1311
B( 31-C , 34-C ) :   1.1337 B( 32-C , 33-N ) :   2.9909 B( 34-C , 35-N ) :   2.9911
B( 36-C , 37-C ) :   1.4509 B( 36-C , 78-H ) :   0.9790 B( 37-C , 38-S ) :   1.1030
B( 37-C , 39-C ) :   1.1681 B( 39-C , 40-C ) :   1.4977 B( 39-C , 44-S ) :   1.0799
B( 40-C , 41-C ) :   1.2816 B( 40-C , 79-H ) :   0.9593 B( 41-C , 42-C ) :   1.0632
B( 41-C , 50-C ) :   1.3221 B( 42-C , 43-C ) :   1.5960 B( 42-C , 45-C ) :   1.1762
B( 43-C , 44-S ) :   1.1450 B( 43-C , 80-H ) :   0.9391 B( 45-C , 46-C ) :   1.4536
B( 45-C , 49-S ) :   1.0828 B( 46-C , 47-C ) :   1.2236 B( 46-C , 50-C ) :   1.0685
B( 47-C , 48-C ) :   1.5857 B( 47-C , 81-H ) :   0.9962 B( 48-C , 49-S ) :   1.1548
B( 48-C , 82-H ) :   0.9621 B( 50-C , 51-C ) :   1.1916 B( 51-C , 52-C ) :   1.4638
B( 51-C , 83-H ) :   0.9750 B( 52-C , 53-C ) :   1.2210 B( 52-C , 84-H ) :   0.9945
B( 53-C , 54-C ) :   1.4571 B( 53-C , 85-H ) :   0.9644 B( 54-C , 55-C ) :   1.0902
B( 54-C , 63-C ) :   0.9678 B( 55-C , 56-C ) :   1.5980 B( 55-C , 61-C ) :   0.9929
B( 56-C , 57-C ) :   1.1480 B( 56-C , 59-C ) :   1.1539 B( 57-C , 58-N ) :   2.9642
B( 59-C , 60-N ) :   2.9525 B( 61-C , 62-C ) :   1.2773 B( 61-C , 68-C ) :   1.4155
B( 62-C , 63-C ) :   0.9424 B( 62-C , 65-C ) :   1.4264 B( 63-C , 64-O ) :   2.1727
B( 65-C , 66-C ) :   1.2404 B( 65-C , 86-H ) :   1.0165 B( 66-C , 67-C ) :   1.3115
B( 66-C , 71-C ) :   1.1604 B( 67-C , 68-C ) :   1.3252 B( 67-C , 69-S ) :   1.0842
B( 68-C , 87-H ) :   0.9788 B( 69-S , 70-C ) :   1.0868 B( 70-C , 71-C ) :   1.6196
B( 70-C , 72-Br) :   1.0161 B( 71-C , 88-H ) :   1.0003

-----------------------------------------------------------------------------
         ABSORPTION SPECTRUM VIA TRANSITION ELECTRIC DIPOLE MOMENTS
-----------------------------------------------------------------------------
State   Energy  Wavelength   fosc         T2         TX        TY        TZ
        (cm-1)    (nm)                  (au**2)     (au)      (au)      (au)
-----------------------------------------------------------------------------
   0   10486.7    953.6   0.309893185   9.72856  -2.75704   0.23503   1.43946
   1   13100.1    763.4   0.159326121   4.00394   1.83444   0.29071  -0.74448
   2   15512.9    644.6   1.002740288  21.27995  -1.85906   3.43822   2.44999
   3   16600.9    602.4   0.110400464   2.18934   1.20374  -0.40604  -0.75862
   4   20335.1    491.8   0.042863776   0.69394  -0.64703  -0.51744   0.08689
   5   22620.0    442.1   1.164642125  16.95024   2.93849   2.87798  -0.18088
   6   22876.3    437.1   0.041793068   0.60144  -0.03596   0.71952   0.28711
   7   23016.4    434.5   0.082036775   1.17340  -0.99378  -0.23643   0.36042
   8   24541.6    407.5   0.195800908   2.62656   1.11256  -0.76044  -0.90028
   9   25226.2    396.4   0.539100441   7.03547   2.36192   1.04303  -0.60737
  10   26172.5    382.1   0.253209505   3.18500   1.53328   0.83135  -0.37804
  11   26447.5    378.1   0.036887964   0.45917  -0.58523  -0.31647   0.12857
  12   26728.9    374.1   0.208484527   2.56784   1.10431  -0.78490  -0.85574
  13   27556.3    362.9   0.019136748   0.22862   0.07383   0.45798   0.11587
  14   27713.4    360.8   0.024544428   0.29157  -0.41270   0.19842   0.28614
  15   28561.0    350.1   0.000009197   0.00011  -0.00574   0.00743   0.00423
  16   29209.2    342.4   0.249004955   2.80649   0.67158  -1.26107  -0.87475
  17   29941.3    334.0   0.037876475   0.41646  -0.55939  -0.29701   0.12382
  18   30296.8    330.1   0.267742996   2.90936   0.46830   1.51925   0.61801
  19   30403.5    328.9   0.052566529   0.56919  -0.63825  -0.38773  -0.10722
  20   30932.7    323.3   0.145854921   1.55231   0.15499  -0.89960  -0.84794
  21   31305.9    319.4   0.461875454   4.85707   0.35592   1.91011   1.04013
  22   31386.7    318.6   0.200862706   2.10683  -0.92084   0.64485   0.91818
  23   31391.4    318.6   0.088531548   0.92846   0.60461  -0.42376  -0.61913
  24   32049.7    312.0   0.379043721   3.89350  -0.52188   1.42266   1.26380
  25   32261.6    310.0   0.000158059   0.00161  -0.03894   0.00981   0.00057
  26   32362.6    309.0   0.002097729   0.02134  -0.11358   0.07565  -0.05212
  27   32528.2    307.4   0.051551774   0.52175  -0.38803   0.27278   0.54477
  28   32615.0    306.6   0.151596271   1.53019   1.16109   0.08190  -0.41877
  29   32726.3    305.6   0.386015975   3.88315  -1.28751   1.02282   1.08596
  30   33071.8    302.4   0.259459418   2.58278   1.48943   0.11650  -0.59228
  31   33250.6    300.7   0.249402823   2.46932  -1.10539  -1.11396  -0.08074
  32   33671.1    297.0   0.028341109   0.27710   0.09825  -0.38661  -0.34348
  33   34066.8    293.5   0.036491355   0.35264   0.27517  -0.41849  -0.31904
  34   34357.6    291.1   0.312069920   2.99023   1.39226  -0.31651  -0.97553
  35   34746.9    287.8   0.089783958   0.85066  -0.83270   0.04654   0.39383
  36   35381.0    282.6   0.001822204   0.01696  -0.07727  -0.10350   0.01653
  37   35473.5    281.9   0.006301790   0.05848  -0.19625   0.02494   0.13910
  38   35883.2    278.7   0.043225586   0.39658   0.56918   0.12528  -0.23856
  39   36161.5    276.5   0.022565684   0.20544   0.36544  -0.10675  -0.24596
  40   36601.8    273.2   0.067690598   0.60884   0.49296  -0.38384  -0.46743
  41   36649.2    272.9   0.000256400   0.00230  -0.03033   0.02562   0.02696
  42   36691.5    272.5   0.010412414   0.09342   0.26244  -0.03095  -0.15360
  43   36876.4    271.2   0.000012531   0.00011  -0.01026   0.00230   0.00120
  44   37041.5    270.0   0.055349713   0.49193  -0.61692  -0.31156   0.11947
  45   37464.5    266.9   0.033323909   0.29283  -0.47624  -0.21209   0.14504
  46   37524.4    266.5   0.030670646   0.26908   0.46626   0.11085  -0.19848
  47   37592.2    266.0   0.007434766   0.06511   0.16187  -0.17230  -0.09602
  48   37784.7    264.7   0.060474152   0.52690  -0.16780   0.55580   0.43570
  49   37987.8    263.2   0.148748602   1.28909  -0.71715  -0.87960  -0.03314
  50   38103.6    262.4   0.103672738   0.89572   0.70537   0.62808  -0.06084
  51   38711.2    258.3   0.032121958   0.27317   0.45815   0.04266  -0.24790
  52   38851.7    257.4   0.029784146   0.25238  -0.17923   0.30888   0.35334
  53   39133.6    255.5   0.143963666   1.21110  -0.21782   0.92070   0.56211
  54   39801.1    251.2   0.120558928   0.99720   0.55782  -0.59155  -0.57974
  55   40111.9    249.3   0.122869567   1.00843  -0.75938  -0.61863   0.22151

FINAL SINGLE POINT ENERGY     -8071.218075210193

DIPOLE MOMENT
-------------
                                X             Y             Z
Electronic contribution:    -79.64322      77.73953      69.02304
Nuclear contribution   :     78.17287     -80.85707     -69.97302
                        -----------------------------------------
Total Dipole Moment    :     -1.47035      -3.11754      -0.94998
                        -----------------------------------------
Magnitude (a.u.)       :      3.57539
Magnitude (Debye)      :      9.08793

Rotational constants in cm-1:     0.000816     0.000198     0.000160
Rotational constants in MHz :    24.465762     5.940194     4.789298

                             ****ORCA TERMINATED NORMALLY****
TOTAL RUN TIME: 0 days 0 hours 9 minutes 26 seconds 892 msec
