                         Program Version 4.2.0 -  RELEASE  -
|  1> # ORCA input file
|  2> # SCF done       -198.761144903496          0.000896624403
|  3> ! CAM-B3LYP def2-SVP def2/J RIJCOSX Grid4 TightSCF
|  4> %maxcore 5000
|  5> %tddft
|  6>     Mode sTDDFT
|  7>     Ethresh 5.0
|  8>     maxcore 5000
|  9> end
| 10>
| 11> %pal
| 12>   nprocs 6
| 13>   end
| 14> * xyz 0 1
| 15>    C       -1.66303        -0.56141         3.51528
| 16>    C       -1.75439        -0.27571         2.15746
| 17>    C       -1.42602         1.02955         1.67045
| 18>    N       -1.52057         1.29478         0.34751
| 19>    C       -1.90990         0.33929        -0.44569
| 20>    C       -2.23124        -0.95179         0.03888
| 21>    N       -2.15702        -1.24996         1.30114
| 22>    C       -0.99813         2.06123         2.54767
| 23>    C       -0.91771         1.74899         3.92815
| 24>    C       -1.25230         0.43345         4.39716
| 25>    N       -1.17368         0.13090         5.71821
| 26>    C       -0.79098         1.06522         6.53550
| 27>    C       -0.46653         2.36355         6.07929
| 28>    N       -0.52935         2.68814         4.81977
| 29>    C       -0.68804         3.32738         1.96021
| 30>    C       -0.23369         4.43538         2.59487
| 31>    C        0.04627         5.66206         1.94032
| 32>    C       -0.08141         6.00554         0.60260
| 33>    C        0.29146         7.32474         0.35926
| 34>    C        0.71230         8.00207         1.51993
| 35>    S        0.64447         7.00836         2.90400
| 36>    C        1.05985         9.32909         1.16645
| 37>    C        0.85568         9.49499        -0.21444
| 38>    C        0.37304         8.23998        -0.76852
| 39>    C        0.06904         7.97827        -2.07212
| 40>    C        0.19476         8.95630        -3.08110
| 41>    N        0.29736         9.75019        -3.90201
| 42>    C       -0.38708         6.71428        -2.50156
| 43>    N       -0.75647         5.68967        -2.85947
| 44>    C        1.16326        10.77997        -0.65935
| 45>    C        1.60493        11.59227         0.36897
| 46>    S        1.63896        10.75248         1.91436
| 47>    C        2.00176        12.95000         0.28379
| 48>    C        2.51351        13.75071         1.28843
| 49>    C        2.79668        15.03930         0.83507
| 50>    C        2.49021        15.22014        -0.52458
| 51>    S        1.86290        13.80596        -1.24718
| 52>    C        2.81129        16.55069        -0.88851
| 53>    C        3.32862        17.21269         0.23814
| 54>    C        3.33415        16.28507         1.35937
| 55>    C        3.75566        16.53109         2.63305
| 56>    C        4.26390        17.78690         3.02630
| 57>    N        4.67822        18.80617         3.34944
| 58>    C        3.71187        15.54496         3.64085
| 59>    N        3.67601        14.74505         4.46145
| 60>    C        3.68215        18.53602        -0.02441
| 61>    C        3.43154        18.88711        -1.33904
| 62>    S        2.74983        17.55691        -2.26689
| 63>    C        3.66372        20.13439        -1.96855
| 64>    C        3.34459        20.48822        -3.26803
| 65>    C        3.72493        21.79529        -3.56043
| 66>    C        4.34571        22.44502        -2.47718
| 67>    S        4.44867        21.44433        -1.09541
| 68>    C        4.70893        23.75590        -2.87108
| 69>    C        4.30826        23.93334        -4.21050
| 70>    C        3.67620        22.71596        -4.68595
| 71>    C        3.14680        22.48089        -5.92131
| 72>    C        3.15074        23.45212        -6.94447
| 73>    N        3.14455        24.22881        -7.78816
| 74>    C        2.55636        21.24484        -6.25740
| 75>    N        2.07482        20.24002        -6.52942
| 76>    C        4.62825        25.19035        -4.70653
| 77>    C        5.27257        25.98038        -3.76528
| 78>    S        5.48722        25.14242        -2.23168
| 79>    C        5.75115        27.31248        -3.92530
| 80>    C        6.43664        27.93861        -2.85812
| 81>    C        6.99111        29.25508        -2.95833
| 82>    N        7.61436        29.78431        -1.88252
| 83>    C        7.71359        29.07634        -0.79484
| 84>    C        7.18572        27.77223        -0.70316
| 85>    N        6.56222        27.24079        -1.71535
| 86>    C        6.87718        29.99145        -4.15748
| 87>    C        6.15226        29.38649        -5.21355
| 88>    C        5.59383        28.07197        -5.11248
| 89>    N        4.91161        27.55411        -6.15545
| 90>    C        4.78751        28.25866        -7.24306
| 91>    C        5.34445        29.55091        -7.34683
| 92>    N        5.99754        30.09031        -6.36004
| 93>    C        7.43633        31.30384        -4.38717
| 94>    C        8.26797        31.97859        -3.59307
| 95>    H       -1.90690        -1.54409         3.88360
| 96>    H       -1.97791         0.57949        -1.49821
| 97>    H       -2.55299        -1.73766        -0.63147
| 98>    H       -0.73360         0.80677         7.58449
| 99>    H       -0.15407         3.14038         6.76481
|100>    H       -0.84474         3.35070         0.89056
|101>    H       -0.07057         4.40512         3.66181
|102>    H       -0.43191         5.32110        -0.14733
|103>    H        1.07832        11.12217        -1.67520
|104>    H        2.66914        13.39689         2.29188
|105>    H        4.09832        19.22248         0.69096
|106>    H        2.85867        19.81487        -3.95140
|107>    H        4.41855        25.54760        -5.69721
|108>    H        8.21505        29.54098         0.04345
|109>    H        7.26448        27.17712         0.19549
|110>    H        4.23018        27.80576        -8.05148
|111>    H        5.23989        30.14455        -8.24502
|112>    H        7.13187        31.73108        -5.33345
|113>    H        8.61322        31.58148        -2.65606
|114>    H        8.61969        32.95636        -3.87707
|115> *
|116>
|117>                          ****END OF INPUT****

CARTESIAN COORDINATES (ANGSTROEM)
---------------------------------
  C     -1.663030   -0.561410    3.515280
  C     -1.754390   -0.275710    2.157460
  C     -1.426020    1.029550    1.670450
  N     -1.520570    1.294780    0.347510
  C     -1.909900    0.339290   -0.445690
  C     -2.231240   -0.951790    0.038880
  N     -2.157020   -1.249960    1.301140
  C     -0.998130    2.061230    2.547670
  C     -0.917710    1.748990    3.928150
  C     -1.252300    0.433450    4.397160
  N     -1.173680    0.130900    5.718210
  C     -0.790980    1.065220    6.535500
  C     -0.466530    2.363550    6.079290
  N     -0.529350    2.688140    4.819770
  C     -0.688040    3.327380    1.960210
  C     -0.233690    4.435380    2.594870
  C      0.046270    5.662060    1.940320
  C     -0.081410    6.005540    0.602600
  C      0.291460    7.324740    0.359260
  C      0.712300    8.002070    1.519930
  S      0.644470    7.008360    2.904000
  C      1.059850    9.329090    1.166450
  C      0.855680    9.494990   -0.214440
  C      0.373040    8.239980   -0.768520
  C      0.069040    7.978270   -2.072120
  C      0.194760    8.956300   -3.081100
  N      0.297360    9.750190   -3.902010
  C     -0.387080    6.714280   -2.501560
  N     -0.756470    5.689670   -2.859470
  C      1.163260   10.779970   -0.659350
  C      1.604930   11.592270    0.368970
  S      1.638960   10.752480    1.914360
  C      2.001760   12.950000    0.283790
  C      2.513510   13.750710    1.288430
  C      2.796680   15.039300    0.835070
  C      2.490210   15.220140   -0.524580
  S      1.862900   13.805960   -1.247180
  C      2.811290   16.550690   -0.888510
  C      3.328620   17.212690    0.238140
  C      3.334150   16.285070    1.359370
  C      3.755660   16.531090    2.633050
  C      4.263900   17.786900    3.026300
  N      4.678220   18.806170    3.349440
  C      3.711870   15.544960    3.640850
  N      3.676010   14.745050    4.461450
  C      3.682150   18.536020   -0.024410
  C      3.431540   18.887110   -1.339040
  S      2.749830   17.556910   -2.266890
  C      3.663720   20.134390   -1.968550
  C      3.344590   20.488220   -3.268030
  C      3.724930   21.795290   -3.560430
  C      4.345710   22.445020   -2.477180
  S      4.448670   21.444330   -1.095410
  C      4.708930   23.755900   -2.871080
  C      4.308260   23.933340   -4.210500
  C      3.676200   22.715960   -4.685950
  C      3.146800   22.480890   -5.921310
  C      3.150740   23.452120   -6.944470
  N      3.144550   24.228810   -7.788160
  C      2.556360   21.244840   -6.257400
  N      2.074820   20.240020   -6.529420
  C      4.628250   25.190350   -4.706530
  C      5.272570   25.980380   -3.765280
  S      5.487220   25.142420   -2.231680
  C      5.751150   27.312480   -3.925300
  C      6.436640   27.938610   -2.858120
  C      6.991110   29.255080   -2.958330
  N      7.614360   29.784310   -1.882520
  C      7.713590   29.076340   -0.794840
  C      7.185720   27.772230   -0.703160
  N      6.562220   27.240790   -1.715350
  C      6.877180   29.991450   -4.157480
  C      6.152260   29.386490   -5.213550
  C      5.593830   28.071970   -5.112480
  N      4.911610   27.554110   -6.155450
  C      4.787510   28.258660   -7.243060
  C      5.344450   29.550910   -7.346830
  N      5.997540   30.090310   -6.360040
  C      7.436330   31.303840   -4.387170
  C      8.267970   31.978590   -3.593070
  H     -1.906900   -1.544090    3.883600
  H     -1.977910    0.579490   -1.498210
  H     -2.552990   -1.737660   -0.631470
  H     -0.733600    0.806770    7.584490
  H     -0.154070    3.140380    6.764810
  H     -0.844740    3.350700    0.890560
  H     -0.070570    4.405120    3.661810
  H     -0.431910    5.321100   -0.147330
  H      1.078320   11.122170   -1.675200
  H      2.669140   13.396890    2.291880
  H      4.098320   19.222480    0.690960
  H      2.858670   19.814870   -3.951400
  H      4.418550   25.547600   -5.697210
  H      8.215050   29.540980    0.043450
  H      7.264480   27.177120    0.195490
  H      4.230180   27.805760   -8.051480
  H      5.239890   30.144550   -8.245020
  H      7.131870   31.731080   -5.333450
  H      8.613220   31.581480   -2.656060
  H      8.619690   32.956360   -3.877070

 Total Charge           Charge          ....    0
 Multiplicity           Mult            ....    1
 Number of Electrons    NEL             ....  574
 Basis Dimension        Dim             .... 1244

ORBITAL ENERGIES
----------------

  NO   OCC          E(Eh)            E(eV)
   0   2.0000     -88.989755     -2421.5343
   1   2.0000     -88.989133     -2421.5174
   2   2.0000     -88.988633     -2421.5038
   3   2.0000     -88.985338     -2421.4141
   4   2.0000     -88.981813     -2421.3182
   5   2.0000     -88.971374     -2421.0342
   6   2.0000     -14.443828      -393.0365
   7   2.0000     -14.436154      -392.8277
   8   2.0000     -14.431400      -392.6984
   9   2.0000     -14.431121      -392.6908
  10   2.0000     -14.431048      -392.6888
  11   2.0000     -14.430989      -392.6872
  12   2.0000     -14.430005      -392.6604
  13   2.0000     -14.427701      -392.5977
  14   2.0000     -14.426912      -392.5762
  15   2.0000     -14.426881      -392.5754
  16   2.0000     -14.426599      -392.5677
  17   2.0000     -14.424312      -392.5055
  18   2.0000     -14.422865      -392.4661
  19   2.0000     -14.421831      -392.4380
  20   2.0000     -10.364720      -282.0384
  21   2.0000     -10.360836      -281.9327
  22   2.0000     -10.354211      -281.7524
  23   2.0000     -10.352328      -281.7012
  24   2.0000     -10.348405      -281.5944
  25   2.0000     -10.342303      -281.4284
  26   2.0000     -10.338239      -281.3178
  27   2.0000     -10.333470      -281.1880
  28   2.0000     -10.331487      -281.1340
  29   2.0000     -10.331456      -281.1332
  30   2.0000     -10.330832      -281.1162
  31   2.0000     -10.330328      -281.1025
  32   2.0000     -10.330091      -281.0961
  33   2.0000     -10.329766      -281.0872
  34   2.0000     -10.329416      -281.0777
  35   2.0000     -10.328946      -281.0649
  36   2.0000     -10.328367      -281.0492
  37   2.0000     -10.328241      -281.0457
  38   2.0000     -10.327734      -281.0319
  39   2.0000     -10.327521      -281.0261
  40   2.0000     -10.327030      -281.0128
  41   2.0000     -10.327000      -281.0120
  42   2.0000     -10.326836      -281.0075
  43   2.0000     -10.326433      -280.9965
  44   2.0000     -10.326148      -280.9888
  45   2.0000     -10.324800      -280.9521
  46   2.0000     -10.324758      -280.9509
  47   2.0000     -10.324587      -280.9463
  48   2.0000     -10.323861      -280.9265
  49   2.0000     -10.323267      -280.9104
  50   2.0000     -10.322623      -280.8929
  51   2.0000     -10.322406      -280.8869
  52   2.0000     -10.321758      -280.8693
  53   2.0000     -10.321115      -280.8518
  54   2.0000     -10.320221      -280.8275
  55   2.0000     -10.319929      -280.8195
  56   2.0000     -10.318403      -280.7780
  57   2.0000     -10.313001      -280.6310
  58   2.0000     -10.308716      -280.5144
  59   2.0000     -10.308585      -280.5109
  60   2.0000     -10.307087      -280.4701
  61   2.0000     -10.302295      -280.3397
  62   2.0000     -10.302208      -280.3373
  63   2.0000     -10.301164      -280.3089
  64   2.0000     -10.300404      -280.2882
  65   2.0000     -10.300079      -280.2794
  66   2.0000     -10.299652      -280.2678
  67   2.0000     -10.297615      -280.2123
  68   2.0000     -10.297389      -280.2062
  69   2.0000     -10.296540      -280.1831
  70   2.0000     -10.296441      -280.1804
  71   2.0000     -10.295501      -280.1548
  72   2.0000     -10.291836      -280.0551
  73   2.0000     -10.284480      -279.8549
  74   2.0000     -10.279642      -279.7233
  75   2.0000     -10.279515      -279.7198
  76   2.0000     -10.277890      -279.6756
  77   2.0000     -10.271515      -279.5021
  78   2.0000     -10.263184      -279.2754
  79   2.0000     -10.256145      -279.0839
  80   2.0000      -8.084142      -219.9807
  81   2.0000      -8.083481      -219.9627
  82   2.0000      -8.083032      -219.9505
  83   2.0000      -8.079681      -219.8593
  84   2.0000      -8.076488      -219.7724
  85   2.0000      -8.063094      -219.4079
  86   2.0000      -6.053462      -164.7231
  87   2.0000      -6.052809      -164.7053
  88   2.0000      -6.052369      -164.6933
  89   2.0000      -6.049260      -164.6087
  90   2.0000      -6.048968      -164.6008
  91   2.0000      -6.048597      -164.5907
  92   2.0000      -6.048174      -164.5792
  93   2.0000      -6.046404      -164.5310
  94   2.0000      -6.045759      -164.5135
  95   2.0000      -6.045658      -164.5107
  96   2.0000      -6.045270      -164.5002
  97   2.0000      -6.044800      -164.4874
  98   2.0000      -6.042010      -164.4115
  99   2.0000      -6.041465      -164.3966
 100   2.0000      -6.039053      -164.3310
 101   2.0000      -6.032838      -164.1619
 102   2.0000      -6.027739      -164.0231
 103   2.0000      -6.025625      -163.9656
 104   2.0000      -1.098907       -29.9028
 105   2.0000      -1.087348       -29.5882
 106   2.0000      -1.085968       -29.5507
 107   2.0000      -1.078698       -29.3529
 108   2.0000      -1.044774       -28.4298
 109   2.0000      -1.039710       -28.2919
 110   2.0000      -1.033764       -28.1301
 111   2.0000      -1.023072       -27.8392
 112   2.0000      -1.022462       -27.8226
 113   2.0000      -1.018775       -27.7223
 114   2.0000      -1.013677       -27.5836
 115   2.0000      -1.010935       -27.5089
 116   2.0000      -1.009122       -27.4596
 117   2.0000      -1.008770       -27.4500
 118   2.0000      -1.005047       -27.3487
 119   2.0000      -1.003210       -27.2987
 120   2.0000      -1.002519       -27.2799
 121   2.0000      -0.999924       -27.2093
 122   2.0000      -0.990402       -26.9502
 123   2.0000      -0.980936       -26.6926
 124   2.0000      -0.962900       -26.2018
 125   2.0000      -0.957038       -26.0423
 126   2.0000      -0.952277       -25.9128
 127   2.0000      -0.948652       -25.8141
 128   2.0000      -0.943644       -25.6779
 129   2.0000      -0.919270       -25.0146
 130   2.0000      -0.909825       -24.7576
 131   2.0000      -0.901156       -24.5217
 132   2.0000      -0.886833       -24.1320
 133   2.0000      -0.883646       -24.0452
 134   2.0000      -0.876285       -23.8449
 135   2.0000      -0.869209       -23.6524
 136   2.0000      -0.867264       -23.5995
 137   2.0000      -0.865000       -23.5378
 138   2.0000      -0.861060       -23.4306
 139   2.0000      -0.854119       -23.2418
 140   2.0000      -0.847836       -23.0708
 141   2.0000      -0.846796       -23.0425
 142   2.0000      -0.839025       -22.8310
 143   2.0000      -0.835606       -22.7380
 144   2.0000      -0.820607       -22.3298
 145   2.0000      -0.800616       -21.7859
 146   2.0000      -0.798065       -21.7165
 147   2.0000      -0.791507       -21.5380
 148   2.0000      -0.778463       -21.1831
 149   2.0000      -0.777085       -21.1456
 150   2.0000      -0.773321       -21.0431
 151   2.0000      -0.767746       -20.8914
 152   2.0000      -0.763229       -20.7685
 153   2.0000      -0.761581       -20.7237
 154   2.0000      -0.748420       -20.3655
 155   2.0000      -0.733973       -19.9724
 156   2.0000      -0.729768       -19.8580
 157   2.0000      -0.726849       -19.7786
 158   2.0000      -0.711910       -19.3720
 159   2.0000      -0.705510       -19.1979
 160   2.0000      -0.701460       -19.0877
 161   2.0000      -0.695434       -18.9237
 162   2.0000      -0.689758       -18.7693
 163   2.0000      -0.686601       -18.6834
 164   2.0000      -0.685191       -18.6450
 165   2.0000      -0.680039       -18.5048
 166   2.0000      -0.675253       -18.3746
 167   2.0000      -0.670812       -18.2537
 168   2.0000      -0.661897       -18.0111
 169   2.0000      -0.656419       -17.8621
 170   2.0000      -0.652543       -17.7566
 171   2.0000      -0.644195       -17.5294
 172   2.0000      -0.637971       -17.3601
 173   2.0000      -0.634121       -17.2553
 174   2.0000      -0.627811       -17.0836
 175   2.0000      -0.627060       -17.0632
 176   2.0000      -0.624679       -16.9984
 177   2.0000      -0.618482       -16.8298
 178   2.0000      -0.617041       -16.7905
 179   2.0000      -0.614398       -16.7186
 180   2.0000      -0.611276       -16.6337
 181   2.0000      -0.603902       -16.4330
 182   2.0000      -0.603402       -16.4194
 183   2.0000      -0.601072       -16.3560
 184   2.0000      -0.595392       -16.2014
 185   2.0000      -0.592983       -16.1359
 186   2.0000      -0.587760       -15.9938
 187   2.0000      -0.580205       -15.7882
 188   2.0000      -0.576084       -15.6760
 189   2.0000      -0.572106       -15.5678
 190   2.0000      -0.568013       -15.4564
 191   2.0000      -0.560739       -15.2585
 192   2.0000      -0.554869       -15.0988
 193   2.0000      -0.548092       -14.9143
 194   2.0000      -0.547564       -14.9000
 195   2.0000      -0.543689       -14.7945
 196   2.0000      -0.542646       -14.7661
 197   2.0000      -0.541545       -14.7362
 198   2.0000      -0.536444       -14.5974
 199   2.0000      -0.535879       -14.5820
 200   2.0000      -0.533542       -14.5184
 201   2.0000      -0.526464       -14.3258
 202   2.0000      -0.523951       -14.2574
 203   2.0000      -0.521924       -14.2023
 204   2.0000      -0.520677       -14.1683
 205   2.0000      -0.515549       -14.0288
 206   2.0000      -0.514101       -13.9894
 207   2.0000      -0.512432       -13.9440
 208   2.0000      -0.511854       -13.9283
 209   2.0000      -0.507765       -13.8170
 210   2.0000      -0.507602       -13.8126
 211   2.0000      -0.504345       -13.7239
 212   2.0000      -0.500346       -13.6151
 213   2.0000      -0.497945       -13.5498
 214   2.0000      -0.496506       -13.5106
 215   2.0000      -0.493356       -13.4249
 216   2.0000      -0.492267       -13.3953
 217   2.0000      -0.491418       -13.3722
 218   2.0000      -0.488863       -13.3026
 219   2.0000      -0.486102       -13.2275
 220   2.0000      -0.484918       -13.1953
 221   2.0000      -0.481713       -13.1081
 222   2.0000      -0.480373       -13.0716
 223   2.0000      -0.476893       -12.9769
 224   2.0000      -0.473491       -12.8844
 225   2.0000      -0.468318       -12.7436
 226   2.0000      -0.467701       -12.7268
 227   2.0000      -0.464573       -12.6417
 228   2.0000      -0.463423       -12.6104
 229   2.0000      -0.462459       -12.5841
 230   2.0000      -0.458824       -12.4852
 231   2.0000      -0.458386       -12.4733
 232   2.0000      -0.454866       -12.3775
 233   2.0000      -0.454793       -12.3755
 234   2.0000      -0.453999       -12.3540
 235   2.0000      -0.450647       -12.2627
 236   2.0000      -0.450619       -12.2620
 237   2.0000      -0.446156       -12.1405
 238   2.0000      -0.445802       -12.1309
 239   2.0000      -0.443453       -12.0670
 240   2.0000      -0.441564       -12.0156
 241   2.0000      -0.441414       -12.0115
 242   2.0000      -0.440557       -11.9882
 243   2.0000      -0.438123       -11.9219
 244   2.0000      -0.437950       -11.9172
 245   2.0000      -0.437646       -11.9090
 246   2.0000      -0.435923       -11.8621
 247   2.0000      -0.434702       -11.8288
 248   2.0000      -0.434503       -11.8234
 249   2.0000      -0.433140       -11.7863
 250   2.0000      -0.433041       -11.7836
 251   2.0000      -0.430342       -11.7102
 252   2.0000      -0.425733       -11.5848
 253   2.0000      -0.425129       -11.5683
 254   2.0000      -0.423425       -11.5220
 255   2.0000      -0.421952       -11.4819
 256   2.0000      -0.419806       -11.4235
 257   2.0000      -0.418960       -11.4005
 258   2.0000      -0.413383       -11.2487
 259   2.0000      -0.407902       -11.0996
 260   2.0000      -0.399672       -10.8756
 261   2.0000      -0.390001       -10.6125
 262   2.0000      -0.388171       -10.5627
 263   2.0000      -0.385013       -10.4767
 264   2.0000      -0.382892       -10.4190
 265   2.0000      -0.382780       -10.4160
 266   2.0000      -0.373412       -10.1610
 267   2.0000      -0.369198       -10.0464
 268   2.0000      -0.357664        -9.7325
 269   2.0000      -0.350048        -9.5253
 270   2.0000      -0.344705        -9.3799
 271   2.0000      -0.340735        -9.2719
 272   2.0000      -0.339673        -9.2430
 273   2.0000      -0.335890        -9.1400
 274   2.0000      -0.330661        -8.9977
 275   2.0000      -0.329302        -8.9608
 276   2.0000      -0.326166        -8.8754
 277   2.0000      -0.322464        -8.7747
 278   2.0000      -0.320772        -8.7286
 279   2.0000      -0.319908        -8.7052
 280   2.0000      -0.318859        -8.6766
 281   2.0000      -0.314696        -8.5633
 282   2.0000      -0.310542        -8.4503
 283   2.0000      -0.292407        -7.9568
 284   2.0000      -0.268615        -7.3094
 285   2.0000      -0.243280        -6.6200
 286   2.0000      -0.226659        -6.1677
 287   0.0000      -0.108364        -2.9487
 288   0.0000      -0.101518        -2.7625
 289   0.0000      -0.100254        -2.7281
 290   0.0000      -0.085048        -2.3143
 291   0.0000      -0.081962        -2.2303

MULLIKEN ATOMIC CHARGES
-----------------------
   0 C :   -0.073971
   1 C :    0.039274
   2 C :   -0.051410
   3 N :   -0.019808
   4 C :    0.024032
   5 C :    0.022077
   6 N :   -0.018045
   7 C :    0.125484
   8 C :   -0.043968
   9 C :    0.029887
  10 N :   -0.016699
  11 C :    0.019314
  12 C :    0.034373
  13 N :   -0.029620
  14 C :   -0.103127
  15 C :    0.077162
  16 C :   -0.071850
  17 C :   -0.032631
  18 C :    0.005957
  19 C :   -0.104042
  20 S :    0.189556
  21 C :   -0.099809
  22 C :    0.016482
  23 C :    0.305415
  24 C :   -0.303177
  25 C :   -0.190435
  26 N :    0.171244
  27 C :   -0.186449
  28 N :    0.174320
  29 C :   -0.069698
  30 C :   -0.050687
  31 S :    0.191162
  32 C :   -0.052087
  33 C :   -0.068082
  34 C :    0.016490
  35 C :   -0.098597
  36 S :    0.194748
  37 C :   -0.099060
  38 C :    0.017792
  39 C :    0.299629
  40 C :   -0.301918
  41 C :   -0.189202
  42 N :    0.174218
  43 C :   -0.188196
  44 N :    0.173137
  45 C :   -0.069506
  46 C :   -0.050333
  47 S :    0.195307
  48 C :   -0.049735
  49 C :   -0.074211
  50 C :    0.017478
  51 C :   -0.107444
  52 S :    0.189619
  53 C :   -0.063940
  54 C :    0.038053
  55 C :    0.311846
  56 C :   -0.314900
  57 C :   -0.183102
  58 N :    0.169038
  59 C :   -0.193645
  60 N :    0.167686
  61 C :   -0.063066
  62 C :   -0.172425
  63 S :    0.191372
  64 C :    0.178221
  65 C :   -0.019631
  66 C :   -0.057625
  67 N :   -0.011466
  68 C :    0.029072
  69 C :    0.051825
  70 N :   -0.095116
  71 C :    0.056676
  72 C :   -0.050063
  73 C :   -0.062845
  74 N :   -0.024551
  75 C :    0.042439
  76 C :    0.026028
  77 N :   -0.018241
  78 C :   -0.065767
  79 C :    0.027287
  80 H :   -0.035118
  81 H :    0.020131
  82 H :    0.017009
  83 H :    0.016657
  84 H :    0.011934
  85 H :    0.003342
  86 H :   -0.007640
  87 H :    0.012514
  88 H :    0.010675
  89 H :    0.009021
  90 H :    0.009490
  91 H :    0.010888
  92 H :    0.016725
  93 H :    0.018127
  94 H :    0.017344
  95 H :    0.028025
  96 H :    0.018627
  97 H :   -0.000788
  98 H :    0.025169
  99 H :    0.014349
Sum of atomic charges:   -0.0000000

LOEWDIN ATOMIC CHARGES
----------------------
   0 C :   -0.004827
   1 C :   -0.013722
   2 C :   -0.007871
   3 N :   -0.031846
   4 C :    0.009434
   5 C :    0.007818
   6 N :   -0.035641
   7 C :   -0.010955
   8 C :   -0.009716
   9 C :   -0.011941
  10 N :   -0.031862
  11 C :    0.004973
  12 C :    0.009075
  13 N :   -0.028657
  14 C :   -0.017859
  15 C :   -0.029316
  16 C :   -0.158819
  17 C :   -0.023805
  18 C :   -0.068176
  19 C :   -0.189976
  20 S :    0.478464
  21 C :   -0.175637
  22 C :   -0.071201
  23 C :    0.083734
  24 C :   -0.103840
  25 C :   -0.015969
  26 N :   -0.035706
  27 C :   -0.016725
  28 N :   -0.033060
  29 C :   -0.039557
  30 C :   -0.183075
  31 S :    0.479601
  32 C :   -0.178650
  33 C :   -0.040813
  34 C :   -0.070551
  35 C :   -0.179686
  36 S :    0.484946
  37 C :   -0.181748
  38 C :   -0.069643
  39 C :    0.084606
  40 C :   -0.103386
  41 C :   -0.016040
  42 N :   -0.034436
  43 C :   -0.015992
  44 N :   -0.034555
  45 C :   -0.041237
  46 C :   -0.176494
  47 S :    0.485676
  48 C :   -0.184041
  49 C :   -0.039833
  50 C :   -0.067900
  51 C :   -0.175237
  52 S :    0.478258
  53 C :   -0.189742
  54 C :   -0.081719
  55 C :    0.085574
  56 C :   -0.109762
  57 C :   -0.013804
  58 N :   -0.040450
  59 C :   -0.016170
  60 N :   -0.041466
  61 C :   -0.013098
  62 C :   -0.166392
  63 S :    0.503614
  64 C :   -0.031492
  65 C :   -0.013217
  66 C :   -0.005461
  67 N :   -0.014994
  68 C :    0.011414
  69 C :    0.020819
  70 N :   -0.051777
  71 C :   -0.014742
  72 C :   -0.003061
  73 C :   -0.006367
  74 N :   -0.023517
  75 C :    0.020675
  76 C :    0.011276
  77 N :   -0.026240
  78 C :   -0.033358
  79 C :   -0.015698
  80 H :    0.041757
  81 H :    0.029414
  82 H :    0.027912
  83 H :    0.027673
  84 H :    0.026191
  85 H :    0.030115
  86 H :    0.023086
  87 H :    0.041625
  88 H :    0.034883
  89 H :    0.035132
  90 H :    0.035408
  91 H :    0.034541
  92 H :    0.034598
  93 H :    0.028691
  94 H :    0.029607
  95 H :    0.033260
  96 H :    0.029033
  97 H :    0.030340
  98 H :    0.017635
  99 H :    0.021669

  Mayer bond orders larger than 0.100000
B(  0-C ,  1-C ) :   1.2461 B(  0-C ,  7-C ) :   0.1375 B(  0-C ,  9-C ) :   1.2421
B(  0-C , 80-H ) :   1.0537 B(  1-C ,  2-C ) :   1.1753 B(  1-C ,  6-N ) :   1.3689
B(  2-C ,  3-N ) :   1.4411 B(  2-C ,  7-C ) :   1.2441 B(  3-N ,  4-C ) :   1.7031
B(  4-C ,  5-C ) :   1.1751 B(  4-C , 81-H ) :   0.9748 B(  5-C ,  6-N ) :   1.7247
B(  5-C , 82-H ) :   0.9732 B(  7-C ,  8-C ) :   1.2322 B(  7-C , 14-C ) :   1.1749
B(  8-C ,  9-C ) :   1.1731 B(  8-C , 13-N ) :   1.4287 B(  9-C , 10-N ) :   1.3745
B( 10-N , 11-C ) :   1.7177 B( 11-C , 12-C ) :   1.1842 B( 11-C , 83-H ) :   0.9740
B( 12-C , 13-N ) :   1.6848 B( 12-C , 84-H ) :   0.9723 B( 14-C , 15-C ) :   1.6510
B( 14-C , 85-H ) :   0.9571 B( 15-C , 16-C ) :   1.0961 B( 15-C , 86-H ) :   0.9370
B( 16-C , 17-C ) :   1.4501 B( 16-C , 20-S ) :   1.1099 B( 17-C , 18-C ) :   1.2997
B( 17-C , 87-H ) :   0.9918 B( 18-C , 19-C ) :   1.4271 B( 18-C , 23-C ) :   0.9993
B( 19-C , 20-S ) :   1.1235 B( 19-C , 21-C ) :   1.1926 B( 21-C , 22-C ) :   1.4466
B( 21-C , 31-S ) :   1.1196 B( 22-C , 23-C ) :   0.9960 B( 22-C , 29-C ) :   1.2962
B( 23-C , 24-C ) :   1.7079 B( 24-C , 25-C ) :   1.1342 B( 24-C , 27-C ) :   1.1367
B( 25-C , 26-N ) :   2.9920 B( 27-C , 28-N ) :   2.9912 B( 29-C , 30-C ) :   1.4604
B( 29-C , 88-H ) :   0.9866 B( 30-C , 31-S ) :   1.1026 B( 30-C , 32-C ) :   1.1695
B( 32-C , 33-C ) :   1.4612 B( 32-C , 36-S ) :   1.1069 B( 33-C , 34-C ) :   1.2953
B( 33-C , 89-H ) :   0.9877 B( 34-C , 35-C ) :   1.4476 B( 34-C , 39-C ) :   0.9949
B( 35-C , 36-S ) :   1.1194 B( 35-C , 37-C ) :   1.1871 B( 37-C , 38-C ) :   1.4447
B( 37-C , 47-S ) :   1.1190 B( 38-C , 39-C ) :   0.9941 B( 38-C , 45-C ) :   1.2995
B( 39-C , 40-C ) :   1.7115 B( 40-C , 41-C ) :   1.1358 B( 40-C , 43-C ) :   1.1337
B( 41-C , 42-N ) :   2.9940 B( 43-C , 44-N ) :   2.9941 B( 45-C , 46-C ) :   1.4594
B( 45-C , 90-H ) :   0.9872 B( 46-C , 47-S ) :   1.1081 B( 46-C , 48-C ) :   1.1703
B( 48-C , 49-C ) :   1.4524 B( 48-C , 52-S ) :   1.1045 B( 49-C , 50-C ) :   1.3061
B( 49-C , 91-H ) :   0.9845 B( 50-C , 51-C ) :   1.4376 B( 50-C , 55-C ) :   0.9874
B( 51-C , 52-S ) :   1.1167 B( 51-C , 53-C ) :   1.1945 B( 53-C , 54-C ) :   1.4122
B( 53-C , 63-S ) :   1.0702 B( 54-C , 55-C ) :   0.9973 B( 54-C , 61-C ) :   1.2422
B( 55-C , 56-C ) :   1.7031 B( 56-C , 57-C ) :   1.1398 B( 56-C , 59-C ) :   1.1353
B( 57-C , 58-N ) :   2.9921 B( 59-C , 60-N ) :   2.9914 B( 61-C , 62-C ) :   1.4357
B( 61-C , 92-H ) :   0.9800 B( 62-C , 63-S ) :   1.0867 B( 62-C , 64-C ) :   1.1743
B( 64-C , 65-C ) :   1.2474 B( 64-C , 71-C ) :   0.1323 B( 64-C , 73-C ) :   1.2472
B( 65-C , 66-C ) :   1.1548 B( 65-C , 70-N ) :   1.3884 B( 66-C , 67-N ) :   1.4493
B( 66-C , 71-C ) :   1.2490 B( 67-N , 68-C ) :   1.6833 B( 68-C , 69-C ) :   1.1991
B( 68-C , 93-H ) :   0.9748 B( 69-C , 70-N ) :   1.6452 B( 69-C , 94-H ) :   0.9725
B( 71-C , 72-C ) :   1.2531 B( 71-C , 78-C ) :   1.1673 B( 72-C , 73-C ) :   1.1464
B( 72-C , 77-N ) :   1.4516 B( 73-C , 74-N ) :   1.4671 B( 74-N , 75-C ) :   1.6706
B( 75-C , 76-C ) :   1.1815 B( 75-C , 95-H ) :   0.9740 B( 76-C , 77-N ) :   1.7029
B( 76-C , 96-H ) :   0.9757 B( 78-C , 79-C ) :   1.8966 B( 78-C , 97-H ) :   0.9412
B( 79-C , 98-H ) :   0.9313 B( 79-C , 99-H ) :   0.9425

-----------------------------------------------------------------------------
         ABSORPTION SPECTRUM VIA TRANSITION ELECTRIC DIPOLE MOMENTS
-----------------------------------------------------------------------------
State   Energy  Wavelength   fosc         T2         TX        TY        TZ
        (cm-1)    (nm)                  (au**2)     (au)      (au)      (au)
-----------------------------------------------------------------------------
   0    9820.7   1018.3   0.528811861  17.72694  -1.07327  -3.95073   0.98323
   1   10904.3    917.1   0.098129505   2.96262  -0.46453  -1.62060   0.34712
   2   11394.0    877.7   0.131071312   3.78710   0.60201   1.80316  -0.41627
   3   15481.7    645.9   0.442041049   9.39982  -1.05880  -2.85373   0.36744
   4   17739.8    563.7   0.285319178   5.29490  -0.56105  -2.16523   0.54029
   5   18124.5    551.7   0.531112219   9.64707   0.73382   2.88006  -0.90212
   6   19706.7    507.4   0.000623070   0.01041   0.08400   0.04433   0.03725
   7   20248.3    493.9   0.018046068   0.29341  -0.03523   0.43573  -0.31985
   8   22557.4    443.3   0.406159517   5.92767  -0.60139  -2.29154   0.56110
   9   24064.8    415.5   0.027310813   0.37362   0.10713  -0.56963   0.19407
  10   24393.5    409.9   0.120735662   1.62943   0.27280   1.12227  -0.54363
  11   24573.9    406.9   0.045619294   0.61115  -0.21663  -0.74610   0.08693
  12   24777.1    403.6   0.105274434   1.39878   0.36325   1.12432  -0.05233
  13   25333.7    394.7   0.839711889  10.91207   0.77739   3.13136  -0.70874
  14   25833.3    387.1   0.009616193   0.12255  -0.32618  -0.09730   0.08175
  15   25971.2    385.0   0.000893554   0.01133   0.06719  -0.00065  -0.08253
  16   26638.2    375.4   0.451090391   5.57486  -0.50732  -2.18447   0.73863
  17   27037.2    369.9   0.000325060   0.00396   0.05760   0.00340  -0.02506
  18   27963.9    357.6   0.026237686   0.30889   0.13079   0.06687   0.53601
  19   28477.9    351.1   0.082002416   0.94797  -0.44656  -0.61812  -0.60538
  20   28643.9    349.1   0.038858730   0.44661   0.28978   0.42659   0.42504
  21   29159.5    342.9   0.024922192   0.28137  -0.27933  -0.36312  -0.26738
  22   29442.8    339.6   0.045771025   0.51179   0.22634   0.22124   0.64157
  23   29550.4    338.4   0.026641114   0.29680  -0.16817  -0.10840  -0.50672
  24   29743.0    336.2   0.007940641   0.08789   0.04060  -0.08823   0.28010
  25   30310.7    329.9   0.005331861   0.05791  -0.05956   0.06556  -0.22375
  26   30691.5    325.8   0.012955192   0.13896  -0.09926  -0.26730  -0.24013
  27   30859.2    324.1   0.055400269   0.59102   0.14617  -0.08336   0.75014
  28   31717.0    315.3   0.619225375   6.42735  -0.13298   0.66921  -2.44169
  29   31784.6    314.6   0.079604489   0.82451  -0.03070   0.47594  -0.77269
  30   32017.6    312.3   0.086373662   0.88811  -0.45283  -0.36002  -0.74394
  31   32105.4    311.5   0.588505803   6.03459  -0.92263  -1.29020  -1.87583
  32   32654.9    306.2   0.426147203   4.29622   0.83696   0.80992   1.71457
  33   32793.0    304.9   0.266792369   2.67836  -0.08866  -1.24929   1.05346
  34   33068.4    302.4   0.007970529   0.07935   0.09645   0.23824   0.11529
  35   33233.4    300.9   0.141522818   1.40193   0.48803  -0.00170   1.07877
  36   33295.0    300.3   0.080558432   0.79654  -0.23758  -0.39153  -0.76603
  37   33331.5    300.0   0.118772250   1.17310  -0.05995   0.47024  -0.97385
  38   33583.7    297.8   0.123308553   1.20876   0.35673   1.02512   0.17499
  39   33883.8    295.1   0.010314926   0.10022  -0.10351  -0.26267  -0.14321
  40   34031.1    293.8   0.237950970   2.30191   0.44156   1.41577  -0.32019
  41   34411.8    290.6   0.024508594   0.23447   0.21258   0.27998   0.33300
  42   34625.6    288.8   0.004094762   0.03893   0.04751   0.10782   0.15827
  43   34954.1    286.1   0.000789796   0.00744   0.08454  -0.01470  -0.00868
  44   35120.6    284.7   0.040341802   0.37815   0.00703   0.50959  -0.34413
  45   35229.2    283.9   0.018096620   0.16911   0.18023   0.36100   0.07942
  46   35442.0    282.2   0.409781272   3.80636   0.63766  -0.06521   1.84268
  47   35527.7    281.5   0.140396842   1.30097  -0.22315   0.53925  -0.97999
  48   35791.4    279.4   0.082253471   0.75657   0.42823   0.66393   0.36385
  49   36218.4    276.1   0.016434921   0.14939  -0.06913  -0.30413   0.22829
  50   36595.0    273.3   0.124037682   1.11585  -0.46945  -0.50404  -0.80088
  51   36924.1    270.8   0.000447646   0.00399  -0.00305  -0.01107  -0.06212
  52   37064.0    269.8   0.173612740   1.54207   0.15318   0.29446   1.19662
  53   37191.0    268.9   0.025992602   0.23008   0.20064   0.35670  -0.25018
  54   37240.3    268.5   0.558275152   4.93527  -0.77362  -1.39701  -1.54439
  55   37360.4    267.7   0.000265151   0.00234  -0.01311  -0.04309  -0.01755
  56   37525.1    266.5   0.069858561   0.61288   0.08112   0.40417  -0.66554
  57   38058.3    262.8   0.083188574   0.71960   0.06290  -0.47671   0.69885
  58   38481.7    259.9   0.024052078   0.20577  -0.12507  -0.22989  -0.37051
  59   38514.6    259.6   0.052659721   0.45012   0.15661   0.24927   0.60288
  60   38567.4    259.3   0.043338720   0.36994  -0.08919  -0.05145  -0.59945
  61   38729.2    258.2   0.004920365   0.04182   0.07076   0.14273   0.12825
  62   38839.2    257.5   0.024884270   0.21093  -0.16278  -0.42549  -0.05821
  63   38870.9    257.3   0.015584846   0.13199  -0.17925  -0.04590  -0.31266
  64   39137.4    255.5   0.012975851   0.10915  -0.12164   0.04934  -0.30318
  65   39237.5    254.9   0.042105732   0.35328  -0.00879  -0.24130   0.54312
  66   39389.3    253.9   0.008852578   0.07399   0.04019   0.19344  -0.18696
  67   39617.3    252.4   0.026070842   0.21664  -0.03596  -0.26387   0.38174
  68   39788.3    251.3   0.000868417   0.00719   0.08049  -0.01086  -0.02427
  69   40046.0    249.7   0.011245554   0.09245  -0.10210  -0.28500  -0.02823
  70   40108.5    249.3   0.000912907   0.00749   0.02417   0.07572  -0.03429
  71   40223.1    248.6   0.003151443   0.02579   0.01049  -0.08922   0.13313

FINAL SINGLE POINT ENERGY     -5449.279804076086

DIPOLE MOMENT
-------------
                                X             Y             Z
Electronic contribution:     -2.97766      -2.37346       0.03632
Nuclear contribution   :      3.83683       3.28721       1.76652
                        -----------------------------------------
Total Dipole Moment    :      0.85917       0.91375       1.80284
                        -----------------------------------------
Magnitude (a.u.)       :      2.19621
Magnitude (Debye)      :      5.58232

Rotational constants in cm-1:     0.002548     0.000136     0.000129
Rotational constants in MHz :    76.397832     4.070150     3.868855

                             ****ORCA TERMINATED NORMALLY****
TOTAL RUN TIME: 0 days 0 hours 21 minutes 49 seconds 548 msec
