                         Program Version 4.2.0 -  RELEASE  -
|  1> # ORCA input file
|  2> # SCF done       -192.085211725311          0.000507061804
|  3> ! CAM-B3LYP def2-SVP def2/J RIJCOSX Grid4 TightSCF
|  4> %maxcore 5000
|  5> %tddft
|  6>     Mode sTDDFT
|  7>     Ethresh 5.0
|  8>     maxcore 5000
|  9> end
| 10>
| 11> %pal
| 12>   nprocs 6
| 13>   end
| 14> * xyz 0 1
| 15>    N        2.85371         1.92895        -1.23552
| 16>    C        2.83128         1.46119        -2.60834
| 17>    C        2.74399        -0.11083        -2.61766
| 18>    N        1.55323        -0.58175        -3.29944
| 19>    C        1.45477        -0.03310        -4.64281
| 20>    C        1.61506         1.52280        -4.66190
| 21>    C        0.42294         2.14854        -5.38159
| 22>    S       -0.23909         0.87924        -6.49638
| 23>    C        0.11374        -0.40200        -5.26363
| 24>    N        1.72735         2.05960        -3.31731
| 25>    N        2.69546        -0.55044        -1.23186
| 26>    S        3.50929         0.71302        -0.27649
| 27>    N        3.14584        -1.79940        -0.90233
| 28>    C        2.20598        -2.89358        -1.03138
| 29>    C        2.89155        -4.05271        -1.85698
| 30>    N        3.34565        -5.11495        -0.99283
| 31>    C        2.24471        -5.73231        -0.27683
| 32>    C        1.25757        -4.66936         0.30833
| 33>    C        0.87600        -5.06305         1.73607
| 34>    S        1.30749        -6.81703         1.95105
| 35>    C        2.74547        -6.60001         0.86796
| 36>    N        1.83197        -3.33663         0.29820
| 37>    N        4.02877        -3.50488        -2.55928
| 38>    S        4.69817        -2.34146        -1.46963
| 39>    C        3.92381        -3.18979        -3.90179
| 40>    S        2.43367        -3.41589        -4.78226
| 41>    C        3.19531        -2.83401        -6.25213
| 42>    C        4.49094        -2.46720        -6.03566
| 43>    C        4.91545        -2.68913        -4.69990
| 44>    C        6.33283        -2.43919        -4.29778
| 45>    C        6.92796        -1.29327        -5.14608
| 46>    C        6.19654        -0.04649        -4.75554
| 47>    O        5.06027         0.25053        -5.00278
| 48>    C        7.04877         0.89715        -3.85483
| 49>    F        7.49243         0.25608        -2.76290
| 50>    F        8.13339         1.33587        -4.51486
| 51>    F        6.36583         1.96447        -3.44869
| 52>    C        6.78830        -1.65057        -6.63340
| 53>    C        5.33548        -1.80252        -7.07440
| 54>    N        2.52046        -2.70387        -7.44341
| 55>    C        1.33590        -3.50598        -7.64548
| 56>    C        0.59488        -2.93565        -8.89736
| 57>    N        0.40269        -3.93597        -9.92111
| 58>    C       -0.18606        -5.15126        -9.39138
| 59>    C        0.63769        -5.73106        -8.19024
| 60>    C        1.12145        -7.12996        -8.55247
| 61>    S       -0.14903        -7.81955        -9.64941
| 62>    C       -0.28912        -6.21253       -10.48308
| 63>    N        1.75631        -4.87525        -7.83700
| 64>    N        1.45237        -1.89802        -9.43633
| 65>    S        2.19586        -1.10207        -8.03748
| 66>    N        0.87768        -1.12220       -10.40332
| 67>    C       -0.07928        -0.10365       -10.00067
| 68>    C        0.62915         1.31472       -10.08998
| 69>    N       -0.05874         2.18414       -11.01808
| 70>    C       -1.47156         2.29729       -10.71689
| 71>    C       -2.16644         0.89593       -10.61997
| 72>    C       -3.32174         0.84252       -11.61426
| 73>    S       -3.90194         2.55199       -11.80348
| 74>    C       -2.18214         3.13116       -11.77817
| 75>    N       -1.23319        -0.18851       -10.86328
| 76>    N        1.98659         1.12944       -10.55084
| 77>    S        2.02069        -0.33464       -11.43030
| 78>    H        1.92985         2.21054        -0.91862
| 79>    H        3.75986         1.77913        -3.09758
| 80>    H        3.61374        -0.52858        -3.15042
| 81>    H        0.73504        -0.32687        -2.74819
| 82>    H        2.26956        -0.47510        -5.22697
| 83>    H        2.54360         1.77744        -5.18163
| 84>    H        0.69638         3.02026        -5.96868
| 85>    H       -0.36233         2.42581        -4.67567
| 86>    H        0.13039        -1.37267        -5.75101
| 87>    H       -0.68608        -0.39144        -4.51989
| 88>    H        0.86025         1.89438        -2.80641
| 89>    H        1.30598        -2.54249        -1.55197
| 90>    H        2.18416        -4.48453        -2.57235
| 91>    H        4.04743        -4.74827        -0.35307
| 92>    H        1.70774        -6.36228        -0.99692
| 93>    H        0.36160        -4.62448        -0.32069
| 94>    H       -0.18454        -4.94393         1.93754
| 95>    H        1.44365        -4.47721         2.46057
| 96>    H        3.09631        -7.57303         0.53732
| 97>    H        3.53593        -6.10089         1.43282
| 98>    H        2.64637        -3.28589         0.90475
| 99>    H        6.92952        -3.33606        -4.48684
|100>    H        6.41034        -2.21439        -3.23280
|101>    H        7.98780        -1.18399        -4.89942
|102>    H        7.31889        -2.59266        -6.78375
|103>    H        7.27753        -0.88817        -7.24190
|104>    H        5.28447        -2.36479        -8.00908
|105>    H        4.89859        -0.81834        -7.27541
|106>    H        0.66718        -3.49044        -6.76486
|107>    H       -0.40163        -2.55492        -8.61421
|108>    H        1.29009        -4.12167       -10.38108
|109>    H       -1.18990        -4.88353        -9.04266
|110>    H       -0.00528        -5.78631        -7.30412
|111>    H        1.23399        -7.77443        -7.68582
|112>    H        2.06607        -7.09243        -9.09892
|113>    H       -1.23211        -6.17317       -11.01973
|114>    H        0.53260        -6.12135       -11.19583
|115>    H        2.47579        -4.90185        -8.55621
|116>    H       -0.40749        -0.28903        -8.97104
|117>    H        0.62317         1.79718        -9.10640
|118>    H        0.09458         1.84505       -11.96502
|119>    H       -1.54463         2.79817        -9.74470
|120>    H       -2.54717         0.75633        -9.60184
|121>    H       -4.14619         0.22465       -11.27122
|122>    H       -2.98476         0.48339       -12.58863
|123>    H       -2.16891         4.19421       -11.55733
|124>    H       -1.74770         2.96381       -12.76567
|125>    H       -0.92312        -0.19591       -11.83266
|126>    H        2.66133         1.13008        -9.79390
|127> *
|128>
|129>                          ****END OF INPUT****

CARTESIAN COORDINATES (ANGSTROEM)
---------------------------------
  N      2.853710    1.928950   -1.235520
  C      2.831280    1.461190   -2.608340
  C      2.743990   -0.110830   -2.617660
  N      1.553230   -0.581750   -3.299440
  C      1.454770   -0.033100   -4.642810
  C      1.615060    1.522800   -4.661900
  C      0.422940    2.148540   -5.381590
  S     -0.239090    0.879240   -6.496380
  C      0.113740   -0.402000   -5.263630
  N      1.727350    2.059600   -3.317310
  N      2.695460   -0.550440   -1.231860
  S      3.509290    0.713020   -0.276490
  N      3.145840   -1.799400   -0.902330
  C      2.205980   -2.893580   -1.031380
  C      2.891550   -4.052710   -1.856980
  N      3.345650   -5.114950   -0.992830
  C      2.244710   -5.732310   -0.276830
  C      1.257570   -4.669360    0.308330
  C      0.876000   -5.063050    1.736070
  S      1.307490   -6.817030    1.951050
  C      2.745470   -6.600010    0.867960
  N      1.831970   -3.336630    0.298200
  N      4.028770   -3.504880   -2.559280
  S      4.698170   -2.341460   -1.469630
  C      3.923810   -3.189790   -3.901790
  S      2.433670   -3.415890   -4.782260
  C      3.195310   -2.834010   -6.252130
  C      4.490940   -2.467200   -6.035660
  C      4.915450   -2.689130   -4.699900
  C      6.332830   -2.439190   -4.297780
  C      6.927960   -1.293270   -5.146080
  C      6.196540   -0.046490   -4.755540
  O      5.060270    0.250530   -5.002780
  C      7.048770    0.897150   -3.854830
  F      7.492430    0.256080   -2.762900
  F      8.133390    1.335870   -4.514860
  F      6.365830    1.964470   -3.448690
  C      6.788300   -1.650570   -6.633400
  C      5.335480   -1.802520   -7.074400
  N      2.520460   -2.703870   -7.443410
  C      1.335900   -3.505980   -7.645480
  C      0.594880   -2.935650   -8.897360
  N      0.402690   -3.935970   -9.921110
  C     -0.186060   -5.151260   -9.391380
  C      0.637690   -5.731060   -8.190240
  C      1.121450   -7.129960   -8.552470
  S     -0.149030   -7.819550   -9.649410
  C     -0.289120   -6.212530  -10.483080
  N      1.756310   -4.875250   -7.837000
  N      1.452370   -1.898020   -9.436330
  S      2.195860   -1.102070   -8.037480
  N      0.877680   -1.122200  -10.403320
  C     -0.079280   -0.103650  -10.000670
  C      0.629150    1.314720  -10.089980
  N     -0.058740    2.184140  -11.018080
  C     -1.471560    2.297290  -10.716890
  C     -2.166440    0.895930  -10.619970
  C     -3.321740    0.842520  -11.614260
  S     -3.901940    2.551990  -11.803480
  C     -2.182140    3.131160  -11.778170
  N     -1.233190   -0.188510  -10.863280
  N      1.986590    1.129440  -10.550840
  S      2.020690   -0.334640  -11.430300
  H      1.929850    2.210540   -0.918620
  H      3.759860    1.779130   -3.097580
  H      3.613740   -0.528580   -3.150420
  H      0.735040   -0.326870   -2.748190
  H      2.269560   -0.475100   -5.226970
  H      2.543600    1.777440   -5.181630
  H      0.696380    3.020260   -5.968680
  H     -0.362330    2.425810   -4.675670
  H      0.130390   -1.372670   -5.751010
  H     -0.686080   -0.391440   -4.519890
  H      0.860250    1.894380   -2.806410
  H      1.305980   -2.542490   -1.551970
  H      2.184160   -4.484530   -2.572350
  H      4.047430   -4.748270   -0.353070
  H      1.707740   -6.362280   -0.996920
  H      0.361600   -4.624480   -0.320690
  H     -0.184540   -4.943930    1.937540
  H      1.443650   -4.477210    2.460570
  H      3.096310   -7.573030    0.537320
  H      3.535930   -6.100890    1.432820
  H      2.646370   -3.285890    0.904750
  H      6.929520   -3.336060   -4.486840
  H      6.410340   -2.214390   -3.232800
  H      7.987800   -1.183990   -4.899420
  H      7.318890   -2.592660   -6.783750
  H      7.277530   -0.888170   -7.241900
  H      5.284470   -2.364790   -8.009080
  H      4.898590   -0.818340   -7.275410
  H      0.667180   -3.490440   -6.764860
  H     -0.401630   -2.554920   -8.614210
  H      1.290090   -4.121670  -10.381080
  H     -1.189900   -4.883530   -9.042660
  H     -0.005280   -5.786310   -7.304120
  H      1.233990   -7.774430   -7.685820
  H      2.066070   -7.092430   -9.098920
  H     -1.232110   -6.173170  -11.019730
  H      0.532600   -6.121350  -11.195830
  H      2.475790   -4.901850   -8.556210
  H     -0.407490   -0.289030   -8.971040
  H      0.623170    1.797180   -9.106400
  H      0.094580    1.845050  -11.965020
  H     -1.544630    2.798170   -9.744700
  H     -2.547170    0.756330   -9.601840
  H     -4.146190    0.224650  -11.271220
  H     -2.984760    0.483390  -12.588630
  H     -2.168910    4.194210  -11.557330
  H     -1.747700    2.963810  -12.765670
  H     -0.923120   -0.195910  -11.832660
  H      2.661330    1.130080   -9.793900

 Total Charge           Charge          ....    0
 Multiplicity           Mult            ....    1
 Number of Electrons    NEL             ....  544
 Basis Dimension        Dim             .... 1163

ORBITAL ENERGIES
----------------

  NO   OCC          E(Eh)            E(eV)
   0   2.0000     -88.973420     -2421.0899
   1   2.0000     -88.968068     -2420.9442
   2   2.0000     -88.960940     -2420.7503
   3   2.0000     -88.957566     -2420.6584
   4   2.0000     -88.948033     -2420.3990
   5   2.0000     -88.913612     -2419.4624
   6   2.0000     -88.903724     -2419.1933
   7   2.0000     -88.901733     -2419.1391
   8   2.0000     -88.897870     -2419.0340
   9   2.0000     -24.814594      -675.2394
  10   2.0000     -24.814146      -675.2272
  11   2.0000     -24.812403      -675.1798
  12   2.0000     -19.255850      -523.9783
  13   2.0000     -14.458740      -393.4423
  14   2.0000     -14.457688      -393.4137
  15   2.0000     -14.455596      -393.3568
  16   2.0000     -14.449169      -393.1819
  17   2.0000     -14.444850      -393.0644
  18   2.0000     -14.444599      -393.0575
  19   2.0000     -14.422060      -392.4442
  20   2.0000     -14.418735      -392.3537
  21   2.0000     -14.402140      -391.9022
  22   2.0000     -14.398553      -391.8045
  23   2.0000     -14.398478      -391.8025
  24   2.0000     -14.393756      -391.6740
  25   2.0000     -14.390767      -391.5927
  26   2.0000     -14.389359      -391.5544
  27   2.0000     -14.387288      -391.4980
  28   2.0000     -14.383849      -391.4044
  29   2.0000     -10.522869      -286.3418
  30   2.0000     -10.395170      -282.8670
  31   2.0000     -10.336664      -281.2749
  32   2.0000     -10.334877      -281.2263
  33   2.0000     -10.330763      -281.1143
  34   2.0000     -10.326007      -280.9849
  35   2.0000     -10.322872      -280.8996
  36   2.0000     -10.322621      -280.8928
  37   2.0000     -10.320913      -280.8463
  38   2.0000     -10.320254      -280.8284
  39   2.0000     -10.315279      -280.6930
  40   2.0000     -10.312110      -280.6068
  41   2.0000     -10.299668      -280.2682
  42   2.0000     -10.299025      -280.2507
  43   2.0000     -10.297594      -280.2118
  44   2.0000     -10.297201      -280.2011
  45   2.0000     -10.295600      -280.1575
  46   2.0000     -10.294660      -280.1319
  47   2.0000     -10.293994      -280.1138
  48   2.0000     -10.293355      -280.0964
  49   2.0000     -10.293165      -280.0913
  50   2.0000     -10.288886      -279.9748
  51   2.0000     -10.288787      -279.9721
  52   2.0000     -10.288345      -279.9601
  53   2.0000     -10.287800      -279.9453
  54   2.0000     -10.287358      -279.9333
  55   2.0000     -10.285927      -279.8943
  56   2.0000     -10.285445      -279.8812
  57   2.0000     -10.282318      -279.7961
  58   2.0000     -10.281969      -279.7866
  59   2.0000     -10.281069      -279.7621
  60   2.0000     -10.267441      -279.3913
  61   2.0000     -10.263115      -279.2736
  62   2.0000     -10.262751      -279.2637
  63   2.0000      -8.064263      -219.4398
  64   2.0000      -8.059118      -219.2998
  65   2.0000      -8.052790      -219.1276
  66   2.0000      -8.049426      -219.0360
  67   2.0000      -8.042535      -218.8485
  68   2.0000      -8.009051      -217.9374
  69   2.0000      -8.000293      -217.6990
  70   2.0000      -7.998302      -217.6449
  71   2.0000      -7.994492      -217.5412
  72   2.0000      -6.037021      -164.2757
  73   2.0000      -6.031244      -164.1185
  74   2.0000      -6.030725      -164.1044
  75   2.0000      -6.027280      -164.0106
  76   2.0000      -6.025681      -163.9671
  77   2.0000      -6.022146      -163.8709
  78   2.0000      -6.021446      -163.8519
  79   2.0000      -6.019768      -163.8062
  80   2.0000      -6.016776      -163.7248
  81   2.0000      -6.016150      -163.7078
  82   2.0000      -6.011975      -163.5942
  83   2.0000      -6.009771      -163.5342
  84   2.0000      -6.008234      -163.4924
  85   2.0000      -6.006199      -163.4370
  86   2.0000      -6.004135      -163.3808
  87   2.0000      -5.979678      -162.7153
  88   2.0000      -5.975682      -162.6066
  89   2.0000      -5.970916      -162.4769
  90   2.0000      -5.968957      -162.4236
  91   2.0000      -5.968362      -162.4074
  92   2.0000      -5.966918      -162.3681
  93   2.0000      -5.965118      -162.3191
  94   2.0000      -5.964908      -162.3134
  95   2.0000      -5.961105      -162.2099
  96   2.0000      -5.959369      -162.1627
  97   2.0000      -5.957355      -162.1079
  98   2.0000      -5.953573      -162.0050
  99   2.0000      -1.402617       -38.1671
 100   2.0000      -1.306562       -35.5534
 101   2.0000      -1.305273       -35.5183
 102   2.0000      -1.171546       -31.8794
 103   2.0000      -1.129359       -30.7314
 104   2.0000      -1.123284       -30.5661
 105   2.0000      -1.079498       -29.3746
 106   2.0000      -1.077276       -29.3142
 107   2.0000      -1.047244       -28.4970
 108   2.0000      -1.042066       -28.3561
 109   2.0000      -1.028473       -27.9862
 110   2.0000      -1.023791       -27.8588
 111   2.0000      -1.011615       -27.5275
 112   2.0000      -1.003675       -27.3114
 113   2.0000      -0.978700       -26.6318
 114   2.0000      -0.977832       -26.6081
 115   2.0000      -0.972951       -26.4753
 116   2.0000      -0.957911       -26.0661
 117   2.0000      -0.952267       -25.9125
 118   2.0000      -0.931192       -25.3390
 119   2.0000      -0.924404       -25.1543
 120   2.0000      -0.922921       -25.1140
 121   2.0000      -0.917848       -24.9759
 122   2.0000      -0.912737       -24.8368
 123   2.0000      -0.898455       -24.4482
 124   2.0000      -0.888036       -24.1647
 125   2.0000      -0.862335       -23.4653
 126   2.0000      -0.845584       -23.0095
 127   2.0000      -0.830547       -22.6003
 128   2.0000      -0.828051       -22.5324
 129   2.0000      -0.823515       -22.4090
 130   2.0000      -0.820247       -22.3200
 131   2.0000      -0.816106       -22.2074
 132   2.0000      -0.810827       -22.0637
 133   2.0000      -0.809702       -22.0331
 134   2.0000      -0.806546       -21.9472
 135   2.0000      -0.801987       -21.8232
 136   2.0000      -0.791379       -21.5345
 137   2.0000      -0.777739       -21.1634
 138   2.0000      -0.761774       -20.7289
 139   2.0000      -0.759379       -20.6637
 140   2.0000      -0.758760       -20.6469
 141   2.0000      -0.754259       -20.5244
 142   2.0000      -0.749894       -20.4057
 143   2.0000      -0.734233       -19.9795
 144   2.0000      -0.718747       -19.5581
 145   2.0000      -0.714263       -19.4361
 146   2.0000      -0.705215       -19.1899
 147   2.0000      -0.699659       -19.0387
 148   2.0000      -0.696811       -18.9612
 149   2.0000      -0.689157       -18.7529
 150   2.0000      -0.685555       -18.6549
 151   2.0000      -0.683496       -18.5989
 152   2.0000      -0.678665       -18.4674
 153   2.0000      -0.676372       -18.4050
 154   2.0000      -0.673820       -18.3356
 155   2.0000      -0.668780       -18.1984
 156   2.0000      -0.660099       -17.9622
 157   2.0000      -0.655218       -17.8294
 158   2.0000      -0.653643       -17.7865
 159   2.0000      -0.650734       -17.7074
 160   2.0000      -0.647610       -17.6224
 161   2.0000      -0.645579       -17.5671
 162   2.0000      -0.641835       -17.4652
 163   2.0000      -0.636577       -17.3221
 164   2.0000      -0.627847       -17.0846
 165   2.0000      -0.621525       -16.9126
 166   2.0000      -0.611089       -16.6286
 167   2.0000      -0.602706       -16.4005
 168   2.0000      -0.596526       -16.2323
 169   2.0000      -0.591991       -16.1089
 170   2.0000      -0.589524       -16.0418
 171   2.0000      -0.588838       -16.0231
 172   2.0000      -0.578630       -15.7453
 173   2.0000      -0.577091       -15.7034
 174   2.0000      -0.570221       -15.5165
 175   2.0000      -0.568899       -15.4805
 176   2.0000      -0.566715       -15.4211
 177   2.0000      -0.563955       -15.3460
 178   2.0000      -0.563254       -15.3269
 179   2.0000      -0.561294       -15.2736
 180   2.0000      -0.560702       -15.2575
 181   2.0000      -0.558683       -15.2025
 182   2.0000      -0.556993       -15.1565
 183   2.0000      -0.554300       -15.0833
 184   2.0000      -0.549829       -14.9616
 185   2.0000      -0.547848       -14.9077
 186   2.0000      -0.545847       -14.8532
 187   2.0000      -0.542835       -14.7713
 188   2.0000      -0.535729       -14.5779
 189   2.0000      -0.532948       -14.5023
 190   2.0000      -0.529440       -14.4068
 191   2.0000      -0.528493       -14.3810
 192   2.0000      -0.524794       -14.2804
 193   2.0000      -0.524665       -14.2769
 194   2.0000      -0.523351       -14.2411
 195   2.0000      -0.522125       -14.2077
 196   2.0000      -0.519089       -14.1251
 197   2.0000      -0.518088       -14.0979
 198   2.0000      -0.514571       -14.0022
 199   2.0000      -0.514351       -13.9962
 200   2.0000      -0.511882       -13.9290
 201   2.0000      -0.505360       -13.7515
 202   2.0000      -0.504930       -13.7398
 203   2.0000      -0.501832       -13.6555
 204   2.0000      -0.498492       -13.5647
 205   2.0000      -0.489445       -13.3185
 206   2.0000      -0.487618       -13.2688
 207   2.0000      -0.483930       -13.1684
 208   2.0000      -0.481709       -13.1080
 209   2.0000      -0.480369       -13.0715
 210   2.0000      -0.478510       -13.0209
 211   2.0000      -0.477317       -12.9885
 212   2.0000      -0.475083       -12.9277
 213   2.0000      -0.472287       -12.8516
 214   2.0000      -0.470867       -12.8129
 215   2.0000      -0.467007       -12.7079
 216   2.0000      -0.461872       -12.5682
 217   2.0000      -0.458366       -12.4728
 218   2.0000      -0.455768       -12.4021
 219   2.0000      -0.455177       -12.3860
 220   2.0000      -0.452832       -12.3222
 221   2.0000      -0.450131       -12.2487
 222   2.0000      -0.448020       -12.1912
 223   2.0000      -0.446582       -12.1521
 224   2.0000      -0.445723       -12.1287
 225   2.0000      -0.441421       -12.0117
 226   2.0000      -0.440505       -11.9868
 227   2.0000      -0.435770       -11.8579
 228   2.0000      -0.435592       -11.8531
 229   2.0000      -0.430208       -11.7066
 230   2.0000      -0.428853       -11.6697
 231   2.0000      -0.427209       -11.6249
 232   2.0000      -0.424576       -11.5533
 233   2.0000      -0.420683       -11.4474
 234   2.0000      -0.418528       -11.3887
 235   2.0000      -0.411358       -11.1936
 236   2.0000      -0.410676       -11.1751
 237   2.0000      -0.409209       -11.1351
 238   2.0000      -0.407962       -11.1012
 239   2.0000      -0.405723       -11.0403
 240   2.0000      -0.402029       -10.9398
 241   2.0000      -0.399607       -10.8739
 242   2.0000      -0.393528       -10.7085
 243   2.0000      -0.390619       -10.6293
 244   2.0000      -0.383628       -10.4391
 245   2.0000      -0.377731       -10.2786
 246   2.0000      -0.374750       -10.1975
 247   2.0000      -0.371630       -10.1126
 248   2.0000      -0.367775       -10.0077
 249   2.0000      -0.364698        -9.9239
 250   2.0000      -0.358065        -9.7435
 251   2.0000      -0.343677        -9.3519
 252   2.0000      -0.341246        -9.2858
 253   2.0000      -0.334318        -9.0972
 254   2.0000      -0.331061        -9.0086
 255   2.0000      -0.329969        -8.9789
 256   2.0000      -0.318629        -8.6703
 257   2.0000      -0.305973        -8.3259
 258   2.0000      -0.302654        -8.2356
 259   2.0000      -0.299382        -8.1466
 260   2.0000      -0.293669        -7.9911
 261   2.0000      -0.292351        -7.9553
 262   2.0000      -0.285672        -7.7735
 263   2.0000      -0.283464        -7.7134
 264   2.0000      -0.281945        -7.6721
 265   2.0000      -0.279705        -7.6111
 266   2.0000      -0.279473        -7.6049
 267   2.0000      -0.276659        -7.5283
 268   2.0000      -0.272983        -7.4282
 269   2.0000      -0.265773        -7.2321
 270   2.0000      -0.261491        -7.1155
 271   2.0000      -0.235417        -6.4060
 272   0.0000      -0.022076        -0.6007
 273   0.0000       0.005820         0.1584
 274   0.0000       0.023977         0.6525
 275   0.0000       0.031729         0.8634
 276   0.0000       0.050492         1.3740

MULLIKEN ATOMIC CHARGES
-----------------------
   0 N :   -0.293532
   1 C :    0.131308
   2 C :    0.150957
   3 N :   -0.181588
   4 C :    0.029478
   5 C :    0.014202
   6 C :    0.048778
   7 S :   -0.123413
   8 C :    0.027520
   9 N :   -0.183657
  10 N :   -0.330070
  11 S :    0.264995
  12 N :   -0.332235
  13 C :    0.221954
  14 C :    0.060325
  15 N :   -0.135539
  16 C :    0.034063
  17 C :   -0.003076
  18 C :    0.030918
  19 S :   -0.096472
  20 C :   -0.011745
  21 N :   -0.150222
  22 N :   -0.333121
  23 S :    0.269486
  24 C :   -0.048329
  25 S :    0.077579
  26 C :   -0.092357
  27 C :   -0.020155
  28 C :   -0.087240
  29 C :    0.193558
  30 C :   -0.131410
  31 C :    0.009440
  32 O :   -0.150425
  33 C :    0.506155
  34 F :   -0.156060
  35 F :   -0.163497
  36 F :   -0.130288
  37 C :    0.077583
  38 C :    0.139408
  39 N :   -0.379104
  40 C :    0.179438
  41 C :    0.207461
  42 N :   -0.156410
  43 C :    0.008577
  44 C :    0.023172
  45 C :    0.008771
  46 S :   -0.092032
  47 C :    0.019218
  48 N :   -0.167731
  49 N :   -0.311366
  50 S :    0.249957
  51 N :   -0.290461
  52 C :    0.090243
  53 C :    0.098190
  54 N :   -0.152529
  55 C :    0.022991
  56 C :    0.020566
  57 C :    0.015954
  58 S :   -0.098219
  59 C :    0.012235
  60 N :   -0.147892
  61 N :   -0.294969
  62 S :    0.265124
  63 H :    0.131765
  64 H :    0.001614
  65 H :    0.023256
  66 H :    0.086295
  67 H :    0.015806
  68 H :    0.005069
  69 H :    0.048208
  70 H :    0.027619
  71 H :    0.026629
  72 H :    0.025337
  73 H :    0.076725
  74 H :    0.004119
  75 H :    0.022381
  76 H :    0.086433
  77 H :   -0.000713
  78 H :   -0.005005
  79 H :    0.047069
  80 H :    0.032052
  81 H :    0.054887
  82 H :    0.029162
  83 H :    0.089153
  84 H :    0.027696
  85 H :    0.003218
  86 H :    0.025078
  87 H :    0.011768
  88 H :    0.010062
  89 H :    0.015098
  90 H :    0.015819
  91 H :   -0.000677
  92 H :   -0.005593
  93 H :    0.088110
  94 H :   -0.003413
  95 H :   -0.004073
  96 H :    0.054189
  97 H :    0.026758
  98 H :    0.052824
  99 H :    0.028254
 100 H :    0.093200
 101 H :    0.026963
 102 H :   -0.001534
 103 H :    0.085431
 104 H :   -0.008641
 105 H :   -0.006239
 106 H :    0.048127
 107 H :    0.027122
 108 H :    0.049941
 109 H :    0.026871
 110 H :    0.087330
 111 H :    0.133987
Sum of atomic charges:   -0.0000000

LOEWDIN ATOMIC CHARGES
----------------------
   0 N :   -0.215644
   1 C :    0.032325
   2 C :    0.000176
   3 N :   -0.092019
   4 C :   -0.014913
   5 C :   -0.005311
   6 C :   -0.123329
   7 S :    0.219452
   8 C :   -0.125537
   9 N :   -0.088868
  10 N :   -0.205853
  11 S :    0.360998
  12 N :   -0.205239
  13 C :    0.033428
  14 C :    0.025405
  15 N :   -0.091161
  16 C :   -0.015494
  17 C :   -0.012746
  18 C :   -0.124105
  19 S :    0.203673
  20 C :   -0.125832
  21 N :   -0.094566
  22 N :   -0.198731
  23 S :    0.398605
  24 C :   -0.150603
  25 S :    0.411543
  26 C :   -0.182903
  27 C :   -0.071589
  28 C :   -0.109127
  29 C :   -0.006199
  30 C :   -0.059943
  31 C :    0.063611
  32 O :   -0.088372
  33 C :    0.134760
  34 F :   -0.054479
  35 F :   -0.059289
  36 F :   -0.033087
  37 C :   -0.010872
  38 C :   -0.031486
  39 N :   -0.198121
  40 C :    0.029885
  41 C :    0.029827
  42 N :   -0.083935
  43 C :   -0.011585
  44 C :   -0.014145
  45 C :   -0.124236
  46 S :    0.204515
  47 C :   -0.123097
  48 N :   -0.089001
  49 N :   -0.195871
  50 S :    0.372001
  51 N :   -0.187813
  52 C :    0.003822
  53 C :    0.016923
  54 N :   -0.092855
  55 C :   -0.014344
  56 C :   -0.014234
  57 C :   -0.124151
  58 S :    0.200436
  59 C :   -0.124078
  60 N :   -0.089126
  61 N :   -0.221640
  62 S :    0.371885
  63 H :    0.050273
  64 H :    0.015820
  65 H :   -0.004359
  66 H :    0.039097
  67 H :    0.014504
  68 H :    0.026189
  69 H :    0.029368
  70 H :    0.016957
  71 H :    0.013631
  72 H :    0.015009
  73 H :    0.038360
  74 H :    0.015402
  75 H :    0.013895
  76 H :    0.037246
  77 H :    0.019166
  78 H :    0.018583
  79 H :    0.028571
  80 H :    0.019113
  81 H :    0.030388
  82 H :    0.013480
  83 H :    0.046707
  84 H :    0.039170
  85 H :    0.009329
  86 H :    0.035892
  87 H :    0.029591
  88 H :    0.028117
  89 H :    0.035470
  90 H :    0.019303
  91 H :   -0.006329
  92 H :    0.003457
  93 H :    0.047261
  94 H :    0.021429
  95 H :    0.020574
  96 H :    0.030562
  97 H :    0.015415
  98 H :    0.030556
  99 H :    0.016866
 100 H :    0.049816
 101 H :    0.004172
 102 H :    0.009317
 103 H :    0.042435
 104 H :    0.018929
 105 H :    0.019771
 106 H :    0.028553
 107 H :    0.015912
 108 H :    0.028953
 109 H :    0.015727
 110 H :    0.043324
 111 H :    0.041282

  Mayer bond orders larger than 0.100000
B(  0-N ,  1-C ) :   1.0222 B(  0-N , 11-S ) :   1.0537 B(  0-N , 63-H ) :   0.9277
B(  1-C ,  2-C ) :   0.9516 B(  1-C ,  9-N ) :   1.0938 B(  1-C , 64-H ) :   0.9030
B(  2-C ,  3-N ) :   1.0930 B(  2-C , 10-N ) :   0.9526 B(  2-C , 65-H ) :   0.8863
B(  3-N ,  4-C ) :   1.0572 B(  3-N , 66-H ) :   0.8911 B(  4-C ,  5-C ) :   0.9992
B(  4-C ,  8-C ) :   1.0298 B(  4-C , 67-H ) :   0.8975 B(  5-C ,  6-C ) :   1.0330
B(  5-C ,  9-N ) :   1.0705 B(  5-C , 68-H ) :   0.9016 B(  6-C ,  7-S ) :   1.0154
B(  6-C , 69-H ) :   0.9485 B(  6-C , 70-H ) :   0.9322 B(  7-S ,  8-C ) :   1.0110
B(  8-C , 71-H ) :   0.9403 B(  8-C , 72-H ) :   0.9305 B(  9-N , 73-H ) :   0.9047
B( 10-N , 11-S ) :   0.8727 B( 10-N , 12-N ) :   0.9723 B( 12-N , 13-C ) :   0.9381
B( 12-N , 23-S ) :   0.9449 B( 13-C , 14-C ) :   0.9522 B( 13-C , 21-N ) :   1.1133
B( 13-C , 74-H ) :   0.9241 B( 14-C , 15-N ) :   1.0964 B( 14-C , 22-N ) :   0.9567
B( 14-C , 75-H ) :   0.9012 B( 15-N , 16-C ) :   1.0699 B( 15-N , 76-H ) :   0.9125
B( 16-C , 17-C ) :   0.9748 B( 16-C , 20-C ) :   1.0233 B( 16-C , 77-H ) :   0.9125
B( 17-C , 18-C ) :   1.0382 B( 17-C , 21-N ) :   1.0748 B( 17-C , 78-H ) :   0.9088
B( 18-C , 19-S ) :   1.0160 B( 18-C , 79-H ) :   0.9465 B( 18-C , 80-H ) :   0.9344
B( 19-S , 20-C ) :   1.0160 B( 20-C , 81-H ) :   0.9498 B( 20-C , 82-H ) :   0.9372
B( 21-N , 83-H ) :   0.9023 B( 22-N , 23-S ) :   0.9446 B( 22-N , 24-C ) :   1.0487
B( 24-C , 25-S ) :   1.1164 B( 24-C , 28-C ) :   1.5744 B( 25-S , 26-C ) :   1.0735
B( 26-C , 27-C ) :   1.6031 B( 26-C , 39-N ) :   1.0511 B( 27-C , 28-C ) :   1.2540
B( 27-C , 38-C ) :   1.0611 B( 28-C , 29-C ) :   1.0355 B( 29-C , 30-C ) :   1.0420
B( 29-C , 84-H ) :   0.9035 B( 29-C , 85-H ) :   0.9026 B( 30-C , 31-C ) :   0.9132
B( 30-C , 37-C ) :   1.0412 B( 30-C , 86-H ) :   0.9096 B( 31-C , 32-O ) :   2.1273
B( 31-C , 33-C ) :   0.8839 B( 33-C , 34-F ) :   1.1440 B( 33-C , 35-F ) :   1.1428
B( 33-C , 36-F ) :   1.1771 B( 37-C , 38-C ) :   1.0850 B( 37-C , 87-H ) :   0.9383
B( 37-C , 88-H ) :   0.9382 B( 38-C , 89-H ) :   0.9084 B( 38-C , 90-H ) :   0.8936
B( 39-N , 40-C ) :   0.9824 B( 39-N , 50-S ) :   0.9217 B( 40-C , 41-C ) :   0.9479
B( 40-C , 48-N ) :   1.1213 B( 40-C , 91-H ) :   0.8985 B( 41-C , 42-N ) :   1.1276
B( 41-C , 49-N ) :   0.9533 B( 41-C , 92-H ) :   0.9038 B( 42-N , 43-C ) :   1.0811
B( 42-N , 93-H ) :   0.9018 B( 43-C , 44-C ) :   0.9788 B( 43-C , 47-C ) :   1.0392
B( 43-C , 94-H ) :   0.9046 B( 44-C , 45-C ) :   1.0350 B( 44-C , 48-N ) :   1.0699
B( 44-C , 95-H ) :   0.9067 B( 45-C , 46-S ) :   1.0159 B( 45-C , 96-H ) :   0.9484
B( 45-C , 97-H ) :   0.9324 B( 46-S , 47-C ) :   1.0155 B( 47-C , 98-H ) :   0.9482
B( 47-C , 99-H ) :   0.9312 B( 48-N ,100-H ) :   0.9049 B( 49-N , 50-S ) :   0.9052
B( 49-N , 51-N ) :   1.0009 B( 51-N , 52-C ) :   0.9426 B( 51-N , 62-S ) :   0.9548
B( 52-C , 53-C ) :   0.9428 B( 52-C , 60-N ) :   1.1037 B( 52-C ,101-H ) :   0.9110
B( 53-C , 54-N ) :   1.0871 B( 53-C , 61-N ) :   1.0573 B( 53-C ,102-H ) :   0.9111
B( 54-N , 55-C ) :   1.0763 B( 54-N ,103-H ) :   0.9083 B( 55-C , 56-C ) :   0.9766
B( 55-C , 59-C ) :   1.0346 B( 55-C ,104-H ) :   0.9040 B( 56-C , 57-C ) :   1.0334
B( 56-C , 60-N ) :   1.0705 B( 56-C ,105-H ) :   0.9047 B( 57-C , 58-S ) :   1.0151
B( 57-C ,106-H ) :   0.9484 B( 57-C ,107-H ) :   0.9327 B( 58-S , 59-C ) :   1.0146
B( 59-C ,108-H ) :   0.9490 B( 59-C ,109-H ) :   0.9327 B( 60-N ,110-H ) :   0.9064
B( 61-N , 62-S ) :   0.9942 B( 61-N ,111-H ) :   0.9422

-----------------------------------------------------------------------------
         ABSORPTION SPECTRUM VIA TRANSITION ELECTRIC DIPOLE MOMENTS
-----------------------------------------------------------------------------
State   Energy  Wavelength   fosc         T2         TX        TY        TZ
        (cm-1)    (nm)                  (au**2)     (au)      (au)      (au)
-----------------------------------------------------------------------------
   0   25582.9    390.9   0.008956642   0.11526  -0.10903  -0.24412   0.20922
   1   27594.9    362.4   0.074266545   0.88601  -0.44260   0.27988  -0.78217
   2   33771.0    296.1   0.003655838   0.03564   0.02115  -0.13328  -0.13202
   3   34388.4    290.8   0.008086278   0.07741  -0.19381  -0.19920   0.01306
   4   35081.2    285.1   0.067943954   0.63761  -0.18755   0.35861  -0.68835
   5   35331.6    283.0   0.014094546   0.13133   0.16770   0.16060   0.27824
   6   36292.7    275.5   0.001294140   0.01174  -0.02164   0.00380  -0.10610
   7   36959.5    270.6   0.130073123   1.15861   0.37080  -0.08439   1.00698
   8   38009.6    263.1   0.016000045   0.13858   0.20357   0.24816   0.18856
   9   39384.0    253.9   0.004532108   0.03788   0.12022   0.11879  -0.09654
  10   39734.0    251.7   0.103890528   0.86077  -0.44318   0.61234   0.53796

FINAL SINGLE POINT ENERGY     -6155.189477487477

DIPOLE MOMENT
-------------
                                X             Y             Z
Electronic contribution:     42.89091      18.02354      22.21710
Nuclear contribution   :    -42.27871     -18.20752     -22.17385
                        -----------------------------------------
Total Dipole Moment    :      0.61219      -0.18397       0.04325
                        -----------------------------------------
Magnitude (a.u.)       :      0.64070
Magnitude (Debye)      :      1.62853

Rotational constants in cm-1:     0.001317     0.000683     0.000588
Rotational constants in MHz :    39.475447    20.476161    17.619753

                             ****ORCA TERMINATED NORMALLY****
TOTAL RUN TIME: 0 days 0 hours 11 minutes 46 seconds 374 msec
