                         Program Version 4.2.0 -  RELEASE  -
|  1> # ORCA input file
|  2> # SCF done       -181.360919570327          0.000581950385
|  3> ! CAM-B3LYP def2-SVP def2/J RIJCOSX Grid4 TightSCF
|  4> %maxcore 5000
|  5> %tddft
|  6>     Mode sTDDFT
|  7>     Ethresh 5.0
|  8>     maxcore 5000
|  9> end
| 10>
| 11> %pal
| 12>   nprocs 6
| 13>   end
| 14> * xyz 0 1
| 15>    C       -9.95992         5.33665        -1.02085
| 16>    C      -10.74480         6.18629        -1.78462
| 17>    C      -10.45930         6.29062        -3.13121
| 18>    C       -9.41783         5.55509        -3.70885
| 19>    C       -9.36783         5.89651        -5.15597
| 20>    O       -8.63144         5.49443        -6.01697
| 21>    N      -10.39065         6.81579        -5.35063
| 22>    C      -11.09243         7.11041        -4.19257
| 23>    O      -12.02069         7.87525        -4.11774
| 24>    C      -10.66015         7.44231        -6.62757
| 25>    C       -9.86615         8.73422        -6.78544
| 26>    C       -8.63607         4.70284        -2.96522
| 27>    C       -8.91440         4.60126        -1.59074
| 28>    C       -8.10151         3.74767        -0.75811
| 29>    O       -8.32781         3.70684         0.58421
| 30>    C       -7.04301         2.91670        -1.04413
| 31>    C       -6.18109         2.38973        -2.11169
| 32>    O       -6.17933         2.59286        -3.29775
| 33>    N       -5.29933         1.55064        -1.44188
| 34>    C       -5.47938         1.46856        -0.05941
| 35>    O       -4.81188         0.80166         0.68677
| 36>    C       -6.61452         2.35602         0.18914
| 37>    C       -7.42986         2.87186         1.17339
| 38>    C       -7.40827         2.67632         2.58394
| 39>    C       -8.29603         3.24169         3.42590
| 40>    C       -8.21308         3.16016         4.86456
| 41>    C       -6.98077         3.10499         5.45725
| 42>    S       -6.99836         3.18610         7.16491
| 43>    C       -8.73349         3.26555         7.13786
| 44>    C       -9.27869         3.22740         5.84489
| 45>    C      -10.69113         3.22983         5.70366
| 46>    C      -11.29003         3.04631         4.33229
| 47>    C      -11.02026         1.63886         3.79494
| 48>    C      -11.50672         3.34129         6.82461
| 49>    C      -13.00589         3.44152         6.70708
| 50>    C      -13.67594         2.06648         6.65156
| 51>    C      -10.94096         3.38794         8.12210
| 52>    C      -11.56498         3.52442         9.41962
| 53>    C      -10.63810         3.62708        10.41670
| 54>    S       -9.00548         3.51202         9.89758
| 55>    C       -9.54559         3.36142         8.25446
| 56>    C      -12.97485         3.50257         9.74315
| 57>    C      -13.53347         4.32935        10.65757
| 58>    C      -14.88740         4.33593        11.07831
| 59>    C      -15.88502         3.43877        10.80946
| 60>    C      -17.22015         3.54538        11.29014
| 61>    C      -18.03450         2.51476        10.94531
| 62>    C      -17.39836         1.51612        10.16955
| 63>    S      -15.73083         1.95683         9.87395
| 64>    C      -17.93057         0.33540         9.70102
| 65>    C      -19.24851        -0.15224         9.86649
| 66>    C      -19.45386        -1.38018         9.32286
| 67>    C      -18.30935        -1.94231         8.69589
| 68>    S      -16.96247        -0.82347         8.80414
| 69>    C      -18.24377        -3.17822         8.11455
| 70>    C      -17.12451        -3.78213         7.51349
| 71>    S      -15.54192        -3.04404         7.33195
| 72>    C      -14.85055        -4.41634         6.56091
| 73>    C      -15.78048        -5.42129         6.43516
| 74>    C      -17.05181        -5.05343         6.97061
| 75>    O      -17.94253        -6.05895         6.83757
| 76>    C      -17.25637        -7.06161         6.22500
| 77>    N      -17.95191        -8.26365         5.95651
| 78>    O      -17.31811        -9.14425         5.40491
| 79>    O      -19.11439        -8.33684         6.29220
| 80>    C      -15.95148        -6.74817         5.95320
| 81>    H      -10.14832         5.23482         0.03682
| 82>    H      -11.55076         6.75364        -1.34610
| 83>    H      -11.73257         7.64637        -6.67298
| 84>    H      -10.38275         6.72744        -7.40577
| 85>    H      -10.13730         9.43982        -6.00343
| 86>    H      -10.08123         9.18256        -7.75113
| 87>    H       -8.79986         8.52911        -6.72426
| 88>    H       -7.83658         4.13735        -3.41902
| 89>    H       -4.57415         1.03836        -1.92383
| 90>    H       -6.62058         2.02671         2.93472
| 91>    H       -9.08354         3.84309         2.99884
| 92>    H       -6.03429         3.08138         4.95353
| 93>    H      -12.36639         3.19150         4.36050
| 94>    H      -10.89240         3.79295         3.64537
| 95>    H      -11.43051         0.89496         4.47417
| 96>    H       -9.95545         1.45034         3.68930
| 97>    H      -11.48940         1.51455         2.82133
| 98>    H      -13.28329         4.01889         5.82409
| 99>    H      -13.38169         3.99606         7.56753
|100>    H      -13.43634         1.55593         5.72278
|101>    H      -14.75647         2.16967         6.71838
|102>    H      -13.33993         1.43804         7.47305
|103>    H      -10.84073         3.70883        11.46685
|104>    H      -13.57652         2.75478         9.25356
|105>    H      -12.91137         5.10148        11.09274
|106>    H      -15.17666         5.16187        11.71649
|107>    H      -17.52741         4.38758        11.88515
|108>    H      -19.06697         2.43556        11.23426
|109>    H      -20.00150         0.41427        10.38418
|110>    H      -20.38690        -1.91419         9.35394
|111>    H      -19.14077        -3.78347         8.12052
|112>    H      -13.82493        -4.39920         6.25740
|113>    H      -15.23669        -7.38782         5.47874
|114> *
|115>
|116>                          ****END OF INPUT****

CARTESIAN COORDINATES (ANGSTROEM)
---------------------------------
  C     -9.959920    5.336650   -1.020850
  C    -10.744800    6.186290   -1.784620
  C    -10.459300    6.290620   -3.131210
  C     -9.417830    5.555090   -3.708850
  C     -9.367830    5.896510   -5.155970
  O     -8.631440    5.494430   -6.016970
  N    -10.390650    6.815790   -5.350630
  C    -11.092430    7.110410   -4.192570
  O    -12.020690    7.875250   -4.117740
  C    -10.660150    7.442310   -6.627570
  C     -9.866150    8.734220   -6.785440
  C     -8.636070    4.702840   -2.965220
  C     -8.914400    4.601260   -1.590740
  C     -8.101510    3.747670   -0.758110
  O     -8.327810    3.706840    0.584210
  C     -7.043010    2.916700   -1.044130
  C     -6.181090    2.389730   -2.111690
  O     -6.179330    2.592860   -3.297750
  N     -5.299330    1.550640   -1.441880
  C     -5.479380    1.468560   -0.059410
  O     -4.811880    0.801660    0.686770
  C     -6.614520    2.356020    0.189140
  C     -7.429860    2.871860    1.173390
  C     -7.408270    2.676320    2.583940
  C     -8.296030    3.241690    3.425900
  C     -8.213080    3.160160    4.864560
  C     -6.980770    3.104990    5.457250
  S     -6.998360    3.186100    7.164910
  C     -8.733490    3.265550    7.137860
  C     -9.278690    3.227400    5.844890
  C    -10.691130    3.229830    5.703660
  C    -11.290030    3.046310    4.332290
  C    -11.020260    1.638860    3.794940
  C    -11.506720    3.341290    6.824610
  C    -13.005890    3.441520    6.707080
  C    -13.675940    2.066480    6.651560
  C    -10.940960    3.387940    8.122100
  C    -11.564980    3.524420    9.419620
  C    -10.638100    3.627080   10.416700
  S     -9.005480    3.512020    9.897580
  C     -9.545590    3.361420    8.254460
  C    -12.974850    3.502570    9.743150
  C    -13.533470    4.329350   10.657570
  C    -14.887400    4.335930   11.078310
  C    -15.885020    3.438770   10.809460
  C    -17.220150    3.545380   11.290140
  C    -18.034500    2.514760   10.945310
  C    -17.398360    1.516120   10.169550
  S    -15.730830    1.956830    9.873950
  C    -17.930570    0.335400    9.701020
  C    -19.248510   -0.152240    9.866490
  C    -19.453860   -1.380180    9.322860
  C    -18.309350   -1.942310    8.695890
  S    -16.962470   -0.823470    8.804140
  C    -18.243770   -3.178220    8.114550
  C    -17.124510   -3.782130    7.513490
  S    -15.541920   -3.044040    7.331950
  C    -14.850550   -4.416340    6.560910
  C    -15.780480   -5.421290    6.435160
  C    -17.051810   -5.053430    6.970610
  O    -17.942530   -6.058950    6.837570
  C    -17.256370   -7.061610    6.225000
  N    -17.951910   -8.263650    5.956510
  O    -17.318110   -9.144250    5.404910
  O    -19.114390   -8.336840    6.292200
  C    -15.951480   -6.748170    5.953200
  H    -10.148320    5.234820    0.036820
  H    -11.550760    6.753640   -1.346100
  H    -11.732570    7.646370   -6.672980
  H    -10.382750    6.727440   -7.405770
  H    -10.137300    9.439820   -6.003430
  H    -10.081230    9.182560   -7.751130
  H     -8.799860    8.529110   -6.724260
  H     -7.836580    4.137350   -3.419020
  H     -4.574150    1.038360   -1.923830
  H     -6.620580    2.026710    2.934720
  H     -9.083540    3.843090    2.998840
  H     -6.034290    3.081380    4.953530
  H    -12.366390    3.191500    4.360500
  H    -10.892400    3.792950    3.645370
  H    -11.430510    0.894960    4.474170
  H     -9.955450    1.450340    3.689300
  H    -11.489400    1.514550    2.821330
  H    -13.283290    4.018890    5.824090
  H    -13.381690    3.996060    7.567530
  H    -13.436340    1.555930    5.722780
  H    -14.756470    2.169670    6.718380
  H    -13.339930    1.438040    7.473050
  H    -10.840730    3.708830   11.466850
  H    -13.576520    2.754780    9.253560
  H    -12.911370    5.101480   11.092740
  H    -15.176660    5.161870   11.716490
  H    -17.527410    4.387580   11.885150
  H    -19.066970    2.435560   11.234260
  H    -20.001500    0.414270   10.384180
  H    -20.386900   -1.914190    9.353940
  H    -19.140770   -3.783470    8.120520
  H    -13.824930   -4.399200    6.257400
  H    -15.236690   -7.387820    5.478740

 Total Charge           Charge          ....    0
 Multiplicity           Mult            ....    1
 Number of Electrons    NEL             ....  498
 Basis Dimension        Dim             .... 1109

ORBITAL ENERGIES
----------------

  NO   OCC          E(Eh)            E(eV)
   0   2.0000     -88.976582     -2421.1759
   1   2.0000     -88.958862     -2420.6937
   2   2.0000     -88.953481     -2420.5473
   3   2.0000     -88.951496     -2420.4933
   4   2.0000     -88.951030     -2420.4806
   5   2.0000     -19.316677      -525.6335
   6   2.0000     -19.309193      -525.4298
   7   2.0000     -19.243292      -523.6366
   8   2.0000     -19.241042      -523.5754
   9   2.0000     -19.214948      -522.8653
  10   2.0000     -19.211129      -522.7614
  11   2.0000     -19.207593      -522.6652
  12   2.0000     -19.207120      -522.6523
  13   2.0000     -14.654880      -398.7796
  14   2.0000     -14.456549      -393.3827
  15   2.0000     -14.448634      -393.1673
  16   2.0000     -10.403668      -283.0982
  17   2.0000     -10.400549      -283.0133
  18   2.0000     -10.387495      -282.6581
  19   2.0000     -10.387011      -282.6449
  20   2.0000     -10.386751      -282.6379
  21   2.0000     -10.366113      -282.0763
  22   2.0000     -10.364556      -282.0339
  23   2.0000     -10.345996      -281.5289
  24   2.0000     -10.318152      -280.7712
  25   2.0000     -10.314925      -280.6834
  26   2.0000     -10.314402      -280.6692
  27   2.0000     -10.313213      -280.6368
  28   2.0000     -10.312281      -280.6114
  29   2.0000     -10.312115      -280.6069
  30   2.0000     -10.311622      -280.5935
  31   2.0000     -10.309439      -280.5341
  32   2.0000     -10.303163      -280.3633
  33   2.0000     -10.302591      -280.3478
  34   2.0000     -10.301754      -280.3250
  35   2.0000     -10.300339      -280.2865
  36   2.0000     -10.298843      -280.2458
  37   2.0000     -10.298023      -280.2235
  38   2.0000     -10.297605      -280.2121
  39   2.0000     -10.297202      -280.2011
  40   2.0000     -10.295530      -280.1556
  41   2.0000     -10.295048      -280.1425
  42   2.0000     -10.294358      -280.1237
  43   2.0000     -10.294300      -280.1221
  44   2.0000     -10.293849      -280.1099
  45   2.0000     -10.293211      -280.0925
  46   2.0000     -10.291719      -280.0519
  47   2.0000     -10.291238      -280.0388
  48   2.0000     -10.290812      -280.0272
  49   2.0000     -10.289862      -280.0014
  50   2.0000     -10.289767      -279.9988
  51   2.0000     -10.289316      -279.9865
  52   2.0000     -10.288756      -279.9713
  53   2.0000     -10.285120      -279.8723
  54   2.0000     -10.283051      -279.8160
  55   2.0000     -10.281651      -279.7779
  56   2.0000     -10.280358      -279.7428
  57   2.0000     -10.279577      -279.7215
  58   2.0000     -10.278804      -279.7005
  59   2.0000     -10.277245      -279.6581
  60   2.0000     -10.275751      -279.6174
  61   2.0000     -10.269724      -279.4534
  62   2.0000     -10.263769      -279.2913
  63   2.0000     -10.257949      -279.1330
  64   2.0000     -10.256096      -279.0826
  65   2.0000     -10.255443      -279.0648
  66   2.0000      -8.071086      -219.6254
  67   2.0000      -8.055112      -219.1908
  68   2.0000      -8.049755      -219.0450
  69   2.0000      -8.047491      -218.9834
  70   2.0000      -8.046536      -218.9574
  71   2.0000      -6.040427      -164.3684
  72   2.0000      -6.036002      -164.2480
  73   2.0000      -6.033516      -164.1803
  74   2.0000      -6.024545      -163.9362
  75   2.0000      -6.020316      -163.8211
  76   2.0000      -6.019249      -163.7921
  77   2.0000      -6.017311      -163.7393
  78   2.0000      -6.016918      -163.7287
  79   2.0000      -6.016300      -163.7118
  80   2.0000      -6.015035      -163.6774
  81   2.0000      -6.013194      -163.6273
  82   2.0000      -6.012234      -163.6012
  83   2.0000      -6.011407      -163.5787
  84   2.0000      -6.008349      -163.4955
  85   2.0000      -6.007545      -163.4736
  86   2.0000      -1.326215       -36.0881
  87   2.0000      -1.231821       -33.5196
  88   2.0000      -1.229016       -33.4432
  89   2.0000      -1.158095       -31.5134
  90   2.0000      -1.153713       -31.3941
  91   2.0000      -1.142399       -31.0863
  92   2.0000      -1.137329       -30.9483
  93   2.0000      -1.130200       -30.7543
  94   2.0000      -1.044723       -28.4284
  95   2.0000      -1.044395       -28.4194
  96   2.0000      -1.006198       -27.3800
  97   2.0000      -1.002055       -27.2673
  98   2.0000      -0.994470       -27.0609
  99   2.0000      -0.979897       -26.6644
 100   2.0000      -0.976939       -26.5839
 101   2.0000      -0.975192       -26.5363
 102   2.0000      -0.935376       -25.4529
 103   2.0000      -0.930890       -25.3308
 104   2.0000      -0.928018       -25.2527
 105   2.0000      -0.925793       -25.1921
 106   2.0000      -0.912523       -24.8310
 107   2.0000      -0.904453       -24.6114
 108   2.0000      -0.898838       -24.4586
 109   2.0000      -0.883080       -24.0298
 110   2.0000      -0.877444       -23.8765
 111   2.0000      -0.871158       -23.7054
 112   2.0000      -0.865687       -23.5565
 113   2.0000      -0.857046       -23.3214
 114   2.0000      -0.852971       -23.2105
 115   2.0000      -0.848123       -23.0786
 116   2.0000      -0.837390       -22.7865
 117   2.0000      -0.833303       -22.6753
 118   2.0000      -0.826674       -22.4949
 119   2.0000      -0.815670       -22.1955
 120   2.0000      -0.813698       -22.1419
 121   2.0000      -0.794952       -21.6317
 122   2.0000      -0.788356       -21.4523
 123   2.0000      -0.783663       -21.3245
 124   2.0000      -0.774099       -21.0643
 125   2.0000      -0.770887       -20.9769
 126   2.0000      -0.766810       -20.8659
 127   2.0000      -0.752372       -20.4731
 128   2.0000      -0.748901       -20.3786
 129   2.0000      -0.735858       -20.0237
 130   2.0000      -0.721448       -19.6316
 131   2.0000      -0.720150       -19.5963
 132   2.0000      -0.709562       -19.3082
 133   2.0000      -0.707461       -19.2510
 134   2.0000      -0.705594       -19.2002
 135   2.0000      -0.697702       -18.9854
 136   2.0000      -0.694009       -18.8849
 137   2.0000      -0.691470       -18.8159
 138   2.0000      -0.685564       -18.6552
 139   2.0000      -0.676636       -18.4122
 140   2.0000      -0.669160       -18.2088
 141   2.0000      -0.653653       -17.7868
 142   2.0000      -0.649426       -17.6718
 143   2.0000      -0.645092       -17.5538
 144   2.0000      -0.640048       -17.4166
 145   2.0000      -0.637880       -17.3576
 146   2.0000      -0.634424       -17.2635
 147   2.0000      -0.627159       -17.0659
 148   2.0000      -0.625892       -17.0314
 149   2.0000      -0.624461       -16.9924
 150   2.0000      -0.616686       -16.7809
 151   2.0000      -0.612733       -16.6733
 152   2.0000      -0.601887       -16.3782
 153   2.0000      -0.601067       -16.3559
 154   2.0000      -0.592076       -16.1112
 155   2.0000      -0.591411       -16.0931
 156   2.0000      -0.589037       -16.0285
 157   2.0000      -0.586593       -15.9620
 158   2.0000      -0.584449       -15.9037
 159   2.0000      -0.580382       -15.7930
 160   2.0000      -0.578914       -15.7531
 161   2.0000      -0.570966       -15.5368
 162   2.0000      -0.566001       -15.4017
 163   2.0000      -0.563898       -15.3444
 164   2.0000      -0.559401       -15.2221
 165   2.0000      -0.558572       -15.1995
 166   2.0000      -0.552978       -15.0473
 167   2.0000      -0.547342       -14.8939
 168   2.0000      -0.546760       -14.8781
 169   2.0000      -0.545585       -14.8461
 170   2.0000      -0.538194       -14.6450
 171   2.0000      -0.536673       -14.6036
 172   2.0000      -0.535130       -14.5616
 173   2.0000      -0.530733       -14.4420
 174   2.0000      -0.527919       -14.3654
 175   2.0000      -0.525574       -14.3016
 176   2.0000      -0.519293       -14.1307
 177   2.0000      -0.518297       -14.1036
 178   2.0000      -0.516180       -14.0460
 179   2.0000      -0.514540       -14.0014
 180   2.0000      -0.510557       -13.8930
 181   2.0000      -0.508955       -13.8494
 182   2.0000      -0.504651       -13.7322
 183   2.0000      -0.504580       -13.7303
 184   2.0000      -0.503081       -13.6895
 185   2.0000      -0.502111       -13.6631
 186   2.0000      -0.497730       -13.5439
 187   2.0000      -0.494338       -13.4516
 188   2.0000      -0.490836       -13.3563
 189   2.0000      -0.490228       -13.3398
 190   2.0000      -0.487507       -13.2657
 191   2.0000      -0.485092       -13.2000
 192   2.0000      -0.480637       -13.0788
 193   2.0000      -0.480347       -13.0709
 194   2.0000      -0.479647       -13.0518
 195   2.0000      -0.477811       -13.0019
 196   2.0000      -0.476462       -12.9652
 197   2.0000      -0.475136       -12.9291
 198   2.0000      -0.471495       -12.8300
 199   2.0000      -0.467501       -12.7213
 200   2.0000      -0.461129       -12.5480
 201   2.0000      -0.458646       -12.4804
 202   2.0000      -0.457719       -12.4552
 203   2.0000      -0.456611       -12.4250
 204   2.0000      -0.454615       -12.3707
 205   2.0000      -0.453938       -12.3523
 206   2.0000      -0.450000       -12.2451
 207   2.0000      -0.449238       -12.2244
 208   2.0000      -0.444852       -12.1050
 209   2.0000      -0.443648       -12.0723
 210   2.0000      -0.440142       -11.9769
 211   2.0000      -0.438555       -11.9337
 212   2.0000      -0.432246       -11.7620
 213   2.0000      -0.430794       -11.7225
 214   2.0000      -0.426385       -11.6025
 215   2.0000      -0.422589       -11.4992
 216   2.0000      -0.419860       -11.4250
 217   2.0000      -0.416754       -11.3405
 218   2.0000      -0.412471       -11.2239
 219   2.0000      -0.411993       -11.2109
 220   2.0000      -0.408301       -11.1104
 221   2.0000      -0.396235       -10.7821
 222   2.0000      -0.394179       -10.7261
 223   2.0000      -0.389383       -10.5957
 224   2.0000      -0.389014       -10.5856
 225   2.0000      -0.383904       -10.4466
 226   2.0000      -0.380320       -10.3490
 227   2.0000      -0.379221       -10.3191
 228   2.0000      -0.371735       -10.1154
 229   2.0000      -0.370776       -10.0893
 230   2.0000      -0.370544       -10.0830
 231   2.0000      -0.366043        -9.9605
 232   2.0000      -0.361973        -9.8498
 233   2.0000      -0.361249        -9.8301
 234   2.0000      -0.348132        -9.4731
 235   2.0000      -0.347538        -9.4570
 236   2.0000      -0.345119        -9.3912
 237   2.0000      -0.343279        -9.3411
 238   2.0000      -0.338961        -9.2236
 239   2.0000      -0.337278        -9.1778
 240   2.0000      -0.332984        -9.0610
 241   2.0000      -0.328841        -8.9482
 242   2.0000      -0.323732        -8.8092
 243   2.0000      -0.312407        -8.5010
 244   2.0000      -0.290844        -7.9143
 245   2.0000      -0.286231        -7.7887
 246   2.0000      -0.264988        -7.2107
 247   2.0000      -0.259559        -7.0630
 248   2.0000      -0.216138        -5.8814
 249   0.0000      -0.082839        -2.2542
 250   0.0000      -0.064151        -1.7456
 251   0.0000      -0.059103        -1.6083
 252   0.0000      -0.047559        -1.2941
 253   0.0000      -0.021937        -0.5969

MULLIKEN ATOMIC CHARGES
-----------------------
   0 C :   -0.012732
   1 C :   -0.022938
   2 C :   -0.005680
   3 C :    0.013813
   4 C :    0.193376
   5 O :   -0.149018
   6 N :   -0.303076
   7 C :    0.187530
   8 O :   -0.160359
   9 C :    0.133546
  10 C :   -0.010840
  11 C :   -0.086717
  12 C :    0.070814
  13 C :    0.115913
  14 O :   -0.217060
  15 C :   -0.073476
  16 C :    0.188953
  17 O :   -0.144212
  18 N :   -0.160718
  19 C :    0.161082
  20 O :   -0.141894
  21 C :   -0.031895
  22 C :    0.086189
  23 C :   -0.029470
  24 C :   -0.013584
  25 C :    0.059439
  26 C :   -0.106633
  27 S :    0.141175
  28 C :   -0.152992
  29 C :    0.128917
  30 C :   -0.118380
  31 C :    0.043379
  32 C :    0.019646
  33 C :   -0.117248
  34 C :    0.010512
  35 C :    0.038692
  36 C :    0.109514
  37 C :    0.060518
  38 C :   -0.117677
  39 S :    0.125543
  40 C :   -0.142744
  41 C :   -0.035682
  42 C :    0.003966
  43 C :   -0.015230
  44 C :   -0.018739
  45 C :    0.039818
  46 C :    0.027344
  47 C :   -0.034010
  48 S :    0.046246
  49 C :   -0.035684
  50 C :    0.027865
  51 C :    0.038131
  52 C :   -0.026354
  53 S :    0.060413
  54 C :   -0.013015
  55 C :   -0.191160
  56 S :    0.141140
  57 C :   -0.132715
  58 C :    0.128754
  59 C :    0.190628
  60 O :   -0.183113
  61 C :    0.234685
  62 N :    0.271937
  63 O :   -0.249696
  64 O :   -0.230686
  65 C :   -0.070312
  66 H :   -0.004361
  67 H :   -0.000175
  68 H :    0.030864
  69 H :    0.032788
  70 H :    0.026874
  71 H :    0.021350
  72 H :    0.028371
  73 H :    0.005651
  74 H :    0.139811
  75 H :    0.012168
  76 H :    0.012179
  77 H :    0.027092
  78 H :   -0.006075
  79 H :   -0.000679
  80 H :    0.012234
  81 H :    0.026908
  82 H :    0.012320
  83 H :    0.007173
  84 H :    0.012422
  85 H :    0.001551
  86 H :    0.019666
  87 H :    0.019508
  88 H :    0.021609
  89 H :    0.020314
  90 H :   -0.013233
  91 H :   -0.014697
  92 H :   -0.011645
  93 H :   -0.013716
  94 H :   -0.011563
  95 H :   -0.008213
  96 H :    0.004847
  97 H :    0.032246
  98 H :    0.012667
Sum of atomic charges:   -0.0000000

LOEWDIN ATOMIC CHARGES
----------------------
   0 C :    0.002146
   1 C :    0.010794
   2 C :   -0.047227
   3 C :   -0.047466
   4 C :    0.089418
   5 O :   -0.149332
   6 N :   -0.036519
   7 C :    0.085766
   8 O :   -0.160725
   9 C :    0.044412
  10 C :   -0.060035
  11 C :    0.030217
  12 C :   -0.029959
  13 C :    0.071571
  14 O :    0.014822
  15 C :   -0.097097
  16 C :    0.088164
  17 O :   -0.152548
  18 N :   -0.002543
  19 C :    0.084832
  20 O :   -0.160036
  21 C :   -0.105360
  22 C :    0.075319
  23 C :   -0.050249
  24 C :    0.017567
  25 C :   -0.071090
  26 C :   -0.156980
  27 S :    0.427722
  28 C :   -0.176971
  29 C :   -0.040039
  30 C :   -0.022104
  31 C :   -0.030056
  32 C :   -0.050410
  33 C :   -0.017462
  34 C :   -0.031762
  35 C :   -0.052794
  36 C :   -0.041051
  37 C :   -0.060001
  38 C :   -0.166292
  39 S :    0.412543
  40 C :   -0.178403
  41 C :   -0.021655
  42 C :   -0.041178
  43 C :   -0.058503
  44 C :   -0.144160
  45 C :   -0.026273
  46 C :   -0.039032
  47 C :   -0.176435
  48 S :    0.385463
  49 C :   -0.176970
  50 C :   -0.034174
  51 C :   -0.029185
  52 C :   -0.151270
  53 S :    0.359182
  54 C :   -0.070228
  55 C :   -0.204004
  56 S :    0.472887
  57 C :   -0.190604
  58 C :   -0.084251
  59 C :    0.019417
  60 O :    0.001209
  61 C :    0.024865
  62 N :    0.271946
  63 O :   -0.211021
  64 O :   -0.192673
  65 C :   -0.008773
  66 H :    0.032788
  67 H :    0.040911
  68 H :    0.031839
  69 H :    0.032544
  70 H :    0.027903
  71 H :    0.029881
  72 H :    0.028565
  73 H :    0.041850
  74 H :    0.095959
  75 H :    0.043812
  76 H :    0.030970
  77 H :    0.025655
  78 H :    0.026439
  79 H :    0.022405
  80 H :    0.023826
  81 H :    0.024410
  82 H :    0.024711
  83 H :    0.025862
  84 H :    0.030780
  85 H :    0.021404
  86 H :    0.023781
  87 H :    0.021449
  88 H :    0.023865
  89 H :    0.013050
  90 H :    0.029569
  91 H :    0.034281
  92 H :    0.033968
  93 H :    0.031908
  94 H :    0.032862
  95 H :    0.035306
  96 H :    0.046312
  97 H :    0.028818
  98 H :    0.046952

  Mayer bond orders larger than 0.100000
B(  0-C ,  1-C ) :   1.3344 B(  0-C , 12-C ) :   1.3411 B(  0-C , 66-H ) :   1.0003
B(  1-C ,  2-C ) :   1.3996 B(  1-C , 67-H ) :   1.0080 B(  2-C ,  3-C ) :   1.3543
B(  2-C ,  7-C ) :   0.8854 B(  3-C ,  4-C ) :   0.8685 B(  3-C , 11-C ) :   1.4066
B(  4-C ,  5-O ) :   2.2293 B(  4-C ,  6-N ) :   1.0634 B(  6-N ,  7-C ) :   1.0656
B(  6-N ,  9-C ) :   0.9185 B(  7-C ,  8-O ) :   2.2251 B(  9-C , 10-C ) :   1.1226
B(  9-C , 68-H ) :   0.9431 B(  9-C , 69-H ) :   0.9425 B( 10-C , 70-H ) :   0.9700
B( 10-C , 71-H ) :   0.9706 B( 10-C , 72-H ) :   0.9696 B( 11-C , 12-C ) :   1.2992
B( 11-C , 73-H ) :   0.9891 B( 12-C , 13-C ) :   1.0651 B( 13-C , 14-O ) :   1.1601
B( 13-C , 15-C ) :   1.4715 B( 14-O , 22-C ) :   1.1432 B( 15-C , 16-C ) :   0.8716
B( 15-C , 21-C ) :   1.2526 B( 16-C , 17-O ) :   2.1830 B( 16-C , 18-N ) :   1.1059
B( 18-N , 19-C ) :   1.0698 B( 18-N , 74-H ) :   0.9141 B( 19-C , 20-O ) :   2.2691
B( 19-C , 21-C ) :   0.8828 B( 21-C , 22-C ) :   1.4131 B( 22-C , 23-C ) :   1.1573
B( 23-C , 24-C ) :   1.6860 B( 23-C , 75-H ) :   0.9607 B( 24-C , 25-C ) :   1.0088
B( 24-C , 76-H ) :   0.9766 B( 25-C , 26-C ) :   1.5988 B( 25-C , 29-C ) :   1.1354
B( 26-C , 27-S ) :   1.1342 B( 26-C , 77-H ) :   0.9626 B( 27-S , 28-C ) :   1.0761
B( 28-C , 29-C ) :   1.3777 B( 28-C , 40-C ) :   1.3774 B( 29-C , 30-C ) :   1.2448
B( 30-C , 31-C ) :   1.0709 B( 30-C , 33-C ) :   1.5182 B( 31-C , 32-C ) :   1.1053
B( 31-C , 78-H ) :   0.9098 B( 31-C , 79-H ) :   0.9252 B( 32-C , 80-H ) :   0.9563
B( 32-C , 81-H ) :   0.9644 B( 32-C , 82-H ) :   0.9658 B( 33-C , 34-C ) :   1.0545
B( 33-C , 36-C ) :   1.2656 B( 34-C , 35-C ) :   1.1029 B( 34-C , 83-H ) :   0.9188
B( 34-C , 84-H ) :   0.9159 B( 35-C , 85-H ) :   0.9607 B( 35-C , 86-H ) :   0.9628
B( 35-C , 87-H ) :   0.9564 B( 36-C , 37-C ) :   1.1492 B( 36-C , 40-C ) :   1.3747
B( 37-C , 38-C ) :   1.6100 B( 37-C , 41-C ) :   1.0416 B( 38-C , 39-S ) :   1.1114
B( 38-C , 88-H ) :   0.9642 B( 39-S , 40-C ) :   1.0788 B( 41-C , 42-C ) :   1.7110
B( 41-C , 89-H ) :   0.9300 B( 42-C , 43-C ) :   1.1604 B( 42-C , 90-H ) :   0.9691
B( 43-C , 44-C ) :   1.6083 B( 43-C , 91-H ) :   0.9626 B( 44-C , 45-C ) :   1.1342
B( 44-C , 48-S ) :   1.0302 B( 45-C , 46-C ) :   1.6071 B( 45-C , 92-H ) :   0.9976
B( 46-C , 47-C ) :   1.1737 B( 46-C , 93-H ) :   0.9918 B( 47-C , 48-S ) :   1.0410
B( 47-C , 49-C ) :   1.5325 B( 49-C , 50-C ) :   1.1763 B( 49-C , 53-S ) :   1.0335
B( 50-C , 51-C ) :   1.6031 B( 50-C , 94-H ) :   0.9929 B( 51-C , 52-C ) :   1.1336
B( 51-C , 95-H ) :   1.0003 B( 52-C , 53-S ) :   1.0325 B( 52-C , 54-C ) :   1.5790
B( 54-C , 55-C ) :   1.1700 B( 54-C , 96-H ) :   0.9731 B( 55-C , 56-S ) :   1.1075
B( 55-C , 57-C ) :   0.1088 B( 55-C , 59-C ) :   1.4450 B( 56-S , 57-C ) :   1.1880
B( 57-C , 58-C ) :   1.4158 B( 57-C , 97-H ) :   0.9754 B( 58-C , 59-C ) :   1.2293
B( 58-C , 65-C ) :   1.0599 B( 59-C , 60-O ) :   1.1231 B( 60-O , 61-C ) :   1.1228
B( 61-C , 62-N ) :   0.9161 B( 61-C , 65-C ) :   1.5777 B( 62-N , 63-O ) :   1.5327
B( 62-N , 64-O ) :   1.5144 B( 63-O , 64-O ) :   0.2800 B( 65-C , 98-H ) :   1.0253

-----------------------------------------------------------------------------
         ABSORPTION SPECTRUM VIA TRANSITION ELECTRIC DIPOLE MOMENTS
-----------------------------------------------------------------------------
State   Energy  Wavelength   fosc         T2         TX        TY        TZ
        (cm-1)    (nm)                  (au**2)     (au)      (au)      (au)
-----------------------------------------------------------------------------
   0   15468.9    646.5   0.953546717  20.29360   1.69694   3.97937   1.25644
   1   20100.7    497.5   0.258413393   4.23233   1.58088   1.31436   0.07490
   2   24689.8    405.0   0.155229874   2.06982  -1.13918   0.39706   0.78385
   3   25043.1    399.3   0.004150874   0.05457  -0.10913   0.06188   0.19705
   4   26909.8    371.6   0.847021055  10.36239  -0.32306   0.56233  -3.15306
   5   27653.8    361.6   0.080438479   0.95760  -0.72651   0.65066   0.08018
   6   28125.9    355.5   0.043428545   0.50833  -0.51192   0.47532   0.14259
   7   28267.6    353.8   0.363520582   4.23366  -1.45629   1.26057   0.72377
   8   29632.2    337.5   0.415809453   4.61962  -1.19889   0.98111   1.48986
   9   30490.7    328.0   0.348858069   3.76666   1.90433  -0.14633  -0.34465
  10   31611.6    316.3   0.006950641   0.07239   0.11608   0.11369  -0.21444
  11   32014.5    312.4   0.065651695   0.67511  -0.34450   0.66676   0.33445
  12   32251.6    310.1   0.003673937   0.03750   0.17423   0.05822   0.06128
  13   32686.8    305.9   0.092132285   0.92793  -0.72773  -0.39795   0.48988
  14   32782.0    305.0   0.067413528   0.67700   0.31190  -0.50097  -0.57336
  15   32824.0    304.7   0.000149428   0.00150   0.01622   0.03395   0.00910
  16   34274.5    291.8   0.134338371   1.29034  -0.04342   0.23423  -1.11067
  17   34384.4    290.8   0.001201437   0.01150  -0.07275  -0.07827  -0.00922
  18   34428.4    290.5   0.069751493   0.66698  -0.53066   0.57442  -0.23542
  19   34836.4    287.1   0.111142336   1.05032  -0.72935   0.40604   0.59456
  20   35319.6    283.1   0.007311236   0.06815  -0.15377  -0.04141   0.20685
  21   35609.0    280.8   0.014739538   0.13627  -0.14791  -0.09921  -0.32334
  22   35762.3    279.6   0.115545033   1.06366   0.39118  -0.35601   0.88538
  23   36042.6    277.4   0.023928610   0.21856   0.00242   0.23119  -0.40634
  24   36379.4    274.9   0.049533732   0.44825  -0.43632  -0.50013  -0.08798
  25   36659.4    272.8   0.272808752   2.44990  -0.66071  -1.34428  -0.45418
  26   36988.6    270.4   0.071416197   0.63563   0.76432  -0.21157  -0.08177
  27   37305.2    268.1   0.124140618   1.09552  -0.02955   1.01071   0.27040
  28   37807.1    264.5   0.066391338   0.57811   0.71889  -0.24713  -0.01533
  29   38422.7    260.3   0.170997856   1.46514   1.13268   0.01983  -0.42635
  30   39395.0    253.8   0.005790663   0.04839   0.00780   0.03193   0.21751
  31   39576.6    252.7   0.138273828   1.15021   0.71975   0.78747  -0.10984
  32   39886.4    250.7   0.033860141   0.27947   0.23379  -0.45431   0.13571
  33   40166.6    249.0   0.252485047   2.06941  -0.05977   0.54269   1.33091

FINAL SINGLE POINT ENERGY     -4678.168148298239

DIPOLE MOMENT
-------------
                                X             Y             Z
Electronic contribution:      7.22361     -40.41648      19.41247
Nuclear contribution   :     -7.66520      42.39364     -17.07518
                        -----------------------------------------
Total Dipole Moment    :     -0.44159       1.97716       2.33729
                        -----------------------------------------
Magnitude (a.u.)       :      3.09307
Magnitude (Debye)      :      7.86196

Rotational constants in cm-1:     0.000929     0.000344     0.000307
Rotational constants in MHz :    27.837710    10.301521     9.197877

                             ****ORCA TERMINATED NORMALLY****
TOTAL RUN TIME: 0 days 0 hours 9 minutes 5 seconds 341 msec
