                         Program Version 4.2.0 -  RELEASE  -
|  1> # ORCA input file
|  2> # SCF done       -184.159307336938          0.000770961570
|  3> ! CAM-B3LYP def2-SVP def2/J RIJCOSX Grid4 TightSCF
|  4> %maxcore 5000
|  5> %tddft
|  6>     Mode sTDDFT
|  7>     Ethresh 5.0
|  8>     maxcore 5000
|  9> end
| 10>
| 11> %pal
| 12>   nprocs 6
| 13>   end
| 14> * xyz 0 1
| 15>    C      -10.78711         9.77701         0.55229
| 16>    C      -10.02884        10.04789        -0.52555
| 17>    C       -8.84143         9.19111        -0.47406
| 18>    C       -7.83992         9.20485        -1.44363
| 19>    N       -7.06972         9.19034        -2.29817
| 20>    C       -8.93343         8.37916         0.61849
| 21>    C      -10.17709         8.68269         1.29336
| 22>    C      -10.73784         8.07754         2.39305
| 23>    C      -10.39044         6.79330         3.05441
| 24>    C      -11.02259         6.78418         4.27127
| 25>    C      -11.82721         7.96975         4.38424
| 26>    C      -11.70158         8.71414         3.23437
| 27>    C      -12.61650         8.28984         5.49778
| 28>    N      -13.26282         8.54252         6.41197
| 29>    C       -9.70115         5.68080         2.50804
| 30>    C       -9.45272         5.48938         1.18761
| 31>    C       -8.72803         4.41212         0.60757
| 32>    C       -8.28239         4.51922        -0.69393
| 33>    C       -7.53218         3.56762        -1.37356
| 34>    C       -7.12831         2.32176        -0.70849
| 35>    C       -7.46382         1.99971         0.56108
| 36>    S       -8.40007         2.99873         1.59286
| 37>    C       -6.30694         1.63913        -1.64791
| 38>    C       -6.16973         2.41753        -2.80091
| 39>    C       -5.34162         1.80049        -3.76540
| 40>    C       -4.88175         0.59965        -3.32948
| 41>    S       -5.42927         0.16739        -1.74226
| 42>    C       -6.94224         3.61802        -2.65777
| 43>    C       -6.95867         4.67203        -3.60908
| 44>    C       -7.91180         5.63276        -3.68707
| 45>    C       -7.86416         6.85749        -4.43311
| 46>    C       -6.87380         7.23591        -5.35418
| 47>    F       -5.92624         6.36052        -5.72670
| 48>    C       -6.83917         8.49819        -5.91356
| 49>    F       -5.87527         8.77382        -6.80936
| 50>    C       -7.78441         9.48241        -5.60074
| 51>    C       -8.81055         9.09419        -4.73675
| 52>    C       -8.84165         7.83495        -4.17340
| 53>    F       -9.82169         7.55247        -3.29375
| 54>    F       -9.75631         9.98279        -4.39400
| 55>    C       -7.71765        10.82506        -6.14751
| 56>    C       -8.74141        11.51871        -6.70928
| 57>    C       -8.21131        12.75836        -7.24715
| 58>    C       -8.95343        13.75314        -7.89531
| 59>    N       -9.53736        14.56894        -8.45359
| 60>    C       -6.85935        12.78943        -7.04257
| 61>    C       -6.48415        11.61344        -6.30999
| 62>    C       -5.26584        11.36124        -5.72845
| 63>    C       -3.94513        11.92865        -6.11253
| 64>    C       -3.04062        11.50728        -5.17175
| 65>    C       -3.72595        10.69224        -4.20267
| 66>    C       -5.04744        10.56682        -4.55940
| 67>    C       -3.11580        10.11932        -3.07798
| 68>    N       -2.59820         9.65253        -2.16624
| 69>    C       -3.69126        12.62240        -7.32240
| 70>    C       -2.47250        13.07536        -7.73053
| 71>    C       -2.24639        13.74851        -8.95818
| 72>    C       -1.08965        13.70639        -9.69247
| 73>    C       -1.34925        14.27676       -10.98673
| 74>    C       -0.39092        14.40489       -12.00247
| 75>    N        0.39930        14.50211       -12.82897
| 76>    C       -2.66788        14.66562       -11.06423
| 77>    C       -3.26373        14.44749        -9.78445
| 78>    C       -4.42947        15.01177        -9.33302
| 79>    C       -5.56563        15.50241       -10.13405
| 80>    C       -6.42847        16.12088        -9.28612
| 81>    C       -5.87112        16.08469        -7.94202
| 82>    C       -4.69955        15.38096        -7.96355
| 83>    C       -6.46868        16.66171        -6.81434
| 84>    N       -6.96025        17.11790        -5.88255
| 85>    C       -5.77181        15.21694       -11.53586
| 86>    C       -6.57864        15.91443       -12.33022
| 87>    H      -11.73516        10.21671         0.79265
| 88>    H      -10.21803        10.75752        -1.30879
| 89>    H       -8.18060         7.70144         0.97282
| 90>    H      -10.98920         6.00112         5.00555
| 91>    H      -12.15209         9.67080         3.05356
| 92>    H       -9.41812         4.91055         3.21586
| 93>    H       -9.81248         6.22021         0.47705
| 94>    H       -8.49676         5.45788        -1.18184
| 95>    H       -7.14676         1.07982         1.02672
| 96>    H       -5.09829         2.21880        -4.72489
| 97>    H       -4.23814        -0.08483        -3.84658
| 98>    H       -6.11644         4.68394        -4.28548
| 99>    H       -8.80927         5.51749        -3.09860
|100>    H       -9.76805        11.21472        -6.78790
|101>    H       -6.22286        13.62468        -7.25297
|102>    H       -1.98592        11.70560        -5.14415
|103>    H       -5.80186        10.06673        -3.98279
|104>    H       -4.52519        12.74235        -7.99714
|105>    H       -1.59130        12.84522        -7.14665
|106>    H       -0.15590        13.26378        -9.40025
|107>    H       -3.11976        15.19020       -11.88383
|108>    H       -7.38782        16.54077        -9.51900
|109>    H       -4.02856        15.23326        -7.13876
|110>    H       -5.23437        14.36397       -11.92928
|111>    H       -7.11786        16.77620       -11.97652
|112>    H       -6.71840        15.64948       -13.36359
|113> *
|114>
|115>                          ****END OF INPUT****

CARTESIAN COORDINATES (ANGSTROEM)
---------------------------------
  C    -10.787110    9.777010    0.552290
  C    -10.028840   10.047890   -0.525550
  C     -8.841430    9.191110   -0.474060
  C     -7.839920    9.204850   -1.443630
  N     -7.069720    9.190340   -2.298170
  C     -8.933430    8.379160    0.618490
  C    -10.177090    8.682690    1.293360
  C    -10.737840    8.077540    2.393050
  C    -10.390440    6.793300    3.054410
  C    -11.022590    6.784180    4.271270
  C    -11.827210    7.969750    4.384240
  C    -11.701580    8.714140    3.234370
  C    -12.616500    8.289840    5.497780
  N    -13.262820    8.542520    6.411970
  C     -9.701150    5.680800    2.508040
  C     -9.452720    5.489380    1.187610
  C     -8.728030    4.412120    0.607570
  C     -8.282390    4.519220   -0.693930
  C     -7.532180    3.567620   -1.373560
  C     -7.128310    2.321760   -0.708490
  C     -7.463820    1.999710    0.561080
  S     -8.400070    2.998730    1.592860
  C     -6.306940    1.639130   -1.647910
  C     -6.169730    2.417530   -2.800910
  C     -5.341620    1.800490   -3.765400
  C     -4.881750    0.599650   -3.329480
  S     -5.429270    0.167390   -1.742260
  C     -6.942240    3.618020   -2.657770
  C     -6.958670    4.672030   -3.609080
  C     -7.911800    5.632760   -3.687070
  C     -7.864160    6.857490   -4.433110
  C     -6.873800    7.235910   -5.354180
  F     -5.926240    6.360520   -5.726700
  C     -6.839170    8.498190   -5.913560
  F     -5.875270    8.773820   -6.809360
  C     -7.784410    9.482410   -5.600740
  C     -8.810550    9.094190   -4.736750
  C     -8.841650    7.834950   -4.173400
  F     -9.821690    7.552470   -3.293750
  F     -9.756310    9.982790   -4.394000
  C     -7.717650   10.825060   -6.147510
  C     -8.741410   11.518710   -6.709280
  C     -8.211310   12.758360   -7.247150
  C     -8.953430   13.753140   -7.895310
  N     -9.537360   14.568940   -8.453590
  C     -6.859350   12.789430   -7.042570
  C     -6.484150   11.613440   -6.309990
  C     -5.265840   11.361240   -5.728450
  C     -3.945130   11.928650   -6.112530
  C     -3.040620   11.507280   -5.171750
  C     -3.725950   10.692240   -4.202670
  C     -5.047440   10.566820   -4.559400
  C     -3.115800   10.119320   -3.077980
  N     -2.598200    9.652530   -2.166240
  C     -3.691260   12.622400   -7.322400
  C     -2.472500   13.075360   -7.730530
  C     -2.246390   13.748510   -8.958180
  C     -1.089650   13.706390   -9.692470
  C     -1.349250   14.276760  -10.986730
  C     -0.390920   14.404890  -12.002470
  N      0.399300   14.502110  -12.828970
  C     -2.667880   14.665620  -11.064230
  C     -3.263730   14.447490   -9.784450
  C     -4.429470   15.011770   -9.333020
  C     -5.565630   15.502410  -10.134050
  C     -6.428470   16.120880   -9.286120
  C     -5.871120   16.084690   -7.942020
  C     -4.699550   15.380960   -7.963550
  C     -6.468680   16.661710   -6.814340
  N     -6.960250   17.117900   -5.882550
  C     -5.771810   15.216940  -11.535860
  C     -6.578640   15.914430  -12.330220
  H    -11.735160   10.216710    0.792650
  H    -10.218030   10.757520   -1.308790
  H     -8.180600    7.701440    0.972820
  H    -10.989200    6.001120    5.005550
  H    -12.152090    9.670800    3.053560
  H     -9.418120    4.910550    3.215860
  H     -9.812480    6.220210    0.477050
  H     -8.496760    5.457880   -1.181840
  H     -7.146760    1.079820    1.026720
  H     -5.098290    2.218800   -4.724890
  H     -4.238140   -0.084830   -3.846580
  H     -6.116440    4.683940   -4.285480
  H     -8.809270    5.517490   -3.098600
  H     -9.768050   11.214720   -6.787900
  H     -6.222860   13.624680   -7.252970
  H     -1.985920   11.705600   -5.144150
  H     -5.801860   10.066730   -3.982790
  H     -4.525190   12.742350   -7.997140
  H     -1.591300   12.845220   -7.146650
  H     -0.155900   13.263780   -9.400250
  H     -3.119760   15.190200  -11.883830
  H     -7.387820   16.540770   -9.519000
  H     -4.028560   15.233260   -7.138760
  H     -5.234370   14.363970  -11.929280
  H     -7.117860   16.776200  -11.976520
  H     -6.718400   15.649480  -13.363590

 Total Charge           Charge          ....    0
 Multiplicity           Mult            ....    1
 Number of Electrons    NEL             ....  496
 Basis Dimension        Dim             .... 1146

ORBITAL ENERGIES
----------------

  NO   OCC          E(Eh)            E(eV)
   0   2.0000     -88.983318     -2421.3592
   1   2.0000     -88.961512     -2420.7658
   2   2.0000     -24.807902      -675.0573
   3   2.0000     -24.807152      -675.0369
   4   2.0000     -24.802450      -674.9090
   5   2.0000     -24.802025      -674.8974
   6   2.0000     -14.431240      -392.6940
   7   2.0000     -14.417306      -392.3149
   8   2.0000     -14.416696      -392.2983
   9   2.0000     -14.415130      -392.2556
  10   2.0000     -14.412022      -392.1711
  11   2.0000     -14.410643      -392.1335
  12   2.0000     -10.380327      -282.4631
  13   2.0000     -10.379816      -282.4492
  14   2.0000     -10.377540      -282.3872
  15   2.0000     -10.377199      -282.3779
  16   2.0000     -10.335908      -281.2543
  17   2.0000     -10.333183      -281.1802
  18   2.0000     -10.331505      -281.1346
  19   2.0000     -10.330693      -281.1124
  20   2.0000     -10.329960      -281.0925
  21   2.0000     -10.329633      -281.0836
  22   2.0000     -10.329428      -281.0780
  23   2.0000     -10.328806      -281.0611
  24   2.0000     -10.328732      -281.0591
  25   2.0000     -10.328222      -281.0452
  26   2.0000     -10.328092      -281.0417
  27   2.0000     -10.327814      -281.0341
  28   2.0000     -10.326021      -280.9853
  29   2.0000     -10.323792      -280.9247
  30   2.0000     -10.323214      -280.9089
  31   2.0000     -10.317065      -280.7416
  32   2.0000     -10.315735      -280.7054
  33   2.0000     -10.315214      -280.6912
  34   2.0000     -10.315168      -280.6900
  35   2.0000     -10.313092      -280.6335
  36   2.0000     -10.311155      -280.5808
  37   2.0000     -10.310326      -280.5582
  38   2.0000     -10.309107      -280.5251
  39   2.0000     -10.308397      -280.5057
  40   2.0000     -10.308267      -280.5022
  41   2.0000     -10.305677      -280.4317
  42   2.0000     -10.305187      -280.4184
  43   2.0000     -10.305184      -280.4183
  44   2.0000     -10.304349      -280.3956
  45   2.0000     -10.304345      -280.3955
  46   2.0000     -10.303625      -280.3759
  47   2.0000     -10.303162      -280.3633
  48   2.0000     -10.303133      -280.3625
  49   2.0000     -10.302694      -280.3506
  50   2.0000     -10.302614      -280.3484
  51   2.0000     -10.302531      -280.3461
  52   2.0000     -10.302443      -280.3437
  53   2.0000     -10.301541      -280.3192
  54   2.0000     -10.301441      -280.3165
  55   2.0000     -10.301172      -280.3091
  56   2.0000     -10.301066      -280.3063
  57   2.0000     -10.297635      -280.2129
  58   2.0000     -10.296663      -280.1864
  59   2.0000     -10.296335      -280.1775
  60   2.0000     -10.295622      -280.1581
  61   2.0000     -10.294511      -280.1279
  62   2.0000     -10.293776      -280.1079
  63   2.0000     -10.293324      -280.0956
  64   2.0000     -10.292897      -280.0840
  65   2.0000     -10.288410      -279.9619
  66   2.0000     -10.286000      -279.8963
  67   2.0000     -10.285823      -279.8915
  68   2.0000     -10.283290      -279.8225
  69   2.0000     -10.279298      -279.7139
  70   2.0000     -10.278458      -279.6911
  71   2.0000     -10.275425      -279.6085
  72   2.0000      -8.078587      -219.8295
  73   2.0000      -8.056954      -219.2409
  74   2.0000      -6.048076      -164.5765
  75   2.0000      -6.043607      -164.4549
  76   2.0000      -6.040616      -164.3735
  77   2.0000      -6.026409      -163.9869
  78   2.0000      -6.022157      -163.8712
  79   2.0000      -6.018961      -163.7843
  80   2.0000      -1.328294       -36.1447
  81   2.0000      -1.324663       -36.0459
  82   2.0000      -1.312111       -35.7043
  83   2.0000      -1.307874       -35.5891
  84   2.0000      -1.023017       -27.8377
  85   2.0000      -1.020383       -27.7660
  86   2.0000      -1.017637       -27.6913
  87   2.0000      -1.014070       -27.5943
  88   2.0000      -1.012066       -27.5397
  89   2.0000      -1.005218       -27.3534
  90   2.0000      -1.003876       -27.3169
  91   2.0000      -0.999056       -27.1857
  92   2.0000      -0.994847       -27.0712
  93   2.0000      -0.991815       -26.9887
  94   2.0000      -0.987286       -26.8654
  95   2.0000      -0.985981       -26.8299
  96   2.0000      -0.980852       -26.6903
  97   2.0000      -0.980286       -26.6749
  98   2.0000      -0.979319       -26.6486
  99   2.0000      -0.938620       -25.5412
 100   2.0000      -0.923060       -25.1178
 101   2.0000      -0.917308       -24.9612
 102   2.0000      -0.910814       -24.7845
 103   2.0000      -0.892583       -24.2884
 104   2.0000      -0.889423       -24.2024
 105   2.0000      -0.884841       -24.0777
 106   2.0000      -0.883354       -24.0373
 107   2.0000      -0.879730       -23.9387
 108   2.0000      -0.873067       -23.7574
 109   2.0000      -0.856163       -23.2974
 110   2.0000      -0.853959       -23.2374
 111   2.0000      -0.849712       -23.1218
 112   2.0000      -0.842139       -22.9158
 113   2.0000      -0.836338       -22.7579
 114   2.0000      -0.826419       -22.4880
 115   2.0000      -0.816031       -22.2053
 116   2.0000      -0.808174       -21.9915
 117   2.0000      -0.807846       -21.9826
 118   2.0000      -0.803635       -21.8680
 119   2.0000      -0.801636       -21.8136
 120   2.0000      -0.799858       -21.7652
 121   2.0000      -0.786048       -21.3895
 122   2.0000      -0.764995       -20.8166
 123   2.0000      -0.741525       -20.1779
 124   2.0000      -0.735806       -20.0223
 125   2.0000      -0.734197       -19.9785
 126   2.0000      -0.731581       -19.9073
 127   2.0000      -0.728487       -19.8231
 128   2.0000      -0.727192       -19.7879
 129   2.0000      -0.723631       -19.6910
 130   2.0000      -0.716623       -19.5003
 131   2.0000      -0.701308       -19.0836
 132   2.0000      -0.697659       -18.9843
 133   2.0000      -0.693897       -18.8819
 134   2.0000      -0.680228       -18.5100
 135   2.0000      -0.675370       -18.3778
 136   2.0000      -0.668869       -18.2009
 137   2.0000      -0.666245       -18.1294
 138   2.0000      -0.659818       -17.9545
 139   2.0000      -0.655958       -17.8495
 140   2.0000      -0.649411       -17.6714
 141   2.0000      -0.645470       -17.5641
 142   2.0000      -0.641042       -17.4436
 143   2.0000      -0.637769       -17.3546
 144   2.0000      -0.633709       -17.2441
 145   2.0000      -0.630705       -17.1623
 146   2.0000      -0.626038       -17.0354
 147   2.0000      -0.621612       -16.9149
 148   2.0000      -0.619760       -16.8645
 149   2.0000      -0.617476       -16.8024
 150   2.0000      -0.613877       -16.7045
 151   2.0000      -0.605467       -16.4756
 152   2.0000      -0.602282       -16.3889
 153   2.0000      -0.600583       -16.3427
 154   2.0000      -0.598138       -16.2762
 155   2.0000      -0.597716       -16.2647
 156   2.0000      -0.595638       -16.2081
 157   2.0000      -0.580532       -15.7971
 158   2.0000      -0.571842       -15.5606
 159   2.0000      -0.565664       -15.3925
 160   2.0000      -0.563916       -15.3449
 161   2.0000      -0.557332       -15.1658
 162   2.0000      -0.555003       -15.1024
 163   2.0000      -0.551417       -15.0048
 164   2.0000      -0.549675       -14.9574
 165   2.0000      -0.548799       -14.9336
 166   2.0000      -0.543615       -14.7925
 167   2.0000      -0.538186       -14.6448
 168   2.0000      -0.535954       -14.5840
 169   2.0000      -0.535370       -14.5682
 170   2.0000      -0.532336       -14.4856
 171   2.0000      -0.527388       -14.3510
 172   2.0000      -0.525251       -14.2928
 173   2.0000      -0.525071       -14.2879
 174   2.0000      -0.523036       -14.2325
 175   2.0000      -0.521294       -14.1851
 176   2.0000      -0.517489       -14.0816
 177   2.0000      -0.517223       -14.0744
 178   2.0000      -0.515589       -14.0299
 179   2.0000      -0.514712       -14.0060
 180   2.0000      -0.513186       -13.9645
 181   2.0000      -0.510376       -13.8880
 182   2.0000      -0.508292       -13.8313
 183   2.0000      -0.505964       -13.7680
 184   2.0000      -0.504014       -13.7149
 185   2.0000      -0.503601       -13.7037
 186   2.0000      -0.501302       -13.6411
 187   2.0000      -0.500723       -13.6254
 188   2.0000      -0.499775       -13.5996
 189   2.0000      -0.498346       -13.5607
 190   2.0000      -0.495378       -13.4799
 191   2.0000      -0.494403       -13.4534
 192   2.0000      -0.493120       -13.4185
 193   2.0000      -0.489055       -13.3079
 194   2.0000      -0.487433       -13.2637
 195   2.0000      -0.485926       -13.2227
 196   2.0000      -0.477394       -12.9905
 197   2.0000      -0.474636       -12.9155
 198   2.0000      -0.472457       -12.8562
 199   2.0000      -0.470277       -12.7969
 200   2.0000      -0.464687       -12.6448
 201   2.0000      -0.461557       -12.5596
 202   2.0000      -0.458035       -12.4638
 203   2.0000      -0.452964       -12.3258
 204   2.0000      -0.450045       -12.2463
 205   2.0000      -0.449177       -12.2227
 206   2.0000      -0.448009       -12.1909
 207   2.0000      -0.447635       -12.1808
 208   2.0000      -0.446683       -12.1548
 209   2.0000      -0.445547       -12.1240
 210   2.0000      -0.444934       -12.1073
 211   2.0000      -0.444315       -12.0904
 212   2.0000      -0.442806       -12.0494
 213   2.0000      -0.441429       -12.0119
 214   2.0000      -0.438712       -11.9380
 215   2.0000      -0.437937       -11.9169
 216   2.0000      -0.436366       -11.8741
 217   2.0000      -0.432593       -11.7715
 218   2.0000      -0.431612       -11.7448
 219   2.0000      -0.427979       -11.6459
 220   2.0000      -0.425219       -11.5708
 221   2.0000      -0.421287       -11.4638
 222   2.0000      -0.417456       -11.3596
 223   2.0000      -0.416419       -11.3313
 224   2.0000      -0.416035       -11.3209
 225   2.0000      -0.414778       -11.2867
 226   2.0000      -0.414359       -11.2753
 227   2.0000      -0.409870       -11.1531
 228   2.0000      -0.408984       -11.1290
 229   2.0000      -0.408486       -11.1155
 230   2.0000      -0.390713       -10.6318
 231   2.0000      -0.385141       -10.4802
 232   2.0000      -0.372822       -10.1450
 233   2.0000      -0.369547       -10.0559
 234   2.0000      -0.349048        -9.4981
 235   2.0000      -0.337614        -9.1869
 236   2.0000      -0.336264        -9.1502
 237   2.0000      -0.331780        -9.0282
 238   2.0000      -0.326355        -8.8806
 239   2.0000      -0.325685        -8.8623
 240   2.0000      -0.321864        -8.7584
 241   2.0000      -0.317215        -8.6319
 242   2.0000      -0.302470        -8.2306
 243   2.0000      -0.299459        -8.1487
 244   2.0000      -0.293716        -7.9924
 245   2.0000      -0.276327        -7.5192
 246   2.0000      -0.265945        -7.2367
 247   2.0000      -0.236195        -6.4272
 248   0.0000      -0.132681        -3.6104
 249   0.0000      -0.129112        -3.5133
 250   0.0000      -0.121009        -3.2928
 251   0.0000      -0.074839        -2.0365
 252   0.0000      -0.035668        -0.9706

MULLIKEN ATOMIC CHARGES
-----------------------
   0 C :    0.002179
   1 C :    0.067858
   2 C :   -0.151606
   3 C :   -0.068008
   4 N :    0.125009
   5 C :   -0.024294
   6 C :    0.017841
   7 C :    0.078247
   8 C :    0.079185
   9 C :   -0.021674
  10 C :   -0.088089
  11 C :   -0.025805
  12 C :   -0.127341
  13 N :    0.142155
  14 C :    0.001219
  15 C :   -0.039551
  16 C :   -0.045029
  17 C :   -0.056067
  18 C :    0.067205
  19 C :    0.059475
  20 C :   -0.124281
  21 S :    0.129235
  22 C :   -0.103923
  23 C :    0.047418
  24 C :    0.016859
  25 C :   -0.070070
  26 S :    0.131021
  27 C :    0.068368
  28 C :   -0.001878
  29 C :   -0.057210
  30 C :   -0.007351
  31 C :    0.182560
  32 F :   -0.173767
  33 C :    0.185892
  34 F :   -0.172220
  35 C :   -0.102850
  36 C :    0.204942
  37 C :    0.166784
  38 F :   -0.185205
  39 F :   -0.172182
  40 C :    0.065834
  41 C :    0.003551
  42 C :   -0.109780
  43 C :   -0.114822
  44 N :    0.133271
  45 C :    0.014132
  46 C :    0.049797
  47 C :    0.057125
  48 C :    0.081459
  49 C :   -0.026581
  50 C :   -0.108234
  51 C :    0.013347
  52 C :   -0.124686
  53 N :    0.144507
  54 C :   -0.027870
  55 C :    0.000382
  56 C :    0.079050
  57 C :   -0.012202
  58 C :   -0.099077
  59 C :   -0.129531
  60 N :    0.143542
  61 C :   -0.028587
  62 C :    0.028217
  63 C :    0.040556
  64 C :    0.068127
  65 C :    0.005646
  66 C :   -0.150335
  67 C :   -0.021765
  68 C :   -0.155059
  69 N :    0.175694
  70 C :   -0.032689
  71 C :   -0.001964
  72 H :   -0.003922
  73 H :    0.001729
  74 H :    0.025854
  75 H :   -0.007755
  76 H :   -0.004166
  77 H :    0.000048
  78 H :    0.033082
  79 H :   -0.027087
  80 H :    0.038671
  81 H :   -0.013434
  82 H :    0.030082
  83 H :    0.004640
  84 H :    0.000964
  85 H :   -0.002574
  86 H :   -0.043088
  87 H :   -0.004980
  88 H :   -0.017794
  89 H :    0.003803
  90 H :   -0.009018
  91 H :   -0.009581
  92 H :    0.005819
  93 H :    0.003287
  94 H :    0.018570
  95 H :    0.005275
  96 H :    0.024678
  97 H :    0.030793
Sum of atomic charges:   -0.0000000

LOEWDIN ATOMIC CHARGES
----------------------
   0 C :   -0.027524
   1 C :    0.020007
   2 C :   -0.069860
   3 C :   -0.000914
   4 N :   -0.055640
   5 C :    0.007036
   6 C :    0.024234
   7 C :    0.044735
   8 C :   -0.022164
   9 C :   -0.007308
  10 C :   -0.044923
  11 C :   -0.008027
  12 C :   -0.029717
  13 N :   -0.037769
  14 C :   -0.025600
  15 C :   -0.033030
  16 C :   -0.172370
  17 C :   -0.013271
  18 C :   -0.019077
  19 C :   -0.047761
  20 C :   -0.136930
  21 S :    0.455172
  22 C :   -0.201946
  23 C :   -0.039445
  24 C :   -0.060912
  25 C :   -0.161398
  26 S :    0.423865
  27 C :   -0.045780
  28 C :    0.007644
  29 C :   -0.043373
  30 C :   -0.052993
  31 C :    0.063972
  32 F :   -0.045402
  33 C :    0.062063
  34 F :   -0.048873
  35 C :   -0.073925
  36 C :    0.062548
  37 C :    0.057852
  38 F :   -0.054099
  39 F :   -0.049949
  40 C :   -0.026769
  41 C :    0.027015
  42 C :   -0.056112
  43 C :   -0.025103
  44 N :   -0.047746
  45 C :    0.004610
  46 C :    0.036723
  47 C :    0.051493
  48 C :   -0.035341
  49 C :    0.018687
  50 C :   -0.049932
  51 C :    0.010077
  52 C :   -0.027427
  53 N :   -0.042073
  54 C :   -0.012602
  55 C :   -0.004352
  56 C :   -0.021269
  57 C :   -0.005571
  58 C :   -0.045715
  59 C :   -0.029897
  60 N :   -0.038721
  61 C :   -0.008195
  62 C :    0.036412
  63 C :    0.038285
  64 C :   -0.036804
  65 C :    0.026886
  66 C :   -0.062090
  67 C :   -0.005930
  68 C :   -0.033674
  69 N :   -0.039319
  70 C :   -0.033212
  71 C :   -0.020086
  72 H :    0.031088
  73 H :    0.036092
  74 H :    0.039835
  75 H :    0.033258
  76 H :    0.034179
  77 H :    0.030035
  78 H :    0.039822
  79 H :    0.036048
  80 H :    0.037536
  81 H :    0.032581
  82 H :    0.024608
  83 H :    0.030307
  84 H :    0.028271
  85 H :    0.035751
  86 H :    0.030508
  87 H :    0.031992
  88 H :    0.029445
  89 H :    0.031641
  90 H :    0.035060
  91 H :    0.033161
  92 H :    0.036924
  93 H :    0.037552
  94 H :    0.036921
  95 H :    0.031000
  96 H :    0.025897
  97 H :    0.029093

  Mayer bond orders larger than 0.100000
B(  0-C ,  1-C ) :   1.6751 B(  0-C ,  6-C ) :   1.0908 B(  0-C , 72-H ) :   1.0060
B(  1-C ,  2-C ) :   1.0821 B(  1-C , 73-H ) :   1.0112 B(  2-C ,  3-C ) :   1.0808
B(  2-C ,  5-C ) :   1.6384 B(  3-C ,  4-N ) :   2.9144 B(  4-N , 88-H ) :   0.1191
B(  5-C ,  6-C ) :   1.0739 B(  5-C , 74-H ) :   1.0127 B(  6-C ,  7-C ) :   1.4707
B(  7-C ,  8-C ) :   1.0123 B(  7-C , 11-C ) :   1.1178 B(  8-C ,  9-C ) :   1.5565
B(  8-C , 14-C ) :   1.1689 B(  9-C , 10-C ) :   1.1203 B(  9-C , 75-H ) :   1.0212
B( 10-C , 11-C ) :   1.5868 B( 10-C , 12-C ) :   1.0593 B( 11-C , 76-H ) :   1.0201
B( 12-C , 13-N ) :   3.0403 B( 14-C , 15-C ) :   1.6043 B( 14-C , 77-H ) :   0.9561
B( 15-C , 16-C ) :   1.1582 B( 15-C , 78-H ) :   0.9740 B( 16-C , 17-C ) :   1.4919
B( 16-C , 21-S ) :   1.0500 B( 17-C , 18-C ) :   1.2181 B( 17-C , 79-H ) :   0.9745
B( 18-C , 19-C ) :   1.0562 B( 18-C , 27-C ) :   1.3865 B( 19-C , 20-C ) :   1.6032
B( 19-C , 22-C ) :   1.1800 B( 20-C , 21-S ) :   1.1440 B( 20-C , 80-H ) :   0.9409
B( 22-C , 23-C ) :   1.4296 B( 22-C , 26-S ) :   1.0784 B( 23-C , 24-C ) :   1.2193
B( 23-C , 27-C ) :   1.1108 B( 24-C , 25-C ) :   1.5873 B( 24-C , 81-H ) :   0.9988
B( 25-C , 26-S ) :   1.1529 B( 25-C , 82-H ) :   0.9664 B( 27-C , 28-C ) :   1.1419
B( 28-C , 29-C ) :   1.6342 B( 28-C , 83-H ) :   0.9590 B( 29-C , 30-C ) :   1.1252
B( 29-C , 84-H ) :   0.9710 B( 30-C , 31-C ) :   1.2637 B( 30-C , 35-C ) :   0.1313
B( 30-C , 37-C ) :   1.2867 B( 31-C , 32-F ) :   1.1256 B( 31-C , 33-C ) :   1.3257
B( 33-C , 34-F ) :   1.1456 B( 33-C , 35-C ) :   1.3105 B( 35-C , 36-C ) :   1.3427
B( 35-C , 40-C ) :   0.9503 B( 36-C , 37-C ) :   1.2994 B( 36-C , 39-F ) :   1.1646
B( 37-C , 38-F ) :   1.1098 B( 40-C , 41-C ) :   1.6668 B( 40-C , 46-C ) :   1.0897
B( 41-C , 42-C ) :   1.0751 B( 41-C , 85-H ) :   1.0218 B( 42-C , 43-C ) :   1.0670
B( 42-C , 45-C ) :   1.6523 B( 43-C , 44-N ) :   3.0014 B( 45-C , 46-C ) :   1.0841
B( 45-C , 86-H ) :   1.0104 B( 46-C , 47-C ) :   1.4743 B( 47-C , 48-C ) :   1.0332
B( 47-C , 51-C ) :   1.0931 B( 48-C , 49-C ) :   1.5828 B( 48-C , 54-C ) :   1.1239
B( 49-C , 50-C ) :   1.1041 B( 49-C , 87-H ) :   1.0101 B( 50-C , 51-C ) :   1.6296
B( 50-C , 52-C ) :   1.0580 B( 51-C , 88-H ) :   0.9823 B( 52-C , 53-N ) :   3.0403
B( 54-C , 55-C ) :   1.6283 B( 54-C , 89-H ) :   0.9545 B( 55-C , 56-C ) :   1.1356
B( 55-C , 90-H ) :   0.9691 B( 56-C , 57-C ) :   1.5517 B( 56-C , 62-C ) :   1.0203
B( 57-C , 58-C ) :   1.1258 B( 57-C , 91-H ) :   1.0223 B( 58-C , 59-C ) :   1.0634
B( 58-C , 61-C ) :   1.5800 B( 59-C , 60-N ) :   3.0425 B( 61-C , 62-C ) :   1.1253
B( 61-C , 92-H ) :   1.0150 B( 62-C , 63-C ) :   1.4765 B( 63-C , 64-C ) :   1.0650
B( 63-C , 67-C ) :   1.0834 B( 64-C , 65-C ) :   1.6245 B( 64-C , 70-C ) :   1.0522
B( 65-C , 66-C ) :   1.0917 B( 65-C , 93-H ) :   1.0128 B( 66-C , 67-C ) :   1.6127
B( 66-C , 68-C ) :   1.0929 B( 67-C , 94-H ) :   1.0111 B( 68-C , 69-N ) :   3.0499
B( 70-C , 71-C ) :   1.9525 B( 70-C , 95-H ) :   0.9554 B( 71-C , 96-H ) :   0.9593
B( 71-C , 97-H ) :   0.9499

-----------------------------------------------------------------------------
         ABSORPTION SPECTRUM VIA TRANSITION ELECTRIC DIPOLE MOMENTS
-----------------------------------------------------------------------------
State   Energy  Wavelength   fosc         T2         TX        TY        TZ
        (cm-1)    (nm)                  (au**2)     (au)      (au)      (au)
-----------------------------------------------------------------------------
   0    7562.3   1322.4   0.083366446   3.62923  -0.84768   1.20419   1.20855
   1   10148.8    985.3   0.141624315   4.59409  -0.69005  -1.61466   1.22914
   2   11016.4    907.7   0.006584173   0.19676   0.14129   0.14702  -0.39393
   3   12003.9    833.1   0.028763452   0.78885   0.67652  -0.46014   0.34562
   4   15168.4    659.3   0.028997656   0.62936  -0.11817  -0.55008   0.55930
   5   15824.9    631.9   0.005112653   0.10636  -0.29817  -0.11739  -0.06065
   6   16067.7    622.4   0.015518849   0.31797  -0.15087  -0.39241   0.37579
   7   17629.0    567.2   0.014547225   0.27166  -0.25043  -0.04951  -0.45442
   8   19032.2    525.4   0.371903353   6.43306  -0.96686  -0.12907   2.34128
   9   19123.9    522.9   0.007741772   0.13327   0.08189   0.12298  -0.33383
  10   20186.3    495.4   0.002803545   0.04572  -0.04769  -0.13911   0.15523
  11   21015.1    475.8   0.020285641   0.31779  -0.26038   0.36509   0.34161
  12   21651.4    461.9   0.012318534   0.18730   0.25032  -0.34849  -0.05659
  13   22086.5    452.8   0.061026892   0.90964   0.53671  -0.68649  -0.38770
  14   22208.7    450.3   0.015097041   0.22379  -0.13519   0.21053  -0.40149
  15   22793.7    438.7   0.002170789   0.03135   0.15946  -0.07668  -0.00684
  16   24008.5    416.5   0.063694374   0.87340   0.87498   0.13680  -0.29850
  17   24089.0    415.1   0.022127495   0.30241   0.23377  -0.24135   0.43532
  18   24149.2    414.1   0.049448044   0.67410  -0.08765   0.50692  -0.63988
  19   25801.1    387.6   0.159910575   2.04040  -0.56941  -1.16366   0.60172
  20   26105.6    383.1   0.099005359   1.24853  -0.29067  -0.33620   1.02519
  21   26613.0    375.8   0.003196808   0.03955  -0.06507   0.18377  -0.03923
  22   26918.5    371.5   0.006640981   0.08122  -0.22456  -0.01050  -0.17516
  23   27289.3    366.4   0.117053759   1.41211  -0.24337   0.24873   1.13623
  24   27442.6    364.4   0.350342968   4.20285  -0.48173  -1.61383   1.16890
  25   27613.9    362.1   0.150593483   1.79537  -0.79414   0.76461  -0.76164
  26   27900.0    358.4   0.000326280   0.00385  -0.06171  -0.00594   0.00253
  27   27994.5    357.2   0.048338660   0.56846  -0.46933  -0.49634  -0.31912
  28   28930.1    345.7   0.088307170   1.00490   0.05235  -0.99389  -0.11972
  29   29241.0    342.0   0.474588033   5.34318   0.76443   1.41569  -1.65972
  30   29442.3    339.6   0.063014623   0.70460   0.26417   0.65439  -0.45452
  31   29763.0    336.0   0.060502986   0.66923  -0.16793  -0.45218  -0.66073
  32   30435.7    328.6   0.409655864   4.43109  -1.82279   0.99412  -0.34676
  33   30534.2    327.5   0.019927351   0.21485  -0.30934  -0.28234   0.19861
  34   30636.9    326.4   0.467945270   5.02836   1.89477  -1.16174   0.29762
  35   31137.0    321.2   0.306446963   3.24007  -1.62847   0.71546   0.27617
  36   31977.6    312.7   0.034793999   0.35821  -0.26380   0.20309   0.49736
  37   32075.7    311.8   0.019509801   0.20024  -0.27428   0.17395  -0.30782
  38   32592.2    306.8   0.145497844   1.46967   0.58031  -0.69334  -0.80758
  39   33144.8    301.7   0.113031112   1.12268   0.16228   0.06702   1.04492
  40   33240.5    300.8   0.176872610   1.75173   1.03807  -0.23670  -0.78621
  41   33385.1    299.5   0.338073575   3.33376   1.09956  -0.33256  -1.41920
  42   33639.0    297.3   0.030545126   0.29893   0.14788  -0.37066   0.37373
  43   34005.5    294.1   0.012670921   0.12267   0.00242  -0.24263   0.25257
  44   34161.7    292.7   0.235496241   2.26945  -0.75101   1.24321  -0.39981
  45   34252.0    292.0   0.233191618   2.24131  -0.55057   1.28427  -0.53743
  46   34990.7    285.8   0.013544455   0.12743   0.06776   0.34646   0.05299
  47   35073.9    285.1   0.018056384   0.16948  -0.27616   0.15095   0.26538
  48   35153.1    284.5   0.012739801   0.11931  -0.02171  -0.25305   0.23410
  49   35210.2    284.0   0.714889079   6.68415   1.03862   0.70480  -2.26024
  50   35425.9    282.3   0.161888728   1.50443  -0.43109  -0.13597   1.14022
  51   36158.4    276.6   0.413811745   3.76764  -1.09660   0.65225   1.46277
  52   36583.1    273.4   0.000540915   0.00487  -0.06195  -0.03174   0.00481
  53   36750.3    272.1   0.024301771   0.21770  -0.32886  -0.24885   0.21822
  54   37317.9    268.0   0.789897723   6.96835   1.48441  -1.17260  -1.84117
  55   37663.4    265.5   0.038049454   0.33259   0.25445  -0.51162   0.07801
  56   37793.0    264.6   0.012485139   0.10876  -0.22325   0.15442  -0.18728
  57   38345.7    260.8   0.145089900   1.24565   0.22862  -0.61645   0.90187
  58   38481.1    259.9   0.002569748   0.02198   0.07735   0.00774  -0.12626
  59   39435.0    253.6   0.085406845   0.71300  -0.11867   0.67943  -0.48712
  60   39597.0    252.5   0.013008769   0.10816   0.15681   0.00718   0.28899
  61   39748.7    251.6   0.071384374   0.59123   0.20036  -0.45207   0.58883
  62   39889.2    250.7   0.058842145   0.48563  -0.26446   0.54319  -0.34733
  63   39940.2    250.4   0.009785954   0.08066  -0.04446  -0.26994  -0.07629
  64   40232.1    248.6   0.057936207   0.47408   0.53040  -0.17830  -0.40121

FINAL SINGLE POINT ENERGY     -3821.849625418383

DIPOLE MOMENT
-------------
                                X             Y             Z
Electronic contribution:     -6.39905     -21.00080       9.50635
Nuclear contribution   :      6.08452      18.10542      -9.39509
                        -----------------------------------------
Total Dipole Moment    :     -0.31453      -2.89538       0.11125
                        -----------------------------------------
Magnitude (a.u.)       :      2.91454
Magnitude (Debye)      :      7.40816

Rotational constants in cm-1:     0.001451     0.000436     0.000369
Rotational constants in MHz :    43.487089    13.084715    11.049958

                             ****ORCA TERMINATED NORMALLY****
TOTAL RUN TIME: 0 days 0 hours 13 minutes 25 seconds 957 msec
