                         Program Version 4.2.0 -  RELEASE  -
|  1> # ORCA input file
|  2> # SCF done       -187.653239489361          0.001222494060
|  3> ! CAM-B3LYP def2-SVP def2/J RIJCOSX Grid4 TightSCF
|  4> %maxcore 5000
|  5> %tddft
|  6>     Mode sTDDFT
|  7>     Ethresh 5.0
|  8>     maxcore 5000
|  9> end
| 10>
| 11> %pal
| 12>   nprocs 6
| 13>   end
| 14> * xyz 0 1
| 15>    C       -5.77275        11.87499         0.39770
| 16>    C       -6.16234        11.59575        -0.86190
| 17>    C       -5.43183        10.41531        -1.31089
| 18>    C       -5.56467         9.88231        -2.58924
| 19>    N       -5.71389         9.46937        -3.65526
| 20>    C       -4.63841         9.97601        -0.28163
| 21>    C       -4.83586        10.85914         0.83805
| 22>    C       -4.26118        10.83417         2.09695
| 23>    C       -3.52851         9.74886         2.79874
| 24>    C       -2.91038        10.32109         3.89112
| 25>    C       -3.28546        11.69470         3.96251
| 26>    C       -4.13695        11.98869         2.91161
| 27>    C       -2.85374        12.59199         4.94758
| 28>    N       -2.49666        13.32372         5.75746
| 29>    C       -3.56038         8.35880         2.57176
| 30>    C       -4.42824         7.68835         1.76137
| 31>    C       -4.41098         6.29798         1.50890
| 32>    C       -5.16133         5.76774         0.47350
| 33>    C       -5.14976         4.44259         0.07696
| 34>    C       -4.39118         3.42599         0.80700
| 35>    C       -3.59944         3.70179         1.86503
| 36>    S       -3.36039         5.28342         2.49407
| 37>    C       -4.64121         2.20699         0.11345
| 38>    C       -5.44378         2.44679        -1.00817
| 39>    C       -5.71512         1.25501        -1.72083
| 40>    C       -5.12321         0.17831        -1.14385
| 41>    S       -4.21360         0.55498         0.28177
| 42>    C       -5.75964         3.84748        -1.05873
| 43>    C       -6.42684         4.58232        -2.05616
| 44>    C       -6.70276         4.15041        -3.31754
| 45>    C       -7.22868         4.98472        -4.33615
| 46>    C       -7.56910         6.31866        -4.23122
| 47>    C       -7.87494         6.80581        -5.54372
| 48>    C       -8.06371         8.10844        -5.73950
| 49>    N       -8.35972         9.26034        -5.77863
| 50>    C       -7.74400         5.69585        -6.45327
| 51>    C       -7.34899         4.59737        -5.74073
| 52>    C       -7.08083         3.25101        -6.20777
| 53>    C       -6.27010         2.81557        -7.35687
| 54>    C       -6.37467         1.39072        -7.41841
| 55>    C       -7.14395         0.96820        -6.36480
| 56>    C       -7.58462         2.12847        -5.62243
| 57>    C       -7.45290        -0.34888        -6.01354
| 58>    N       -7.69994        -1.42426        -5.69152
| 59>    C       -5.50593         3.56578        -8.22165
| 60>    C       -5.28344         4.93251        -8.05421
| 61>    C       -4.95242         5.86781        -9.01289
| 62>    C       -5.16377         7.22885        -8.70121
| 63>    C       -5.22566         8.23481        -9.61262
| 64>    C       -4.88262         8.04748       -11.01700
| 65>    C       -4.51640         6.85867       -11.53955
| 66>    S       -4.48585         5.38419       -10.64206
| 67>    C       -5.08708         9.32646       -11.62289
| 68>    C       -5.60060        10.23754       -10.69594
| 69>    C       -5.84197        11.50062       -11.28340
| 70>    C       -5.51859        11.51120       -12.60269
| 71>    S       -4.91346         9.99916       -13.18765
| 72>    C       -5.72604         9.58337        -9.41728
| 73>    C       -6.33955         9.97715        -8.25279
| 74>    C       -7.09934        11.13720        -8.06653
| 75>    C       -7.83742        11.39099        -6.94060
| 76>    C       -7.77486        10.55671        -5.67706
| 77>    C       -8.58653        11.38651        -4.70387
| 78>    C       -8.81569        10.95417        -3.39496
| 79>    N       -8.98287        10.58822        -2.31926
| 80>    C       -9.02606        12.51888        -5.29448
| 81>    C       -8.63937        12.55082        -6.68384
| 82>    C       -9.05713        13.50968        -7.59471
| 83>    C       -9.53006        14.86297        -7.29138
| 84>    C       -9.94887        15.42455        -8.46044
| 85>    C       -9.78417        14.45956        -9.52341
| 86>    C       -9.21680        13.32199        -9.00280
| 87>    C      -10.14103        14.66648       -10.85860
| 88>    N      -10.41997        14.83801       -11.96067
| 89>    C       -9.41356        15.53225        -6.01347
| 90>    C      -10.18815        16.53837        -5.62126
| 91>    H       -6.14498        12.66692         1.01772
| 92>    H       -6.88062        12.12057        -1.46226
| 93>    H       -3.91925         9.17969        -0.33186
| 94>    H       -2.29993         9.81454         4.61501
| 95>    H       -4.53754        12.95864         2.68949
| 96>    H       -2.85457         7.78030         3.15750
| 97>    H       -5.19433         8.24175         1.23757
| 98>    H       -5.76581         6.47133        -0.08314
| 99>    H       -3.02797         2.94623         2.38016
|100>    H       -6.32392         1.17689        -2.60260
|101>    H       -5.16343        -0.84277        -1.46894
|102>    H       -6.65858         5.60905        -1.81066
|103>    H       -6.43186         3.14593        -3.60626
|104>    H       -7.57163         6.93879        -3.35645
|105>    H       -7.94929         5.75213        -7.50623
|106>    H       -5.88675         0.76925        -8.14587
|107>    H       -8.25505         2.08468        -4.78315
|108>    H       -5.09339         3.06949        -9.09286
|109>    H       -5.52107         5.33768        -7.08177
|110>    H       -5.39952         7.43164        -7.66564
|111>    H       -4.25968         6.72803       -12.57819
|112>    H       -6.22064        12.36806       -10.77486
|113>    H       -5.60015        12.33041       -13.28953
|114>    H       -6.30175         9.27808        -7.42969
|115>    H       -7.13380        11.85689        -8.86746
|116>    H       -6.73885        10.45779        -5.31131
|117>    H       -9.64511        13.26205        -4.82534
|118>    H      -10.31216        16.42384        -8.60586
|119>    H       -9.06020        12.40546        -9.53920
|120>    H       -8.61681        15.18718        -5.36605
|121>    H      -10.99825        16.89923        -6.23106
|122>    H      -10.04628        17.02612        -4.67243
|123> *
|124>
|125>                          ****END OF INPUT****

CARTESIAN COORDINATES (ANGSTROEM)
---------------------------------
  C     -5.772750   11.874990    0.397700
  C     -6.162340   11.595750   -0.861900
  C     -5.431830   10.415310   -1.310890
  C     -5.564670    9.882310   -2.589240
  N     -5.713890    9.469370   -3.655260
  C     -4.638410    9.976010   -0.281630
  C     -4.835860   10.859140    0.838050
  C     -4.261180   10.834170    2.096950
  C     -3.528510    9.748860    2.798740
  C     -2.910380   10.321090    3.891120
  C     -3.285460   11.694700    3.962510
  C     -4.136950   11.988690    2.911610
  C     -2.853740   12.591990    4.947580
  N     -2.496660   13.323720    5.757460
  C     -3.560380    8.358800    2.571760
  C     -4.428240    7.688350    1.761370
  C     -4.410980    6.297980    1.508900
  C     -5.161330    5.767740    0.473500
  C     -5.149760    4.442590    0.076960
  C     -4.391180    3.425990    0.807000
  C     -3.599440    3.701790    1.865030
  S     -3.360390    5.283420    2.494070
  C     -4.641210    2.206990    0.113450
  C     -5.443780    2.446790   -1.008170
  C     -5.715120    1.255010   -1.720830
  C     -5.123210    0.178310   -1.143850
  S     -4.213600    0.554980    0.281770
  C     -5.759640    3.847480   -1.058730
  C     -6.426840    4.582320   -2.056160
  C     -6.702760    4.150410   -3.317540
  C     -7.228680    4.984720   -4.336150
  C     -7.569100    6.318660   -4.231220
  C     -7.874940    6.805810   -5.543720
  C     -8.063710    8.108440   -5.739500
  N     -8.359720    9.260340   -5.778630
  C     -7.744000    5.695850   -6.453270
  C     -7.348990    4.597370   -5.740730
  C     -7.080830    3.251010   -6.207770
  C     -6.270100    2.815570   -7.356870
  C     -6.374670    1.390720   -7.418410
  C     -7.143950    0.968200   -6.364800
  C     -7.584620    2.128470   -5.622430
  C     -7.452900   -0.348880   -6.013540
  N     -7.699940   -1.424260   -5.691520
  C     -5.505930    3.565780   -8.221650
  C     -5.283440    4.932510   -8.054210
  C     -4.952420    5.867810   -9.012890
  C     -5.163770    7.228850   -8.701210
  C     -5.225660    8.234810   -9.612620
  C     -4.882620    8.047480  -11.017000
  C     -4.516400    6.858670  -11.539550
  S     -4.485850    5.384190  -10.642060
  C     -5.087080    9.326460  -11.622890
  C     -5.600600   10.237540  -10.695940
  C     -5.841970   11.500620  -11.283400
  C     -5.518590   11.511200  -12.602690
  S     -4.913460    9.999160  -13.187650
  C     -5.726040    9.583370   -9.417280
  C     -6.339550    9.977150   -8.252790
  C     -7.099340   11.137200   -8.066530
  C     -7.837420   11.390990   -6.940600
  C     -7.774860   10.556710   -5.677060
  C     -8.586530   11.386510   -4.703870
  C     -8.815690   10.954170   -3.394960
  N     -8.982870   10.588220   -2.319260
  C     -9.026060   12.518880   -5.294480
  C     -8.639370   12.550820   -6.683840
  C     -9.057130   13.509680   -7.594710
  C     -9.530060   14.862970   -7.291380
  C     -9.948870   15.424550   -8.460440
  C     -9.784170   14.459560   -9.523410
  C     -9.216800   13.321990   -9.002800
  C    -10.141030   14.666480  -10.858600
  N    -10.419970   14.838010  -11.960670
  C     -9.413560   15.532250   -6.013470
  C    -10.188150   16.538370   -5.621260
  H     -6.144980   12.666920    1.017720
  H     -6.880620   12.120570   -1.462260
  H     -3.919250    9.179690   -0.331860
  H     -2.299930    9.814540    4.615010
  H     -4.537540   12.958640    2.689490
  H     -2.854570    7.780300    3.157500
  H     -5.194330    8.241750    1.237570
  H     -5.765810    6.471330   -0.083140
  H     -3.027970    2.946230    2.380160
  H     -6.323920    1.176890   -2.602600
  H     -5.163430   -0.842770   -1.468940
  H     -6.658580    5.609050   -1.810660
  H     -6.431860    3.145930   -3.606260
  H     -7.571630    6.938790   -3.356450
  H     -7.949290    5.752130   -7.506230
  H     -5.886750    0.769250   -8.145870
  H     -8.255050    2.084680   -4.783150
  H     -5.093390    3.069490   -9.092860
  H     -5.521070    5.337680   -7.081770
  H     -5.399520    7.431640   -7.665640
  H     -4.259680    6.728030  -12.578190
  H     -6.220640   12.368060  -10.774860
  H     -5.600150   12.330410  -13.289530
  H     -6.301750    9.278080   -7.429690
  H     -7.133800   11.856890   -8.867460
  H     -6.738850   10.457790   -5.311310
  H     -9.645110   13.262050   -4.825340
  H    -10.312160   16.423840   -8.605860
  H     -9.060200   12.405460   -9.539200
  H     -8.616810   15.187180   -5.366050
  H    -10.998250   16.899230   -6.231060
  H    -10.046280   17.026120   -4.672430

 Total Charge           Charge          ....    0
 Multiplicity           Mult            ....    1
 Number of Electrons    NEL             ....  534
 Basis Dimension        Dim             .... 1240

ORBITAL ENERGIES
----------------

  NO   OCC          E(Eh)            E(eV)
   0   2.0000     -88.988159     -2421.4909
   1   2.0000     -88.984215     -2421.3836
   2   2.0000     -88.968282     -2420.9500
   3   2.0000     -88.956409     -2420.6270
   4   2.0000     -14.476545      -393.9268
   5   2.0000     -14.434420      -392.7805
   6   2.0000     -14.427783      -392.5999
   7   2.0000     -14.409960      -392.1149
   8   2.0000     -14.398736      -391.8095
   9   2.0000     -14.388444      -391.5295
  10   2.0000     -10.383675      -282.5542
  11   2.0000     -10.363690      -282.0103
  12   2.0000     -10.345905      -281.5264
  13   2.0000     -10.345148      -281.5058
  14   2.0000     -10.339701      -281.3576
  15   2.0000     -10.334362      -281.2123
  16   2.0000     -10.332425      -281.1596
  17   2.0000     -10.331331      -281.1298
  18   2.0000     -10.329957      -281.0924
  19   2.0000     -10.328223      -281.0452
  20   2.0000     -10.328110      -281.0422
  21   2.0000     -10.325139      -280.9613
  22   2.0000     -10.322337      -280.8851
  23   2.0000     -10.321139      -280.8525
  24   2.0000     -10.321006      -280.8488
  25   2.0000     -10.320546      -280.8363
  26   2.0000     -10.319951      -280.8201
  27   2.0000     -10.319842      -280.8172
  28   2.0000     -10.319737      -280.8143
  29   2.0000     -10.317960      -280.7660
  30   2.0000     -10.317628      -280.7569
  31   2.0000     -10.317093      -280.7424
  32   2.0000     -10.315974      -280.7119
  33   2.0000     -10.310261      -280.5565
  34   2.0000     -10.307825      -280.4902
  35   2.0000     -10.307711      -280.4871
  36   2.0000     -10.306365      -280.4505
  37   2.0000     -10.303147      -280.3629
  38   2.0000     -10.302439      -280.3436
  39   2.0000     -10.302371      -280.3418
  40   2.0000     -10.299801      -280.2718
  41   2.0000     -10.299481      -280.2631
  42   2.0000     -10.299173      -280.2548
  43   2.0000     -10.298991      -280.2498
  44   2.0000     -10.296449      -280.1806
  45   2.0000     -10.295288      -280.1490
  46   2.0000     -10.293571      -280.1023
  47   2.0000     -10.292543      -280.0743
  48   2.0000     -10.292301      -280.0678
  49   2.0000     -10.290609      -280.0217
  50   2.0000     -10.290004      -280.0052
  51   2.0000     -10.289839      -280.0008
  52   2.0000     -10.289190      -279.9831
  53   2.0000     -10.287535      -279.9381
  54   2.0000     -10.285816      -279.8913
  55   2.0000     -10.285755      -279.8896
  56   2.0000     -10.285754      -279.8896
  57   2.0000     -10.283805      -279.8366
  58   2.0000     -10.281523      -279.7745
  59   2.0000     -10.281208      -279.7659
  60   2.0000     -10.281000      -279.7602
  61   2.0000     -10.280477      -279.7460
  62   2.0000     -10.280183      -279.7380
  63   2.0000     -10.277831      -279.6740
  64   2.0000     -10.274114      -279.5728
  65   2.0000     -10.273738      -279.5626
  66   2.0000     -10.272526      -279.5296
  67   2.0000     -10.272254      -279.5222
  68   2.0000     -10.271723      -279.5078
  69   2.0000     -10.269144      -279.4376
  70   2.0000     -10.268511      -279.4204
  71   2.0000     -10.267026      -279.3800
  72   2.0000     -10.266647      -279.3697
  73   2.0000     -10.266528      -279.3664
  74   2.0000     -10.265992      -279.3519
  75   2.0000     -10.261881      -279.2400
  76   2.0000      -8.083607      -219.9661
  77   2.0000      -8.079915      -219.8657
  78   2.0000      -8.063674      -219.4237
  79   2.0000      -8.051932      -219.1042
  80   2.0000      -6.052920      -164.7083
  81   2.0000      -6.049646      -164.6192
  82   2.0000      -6.048555      -164.5895
  83   2.0000      -6.045947      -164.5186
  84   2.0000      -6.045173      -164.4975
  85   2.0000      -6.041302      -164.3922
  86   2.0000      -6.033286      -164.1741
  87   2.0000      -6.028863      -164.0537
  88   2.0000      -6.025369      -163.9586
  89   2.0000      -6.021314      -163.8483
  90   2.0000      -6.017075      -163.7329
  91   2.0000      -6.014041      -163.6504
  92   2.0000      -1.086871       -29.5753
  93   2.0000      -1.036592       -28.2071
  94   2.0000      -1.023016       -27.8377
  95   2.0000      -1.015276       -27.6271
  96   2.0000      -1.006933       -27.4000
  97   2.0000      -1.005507       -27.3612
  98   2.0000      -1.004315       -27.3288
  99   2.0000      -0.995147       -27.0793
 100   2.0000      -0.990436       -26.9511
 101   2.0000      -0.989639       -26.9295
 102   2.0000      -0.983866       -26.7723
 103   2.0000      -0.976417       -26.5697
 104   2.0000      -0.971686       -26.4409
 105   2.0000      -0.970616       -26.4118
 106   2.0000      -0.969022       -26.3684
 107   2.0000      -0.960620       -26.1398
 108   2.0000      -0.955900       -26.0114
 109   2.0000      -0.932197       -25.3664
 110   2.0000      -0.929973       -25.3059
 111   2.0000      -0.914791       -24.8927
 112   2.0000      -0.909364       -24.7450
 113   2.0000      -0.893858       -24.3231
 114   2.0000      -0.887348       -24.1460
 115   2.0000      -0.883720       -24.0472
 116   2.0000      -0.881742       -23.9934
 117   2.0000      -0.877406       -23.8754
 118   2.0000      -0.874149       -23.7868
 119   2.0000      -0.872226       -23.7345
 120   2.0000      -0.858119       -23.3506
 121   2.0000      -0.848321       -23.0840
 122   2.0000      -0.839374       -22.8405
 123   2.0000      -0.836889       -22.7729
 124   2.0000      -0.831268       -22.6200
 125   2.0000      -0.826016       -22.4770
 126   2.0000      -0.822631       -22.3849
 127   2.0000      -0.810109       -22.0442
 128   2.0000      -0.807011       -21.9599
 129   2.0000      -0.799628       -21.7590
 130   2.0000      -0.799149       -21.7459
 131   2.0000      -0.795831       -21.6557
 132   2.0000      -0.790813       -21.5191
 133   2.0000      -0.786608       -21.4047
 134   2.0000      -0.767718       -20.8907
 135   2.0000      -0.766003       -20.8440
 136   2.0000      -0.742160       -20.1952
 137   2.0000      -0.735365       -20.0103
 138   2.0000      -0.731059       -19.8931
 139   2.0000      -0.726839       -19.7783
 140   2.0000      -0.724153       -19.7052
 141   2.0000      -0.721254       -19.6263
 142   2.0000      -0.704684       -19.1754
 143   2.0000      -0.702682       -19.1210
 144   2.0000      -0.691267       -18.8103
 145   2.0000      -0.690050       -18.7772
 146   2.0000      -0.683282       -18.5931
 147   2.0000      -0.681877       -18.5548
 148   2.0000      -0.677189       -18.4272
 149   2.0000      -0.665438       -18.1075
 150   2.0000      -0.659582       -17.9481
 151   2.0000      -0.657398       -17.8887
 152   2.0000      -0.650429       -17.6991
 153   2.0000      -0.648922       -17.6581
 154   2.0000      -0.647661       -17.6237
 155   2.0000      -0.642447       -17.4819
 156   2.0000      -0.635083       -17.2815
 157   2.0000      -0.632981       -17.2243
 158   2.0000      -0.627757       -17.0821
 159   2.0000      -0.614300       -16.7160
 160   2.0000      -0.613790       -16.7021
 161   2.0000      -0.611074       -16.6282
 162   2.0000      -0.609189       -16.5769
 163   2.0000      -0.608948       -16.5703
 164   2.0000      -0.606509       -16.5039
 165   2.0000      -0.603668       -16.4266
 166   2.0000      -0.595182       -16.1957
 167   2.0000      -0.594617       -16.1803
 168   2.0000      -0.583380       -15.8746
 169   2.0000      -0.578351       -15.7377
 170   2.0000      -0.573661       -15.6101
 171   2.0000      -0.568965       -15.4823
 172   2.0000      -0.564738       -15.3673
 173   2.0000      -0.562965       -15.3191
 174   2.0000      -0.558470       -15.1967
 175   2.0000      -0.555516       -15.1164
 176   2.0000      -0.548804       -14.9337
 177   2.0000      -0.545951       -14.8561
 178   2.0000      -0.541971       -14.7478
 179   2.0000      -0.540302       -14.7024
 180   2.0000      -0.538539       -14.6544
 181   2.0000      -0.527273       -14.3478
 182   2.0000      -0.525145       -14.2899
 183   2.0000      -0.524912       -14.2836
 184   2.0000      -0.521905       -14.2018
 185   2.0000      -0.517099       -14.0710
 186   2.0000      -0.516847       -14.0641
 187   2.0000      -0.514368       -13.9967
 188   2.0000      -0.512812       -13.9543
 189   2.0000      -0.511904       -13.9296
 190   2.0000      -0.509923       -13.8757
 191   2.0000      -0.509182       -13.8555
 192   2.0000      -0.507736       -13.8162
 193   2.0000      -0.501079       -13.6350
 194   2.0000      -0.499771       -13.5995
 195   2.0000      -0.497908       -13.5488
 196   2.0000      -0.495893       -13.4939
 197   2.0000      -0.493394       -13.4259
 198   2.0000      -0.492069       -13.3899
 199   2.0000      -0.490575       -13.3492
 200   2.0000      -0.489086       -13.3087
 201   2.0000      -0.487033       -13.2528
 202   2.0000      -0.485769       -13.2184
 203   2.0000      -0.482318       -13.1246
 204   2.0000      -0.481248       -13.0954
 205   2.0000      -0.480419       -13.0729
 206   2.0000      -0.478632       -13.0243
 207   2.0000      -0.477617       -12.9966
 208   2.0000      -0.474177       -12.9030
 209   2.0000      -0.471310       -12.8250
 210   2.0000      -0.470836       -12.8121
 211   2.0000      -0.469201       -12.7676
 212   2.0000      -0.466913       -12.7054
 213   2.0000      -0.463940       -12.6244
 214   2.0000      -0.462728       -12.5915
 215   2.0000      -0.460899       -12.5417
 216   2.0000      -0.458790       -12.4843
 217   2.0000      -0.457355       -12.4453
 218   2.0000      -0.452666       -12.3177
 219   2.0000      -0.450968       -12.2715
 220   2.0000      -0.450349       -12.2546
 221   2.0000      -0.449893       -12.2422
 222   2.0000      -0.444354       -12.0915
 223   2.0000      -0.442467       -12.0401
 224   2.0000      -0.441773       -12.0212
 225   2.0000      -0.439348       -11.9553
 226   2.0000      -0.437573       -11.9070
 227   2.0000      -0.437048       -11.8927
 228   2.0000      -0.433422       -11.7940
 229   2.0000      -0.431942       -11.7537
 230   2.0000      -0.430816       -11.7231
 231   2.0000      -0.428836       -11.6692
 232   2.0000      -0.428540       -11.6612
 233   2.0000      -0.424651       -11.5553
 234   2.0000      -0.421317       -11.4646
 235   2.0000      -0.419894       -11.4259
 236   2.0000      -0.419429       -11.4132
 237   2.0000      -0.417378       -11.3574
 238   2.0000      -0.411915       -11.2088
 239   2.0000      -0.411233       -11.1902
 240   2.0000      -0.410115       -11.1598
 241   2.0000      -0.408293       -11.1102
 242   2.0000      -0.407398       -11.0859
 243   2.0000      -0.404686       -11.0121
 244   2.0000      -0.401178       -10.9166
 245   2.0000      -0.398152       -10.8343
 246   2.0000      -0.391551       -10.6547
 247   2.0000      -0.387918       -10.5558
 248   2.0000      -0.366287        -9.9672
 249   2.0000      -0.364633        -9.9222
 250   2.0000      -0.363656        -9.8956
 251   2.0000      -0.359145        -9.7728
 252   2.0000      -0.353783        -9.6269
 253   2.0000      -0.331628        -9.0240
 254   2.0000      -0.330034        -8.9807
 255   2.0000      -0.324634        -8.8337
 256   2.0000      -0.312987        -8.5168
 257   2.0000      -0.312607        -8.5065
 258   2.0000      -0.306835        -8.3494
 259   2.0000      -0.292756        -7.9663
 260   2.0000      -0.292728        -7.9655
 261   2.0000      -0.287312        -7.8181
 262   2.0000      -0.279680        -7.6105
 263   2.0000      -0.262732        -7.1493
 264   2.0000      -0.260400        -7.0858
 265   2.0000      -0.243726        -6.6321
 266   2.0000      -0.213453        -5.8083
 267   0.0000      -0.127227        -3.4620
 268   0.0000      -0.125461        -3.4140
 269   0.0000      -0.087967        -2.3937
 270   0.0000      -0.062597        -1.7034
 271   0.0000      -0.057518        -1.5652

MULLIKEN ATOMIC CHARGES
-----------------------
   0 C :   -0.010692
   1 C :    0.072074
   2 C :   -0.158684
   3 C :   -0.056990
   4 N :    0.069727
   5 C :   -0.026688
   6 C :    0.022317
   7 C :    0.087042
   8 C :    0.090640
   9 C :   -0.042037
  10 C :   -0.078302
  11 C :   -0.044616
  12 C :   -0.126657
  13 N :    0.135046
  14 C :   -0.009497
  15 C :   -0.037868
  16 C :   -0.042540
  17 C :   -0.042903
  18 C :    0.040854
  19 C :    0.073203
  20 C :   -0.121427
  21 S :    0.101694
  22 C :   -0.107075
  23 C :    0.043119
  24 C :    0.008739
  25 C :   -0.067421
  26 S :    0.130866
  27 C :    0.125496
  28 C :   -0.032628
  29 C :   -0.010415
  30 C :    0.074323
  31 C :   -0.070237
  32 C :   -0.168277
  33 C :    0.100147
  34 N :    0.038894
  35 C :   -0.063542
  36 C :    0.029755
  37 C :    0.050734
  38 C :    0.079031
  39 C :   -0.030486
  40 C :   -0.115667
  41 C :   -0.047132
  42 C :   -0.135465
  43 N :    0.116802
  44 C :   -0.005471
  45 C :   -0.049681
  46 C :   -0.022503
  47 C :   -0.050219
  48 C :    0.062650
  49 C :    0.086233
  50 C :   -0.137317
  51 S :    0.122045
  52 C :   -0.095131
  53 C :    0.026837
  54 C :    0.007507
  55 C :   -0.064187
  56 S :    0.167431
  57 C :    0.182363
  58 C :   -0.079580
  59 C :    0.031857
  60 C :   -0.076074
  61 C :    0.233998
  62 C :   -0.210868
  63 C :   -0.108139
  64 N :    0.158567
  65 C :    0.029982
  66 C :    0.101900
  67 C :    0.002419
  68 C :    0.064425
  69 C :   -0.029677
  70 C :   -0.120840
  71 C :   -0.050977
  72 C :   -0.136625
  73 N :    0.120549
  74 C :   -0.048906
  75 C :   -0.013484
  76 H :   -0.009670
  77 H :   -0.018117
  78 H :    0.018781
  79 H :   -0.014713
  80 H :   -0.013307
  81 H :   -0.001243
  82 H :    0.023717
  83 H :   -0.018205
  84 H :    0.034568
  85 H :   -0.007519
  86 H :    0.034543
  87 H :   -0.045955
  88 H :   -0.029669
  89 H :   -0.016845
  90 H :   -0.031015
  91 H :   -0.022620
  92 H :   -0.012880
  93 H :   -0.000056
  94 H :    0.047920
  95 H :    0.007792
  96 H :    0.037412
  97 H :    0.008052
  98 H :    0.043365
  99 H :   -0.024713
 100 H :   -0.036199
 101 H :    0.074712
 102 H :    0.013294
 103 H :   -0.019552
 104 H :   -0.010570
 105 H :    0.000393
 106 H :    0.021888
 107 H :    0.024070
Sum of atomic charges:   -0.0000000

LOEWDIN ATOMIC CHARGES
----------------------
   0 C :   -0.033417
   1 C :    0.012795
   2 C :   -0.082853
   3 C :    0.006535
   4 N :   -0.091560
   5 C :    0.002626
   6 C :    0.011937
   7 C :    0.049946
   8 C :   -0.014377
   9 C :   -0.032031
  10 C :   -0.038883
  11 C :   -0.031047
  12 C :   -0.027013
  13 N :   -0.042969
  14 C :   -0.030856
  15 C :   -0.029224
  16 C :   -0.178720
  17 C :    0.000094
  18 C :   -0.039250
  19 C :   -0.053885
  20 C :   -0.138497
  21 S :    0.430807
  22 C :   -0.189189
  23 C :   -0.042836
  24 C :   -0.059494
  25 C :   -0.160447
  26 S :    0.427983
  27 C :   -0.013662
  28 C :   -0.028652
  29 C :   -0.007636
  30 C :   -0.049094
  31 C :   -0.006703
  32 C :   -0.135120
  33 C :    0.171681
  34 N :    0.005953
  35 C :   -0.042094
  36 C :   -0.032995
  37 C :   -0.033303
  38 C :   -0.021603
  39 C :   -0.005463
  40 C :   -0.085628
  41 C :   -0.013346
  42 C :   -0.033791
  43 N :   -0.072293
  44 C :    0.038127
  45 C :   -0.064588
  46 C :   -0.132993
  47 C :    0.006571
  48 C :   -0.000614
  49 C :   -0.063668
  50 C :   -0.149394
  51 S :    0.430418
  52 C :   -0.165060
  53 C :   -0.057975
  54 C :   -0.054057
  55 C :   -0.156426
  56 S :    0.461394
  57 C :    0.021774
  58 C :   -0.034685
  59 C :    0.029177
  60 C :   -0.035590
  61 C :    0.054644
  62 C :   -0.047775
  63 C :   -0.027942
  64 N :   -0.034527
  65 C :    0.051488
  66 C :    0.035969
  67 C :   -0.025967
  68 C :   -0.044118
  69 C :   -0.003634
  70 C :   -0.076270
  71 C :   -0.022722
  72 C :   -0.033500
  73 N :   -0.066311
  74 C :   -0.033911
  75 C :   -0.036170
  76 H :    0.028897
  77 H :    0.028102
  78 H :    0.036669
  79 H :    0.030104
  80 H :    0.030193
  81 H :    0.028335
  82 H :    0.038298
  83 H :    0.037501
  84 H :    0.035744
  85 H :    0.033483
  86 H :    0.027372
  87 H :    0.023590
  88 H :    0.027040
  89 H :    0.021823
  90 H :    0.020391
  91 H :    0.027730
  92 H :    0.028378
  93 H :    0.031756
  94 H :    0.046500
  95 H :    0.043759
  96 H :    0.036535
  97 H :    0.035375
  98 H :    0.031351
  99 H :    0.029016
 100 H :    0.035633
 101 H :    0.045378
 102 H :    0.045712
 103 H :    0.028357
 104 H :    0.026362
 105 H :    0.026596
 106 H :    0.024366
 107 H :    0.025560

  Mayer bond orders larger than 0.100000
B(  0-C ,  1-C ) :   1.6572 B(  0-C ,  6-C ) :   1.1111 B(  0-C , 76-H ) :   1.0067
B(  1-C ,  2-C ) :   1.0960 B(  1-C , 77-H ) :   1.0087 B(  2-C ,  3-C ) :   1.0970
B(  2-C ,  5-C ) :   1.5968 B(  3-C ,  4-N ) :   2.8858 B(  5-C ,  6-C ) :   1.0983
B(  5-C , 78-H ) :   1.0154 B(  6-C ,  7-C ) :   1.4096 B(  7-C ,  8-C ) :   1.0027
B(  7-C , 11-C ) :   1.1685 B(  8-C ,  9-C ) :   1.5000 B(  8-C , 14-C ) :   1.2216
B(  9-C , 10-C ) :   1.1572 B(  9-C , 79-H ) :   1.0231 B( 10-C , 11-C ) :   1.5270
B( 10-C , 12-C ) :   1.0568 B( 11-C , 80-H ) :   1.0202 B( 12-C , 13-N ) :   3.0373
B( 14-C , 15-C ) :   1.5271 B( 14-C , 81-H ) :   0.9533 B( 15-C , 16-C ) :   1.2051
B( 15-C , 82-H ) :   0.9797 B( 16-C , 17-C ) :   1.4578 B( 16-C , 21-S ) :   1.0270
B( 17-C , 18-C ) :   1.2611 B( 17-C , 83-H ) :   0.9790 B( 18-C , 19-C ) :   1.0400
B( 18-C , 27-C ) :   1.3331 B( 19-C , 20-C ) :   1.6250 B( 19-C , 22-C ) :   1.1711
B( 20-C , 21-S ) :   1.1258 B( 20-C , 84-H ) :   0.9417 B( 22-C , 23-C ) :   1.4327
B( 22-C , 26-S ) :   1.0906 B( 23-C , 24-C ) :   1.2111 B( 23-C , 27-C ) :   1.0901
B( 24-C , 25-C ) :   1.5915 B( 24-C , 85-H ) :   0.9994 B( 25-C , 26-S ) :   1.1456
B( 25-C , 86-H ) :   0.9652 B( 27-C , 28-C ) :   1.1796 B( 28-C , 29-C ) :   1.6112
B( 28-C , 87-H ) :   0.9638 B( 29-C , 30-C ) :   1.1081 B( 29-C , 88-H ) :   0.9720
B( 30-C , 31-C ) :   1.4942 B( 30-C , 36-C ) :   1.1725 B( 31-C , 32-C ) :   1.1571
B( 31-C , 89-H ) :   1.0035 B( 32-C , 33-C ) :   1.4339 B( 32-C , 35-C ) :   1.0998
B( 33-C , 34-N ) :   2.1823 B( 34-N , 61-C ) :   0.9494 B( 35-C , 36-C ) :   1.5776
B( 35-C , 90-H ) :   1.0162 B( 36-C , 37-C ) :   0.9119 B( 37-C , 38-C ) :   1.1180
B( 37-C , 41-C ) :   1.6234 B( 38-C , 39-C ) :   1.0796 B( 38-C , 44-C ) :   1.5315
B( 39-C , 40-C ) :   1.5951 B( 39-C , 91-H ) :   1.0229 B( 40-C , 41-C ) :   1.1228
B( 40-C , 42-C ) :   1.0544 B( 41-C , 92-H ) :   1.0203 B( 42-C , 43-N ) :   3.0378
B( 44-C , 45-C ) :   1.1858 B( 44-C , 93-H ) :   0.9569 B( 45-C , 46-C ) :   1.5263
B( 45-C , 94-H ) :   0.9669 B( 46-C , 47-C ) :   1.1751 B( 46-C , 51-S ) :   1.0426
B( 47-C , 48-C ) :   1.5803 B( 47-C , 95-H ) :   0.9746 B( 48-C , 49-C ) :   1.0615
B( 48-C , 57-C ) :   1.0503 B( 49-C , 50-C ) :   1.6622 B( 49-C , 52-C ) :   1.1180
B( 50-C , 51-S ) :   1.0970 B( 50-C , 96-H ) :   0.9420 B( 52-C , 53-C ) :   1.4578
B( 52-C , 56-S ) :   1.1313 B( 53-C , 54-C ) :   1.2221 B( 53-C , 57-C ) :   1.0442
B( 54-C , 55-C ) :   1.5978 B( 54-C , 97-H ) :   0.9969 B( 55-C , 56-S ) :   1.1483
B( 55-C , 98-H ) :   0.9633 B( 57-C , 58-C ) :   1.5520 B( 58-C , 59-C ) :   1.1756
B( 58-C , 99-H ) :   0.9529 B( 59-C , 60-C ) :   1.5892 B( 59-C ,100-H ) :   0.9673
B( 60-C , 61-C ) :   0.9241 B( 60-C , 66-C ) :   1.1741 B( 61-C , 62-C ) :   0.9876
B( 61-C ,101-H ) :   0.8402 B( 62-C , 63-C ) :   1.1243 B( 62-C , 65-C ) :   1.7197
B( 63-C , 64-N ) :   2.9697 B( 65-C , 66-C ) :   1.0638 B( 65-C ,102-H ) :   1.0139
B( 66-C , 67-C ) :   1.3500 B( 67-C , 68-C ) :   1.1112 B( 67-C , 71-C ) :   1.1344
B( 68-C , 69-C ) :   1.5876 B( 68-C , 74-C ) :   1.0346 B( 69-C , 70-C ) :   1.1392
B( 69-C ,103-H ) :   1.0163 B( 70-C , 71-C ) :   1.5888 B( 70-C , 72-C ) :   1.0559
B( 71-C ,104-H ) :   1.0066 B( 72-C , 73-N ) :   3.0364 B( 74-C , 75-C ) :   1.9573
B( 74-C ,105-H ) :   0.9564 B( 75-C ,106-H ) :   0.9597 B( 75-C ,107-H ) :   0.9501

-----------------------------------------------------------------------------
         ABSORPTION SPECTRUM VIA TRANSITION ELECTRIC DIPOLE MOMENTS
-----------------------------------------------------------------------------
State   Energy  Wavelength   fosc         T2         TX        TY        TZ
        (cm-1)    (nm)                  (au**2)     (au)      (au)      (au)
-----------------------------------------------------------------------------
   0    4121.5   2426.3   0.066923936   5.34573  -0.46604  -2.06979  -0.91896
   1    6767.4   1477.7   0.004316843   0.21000  -0.03903  -0.14706  -0.43226
   2   10960.0    912.4   0.449933686  13.51498   0.92817  -3.49838   0.64409
   3   12648.1    790.6   0.056408989   1.46824  -0.46804  -0.01846  -1.11751
   4   13994.1    714.6   0.196788912   4.62949   0.92858  -1.86891  -0.52385
   5   14516.3    688.9   0.023518856   0.53338  -0.31360   0.65919  -0.02251
   6   15330.3    652.3   0.003623910   0.07782  -0.08343   0.18734  -0.18912
   7   15350.5    651.4   0.001167892   0.02505  -0.14505   0.05506   0.03125
   8   17626.1    567.3   0.008032772   0.15003   0.13076  -0.32771  -0.15982
   9   17842.3    560.5   0.500055806   9.22662  -1.23811  -0.73784  -2.67381
  10   18450.9    542.0   0.023479212   0.41893  -0.21417  -0.25768  -0.55377
  11   18698.7    534.8   0.150652111   2.65240   1.24305   0.35699  -0.98984
  12   19796.5    505.1   0.032826522   0.54590  -0.01283  -0.72798  -0.12560
  13   20790.1    481.0   0.121260915   1.92017   0.04763  -1.31122  -0.44564
  14   21220.7    471.2   0.173000683   2.68388   1.51844  -0.55278  -0.26957
  15   21720.6    460.4   0.095347895   1.44516   0.23962   0.07479   1.17565
  16   21887.9    456.9   0.048994084   0.73691   0.13085  -0.56422   0.63360
  17   22010.6    454.3   0.103883102   1.55378   0.72687  -1.00525   0.12207
  18   22275.1    448.9   0.032045842   0.47362   0.40886   0.44673   0.32693
  19   23182.9    431.4   0.000845459   0.01201   0.04030   0.09692  -0.03144
  20   23820.7    419.8   0.002815428   0.03891  -0.03688  -0.15654  -0.11421
  21   24117.8    414.6   0.159217652   2.17335  -0.34114  -1.11043   0.90770
  22   24463.6    408.8   0.155865980   2.09752  -0.16306   1.33617  -0.53439
  23   24593.6    406.6   0.069375799   0.92867   0.33992  -0.66139  -0.61294
  24   25039.6    399.4   0.058338297   0.76701  -0.28025  -0.81126   0.17414
  25   25175.0    397.2   0.015942308   0.20848  -0.07199  -0.24334   0.37958
  26   25724.0    388.7   0.029322076   0.37526   0.48057   0.21567  -0.31273
  27   26083.3    383.4   0.055264783   0.69753  -0.01030  -0.26728   0.79119
  28   26159.7    382.3   0.042737416   0.53784  -0.47987  -0.00166  -0.55458
  29   26442.3    378.2   0.074736562   0.93048   0.30422  -0.42568   0.81039
  30   26729.8    374.1   0.333253516   4.10445  -0.93016   1.22064  -1.32260
  31   27023.9    370.0   0.578408965   7.04633  -0.56380   1.81014  -1.85792
  32   27268.4    366.7   0.045651675   0.55115   0.25110  -0.13421  -0.68563
  33   27856.3    359.0   0.009391222   0.11099   0.04786   0.03502  -0.32783
  34   28428.6    351.8   0.002949208   0.03415   0.01830   0.12594  -0.13400
  35   28478.3    351.1   0.021802998   0.25204  -0.01018   0.27199   0.42185
  36   28768.8    347.6   0.421645333   4.82505   0.51362   1.33992   1.66309
  37   29125.8    343.3   0.160810398   1.81766   0.05900   0.69605  -1.15312
  38   29449.5    339.6   0.025895001   0.28948  -0.06303   0.50410   0.17717
  39   29812.1    335.4   0.171654025   1.89556   0.29275   0.38743  -1.28831
  40   30221.8    330.9   0.439077660   4.78296  -0.62085  -0.77596   1.94818
  41   30662.4    326.1   0.001759563   0.01889  -0.06081  -0.04166   0.11601
  42   31048.8    322.1   0.004561833   0.04837  -0.03239   0.07544  -0.20403
  43   31447.9    318.0   0.021376271   0.22378  -0.17039  -0.28022  -0.34091
  44   31690.8    315.5   0.064695971   0.67208  -0.21515   0.54940   0.56916
  45   32068.7    311.8   0.013471970   0.13830  -0.14954  -0.33816   0.03982
  46   32166.1    310.9   0.003427013   0.03507   0.01009  -0.03212   0.18423
  47   32425.4    308.4   0.040403176   0.41021  -0.00327  -0.05559  -0.63805
  48   32514.8    307.6   0.378068524   3.82794  -0.29204   1.18713  -1.52754
  49   32720.2    305.6   0.080864269   0.81361  -0.68800  -0.33987  -0.47408
  50   32887.0    304.1   0.022357624   0.22381   0.09613  -0.45210  -0.10086
  51   33163.6    301.5   0.130112150   1.29161   0.06583  -1.10706  -0.24840
  52   33269.3    300.6   0.009831786   0.09729   0.00032   0.28362   0.12979
  53   33595.5    297.7   0.032358465   0.31709   0.01691  -0.50734  -0.24375
  54   33619.1    297.4   0.004464317   0.04372  -0.18716   0.06239  -0.06924
  55   34027.4    293.9   0.020512314   0.19845   0.22843   0.20937  -0.32006
  56   34170.8    292.6   0.057670018   0.55561  -0.45043   0.02155  -0.59352
  57   34225.9    292.2   0.505784209   4.86503   0.44664   1.66360   1.37767
  58   34356.2    291.1   0.107486954   1.02997  -0.16968   0.32599  -0.94600
  59   34479.5    290.0   0.001288754   0.01231  -0.03911   0.09959   0.02927
  60   34813.3    287.2   0.280117384   2.64893   0.14039   0.31658  -1.59028
  61   34912.9    286.4   0.119443365   1.12629   0.79452   0.68984   0.13841
  62   35299.2    283.3   0.038912505   0.36291   0.51070   0.30576   0.09277
  63   35539.2    281.4   0.273408728   2.53268  -0.23770  -0.12104  -1.56893
  64   35832.0    279.1   0.465104735   4.27323  -0.72845  -1.84948  -0.56746
  65   35946.0    278.2   0.498922776   4.56938  -0.38703  -2.02740  -0.55608
  66   36071.1    277.2   0.063127829   0.57615  -0.13998   0.35629  -0.65545
  67   36377.7    274.9   0.028001838   0.25341   0.04934  -0.08537   0.49365
  68   36401.9    274.7   0.007314362   0.06615  -0.08693  -0.10106  -0.21995
  69   36531.2    273.7   0.054554188   0.49163  -0.10728   0.69225  -0.03012
  70   36581.1    273.4   0.120081719   1.08068   0.28626  -0.88392   0.46628
  71   37384.0    267.5   0.005679249   0.05001   0.09614   0.10484  -0.17256
  72   37452.3    267.0   0.049739771   0.43722  -0.28762  -0.17285  -0.56975
  73   37623.2    265.8   0.001589934   0.01391   0.03511   0.02417   0.10998
  74   38068.1    262.7   0.060030568   0.51914  -0.22374   0.62664  -0.27641
  75   38146.2    262.1   0.038319269   0.33071  -0.07821   0.56931   0.02170
  76   38379.7    260.6   0.072771617   0.62422   0.21920  -0.48401  -0.58472
  77   38831.9    257.5   0.025897166   0.21955  -0.00428   0.46623  -0.04654
  78   38921.9    256.9   0.003681052   0.03114   0.12901  -0.02806   0.11707
  79   39039.4    256.2   0.024888801   0.20988   0.12273  -0.36115  -0.25375
  80   39071.1    255.9   0.017879361   0.15065   0.00813  -0.38138  -0.07167
  81   39308.9    254.4   0.159726438   1.33771  -0.29124   1.10896  -0.15195
  82   39407.3    253.8   0.003159060   0.02639  -0.04964  -0.15398   0.01474
  83   39597.6    252.5   0.035344655   0.29385   0.21274  -0.49469  -0.06228
  84   39847.5    251.0   0.022689561   0.18746  -0.00022   0.39675   0.17334
  85   40009.7    249.9   0.059309040   0.48801   0.01554   0.62538   0.31093
  86   40140.7    249.1   0.003137165   0.02573  -0.13238  -0.04872   0.07636

FINAL SINGLE POINT ENERGY     -4450.953651994630

DIPOLE MOMENT
-------------
                                X             Y             Z
Electronic contribution:     11.25683     -19.95351      -3.66930
Nuclear contribution   :     -9.15319      21.01308       1.70153
                        -----------------------------------------
Total Dipole Moment    :      2.10364       1.05957      -1.96777
                        -----------------------------------------
Magnitude (a.u.)       :      3.06922
Magnitude (Debye)      :      7.80133

Rotational constants in cm-1:     0.000798     0.000532     0.000356
Rotational constants in MHz :    23.909972    15.947925    10.675924

                             ****ORCA TERMINATED NORMALLY****
TOTAL RUN TIME: 0 days 0 hours 16 minutes 18 seconds 727 msec
