                         Program Version 4.2.0 -  RELEASE  -
|  1> # ORCA input file
|  2> # SCF done       -193.598602158175          0.000277768701
|  3> ! CAM-B3LYP def2-SVP def2/J RIJCOSX Grid4 TightSCF
|  4> %maxcore 5000
|  5> %tddft
|  6>     Mode sTDDFT
|  7>     Ethresh 5.0
|  8>     maxcore 5000
|  9> end
| 10>
| 11> %pal
| 12>   nprocs 6
| 13>   end
| 14> * xyz 0 1
| 15>    C       -0.47587        -2.26706        -6.60536
| 16>    S       -1.45580        -2.54128        -5.22578
| 17>    C       -0.46749        -3.89464        -4.72955
| 18>    C        0.54561        -4.11105        -5.63876
| 19>    C        0.54565        -3.16005        -6.69762
| 20>    S        1.70040        -3.09172        -8.03665
| 21>    C        3.23574        -2.73255        -7.08878
| 22>    C        4.43455        -2.83303        -8.00892
| 23>    S        1.67774        -5.46275        -5.53963
| 24>    C        1.20415        -6.37372        -7.06532
| 25>    C        2.05819        -7.61792        -7.19077
| 26>    C       -0.83218        -4.58790        -3.53571
| 27>    C       -0.03517        -5.38974        -2.79981
| 28>    C       -0.50140        -6.08362        -1.64204
| 29>    C        0.27770        -6.88798        -0.89573
| 30>    C       -0.20399        -7.56460         0.29418
| 31>    C       -1.04662        -6.90996         1.14374
| 32>    S       -1.52012        -7.80826         2.52901
| 33>    C       -0.57643        -9.15265         1.96799
| 34>    C        0.08970        -8.90259         0.75890
| 35>    C        0.84131        -9.94925         0.17072
| 36>    C        1.47784        -9.70640        -1.17338
| 37>    C        2.90495        -9.16934        -1.03487
| 38>    C        0.97871       -11.17233         0.81579
| 39>    C        1.80569       -12.27437         0.20509
| 40>    C        0.92434       -13.32043        -0.48011
| 41>    C        0.30069       -11.41479         2.03704
| 42>    C        0.18008       -12.61181         2.84210
| 43>    C       -0.66848       -12.42945         3.89726
| 44>    S       -1.32883       -10.85343         4.02901
| 45>    C       -0.48766       -10.38944         2.58209
| 46>    C        0.82777       -13.89478         2.68082
| 47>    C        0.20526       -15.06245         2.93471
| 48>    C        0.87933       -16.31558         2.89168
| 49>    O        0.18097       -17.45345         3.15144
| 50>    C        2.20043       -16.65497         2.68494
| 51>    C        3.52076       -16.12904         2.34927
| 52>    O        3.88586       -15.00414         2.09817
| 53>    N        4.33578       -17.25251         2.35773
| 54>    C        3.68793       -18.45946         2.65333
| 55>    O        4.23363       -19.53257         2.70199
| 56>    C        2.30076       -18.06110         2.85894
| 57>    C        1.02808       -18.52568         3.14378
| 58>    C        0.54309       -19.82542         3.41316
| 59>    C       -0.78597       -20.13294         3.38919
| 60>    C       -1.37285       -21.37221         3.70600
| 61>    C       -0.84268       -22.39095         4.45891
| 62>    C       -1.51488       -23.60226         4.77566
| 63>    C       -0.86512       -24.39133         5.67106
| 64>    C        0.36215       -23.85099         6.12355
| 65>    S        0.68891       -22.33141         5.31020
| 66>    C        1.19511       -24.35190         7.09929
| 67>    C        1.01468       -25.53356         7.86593
| 68>    C        1.95125       -25.72734         8.82569
| 69>    C        2.94982       -24.71183         8.88219
| 70>    S        2.63133       -23.50847         7.62718
| 71>    C        3.96044       -24.51612         9.76637
| 72>    C        4.39571       -25.42152        10.80893
| 73>    C        4.83868       -24.97875        12.04831
| 74>    O        4.77556       -23.70486        12.51015
| 75>    C        3.75262       -22.81991        12.10261
| 76>    C        5.42292       -25.87909        13.01168
| 77>    O        5.79311       -25.26949        14.16117
| 78>    C        6.38498       -26.04960        15.17159
| 79>    C        5.56213       -27.21689        12.75364
| 80>    C        5.10710       -27.70112        11.51710
| 81>    C        4.51295       -26.81664        10.55125
| 82>    N        4.18306       -27.45489         9.43343
| 83>    S        4.56510       -29.01405         9.58796
| 84>    N        5.17341       -28.95571        11.08066
| 85>    H       -0.69953        -1.46466        -7.27895
| 86>    H        3.29553        -3.45727        -6.27817
| 87>    H        3.12813        -1.72740        -6.67952
| 88>    H        4.51461        -3.83707        -8.41951
| 89>    H        5.34299        -2.60820        -7.45404
| 90>    H        4.34430        -2.12954        -8.83383
| 91>    H        1.34709        -5.70416        -7.91207
| 92>    H        0.14727        -6.62208        -6.96394
| 93>    H        3.11161        -7.35216        -7.24432
| 94>    H        1.78789        -8.15905        -8.09502
| 95>    H        1.91033        -8.27158        -6.33378
| 96>    H       -1.84797        -4.41073        -3.20341
| 97>    H        0.99868        -5.53108        -3.07749
| 98>    H       -1.54789        -5.96695        -1.39092
| 99>    H        1.31680        -7.00315        -1.16383
|100>    H       -1.39032        -5.89864         1.04566
|101>    H        1.49071       -10.62509        -1.75937
|102>    H        0.86635        -8.99132        -1.72480
|103>    H        3.30851        -8.90975        -2.01145
|104>    H        3.55527        -9.91227        -0.57903
|105>    H        2.92552        -8.28540        -0.40126
|106>    H        2.41095       -12.74902         0.97430
|107>    H        2.50353       -11.87170        -0.52463
|108>    H        0.21844       -13.75429         0.22335
|109>    H        1.54064       -14.11969        -0.88482
|110>    H        0.36074       -12.86830        -1.29416
|111>    H       -0.90151       -13.15019         4.65667
|112>    H        1.86889       -13.91842         2.39787
|113>    H       -0.84537       -15.10067         3.18543
|114>    H        5.32470       -17.20772         2.15849
|115>    H        1.30012       -20.57516         3.58272
|116>    H       -1.46695       -19.35664         3.06277
|117>    H       -2.39208       -21.52292         3.37252
|118>    H       -2.46889       -23.83841         4.33769
|119>    H       -1.24095       -25.33111         6.03371
|120>    H        0.18467       -26.19472         7.69147
|121>    H        1.95629       -26.55385         9.51046
|122>    H        4.52807       -23.60084         9.67218
|123>    H        2.88931       -23.35068        11.69785
|124>    H        4.12191       -22.10560        11.36291
|125>    H        3.45420       -22.27083        12.99832
|126>    H        5.70359       -26.82905        15.52736
|127>    H        6.60167       -25.35909        15.98473
|128>    H        7.31598       -26.51088        14.82808
|129>    H        5.99815       -27.90814        13.45342
|130> *
|131>
|132>                          ****END OF INPUT****

CARTESIAN COORDINATES (ANGSTROEM)
---------------------------------
  C     -0.475870   -2.267060   -6.605360
  S     -1.455800   -2.541280   -5.225780
  C     -0.467490   -3.894640   -4.729550
  C      0.545610   -4.111050   -5.638760
  C      0.545650   -3.160050   -6.697620
  S      1.700400   -3.091720   -8.036650
  C      3.235740   -2.732550   -7.088780
  C      4.434550   -2.833030   -8.008920
  S      1.677740   -5.462750   -5.539630
  C      1.204150   -6.373720   -7.065320
  C      2.058190   -7.617920   -7.190770
  C     -0.832180   -4.587900   -3.535710
  C     -0.035170   -5.389740   -2.799810
  C     -0.501400   -6.083620   -1.642040
  C      0.277700   -6.887980   -0.895730
  C     -0.203990   -7.564600    0.294180
  C     -1.046620   -6.909960    1.143740
  S     -1.520120   -7.808260    2.529010
  C     -0.576430   -9.152650    1.967990
  C      0.089700   -8.902590    0.758900
  C      0.841310   -9.949250    0.170720
  C      1.477840   -9.706400   -1.173380
  C      2.904950   -9.169340   -1.034870
  C      0.978710  -11.172330    0.815790
  C      1.805690  -12.274370    0.205090
  C      0.924340  -13.320430   -0.480110
  C      0.300690  -11.414790    2.037040
  C      0.180080  -12.611810    2.842100
  C     -0.668480  -12.429450    3.897260
  S     -1.328830  -10.853430    4.029010
  C     -0.487660  -10.389440    2.582090
  C      0.827770  -13.894780    2.680820
  C      0.205260  -15.062450    2.934710
  C      0.879330  -16.315580    2.891680
  O      0.180970  -17.453450    3.151440
  C      2.200430  -16.654970    2.684940
  C      3.520760  -16.129040    2.349270
  O      3.885860  -15.004140    2.098170
  N      4.335780  -17.252510    2.357730
  C      3.687930  -18.459460    2.653330
  O      4.233630  -19.532570    2.701990
  C      2.300760  -18.061100    2.858940
  C      1.028080  -18.525680    3.143780
  C      0.543090  -19.825420    3.413160
  C     -0.785970  -20.132940    3.389190
  C     -1.372850  -21.372210    3.706000
  C     -0.842680  -22.390950    4.458910
  C     -1.514880  -23.602260    4.775660
  C     -0.865120  -24.391330    5.671060
  C      0.362150  -23.850990    6.123550
  S      0.688910  -22.331410    5.310200
  C      1.195110  -24.351900    7.099290
  C      1.014680  -25.533560    7.865930
  C      1.951250  -25.727340    8.825690
  C      2.949820  -24.711830    8.882190
  S      2.631330  -23.508470    7.627180
  C      3.960440  -24.516120    9.766370
  C      4.395710  -25.421520   10.808930
  C      4.838680  -24.978750   12.048310
  O      4.775560  -23.704860   12.510150
  C      3.752620  -22.819910   12.102610
  C      5.422920  -25.879090   13.011680
  O      5.793110  -25.269490   14.161170
  C      6.384980  -26.049600   15.171590
  C      5.562130  -27.216890   12.753640
  C      5.107100  -27.701120   11.517100
  C      4.512950  -26.816640   10.551250
  N      4.183060  -27.454890    9.433430
  S      4.565100  -29.014050    9.587960
  N      5.173410  -28.955710   11.080660
  H     -0.699530   -1.464660   -7.278950
  H      3.295530   -3.457270   -6.278170
  H      3.128130   -1.727400   -6.679520
  H      4.514610   -3.837070   -8.419510
  H      5.342990   -2.608200   -7.454040
  H      4.344300   -2.129540   -8.833830
  H      1.347090   -5.704160   -7.912070
  H      0.147270   -6.622080   -6.963940
  H      3.111610   -7.352160   -7.244320
  H      1.787890   -8.159050   -8.095020
  H      1.910330   -8.271580   -6.333780
  H     -1.847970   -4.410730   -3.203410
  H      0.998680   -5.531080   -3.077490
  H     -1.547890   -5.966950   -1.390920
  H      1.316800   -7.003150   -1.163830
  H     -1.390320   -5.898640    1.045660
  H      1.490710  -10.625090   -1.759370
  H      0.866350   -8.991320   -1.724800
  H      3.308510   -8.909750   -2.011450
  H      3.555270   -9.912270   -0.579030
  H      2.925520   -8.285400   -0.401260
  H      2.410950  -12.749020    0.974300
  H      2.503530  -11.871700   -0.524630
  H      0.218440  -13.754290    0.223350
  H      1.540640  -14.119690   -0.884820
  H      0.360740  -12.868300   -1.294160
  H     -0.901510  -13.150190    4.656670
  H      1.868890  -13.918420    2.397870
  H     -0.845370  -15.100670    3.185430
  H      5.324700  -17.207720    2.158490
  H      1.300120  -20.575160    3.582720
  H     -1.466950  -19.356640    3.062770
  H     -2.392080  -21.522920    3.372520
  H     -2.468890  -23.838410    4.337690
  H     -1.240950  -25.331110    6.033710
  H      0.184670  -26.194720    7.691470
  H      1.956290  -26.553850    9.510460
  H      4.528070  -23.600840    9.672180
  H      2.889310  -23.350680   11.697850
  H      4.121910  -22.105600   11.362910
  H      3.454200  -22.270830   12.998320
  H      5.703590  -26.829050   15.527360
  H      6.601670  -25.359090   15.984730
  H      7.315980  -26.510880   14.828080
  H      5.998150  -27.908140   13.453420

 Total Charge           Charge          ....    0
 Multiplicity           Mult            ....    1
 Number of Electrons    NEL             ....  558
 Basis Dimension        Dim             .... 1237

ORBITAL ENERGIES
----------------

  NO   OCC          E(Eh)            E(eV)
   0   2.0000     -89.004072     -2421.9239
   1   2.0000     -88.948842     -2420.4210
   2   2.0000     -88.945944     -2420.3422
   3   2.0000     -88.942947     -2420.2606
   4   2.0000     -88.942877     -2420.2587
   5   2.0000     -88.939795     -2420.1749
   6   2.0000     -88.911679     -2419.4098
   7   2.0000     -88.909101     -2419.3396
   8   2.0000     -19.294590      -525.0325
   9   2.0000     -19.251371      -523.8564
  10   2.0000     -19.247914      -523.7624
  11   2.0000     -19.199845      -522.4543
  12   2.0000     -19.194256      -522.3023
  13   2.0000     -14.440800      -392.9541
  14   2.0000     -14.422870      -392.4662
  15   2.0000     -14.421315      -392.4239
  16   2.0000     -10.387234      -282.6510
  17   2.0000     -10.383730      -282.5557
  18   2.0000     -10.347970      -281.5826
  19   2.0000     -10.346834      -281.5517
  20   2.0000     -10.345577      -281.5175
  21   2.0000     -10.344274      -281.4820
  22   2.0000     -10.325685      -280.9762
  23   2.0000     -10.322224      -280.8820
  24   2.0000     -10.313057      -280.6326
  25   2.0000     -10.312010      -280.6041
  26   2.0000     -10.311122      -280.5799
  27   2.0000     -10.306797      -280.4622
  28   2.0000     -10.306197      -280.4459
  29   2.0000     -10.305142      -280.4172
  30   2.0000     -10.297021      -280.1962
  31   2.0000     -10.290561      -280.0204
  32   2.0000     -10.289551      -279.9929
  33   2.0000     -10.289543      -279.9927
  34   2.0000     -10.289070      -279.9798
  35   2.0000     -10.288623      -279.9677
  36   2.0000     -10.288016      -279.9512
  37   2.0000     -10.287483      -279.9366
  38   2.0000     -10.286254      -279.9032
  39   2.0000     -10.285681      -279.8876
  40   2.0000     -10.284680      -279.8604
  41   2.0000     -10.283329      -279.8236
  42   2.0000     -10.281717      -279.7797
  43   2.0000     -10.280501      -279.7467
  44   2.0000     -10.280116      -279.7362
  45   2.0000     -10.278194      -279.6839
  46   2.0000     -10.278091      -279.6811
  47   2.0000     -10.277766      -279.6722
  48   2.0000     -10.277430      -279.6631
  49   2.0000     -10.277023      -279.6520
  50   2.0000     -10.273876      -279.5664
  51   2.0000     -10.273748      -279.5629
  52   2.0000     -10.272967      -279.5417
  53   2.0000     -10.272024      -279.5160
  54   2.0000     -10.271987      -279.5150
  55   2.0000     -10.271976      -279.5147
  56   2.0000     -10.271725      -279.5078
  57   2.0000     -10.270436      -279.4728
  58   2.0000     -10.269856      -279.4570
  59   2.0000     -10.268865      -279.4300
  60   2.0000     -10.265466      -279.3375
  61   2.0000     -10.264941      -279.3233
  62   2.0000     -10.264205      -279.3032
  63   2.0000     -10.263360      -279.2802
  64   2.0000     -10.256803      -279.1018
  65   2.0000     -10.255927      -279.0780
  66   2.0000     -10.255110      -279.0557
  67   2.0000     -10.251002      -278.9440
  68   2.0000     -10.249548      -278.9044
  69   2.0000     -10.243029      -278.7270
  70   2.0000      -8.096297      -220.3115
  71   2.0000      -8.045041      -218.9167
  72   2.0000      -8.042286      -218.8417
  73   2.0000      -8.039254      -218.7592
  74   2.0000      -8.038779      -218.7463
  75   2.0000      -8.036438      -218.6826
  76   2.0000      -8.006227      -217.8605
  77   2.0000      -8.003900      -217.7972
  78   2.0000      -6.067659      -165.1094
  79   2.0000      -6.060014      -164.9014
  80   2.0000      -6.058221      -164.8526
  81   2.0000      -6.014205      -163.6548
  82   2.0000      -6.011736      -163.5876
  83   2.0000      -6.010165      -163.5449
  84   2.0000      -6.008722      -163.5057
  85   2.0000      -6.008509      -163.4998
  86   2.0000      -6.007552      -163.4738
  87   2.0000      -6.007222      -163.4648
  88   2.0000      -6.006261      -163.4387
  89   2.0000      -6.004561      -163.3924
  90   2.0000      -6.004433      -163.3889
  91   2.0000      -6.003988      -163.3768
  92   2.0000      -6.002244      -163.3294
  93   2.0000      -6.000913      -163.2931
  94   2.0000      -5.999757      -163.2617
  95   2.0000      -5.997077      -163.1888
  96   2.0000      -5.976752      -162.6357
  97   2.0000      -5.974410      -162.5720
  98   2.0000      -5.972744      -162.5266
  99   2.0000      -5.970556      -162.4671
 100   2.0000      -5.965849      -162.3390
 101   2.0000      -5.963377      -162.2717
 102   2.0000      -1.209395       -32.9093
 103   2.0000      -1.167522       -31.7699
 104   2.0000      -1.142103       -31.0782
 105   2.0000      -1.140655       -31.0388
 106   2.0000      -1.119535       -30.4641
 107   2.0000      -1.107590       -30.1391
 108   2.0000      -1.027789       -27.9676
 109   2.0000      -0.994308       -27.0565
 110   2.0000      -0.992222       -26.9997
 111   2.0000      -0.982823       -26.7440
 112   2.0000      -0.972063       -26.4512
 113   2.0000      -0.964649       -26.2494
 114   2.0000      -0.962449       -26.1896
 115   2.0000      -0.947618       -25.7860
 116   2.0000      -0.920328       -25.0434
 117   2.0000      -0.916160       -24.9300
 118   2.0000      -0.909092       -24.7376
 119   2.0000      -0.905131       -24.6299
 120   2.0000      -0.897779       -24.4298
 121   2.0000      -0.894050       -24.3283
 122   2.0000      -0.886515       -24.1233
 123   2.0000      -0.883663       -24.0457
 124   2.0000      -0.870089       -23.6763
 125   2.0000      -0.864620       -23.5275
 126   2.0000      -0.859174       -23.3793
 127   2.0000      -0.854014       -23.2389
 128   2.0000      -0.847777       -23.0692
 129   2.0000      -0.843040       -22.9403
 130   2.0000      -0.837806       -22.7979
 131   2.0000      -0.832974       -22.6664
 132   2.0000      -0.829006       -22.5584
 133   2.0000      -0.822042       -22.3689
 134   2.0000      -0.816593       -22.2206
 135   2.0000      -0.806458       -21.9448
 136   2.0000      -0.802217       -21.8294
 137   2.0000      -0.797964       -21.7137
 138   2.0000      -0.792120       -21.5547
 139   2.0000      -0.779583       -21.2135
 140   2.0000      -0.776020       -21.1166
 141   2.0000      -0.765108       -20.8197
 142   2.0000      -0.754692       -20.5362
 143   2.0000      -0.753051       -20.4916
 144   2.0000      -0.751410       -20.4469
 145   2.0000      -0.747307       -20.3352
 146   2.0000      -0.732200       -19.9242
 147   2.0000      -0.711937       -19.3728
 148   2.0000      -0.706229       -19.2175
 149   2.0000      -0.700722       -19.0676
 150   2.0000      -0.696464       -18.9517
 151   2.0000      -0.689571       -18.7642
 152   2.0000      -0.686285       -18.6748
 153   2.0000      -0.683136       -18.5891
 154   2.0000      -0.680751       -18.5242
 155   2.0000      -0.678499       -18.4629
 156   2.0000      -0.675124       -18.3711
 157   2.0000      -0.671191       -18.2640
 158   2.0000      -0.663467       -18.0539
 159   2.0000      -0.660702       -17.9786
 160   2.0000      -0.643143       -17.5008
 161   2.0000      -0.637601       -17.3500
 162   2.0000      -0.632832       -17.2202
 163   2.0000      -0.628956       -17.1148
 164   2.0000      -0.621900       -16.9228
 165   2.0000      -0.617834       -16.8121
 166   2.0000      -0.615417       -16.7463
 167   2.0000      -0.612528       -16.6677
 168   2.0000      -0.609759       -16.5924
 169   2.0000      -0.606164       -16.4946
 170   2.0000      -0.598617       -16.2892
 171   2.0000      -0.595573       -16.2064
 172   2.0000      -0.589067       -16.0293
 173   2.0000      -0.588244       -16.0069
 174   2.0000      -0.581440       -15.8218
 175   2.0000      -0.578711       -15.7475
 176   2.0000      -0.571524       -15.5520
 177   2.0000      -0.569341       -15.4926
 178   2.0000      -0.565646       -15.3920
 179   2.0000      -0.559697       -15.2301
 180   2.0000      -0.555408       -15.1134
 181   2.0000      -0.555067       -15.1041
 182   2.0000      -0.550884       -14.9903
 183   2.0000      -0.545492       -14.8436
 184   2.0000      -0.543975       -14.8023
 185   2.0000      -0.539887       -14.6911
 186   2.0000      -0.533651       -14.5214
 187   2.0000      -0.531752       -14.4697
 188   2.0000      -0.530787       -14.4434
 189   2.0000      -0.529201       -14.4003
 190   2.0000      -0.528054       -14.3691
 191   2.0000      -0.527070       -14.3423
 192   2.0000      -0.524726       -14.2785
 193   2.0000      -0.524376       -14.2690
 194   2.0000      -0.521187       -14.1822
 195   2.0000      -0.516796       -14.0627
 196   2.0000      -0.514030       -13.9875
 197   2.0000      -0.509748       -13.8709
 198   2.0000      -0.507677       -13.8146
 199   2.0000      -0.505137       -13.7455
 200   2.0000      -0.504244       -13.7212
 201   2.0000      -0.502029       -13.6609
 202   2.0000      -0.500813       -13.6278
 203   2.0000      -0.495154       -13.4738
 204   2.0000      -0.492874       -13.4118
 205   2.0000      -0.491582       -13.3766
 206   2.0000      -0.489108       -13.3093
 207   2.0000      -0.487416       -13.2633
 208   2.0000      -0.485247       -13.2042
 209   2.0000      -0.483893       -13.1674
 210   2.0000      -0.481481       -13.1018
 211   2.0000      -0.478531       -13.0215
 212   2.0000      -0.475886       -12.9495
 213   2.0000      -0.468774       -12.7560
 214   2.0000      -0.468658       -12.7528
 215   2.0000      -0.466488       -12.6938
 216   2.0000      -0.463748       -12.6192
 217   2.0000      -0.462105       -12.5745
 218   2.0000      -0.460995       -12.5443
 219   2.0000      -0.458421       -12.4743
 220   2.0000      -0.456728       -12.4282
 221   2.0000      -0.454937       -12.3795
 222   2.0000      -0.453490       -12.3401
 223   2.0000      -0.452119       -12.3028
 224   2.0000      -0.451357       -12.2820
 225   2.0000      -0.449968       -12.2442
 226   2.0000      -0.448087       -12.1931
 227   2.0000      -0.442087       -12.0298
 228   2.0000      -0.440810       -11.9950
 229   2.0000      -0.436981       -11.8909
 230   2.0000      -0.434061       -11.8114
 231   2.0000      -0.431784       -11.7494
 232   2.0000      -0.428950       -11.6723
 233   2.0000      -0.427472       -11.6321
 234   2.0000      -0.424492       -11.5510
 235   2.0000      -0.422499       -11.4968
 236   2.0000      -0.422235       -11.4896
 237   2.0000      -0.421457       -11.4684
 238   2.0000      -0.419811       -11.4236
 239   2.0000      -0.416218       -11.3259
 240   2.0000      -0.415811       -11.3148
 241   2.0000      -0.411917       -11.2088
 242   2.0000      -0.411629       -11.2010
 243   2.0000      -0.409542       -11.1442
 244   2.0000      -0.406324       -11.0566
 245   2.0000      -0.405381       -11.0310
 246   2.0000      -0.398771       -10.8511
 247   2.0000      -0.395389       -10.7591
 248   2.0000      -0.393685       -10.7127
 249   2.0000      -0.388325       -10.5669
 250   2.0000      -0.387188       -10.5359
 251   2.0000      -0.384776       -10.4703
 252   2.0000      -0.382637       -10.4121
 253   2.0000      -0.378799       -10.3076
 254   2.0000      -0.377802       -10.2805
 255   2.0000      -0.376997       -10.2586
 256   2.0000      -0.369331       -10.0500
 257   2.0000      -0.366279        -9.9669
 258   2.0000      -0.358244        -9.7483
 259   2.0000      -0.355270        -9.6674
 260   2.0000      -0.353370        -9.6157
 261   2.0000      -0.348751        -9.4900
 262   2.0000      -0.345480        -9.4010
 263   2.0000      -0.333827        -9.0839
 264   2.0000      -0.333524        -9.0756
 265   2.0000      -0.331591        -9.0230
 266   2.0000      -0.322560        -8.7773
 267   2.0000      -0.321133        -8.7385
 268   2.0000      -0.316410        -8.6099
 269   2.0000      -0.310928        -8.4608
 270   2.0000      -0.288604        -7.8533
 271   2.0000      -0.286662        -7.8005
 272   2.0000      -0.284402        -7.7390
 273   2.0000      -0.277972        -7.5640
 274   2.0000      -0.270897        -7.3715
 275   2.0000      -0.268014        -7.2930
 276   2.0000      -0.249691        -6.7944
 277   2.0000      -0.239958        -6.5296
 278   2.0000      -0.210994        -5.7414
 279   0.0000      -0.077318        -2.1039
 280   0.0000      -0.040318        -1.0971
 281   0.0000      -0.033639        -0.9154
 282   0.0000      -0.026574        -0.7231
 283   0.0000      -0.017324        -0.4714

MULLIKEN ATOMIC CHARGES
-----------------------
   0 C :   -0.082377
   1 S :    0.113946
   2 C :   -0.118882
   3 C :   -0.026890
   4 C :   -0.032075
   5 S :   -0.040557
   6 C :   -0.100545
   7 C :    0.013876
   8 S :   -0.045195
   9 C :   -0.097570
  10 C :    0.012827
  11 C :    0.024442
  12 C :    0.026483
  13 C :   -0.003916
  14 C :   -0.023411
  15 C :    0.072856
  16 C :   -0.121547
  17 S :    0.119099
  18 C :   -0.144946
  19 C :    0.115811
  20 C :   -0.124645
  21 C :    0.011165
  22 C :    0.039900
  23 C :   -0.120526
  24 C :    0.034010
  25 C :    0.036746
  26 C :    0.124925
  27 C :    0.058489
  28 C :   -0.113399
  29 S :    0.127101
  30 C :   -0.149504
  31 C :   -0.033816
  32 C :   -0.012589
  33 C :    0.125479
  34 O :   -0.214112
  35 C :   -0.086534
  36 C :    0.178819
  37 O :   -0.169892
  38 N :   -0.162883
  39 C :    0.154753
  40 O :   -0.146705
  41 C :   -0.023803
  42 C :    0.078689
  43 C :   -0.047922
  44 C :    0.023582
  45 C :   -0.014330
  46 C :   -0.021283
  47 C :    0.031293
  48 C :    0.036177
  49 C :   -0.057026
  50 S :    0.085117
  51 C :   -0.043644
  52 C :    0.008171
  53 C :    0.084982
  54 C :   -0.039579
  55 S :    0.085596
  56 C :   -0.066540
  57 C :   -0.002802
  58 C :    0.123912
  59 O :   -0.305584
  60 C :    0.187158
  61 C :    0.242411
  62 O :   -0.287787
  63 C :    0.174794
  64 C :   -0.207773
  65 C :    0.080011
  66 C :   -0.012108
  67 N :   -0.289025
  68 S :    0.467229
  69 N :   -0.273335
  70 H :    0.021004
  71 H :    0.054110
  72 H :    0.044559
  73 H :    0.022844
  74 H :    0.025587
  75 H :    0.023219
  76 H :    0.054833
  77 H :    0.049407
  78 H :    0.023200
  79 H :    0.026958
  80 H :    0.022796
  81 H :   -0.019429
  82 H :    0.001822
  83 H :   -0.013972
  84 H :   -0.000587
  85 H :    0.017764
  86 H :    0.003198
  87 H :    0.012621
  88 H :    0.015343
  89 H :    0.011312
  90 H :    0.015692
  91 H :    0.015202
  92 H :   -0.006242
  93 H :    0.016944
  94 H :    0.014360
  95 H :    0.001734
  96 H :    0.020559
  97 H :    0.044276
  98 H :   -0.016352
  99 H :    0.133338
 100 H :    0.022969
 101 H :    0.001478
 102 H :   -0.013341
 103 H :   -0.013601
 104 H :   -0.013239
 105 H :   -0.014979
 106 H :   -0.007552
 107 H :    0.003647
 108 H :    0.044678
 109 H :    0.026806
 110 H :    0.033734
 111 H :    0.025386
 112 H :    0.041561
 113 H :    0.026526
 114 H :   -0.034967
Sum of atomic charges:   -0.0000000

LOEWDIN ATOMIC CHARGES
----------------------
   0 C :   -0.197808
   1 S :    0.432627
   2 C :   -0.175936
   3 C :   -0.218706
   4 C :   -0.215551
   5 S :    0.264267
   6 C :   -0.124608
   7 C :   -0.070931
   8 S :    0.284459
   9 C :   -0.123938
  10 C :   -0.071302
  11 C :   -0.059253
  12 C :   -0.013679
  13 C :   -0.026499
  14 C :   -0.018205
  15 C :   -0.061385
  16 C :   -0.168439
  17 S :    0.407521
  18 C :   -0.179312
  19 C :   -0.041546
  20 C :   -0.020282
  21 C :   -0.032760
  22 C :   -0.051448
  23 C :   -0.017468
  24 C :   -0.030796
  25 C :   -0.049951
  26 C :   -0.039729
  27 C :   -0.064452
  28 C :   -0.164511
  29 S :    0.414782
  30 C :   -0.177590
  31 C :    0.024252
  32 C :   -0.053868
  33 C :    0.069990
  34 O :    0.009137
  35 C :   -0.110443
  36 C :    0.086317
  37 O :   -0.177166
  38 N :   -0.006544
  39 C :    0.084517
  40 O :   -0.165066
  41 C :   -0.105740
  42 C :    0.071749
  43 C :   -0.064134
  44 C :   -0.009540
  45 C :   -0.077577
  46 C :   -0.130065
  47 C :   -0.038414
  48 C :   -0.027528
  49 C :   -0.188831
  50 S :    0.390686
  51 C :   -0.165634
  52 C :   -0.032687
  53 C :   -0.014613
  54 C :   -0.133310
  55 S :    0.367890
  56 C :   -0.046934
  57 C :   -0.086711
  58 C :    0.058519
  59 O :   -0.092648
  60 C :    0.083708
  61 C :    0.052013
  62 O :   -0.082513
  63 C :    0.078273
  64 C :   -0.090220
  65 C :   -0.053328
  66 C :   -0.051295
  67 N :   -0.288424
  68 S :    0.604216
  69 N :   -0.295560
  70 H :    0.023942
  71 H :    0.008236
  72 H :    0.018318
  73 H :    0.025085
  74 H :    0.031224
  75 H :    0.024309
  76 H :    0.005619
  77 H :    0.021049
  78 H :    0.024968
  79 H :    0.032022
  80 H :    0.024253
  81 H :    0.024753
  82 H :    0.016784
  83 H :    0.025278
  84 H :    0.030100
  85 H :    0.022168
  86 H :    0.026197
  87 H :    0.029983
  88 H :    0.024279
  89 H :    0.024666
  90 H :    0.021832
  91 H :    0.030960
  92 H :    0.025258
  93 H :    0.022816
  94 H :    0.025105
  95 H :    0.021110
  96 H :    0.023008
  97 H :    0.034643
  98 H :    0.033747
  99 H :    0.091881
 100 H :    0.031616
 101 H :    0.032776
 102 H :    0.033251
 103 H :    0.032756
 104 H :    0.031663
 105 H :    0.031725
 106 H :    0.032082
 107 H :    0.031156
 108 H :    0.023835
 109 H :    0.018163
 110 H :    0.025644
 111 H :    0.016788
 112 H :    0.030685
 113 H :    0.017577
 114 H :    0.036647

  Mayer bond orders larger than 0.100000
B(  0-C ,  1-S ) :   1.1517 B(  0-C ,  4-C ) :   1.6001 B(  0-C , 70-H ) :   0.9708
B(  1-S ,  2-C ) :   1.1394 B(  2-C ,  3-C ) :   1.5449 B(  2-C , 11-C ) :   1.0919
B(  3-C ,  4-C ) :   1.2331 B(  3-C ,  8-S ) :   1.0443 B(  4-C ,  5-S ) :   1.0020
B(  5-S ,  6-C ) :   0.9796 B(  6-C ,  7-C ) :   1.0904 B(  6-C , 71-H ) :   0.9412
B(  6-C , 72-H ) :   0.9523 B(  7-C , 73-H ) :   0.9714 B(  7-C , 74-H ) :   0.9677
B(  7-C , 75-H ) :   0.9708 B(  8-S ,  9-C ) :   0.9823 B(  9-C , 10-C ) :   1.0891
B(  9-C , 76-H ) :   0.9375 B(  9-C , 77-H ) :   0.9521 B( 10-C , 78-H ) :   0.9705
B( 10-C , 79-H ) :   0.9680 B( 10-C , 80-H ) :   0.9714 B( 11-C , 12-C ) :   1.7026
B( 11-C , 81-H ) :   0.9572 B( 12-C , 13-C ) :   1.1131 B( 12-C , 82-H ) :   0.9740
B( 13-C , 14-C ) :   1.7351 B( 13-C , 83-H ) :   0.9883 B( 14-C , 15-C ) :   0.9973
B( 14-C , 84-H ) :   0.9569 B( 15-C , 16-C ) :   1.6179 B( 15-C , 19-C ) :   1.1490
B( 16-C , 17-S ) :   1.1112 B( 16-C , 85-H ) :   0.9628 B( 17-S , 18-C ) :   1.0769
B( 18-C , 19-C ) :   1.3733 B( 18-C , 30-C ) :   1.3789 B( 19-C , 20-C ) :   1.2612
B( 20-C , 21-C ) :   1.0579 B( 20-C , 23-C ) :   1.5179 B( 21-C , 22-C ) :   1.1112
B( 21-C , 86-H ) :   0.9134 B( 21-C , 87-H ) :   0.9204 B( 22-C , 88-H ) :   0.9666
B( 22-C , 89-H ) :   0.9586 B( 22-C , 90-H ) :   0.9572 B( 23-C , 24-C ) :   1.0632
B( 23-C , 26-C ) :   1.2569 B( 24-C , 25-C ) :   1.1084 B( 24-C , 91-H ) :   0.9267
B( 24-C , 92-H ) :   0.9072 B( 25-C , 93-H ) :   0.9642 B( 25-C , 94-H ) :   0.9658
B( 25-C , 95-H ) :   0.9573 B( 26-C , 27-C ) :   1.1438 B( 26-C , 30-C ) :   1.3726
B( 27-C , 28-C ) :   1.6074 B( 27-C , 31-C ) :   1.0192 B( 28-C , 29-S ) :   1.1205
B( 28-C , 96-H ) :   0.9629 B( 29-S , 30-C ) :   1.0767 B( 31-C , 32-C ) :   1.7092
B( 31-C , 97-H ) :   0.9431 B( 32-C , 33-C ) :   1.1369 B( 32-C , 98-H ) :   0.9688
B( 33-C , 34-O ) :   1.1373 B( 33-C , 35-C ) :   1.4388 B( 34-O , 42-C ) :   1.1388
B( 35-C , 36-C ) :   0.8936 B( 35-C , 41-C ) :   1.2574 B( 36-C , 37-O ) :   2.1608
B( 36-C , 38-N ) :   1.1102 B( 38-N , 39-C ) :   1.0583 B( 38-N , 99-H ) :   0.9161
B( 39-C , 40-O ) :   2.2656 B( 39-C , 41-C ) :   0.8927 B( 41-C , 42-C ) :   1.3794
B( 42-C , 43-C ) :   1.2242 B( 43-C , 44-C ) :   1.5916 B( 43-C ,100-H ) :   0.9374
B( 44-C , 45-C ) :   1.1834 B( 44-C ,101-H ) :   0.9678 B( 45-C , 46-C ) :   1.5734
B( 45-C ,102-H ) :   0.9609 B( 46-C , 47-C ) :   1.1426 B( 46-C , 50-S ) :   1.0525
B( 47-C , 48-C ) :   1.5990 B( 47-C ,103-H ) :   0.9982 B( 48-C , 49-C ) :   1.1792
B( 48-C ,104-H ) :   0.9924 B( 49-C , 50-S ) :   1.0316 B( 49-C , 51-C ) :   1.5310
B( 51-C , 52-C ) :   1.1598 B( 51-C , 55-S ) :   1.0577 B( 52-C , 53-C ) :   1.6433
B( 52-C ,105-H ) :   0.9931 B( 53-C , 54-C ) :   1.1285 B( 53-C ,106-H ) :   0.9781
B( 54-C , 55-S ) :   1.0201 B( 54-C , 56-C ) :   1.6753 B( 56-C , 57-C ) :   1.0612
B( 56-C ,107-H ) :   0.9456 B( 57-C , 58-C ) :   1.4492 B( 57-C , 64-C ) :   0.1076
B( 57-C , 66-C ) :   1.1651 B( 58-C , 59-O ) :   1.2216 B( 58-C , 61-C ) :   1.1546
B( 59-O , 60-C ) :   0.9340 B( 60-C ,108-H ) :   0.9607 B( 60-C ,109-H ) :   0.9787
B( 60-C ,110-H ) :   0.9747 B( 61-C , 62-O ) :   1.2026 B( 61-C , 64-C ) :   1.4110
B( 62-O , 63-C ) :   0.9641 B( 63-C ,111-H ) :   0.9684 B( 63-C ,112-H ) :   0.9785
B( 63-C ,113-H ) :   0.9689 B( 64-C , 65-C ) :   1.1247 B( 64-C ,114-H ) :   1.0483
B( 65-C , 66-C ) :   1.1584 B( 65-C , 69-N ) :   1.5535 B( 66-C , 67-N ) :   1.5567
B( 67-N , 68-S ) :   1.2295 B( 67-N , 69-N ) :   0.1423 B( 68-S , 69-N ) :   1.2399

-----------------------------------------------------------------------------
         ABSORPTION SPECTRUM VIA TRANSITION ELECTRIC DIPOLE MOMENTS
-----------------------------------------------------------------------------
State   Energy  Wavelength   fosc         T2         TX        TY        TZ
        (cm-1)    (nm)                  (au**2)     (au)      (au)      (au)
-----------------------------------------------------------------------------
   0   15116.7    661.5   1.392292239  30.32131  -1.41724   3.90574  -3.61358
   1   22345.7    447.5   0.037904984   0.55844  -0.51961  -0.45950  -0.27804
   2   24130.1    414.4   0.188978412   2.57827   0.91871   1.24546   0.42788
   3   24793.6    403.3   0.224135799   2.97610   0.97273  -1.42349  -0.05957
   4   26994.9    370.4   0.514083266   6.26941   1.95028   1.32753   0.83874
   5   28520.6    350.6   0.006444479   0.07439   0.01939  -0.24311   0.12210
   6   28948.1    345.4   0.052365527   0.59553  -0.67468   0.24957  -0.27937
   7   30052.1    332.8   1.215141675  13.31150  -0.22244   2.27272  -2.84548
   8   30683.0    325.9   0.293772186   3.15202   1.12305  -0.56952  -1.25157
   9   31097.5    321.6   0.029052135   0.30756   0.15624  -0.48532  -0.21821
  10   32184.6    310.7   0.003981004   0.04072  -0.09505  -0.16686   0.06200
  11   32473.2    307.9   0.147077621   1.49107   0.67324   0.97351   0.30014
  12   32826.6    304.6   0.012254170   0.12289  -0.30808  -0.06232  -0.15523
  13   33255.1    300.7   0.004354778   0.04311   0.07005   0.15252   0.12224
  14   33382.5    299.6   0.086744824   0.85546  -0.58044  -0.71298   0.10107
  15   34181.0    292.6   0.025685464   0.24739   0.05508  -0.22453   0.44039
  16   34598.4    289.0   0.075985683   0.72302   0.52646  -0.65273   0.14071
  17   34692.2    288.2   0.006400748   0.06074   0.20640   0.04960  -0.12522
  18   35372.6    282.7   0.058698931   0.54631  -0.54006  -0.45924  -0.20916
  19   35530.5    281.4   0.064565597   0.59824  -0.56592   0.41527   0.32485
  20   36047.7    277.4   0.024187179   0.22089   0.37756  -0.25013  -0.12560
  21   36070.4    277.2   0.115950233   1.05827   0.52292  -0.21160   0.86026
  22   36351.4    275.1   0.011628930   0.10532  -0.29452   0.12729   0.04870
  23   36864.6    271.3   0.080901681   0.72248   0.32164   0.73967  -0.26815
  24   36924.1    270.8   0.022780817   0.20311  -0.08445   0.38101  -0.22541
  25   37259.0    268.4   0.164276325   1.45151   0.65409  -0.95177  -0.34323
  26   37379.3    267.5   0.029639662   0.26105   0.14048   0.18611  -0.45462
  27   37904.1    263.8   0.357812081   3.10774  -0.09798  -1.47470  -0.96094
  28   38441.7    260.1   0.010894121   0.09330  -0.04603   0.17759  -0.24421
  29   38662.8    258.6   0.153260990   1.30501  -0.89398   0.01797  -0.71098
  30   38719.6    258.3   0.016523224   0.14049  -0.27116   0.08446  -0.24459
  31   38906.0    257.0   0.306029583   2.58954  -0.25913   1.37693  -0.79149
  32   39138.1    255.5   0.056000949   0.47105   0.06696  -0.46294   0.50225
  33   39514.5    253.1   0.057505171   0.47910   0.43396  -0.26571   0.46923
  34   39790.8    251.3   0.033371488   0.27610  -0.18022   0.20261  -0.45008
  35   39831.6    251.1   0.019557296   0.16164   0.03169   0.30124  -0.26437
  36   40227.8    248.6   0.175102763   1.43299  -0.12135  -0.85729   0.82663

FINAL SINGLE POINT ENERGY     -5806.377932246850

DIPOLE MOMENT
-------------
                                X             Y             Z
Electronic contribution:    -14.45434     -73.95008      65.08878
Nuclear contribution   :     13.46592      72.82219     -63.47732
                        -----------------------------------------
Total Dipole Moment    :     -0.98842      -1.12789       1.61146
                        -----------------------------------------
Magnitude (a.u.)       :      2.20134
Magnitude (Debye)      :      5.59537

Rotational constants in cm-1:     0.002038     0.000141     0.000140
Rotational constants in MHz :    61.107430     4.224799     4.187847

                             ****ORCA TERMINATED NORMALLY****
TOTAL RUN TIME: 0 days 0 hours 17 minutes 7 seconds 75 msec
