                         Program Version 4.2.0 -  RELEASE  -
|  1> # ORCA input file
|  2> # SCF done       -165.209659817745          0.000859219887
|  3> ! CAM-B3LYP def2-SVP def2/J RIJCOSX Grid4 TightSCF
|  4> %maxcore 5000
|  5> %tddft
|  6>     Mode sTDDFT
|  7>     Ethresh 5.0
|  8>     maxcore 5000
|  9> end
| 10>
| 11> %pal
| 12>   nprocs 6
| 13>   end
| 14> * xyz 0 1
| 15>    C        1.48535        12.52451         0.59292
| 16>    S        2.73526        11.53398        -0.08235
| 17>    C        1.62134        10.29329        -0.61963
| 18>    C        0.35476        10.67836        -0.26708
| 19>    C        0.28496        11.92120         0.40689
| 20>    O       -1.02624        12.16090         0.68614
| 21>    C       -1.72268        11.10568         0.20023
| 22>    S       -3.32236        10.95208         0.30080
| 23>    O       -0.90909        10.19257        -0.38235
| 24>    C        2.05438         9.12948        -1.29826
| 25>    S        0.86632         7.90624        -1.81299
| 26>    C        2.18521         7.02095        -2.45724
| 27>    C        3.39124         7.69970        -2.23885
| 28>    N        3.29250         8.85902        -1.59783
| 29>    C        4.54520         6.93463        -2.80129
| 30>    C        3.84564         5.73502        -3.36955
| 31>    C        2.46332         5.82086        -3.14738
| 32>    S        1.61179         4.47809        -3.77447
| 33>    C        3.11503         3.78068        -4.35165
| 34>    C        4.20967         4.58351        -4.04783
| 35>    C        3.05777         2.54004        -5.03154
| 36>    C        4.14814         1.90554        -5.53283
| 37>    C        4.19734         0.63911        -6.18495
| 38>    C        3.13464        -0.11331        -6.74167
| 39>    C        1.71278         0.24122        -6.97371
| 40>    O        1.10334         1.24417        -6.75327
| 41>    O        1.11134        -0.83330        -7.57238
| 42>    C        2.00833        -1.85242        -7.77310
| 43>    O        1.67728        -2.88005        -8.28186
| 44>    C        3.32151        -1.38989        -7.26591
| 45>    C        4.55888        -2.08322        -7.32600
| 46>    C        5.63990        -1.28644        -6.86463
| 47>    C        5.44542        -0.01119        -6.33025
| 48>    C        6.77131         0.51343        -5.93781
| 49>    O        7.08508         1.55157        -5.43314
| 50>    O        7.69818        -0.43752        -6.26061
| 51>    C        7.09968        -1.53800        -6.82209
| 52>    O        7.76107        -2.46563        -7.18229
| 53>    C        4.55952        -3.42335        -7.80121
| 54>    C        5.60963        -4.26836        -7.99192
| 55>    C        5.40375        -5.58619        -8.44770
| 56>    S        6.81066        -6.65431        -8.75052
| 57>    C        5.70443        -7.86923        -9.21186
| 58>    C        4.38060        -7.39392        -9.10318
| 59>    N        4.24755        -6.15125        -8.68725
| 60>    C        3.40175        -8.45149        -9.50081
| 61>    C        4.32480        -9.57993        -9.85303
| 62>    C        5.66003        -9.20035        -9.67096
| 63>    S        6.75430       -10.46123       -10.06704
| 64>    C        5.41604       -11.51380       -10.48206
| 65>    C        4.19160       -10.88366       -10.30877
| 66>    C        5.70513       -12.82949       -10.93103
| 67>    C        4.78463       -13.75693       -11.28100
| 68>    C        5.11875       -15.06588       -11.73210
| 69>    O        6.41729       -15.45984       -11.84321
| 70>    C        6.42570       -16.72473       -12.28941
| 71>    C        5.15238       -17.18580       -12.47922
| 72>    C        4.29618       -16.11230       -12.11863
| 73>    O        2.94481       -16.17465       -12.16849
| 74>    S        4.64413       -18.76297       -13.04651
| 75>    H        1.71965        13.45533         1.06384
| 76>    H        5.26822         6.66636        -2.02913
| 77>    H        5.07525         7.50644        -3.56487
| 78>    H        5.21800         4.32352        -4.31251
| 79>    H        2.07378         2.10974        -5.12876
| 80>    H        5.11412         2.36164        -5.37988
| 81>    H        3.58472        -3.82394        -8.04050
| 82>    H        6.63139        -3.97639        -7.81386
| 83>    H        2.78787        -8.13504       -10.34587
| 84>    H        2.72837        -8.70509        -8.68004
| 85>    H        3.25052       -11.36136       -10.51010
| 86>    H        6.75043       -13.09686       -10.99389
| 87>    H        3.72913       -13.52784       -11.22910
| 88>    H        7.37426       -17.19886       -12.43699
| 89>    H        2.56665       -15.33693       -11.88042
| 90>    H        3.34983       -18.46423       -12.97015
| 91> *
| 92>
| 93>                          ****END OF INPUT****

CARTESIAN COORDINATES (ANGSTROEM)
---------------------------------
  C      1.485350   12.524510    0.592920
  S      2.735260   11.533980   -0.082350
  C      1.621340   10.293290   -0.619630
  C      0.354760   10.678360   -0.267080
  C      0.284960   11.921200    0.406890
  O     -1.026240   12.160900    0.686140
  C     -1.722680   11.105680    0.200230
  S     -3.322360   10.952080    0.300800
  O     -0.909090   10.192570   -0.382350
  C      2.054380    9.129480   -1.298260
  S      0.866320    7.906240   -1.812990
  C      2.185210    7.020950   -2.457240
  C      3.391240    7.699700   -2.238850
  N      3.292500    8.859020   -1.597830
  C      4.545200    6.934630   -2.801290
  C      3.845640    5.735020   -3.369550
  C      2.463320    5.820860   -3.147380
  S      1.611790    4.478090   -3.774470
  C      3.115030    3.780680   -4.351650
  C      4.209670    4.583510   -4.047830
  C      3.057770    2.540040   -5.031540
  C      4.148140    1.905540   -5.532830
  C      4.197340    0.639110   -6.184950
  C      3.134640   -0.113310   -6.741670
  C      1.712780    0.241220   -6.973710
  O      1.103340    1.244170   -6.753270
  O      1.111340   -0.833300   -7.572380
  C      2.008330   -1.852420   -7.773100
  O      1.677280   -2.880050   -8.281860
  C      3.321510   -1.389890   -7.265910
  C      4.558880   -2.083220   -7.326000
  C      5.639900   -1.286440   -6.864630
  C      5.445420   -0.011190   -6.330250
  C      6.771310    0.513430   -5.937810
  O      7.085080    1.551570   -5.433140
  O      7.698180   -0.437520   -6.260610
  C      7.099680   -1.538000   -6.822090
  O      7.761070   -2.465630   -7.182290
  C      4.559520   -3.423350   -7.801210
  C      5.609630   -4.268360   -7.991920
  C      5.403750   -5.586190   -8.447700
  S      6.810660   -6.654310   -8.750520
  C      5.704430   -7.869230   -9.211860
  C      4.380600   -7.393920   -9.103180
  N      4.247550   -6.151250   -8.687250
  C      3.401750   -8.451490   -9.500810
  C      4.324800   -9.579930   -9.853030
  C      5.660030   -9.200350   -9.670960
  S      6.754300  -10.461230  -10.067040
  C      5.416040  -11.513800  -10.482060
  C      4.191600  -10.883660  -10.308770
  C      5.705130  -12.829490  -10.931030
  C      4.784630  -13.756930  -11.281000
  C      5.118750  -15.065880  -11.732100
  O      6.417290  -15.459840  -11.843210
  C      6.425700  -16.724730  -12.289410
  C      5.152380  -17.185800  -12.479220
  C      4.296180  -16.112300  -12.118630
  O      2.944810  -16.174650  -12.168490
  S      4.644130  -18.762970  -13.046510
  H      1.719650   13.455330    1.063840
  H      5.268220    6.666360   -2.029130
  H      5.075250    7.506440   -3.564870
  H      5.218000    4.323520   -4.312510
  H      2.073780    2.109740   -5.128760
  H      5.114120    2.361640   -5.379880
  H      3.584720   -3.823940   -8.040500
  H      6.631390   -3.976390   -7.813860
  H      2.787870   -8.135040  -10.345870
  H      2.728370   -8.705090   -8.680040
  H      3.250520  -11.361360  -10.510100
  H      6.750430  -13.096860  -10.993890
  H      3.729130  -13.527840  -11.229100
  H      7.374260  -17.198860  -12.436990
  H      2.566650  -15.336930  -11.880420
  H      3.349830  -18.464230  -12.970150

 Total Charge           Charge          ....    0
 Multiplicity           Mult            ....    1
 Number of Electrons    NEL             ....  468
 Basis Dimension        Dim             ....  948

ORBITAL ENERGIES
----------------

  NO   OCC          E(Eh)            E(eV)
   0   2.0000     -88.980898     -2421.2933
   1   2.0000     -88.979096     -2421.2443
   2   2.0000     -88.970679     -2421.0153
   3   2.0000     -88.969775     -2420.9907
   4   2.0000     -88.963584     -2420.8222
   5   2.0000     -88.929077     -2419.8832
   6   2.0000     -88.891710     -2418.8664
   7   2.0000     -19.323411      -525.8167
   8   2.0000     -19.318452      -525.6818
   9   2.0000     -19.293489      -525.0025
  10   2.0000     -19.290449      -524.9198
  11   2.0000     -19.287055      -524.8275
  12   2.0000     -19.266375      -524.2647
  13   2.0000     -19.242948      -523.6272
  14   2.0000     -19.240327      -523.5559
  15   2.0000     -19.238962      -523.5188
  16   2.0000     -19.237020      -523.4659
  17   2.0000     -14.424491      -392.5104
  18   2.0000     -14.414206      -392.2305
  19   2.0000     -10.444724      -284.2154
  20   2.0000     -10.437167      -284.0098
  21   2.0000     -10.433941      -283.9220
  22   2.0000     -10.433490      -283.9097
  23   2.0000     -10.430279      -283.8223
  24   2.0000     -10.362161      -281.9687
  25   2.0000     -10.360812      -281.9320
  26   2.0000     -10.355223      -281.7799
  27   2.0000     -10.338778      -281.3325
  28   2.0000     -10.333968      -281.2016
  29   2.0000     -10.333435      -281.1871
  30   2.0000     -10.332960      -281.1741
  31   2.0000     -10.331192      -281.1260
  32   2.0000     -10.328799      -281.0609
  33   2.0000     -10.327070      -281.0138
  34   2.0000     -10.325221      -280.9635
  35   2.0000     -10.325135      -280.9612
  36   2.0000     -10.324787      -280.9517
  37   2.0000     -10.324467      -280.9430
  38   2.0000     -10.322491      -280.8893
  39   2.0000     -10.316275      -280.7201
  40   2.0000     -10.315568      -280.7009
  41   2.0000     -10.314778      -280.6794
  42   2.0000     -10.311138      -280.5803
  43   2.0000     -10.308425      -280.5065
  44   2.0000     -10.307385      -280.4782
  45   2.0000     -10.307218      -280.4737
  46   2.0000     -10.304991      -280.4131
  47   2.0000     -10.296881      -280.1924
  48   2.0000     -10.296323      -280.1772
  49   2.0000     -10.295269      -280.1485
  50   2.0000     -10.291532      -280.0468
  51   2.0000     -10.289235      -279.9843
  52   2.0000     -10.289205      -279.9835
  53   2.0000     -10.288748      -279.9711
  54   2.0000     -10.287793      -279.9451
  55   2.0000     -10.284720      -279.8615
  56   2.0000     -10.282812      -279.8095
  57   2.0000     -10.280196      -279.7384
  58   2.0000     -10.278848      -279.7017
  59   2.0000     -10.278071      -279.6805
  60   2.0000      -8.075603      -219.7483
  61   2.0000      -8.074107      -219.7076
  62   2.0000      -8.065757      -219.4804
  63   2.0000      -8.064901      -219.4571
  64   2.0000      -8.058829      -219.2919
  65   2.0000      -8.024437      -218.3560
  66   2.0000      -7.989854      -217.4150
  67   2.0000      -6.045353      -164.5024
  68   2.0000      -6.043381      -164.4488
  69   2.0000      -6.040982      -164.3835
  70   2.0000      -6.039375      -164.3398
  71   2.0000      -6.036989      -164.2748
  72   2.0000      -6.036107      -164.2508
  73   2.0000      -6.035007      -164.2209
  74   2.0000      -6.033945      -164.1920
  75   2.0000      -6.030933      -164.1100
  76   2.0000      -6.030082      -164.0869
  77   2.0000      -6.028146      -164.0342
  78   2.0000      -6.027968      -164.0294
  79   2.0000      -6.027265      -164.0102
  80   2.0000      -6.024107      -163.9243
  81   2.0000      -6.020861      -163.8360
  82   2.0000      -5.994867      -163.1286
  83   2.0000      -5.990845      -163.0192
  84   2.0000      -5.984255      -162.8398
  85   2.0000      -5.959705      -162.1718
  86   2.0000      -5.956204      -162.0765
  87   2.0000      -5.949771      -161.9015
  88   2.0000      -1.289269       -35.0828
  89   2.0000      -1.246220       -33.9114
  90   2.0000      -1.242719       -33.8161
  91   2.0000      -1.206607       -32.8335
  92   2.0000      -1.181386       -32.1471
  93   2.0000      -1.169476       -31.8231
  94   2.0000      -1.166508       -31.7423
  95   2.0000      -1.156462       -31.4689
  96   2.0000      -1.130374       -30.7590
  97   2.0000      -1.127460       -30.6798
  98   2.0000      -1.081243       -29.4221
  99   2.0000      -1.069299       -29.0971
 100   2.0000      -1.012107       -27.5408
 101   2.0000      -1.008209       -27.4348
 102   2.0000      -1.002950       -27.2916
 103   2.0000      -0.998014       -27.1573
 104   2.0000      -0.941898       -25.6304
 105   2.0000      -0.935315       -25.4512
 106   2.0000      -0.926419       -25.2092
 107   2.0000      -0.923402       -25.1270
 108   2.0000      -0.916854       -24.9489
 109   2.0000      -0.909452       -24.7474
 110   2.0000      -0.904099       -24.6018
 111   2.0000      -0.901481       -24.5305
 112   2.0000      -0.899475       -24.4760
 113   2.0000      -0.887334       -24.1456
 114   2.0000      -0.873424       -23.7671
 115   2.0000      -0.862836       -23.4790
 116   2.0000      -0.845884       -23.0177
 117   2.0000      -0.840605       -22.8740
 118   2.0000      -0.832374       -22.6501
 119   2.0000      -0.819698       -22.3051
 120   2.0000      -0.817005       -22.2318
 121   2.0000      -0.810406       -22.0523
 122   2.0000      -0.799781       -21.7632
 123   2.0000      -0.789151       -21.4739
 124   2.0000      -0.786230       -21.3944
 125   2.0000      -0.782497       -21.2928
 126   2.0000      -0.778344       -21.1798
 127   2.0000      -0.767047       -20.8724
 128   2.0000      -0.751721       -20.4554
 129   2.0000      -0.742397       -20.2017
 130   2.0000      -0.737745       -20.0751
 131   2.0000      -0.736745       -20.0479
 132   2.0000      -0.719744       -19.5852
 133   2.0000      -0.708831       -19.2883
 134   2.0000      -0.702802       -19.1242
 135   2.0000      -0.697835       -18.9890
 136   2.0000      -0.676325       -18.4037
 137   2.0000      -0.675627       -18.3847
 138   2.0000      -0.660464       -17.9721
 139   2.0000      -0.658657       -17.9230
 140   2.0000      -0.653656       -17.7869
 141   2.0000      -0.647698       -17.6248
 142   2.0000      -0.642680       -17.4882
 143   2.0000      -0.640832       -17.4379
 144   2.0000      -0.630544       -17.1580
 145   2.0000      -0.626922       -17.0594
 146   2.0000      -0.620575       -16.8867
 147   2.0000      -0.619377       -16.8541
 148   2.0000      -0.617157       -16.7937
 149   2.0000      -0.611942       -16.6518
 150   2.0000      -0.606014       -16.4905
 151   2.0000      -0.598755       -16.2930
 152   2.0000      -0.597085       -16.2475
 153   2.0000      -0.590491       -16.0681
 154   2.0000      -0.587200       -15.9785
 155   2.0000      -0.581511       -15.8237
 156   2.0000      -0.576101       -15.6765
 157   2.0000      -0.571190       -15.5429
 158   2.0000      -0.568225       -15.4622
 159   2.0000      -0.560158       -15.2427
 160   2.0000      -0.558738       -15.2040
 161   2.0000      -0.558585       -15.1999
 162   2.0000      -0.553701       -15.0670
 163   2.0000      -0.552937       -15.0462
 164   2.0000      -0.547857       -14.9080
 165   2.0000      -0.545816       -14.8524
 166   2.0000      -0.544906       -14.8276
 167   2.0000      -0.538350       -14.6493
 168   2.0000      -0.531980       -14.4759
 169   2.0000      -0.529987       -14.4217
 170   2.0000      -0.527533       -14.3549
 171   2.0000      -0.521185       -14.1822
 172   2.0000      -0.515930       -14.0392
 173   2.0000      -0.514295       -13.9947
 174   2.0000      -0.511727       -13.9248
 175   2.0000      -0.508415       -13.8347
 176   2.0000      -0.507115       -13.7993
 177   2.0000      -0.505447       -13.7539
 178   2.0000      -0.504450       -13.7268
 179   2.0000      -0.502097       -13.6628
 180   2.0000      -0.496546       -13.5117
 181   2.0000      -0.493038       -13.4162
 182   2.0000      -0.491255       -13.3677
 183   2.0000      -0.489222       -13.3124
 184   2.0000      -0.486474       -13.2376
 185   2.0000      -0.483710       -13.1624
 186   2.0000      -0.482245       -13.1225
 187   2.0000      -0.481620       -13.1055
 188   2.0000      -0.481256       -13.0956
 189   2.0000      -0.478098       -13.0097
 190   2.0000      -0.476250       -12.9594
 191   2.0000      -0.473872       -12.8947
 192   2.0000      -0.473097       -12.8736
 193   2.0000      -0.472620       -12.8606
 194   2.0000      -0.466163       -12.6849
 195   2.0000      -0.459421       -12.5015
 196   2.0000      -0.455867       -12.4048
 197   2.0000      -0.448969       -12.2171
 198   2.0000      -0.448814       -12.2128
 199   2.0000      -0.444568       -12.0973
 200   2.0000      -0.441970       -12.0266
 201   2.0000      -0.436045       -11.8654
 202   2.0000      -0.429705       -11.6929
 203   2.0000      -0.427687       -11.6380
 204   2.0000      -0.427139       -11.6230
 205   2.0000      -0.421953       -11.4819
 206   2.0000      -0.417643       -11.3647
 207   2.0000      -0.414693       -11.2844
 208   2.0000      -0.413452       -11.2506
 209   2.0000      -0.412582       -11.2269
 210   2.0000      -0.402553       -10.9540
 211   2.0000      -0.397720       -10.8225
 212   2.0000      -0.389617       -10.6020
 213   2.0000      -0.389273       -10.5926
 214   2.0000      -0.376268       -10.2388
 215   2.0000      -0.373400       -10.1607
 216   2.0000      -0.371071       -10.0974
 217   2.0000      -0.367185        -9.9916
 218   2.0000      -0.366327        -9.9683
 219   2.0000      -0.364096        -9.9075
 220   2.0000      -0.361876        -9.8472
 221   2.0000      -0.358970        -9.7681
 222   2.0000      -0.351136        -9.5549
 223   2.0000      -0.347061        -9.4440
 224   2.0000      -0.331603        -9.0234
 225   2.0000      -0.327951        -8.9240
 226   2.0000      -0.323389        -8.7999
 227   2.0000      -0.304172        -8.2769
 228   2.0000      -0.303537        -8.2597
 229   2.0000      -0.298961        -8.1352
 230   2.0000      -0.285735        -7.7753
 231   2.0000      -0.273118        -7.4319
 232   2.0000      -0.246195        -6.6993
 233   2.0000      -0.224850        -6.1185
 234   0.0000      -0.094504        -2.5716
 235   0.0000      -0.089190        -2.4270
 236   0.0000      -0.062089        -1.6895
 237   0.0000      -0.039986        -1.0881
 238   0.0000      -0.027337        -0.7439

MULLIKEN ATOMIC CHARGES
-----------------------
   0 C :   -0.192721
   1 S :    0.195553
   2 C :   -0.161143
   3 C :    0.154218
   4 C :    0.238986
   5 O :   -0.168769
   6 C :    0.236934
   7 S :   -0.148673
   8 O :   -0.177422
   9 C :   -0.101750
  10 S :    0.164205
  11 C :   -0.056587
  12 C :   -0.226667
  13 N :   -0.015309
  14 C :    0.394037
  15 C :   -0.164601
  16 C :   -0.098805
  17 S :    0.176989
  18 C :   -0.109904
  19 C :   -0.008173
  20 C :    0.093586
  21 C :   -0.081672
  22 C :    0.070768
  23 C :   -0.102177
  24 C :    0.234838
  25 O :   -0.111490
  26 O :   -0.221005
  27 C :    0.229039
  28 O :   -0.098601
  29 C :   -0.068889
  30 C :    0.079419
  31 C :   -0.098240
  32 C :   -0.076975
  33 C :    0.234180
  34 O :   -0.116856
  35 O :   -0.221152
  36 C :    0.249368
  37 O :   -0.110261
  38 C :   -0.070727
  39 C :    0.067111
  40 C :   -0.126312
  41 S :    0.148207
  42 C :   -0.058411
  43 C :   -0.234935
  44 N :    0.014163
  45 C :    0.390916
  46 C :   -0.155277
  47 C :   -0.106708
  48 S :    0.155662
  49 C :   -0.069050
  50 C :   -0.023756
  51 C :    0.037335
  52 C :   -0.045852
  53 C :    0.106067
  54 O :   -0.204438
  55 C :    0.061423
  56 C :   -0.053268
  57 C :    0.073102
  58 O :   -0.190862
  59 S :    0.028434
  60 H :    0.044697
  61 H :    0.041033
  62 H :    0.040766
  63 H :   -0.002644
  64 H :    0.001765
  65 H :    0.008863
  66 H :    0.025356
  67 H :    0.006087
  68 H :    0.038200
  69 H :    0.037561
  70 H :   -0.032413
  71 H :   -0.004856
  72 H :   -0.032703
  73 H :    0.007763
  74 H :    0.187925
  75 H :    0.075495
Sum of atomic charges:   -0.0000000

LOEWDIN ATOMIC CHARGES
----------------------
   0 C :   -0.198106
   1 S :    0.483735
   2 C :   -0.221059
   3 C :   -0.013764
   4 C :   -0.011633
   5 O :   -0.014725
   6 C :   -0.062298
   7 S :    0.013791
   8 O :   -0.016628
   9 C :   -0.142056
  10 S :    0.434410
  11 C :   -0.214196
  12 C :   -0.033855
  13 N :   -0.089600
  14 C :   -0.010877
  15 C :   -0.047469
  16 C :   -0.192507
  17 S :    0.459984
  18 C :   -0.175265
  19 C :   -0.031518
  20 C :    0.008540
  21 C :   -0.057917
  22 C :    0.022264
  23 C :   -0.051860
  24 C :    0.109057
  25 O :   -0.103639
  26 O :   -0.050704
  27 C :    0.107420
  28 O :   -0.094028
  29 C :   -0.042852
  30 C :    0.018440
  31 C :   -0.050572
  32 C :   -0.048921
  33 C :    0.107559
  34 O :   -0.110099
  35 O :   -0.048778
  36 C :    0.115974
  37 O :   -0.100750
  38 C :   -0.035505
  39 C :   -0.013612
  40 C :   -0.137624
  41 S :    0.427268
  42 C :   -0.205788
  43 C :   -0.038641
  44 N :   -0.066772
  45 C :   -0.012016
  46 C :   -0.039380
  47 C :   -0.210299
  48 S :    0.441603
  49 C :   -0.157952
  50 C :   -0.062864
  51 C :   -0.049723
  52 C :   -0.039865
  53 C :   -0.030430
  54 O :    0.009610
  55 C :    0.021420
  56 C :   -0.228151
  57 C :   -0.004206
  58 O :   -0.050142
  59 S :    0.219681
  60 H :    0.036624
  61 H :    0.058414
  62 H :    0.058210
  63 H :    0.038420
  64 H :    0.027591
  65 H :    0.030828
  66 H :    0.037776
  67 H :    0.026960
  68 H :    0.057153
  69 H :    0.056922
  70 H :    0.026320
  71 H :    0.031779
  72 H :    0.023048
  73 H :    0.024157
  74 H :    0.098176
  75 H :   -0.014487

  Mayer bond orders larger than 0.100000
B(  0-C ,  1-S ) :   1.1255 B(  0-C ,  2-C ) :   0.1028 B(  0-C ,  4-C ) :   1.5427
B(  0-C , 60-H ) :   0.9864 B(  1-S ,  2-C ) :   1.1168 B(  2-C ,  3-C ) :   1.5145
B(  2-C ,  9-C ) :   1.1459 B(  3-C ,  4-C ) :   1.2297 B(  3-C ,  8-O ) :   1.0780
B(  4-C ,  5-O ) :   1.0642 B(  5-O ,  6-C ) :   1.1003 B(  6-C ,  7-S ) :   1.8058
B(  6-C ,  8-O ) :   1.0858 B(  9-C , 10-S ) :   1.0974 B(  9-C , 13-N ) :   1.7007
B( 10-S , 11-C ) :   1.0820 B( 11-C , 12-C ) :   1.4932 B( 11-C , 16-C ) :   1.1975
B( 12-C , 13-N ) :   1.4352 B( 12-C , 14-C ) :   1.0446 B( 14-C , 15-C ) :   0.9808
B( 14-C , 61-H ) :   0.8600 B( 14-C , 62-H ) :   0.8609 B( 15-C , 16-C ) :   1.4924
B( 15-C , 19-C ) :   1.3362 B( 16-C , 17-S ) :   1.1080 B( 17-S , 18-C ) :   1.1017
B( 18-C , 19-C ) :   1.4317 B( 18-C , 20-C ) :   1.1582 B( 19-C , 63-H ) :   0.9979
B( 20-C , 21-C ) :   1.6227 B( 20-C , 64-H ) :   0.9434 B( 21-C , 22-C ) :   1.1938
B( 21-C , 65-H ) :   0.9463 B( 22-C , 23-C ) :   1.2551 B( 22-C , 32-C ) :   1.2928
B( 23-C , 24-C ) :   0.9091 B( 23-C , 29-C ) :   1.3854 B( 24-C , 25-O ) :   2.2070
B( 24-C , 26-O ) :   1.0673 B( 26-O , 27-C ) :   1.0546 B( 27-C , 28-O ) :   2.2156
B( 27-C , 29-C ) :   0.9191 B( 29-C , 30-C ) :   1.2851 B( 30-C , 31-C ) :   1.2518
B( 30-C , 38-C ) :   1.1837 B( 31-C , 32-C ) :   1.3745 B( 31-C , 36-C ) :   0.9172
B( 32-C , 33-C ) :   0.9244 B( 33-C , 34-O ) :   2.1949 B( 33-C , 35-O ) :   1.0656
B( 35-O , 36-C ) :   1.0612 B( 36-C , 37-O ) :   2.1727 B( 38-C , 39-C ) :   1.6245
B( 38-C , 66-H ) :   0.9497 B( 39-C , 40-C ) :   1.1413 B( 39-C , 67-H ) :   0.9257
B( 40-C , 41-S ) :   1.0591 B( 40-C , 44-N ) :   1.6079 B( 41-S , 42-C ) :   1.1147
B( 42-C , 43-C ) :   1.4320 B( 42-C , 47-C ) :   1.2042 B( 43-C , 44-N ) :   1.4939
B( 43-C , 45-C ) :   1.0412 B( 45-C , 46-C ) :   0.9812 B( 45-C , 68-H ) :   0.8616
B( 45-C , 69-H ) :   0.8615 B( 46-C , 47-C ) :   1.5105 B( 46-C , 50-C ) :   1.3195
B( 47-C , 48-S ) :   1.0774 B( 48-S , 49-C ) :   1.1130 B( 49-C , 50-C ) :   1.4611
B( 49-C , 51-C ) :   1.1013 B( 50-C , 70-H ) :   0.9947 B( 51-C , 52-C ) :   1.7001
B( 51-C , 71-H ) :   0.9711 B( 52-C , 53-C ) :   1.1403 B( 52-C , 72-H ) :   0.9538
B( 53-C , 54-O ) :   1.1226 B( 53-C , 57-C ) :   1.3963 B( 54-O , 55-C ) :   1.1399
B( 55-C , 56-C ) :   1.5301 B( 55-C , 73-H ) :   1.0178 B( 56-C , 57-C ) :   1.2863
B( 56-C , 59-S ) :   1.0209 B( 57-C , 58-O ) :   1.2155 B( 58-O , 74-H ) :   0.9595
B( 59-S , 75-H ) :   0.9522

-----------------------------------------------------------------------------
         ABSORPTION SPECTRUM VIA TRANSITION ELECTRIC DIPOLE MOMENTS
-----------------------------------------------------------------------------
State   Energy  Wavelength   fosc         T2         TX        TY        TZ
        (cm-1)    (nm)                  (au**2)     (au)      (au)      (au)
-----------------------------------------------------------------------------
   0   14750.3    678.0   0.778686770  17.37948  -0.34460  -3.78161  -1.72051
   1   16109.3    620.8   2.315975424  47.32951  -1.37770   6.25091   2.52142
   2   19233.2    519.9   0.022357723   0.38269  -0.00955   0.44416   0.43049
   3   20953.6    477.2   0.265168290   4.16619  -1.10918   1.23433   1.18843
   4   24515.3    407.9   0.064837963   0.87070   0.25113   0.89689   0.05674
   5   27027.6    370.0   0.058129122   0.70805   0.39539  -0.66919  -0.32233
   6   27386.0    365.1   0.670035580   8.05461   0.06820  -2.54506  -1.25404
   7   28514.0    350.7   0.109676748   1.26628  -0.70562   0.84768   0.22321
   8   29025.5    344.5   0.041922222   0.47549  -0.32364  -0.60174  -0.09301
   9   29936.3    334.0   0.001965240   0.02161  -0.11419  -0.08467  -0.03748
  10   32023.0    312.3   0.006979589   0.07175   0.25698  -0.07482  -0.01081
  11   32925.1    303.7   0.030202089   0.30198   0.52557   0.14765   0.06295
  12   33459.7    298.9   0.017606793   0.17323  -0.37159   0.17369   0.07062
  13   33597.3    297.6   0.014264681   0.13978   0.29634   0.02904   0.22608
  14   34217.2    292.3   0.014314138   0.13772  -0.36910  -0.02899   0.02532
  15   34501.1    289.8   0.045918746   0.43816   0.58266   0.29954   0.09458
  16   34569.3    289.3   0.067410757   0.64197  -0.72773  -0.32315  -0.08916
  17   34917.2    286.4   0.000002690   0.00003   0.00266   0.00307  -0.00298
  18   35206.0    284.0   0.008250002   0.07715  -0.26841  -0.05654   0.04368
  19   35284.1    283.4   0.001698621   0.01585   0.09454  -0.00937   0.08260
  20   35482.6    281.8   0.001220948   0.01133  -0.08344   0.05629   0.03460
  21   35983.0    277.9   0.020301150   0.18574   0.31378   0.27263   0.11380
  22   36544.4    273.6   0.042637080   0.38410  -0.61798  -0.02570   0.03916
  23   36962.7    270.5   0.082996460   0.73922  -0.44183   0.68486   0.27379
  24   37126.5    269.3   0.012413902   0.11008  -0.31171  -0.07281  -0.08724
  25   37661.4    265.5   0.004896436   0.04280  -0.14907   0.09719   0.10551
  26   37740.1    265.0   0.025266313   0.22040   0.45527  -0.07794  -0.08398
  27   38000.5    263.2   0.042153313   0.36519   0.51635   0.30423   0.07756
  28   38059.6    262.7   0.000226258   0.00196  -0.04250   0.01168   0.00379
  29   38847.6    257.4   0.004668697   0.03956  -0.00696  -0.19488  -0.03922
  30   39109.2    255.7   0.027548693   0.23190   0.48066   0.02731   0.01077
  31   39135.9    255.5   0.000000555   0.00000  -0.00206   0.00012   0.00063
  32   39302.6    254.4   0.002101782   0.01761   0.04118   0.11541   0.05089
  33   39678.1    252.0   0.001945369   0.01614   0.11517  -0.04917  -0.02142
  34   40021.2    249.9   0.000262780   0.00216  -0.02942  -0.02510   0.02581

FINAL SINGLE POINT ENERGY     -5217.255375544440

DIPOLE MOMENT
-------------
                                X             Y             Z
Electronic contribution:     -9.06581      54.71124      24.03827
Nuclear contribution   :      9.88520     -55.30265     -23.98833
                        -----------------------------------------
Total Dipole Moment    :      0.81939      -0.59142       0.04994
                        -----------------------------------------
Magnitude (a.u.)       :      1.01176
Magnitude (Debye)      :      2.57170

Rotational constants in cm-1:     0.004293     0.000173     0.000168
Rotational constants in MHz :   128.704190     5.199057     5.029699

                             ****ORCA TERMINATED NORMALLY****
TOTAL RUN TIME: 0 days 0 hours 5 minutes 57 seconds 375 msec
