                         Program Version 4.2.0 -  RELEASE  -
|  1> # ORCA input file
|  2> # SCF done       -180.077400483174          0.000568425964
|  3> ! CAM-B3LYP def2-SVP def2/J RIJCOSX Grid4 TightSCF
|  4> %maxcore 5000
|  5> %tddft
|  6>     Mode sTDDFT
|  7>     Ethresh 5.0
|  8>     maxcore 5000
|  9> end
| 10>
| 11> %pal
| 12>   nprocs 6
| 13>   end
| 14> * xyz 0 1
| 15>    C       -0.62620        -1.18962        -3.93246
| 16>    C        0.21184        -2.28029        -3.80358
| 17>    C        0.89860        -2.49388        -2.60304
| 18>    C        0.66718        -1.56099        -1.58396
| 19>    N       -0.13045        -0.51958        -1.70228
| 20>    C       -0.76170        -0.33267        -2.85003
| 21>    C        1.77936        -3.63622        -2.47637
| 22>    C        2.58944        -3.89800        -1.43869
| 23>    C        3.47737        -5.03337        -1.29886
| 24>    C        4.29673        -5.09807        -0.16098
| 25>    C        5.15883        -6.15369         0.00606
| 26>    C        5.22178        -7.17880        -0.95091
| 27>    C        4.41202        -7.13377        -2.07620
| 28>    C        3.55157        -6.06725        -2.24026
| 29>    C        6.22077        -8.13852        -0.53216
| 30>    C        6.77936        -7.70469         0.68272
| 31>    C        6.09690        -6.44182         1.16013
| 32>    C        5.21311        -6.70551         2.40252
| 33>    C        5.93999        -7.20361         3.64508
| 34>    C        7.08920        -5.29611         1.40389
| 35>    C        7.87925        -4.93899         0.15009
| 36>    C        7.81173        -8.40237         1.26156
| 37>    C        8.27309        -9.58644         0.66870
| 38>    C        7.67883       -10.02104        -0.52168
| 39>    C        6.67273        -9.30209        -1.13539
| 40>    C        9.32067       -10.39692         1.25921
| 41>    C       10.06823       -10.07245         2.32236
| 42>    C       11.09591       -10.94625         2.87743
| 43>    C       11.30201       -11.16177         4.25019
| 44>    N       10.62655       -10.68480         5.35568
| 45>    C        9.47019        -9.82667         5.32928
| 46>    C        9.82601        -8.33994         5.29135
| 47>    C       11.15647       -11.27115         6.48764
| 48>    C       12.19932       -12.14846         6.10764
| 49>    C       12.30130       -12.06789         4.68131
| 50>    C       13.12428       -12.72682         3.77917
| 51>    C       12.93539       -12.49489         2.43263
| 52>    C       11.93526       -11.63463         2.00223
| 53>    C       12.87004       -12.92230         7.04435
| 54>    C       12.47851       -12.83757         8.36363
| 55>    C       11.45547       -11.97585         8.74053
| 56>    C       10.78987       -11.15919         7.83276
| 57>    C        9.79922       -10.21333         8.37115
| 58>    C       10.07758        -8.90772         8.54062
| 59>    C        9.19803        -7.95416         9.11645
| 60>    C        9.48118        -6.62158         9.19453
| 61>    C        8.69368        -5.59634         9.78366
| 62>    C        9.24017        -4.35377         9.70750
| 63>    C       10.48846        -4.31014         9.04403
| 64>    S       10.95180        -5.91802         8.52289
| 65>    C       11.28703        -3.21485         8.79410
| 66>    C       11.07089        -1.86695         9.16263
| 67>    C       12.05656        -1.02118         8.75997
| 68>    C       13.11551        -1.63744         8.04098
| 69>    S       12.79259        -3.36266         7.91311
| 70>    C       14.20309        -0.98387         7.52776
| 71>    C       15.28900        -1.49941         6.78418
| 72>    C       16.34259        -0.72369         6.29105
| 73>    C       17.23858        -1.56143         5.58134
| 74>    C       18.40859        -1.29707         4.90403
| 75>    C       19.06245        -2.37415         4.28464
| 76>    C       20.22821        -2.44092         3.53299
| 77>    C       20.45027        -3.79255         3.12734
| 78>    C       19.41817        -4.56529         3.63137
| 79>    C       18.52606        -3.72013         4.36038
| 80>    C       17.36373        -3.98839         5.03485
| 81>    C       16.70230        -2.90768         5.65344
| 82>    C       15.52773        -2.85654         6.38204
| 83>    C       21.57691        -4.20864         2.32576
| 84>    C       21.82879        -5.45433         1.93299
| 85>    H       -1.16312        -1.00624        -4.85067
| 86>    H        0.34453        -2.96947        -4.62674
| 87>    H        1.14334        -1.65995        -0.61785
| 88>    H       -1.40181         0.53841        -2.89655
| 89>    H        1.76028        -4.30726        -3.32561
| 90>    H        2.61573        -3.20618        -0.60639
| 91>    H        4.24523        -4.30564         0.57289
| 92>    H        4.45300        -7.92048        -2.81503
| 93>    H        2.92160        -6.03683        -3.11567
| 94>    H        4.45535        -7.44265         2.12319
| 95>    H        4.69344        -5.77508         2.64320
| 96>    H        6.38432        -8.17964         3.46851
| 97>    H        5.22927        -7.30002         4.46360
| 98>    H        6.71652        -6.50848         3.95504
| 99>    H        7.78643        -5.58556         2.19155
|100>    H        6.53822        -4.41859         1.74963
|101>    H        8.44128        -5.80022        -0.20489
|102>    H        8.57930        -4.13421         0.36340
|103>    H        7.21230        -4.61451        -0.64556
|104>    H        8.26940        -8.04286         2.16930
|105>    H        8.03253       -10.93611        -0.97593
|106>    H        6.24555        -9.64208        -2.06727
|107>    H        9.46848       -11.36418         0.79467
|108>    H        9.93900        -9.11026         2.79076
|109>    H        8.87890       -10.03075         6.22661
|110>    H        8.86823       -10.09492         4.45490
|111>    H       10.23596        -8.01982         6.24395
|112>    H        8.93241        -7.75397         5.08963
|113>    H       10.56932        -8.13406         4.52491
|114>    H       13.88635       -13.40558         4.13000
|115>    H       13.56191       -12.98620         1.70317
|116>    H       11.81112       -11.46486         0.94282
|117>    H       13.66736       -13.58216         6.73868
|118>    H       12.96854       -13.43657         9.11651
|119>    H       11.17514       -11.91220         9.78239
|120>    H        8.86407       -10.62379         8.73487
|121>    H       11.04775        -8.53896         8.22761
|122>    H        8.25416        -8.29985         9.51630
|123>    H        7.75028        -5.81992        10.25031
|124>    H        8.78218        -3.46566        10.10570
|125>    H       10.19947        -1.56307         9.71475
|126>    H       12.06205         0.03772         8.95247
|127>    H       14.23211         0.08450         7.70938
|128>    H       16.45487         0.33686         6.42414
|129>    H       18.81488        -0.29706         4.84336
|130>    H       20.87158        -1.61460         3.28608
|131>    H       19.28803        -5.62383         3.50614
|132>    H       16.95472        -4.98715         5.09617
|133>    H       14.89689        -3.69548         6.60846
|134>    H       22.25289        -3.41231         2.03820
|135>    H       21.18617        -6.27716         2.19513
|136>    H       22.68985        -5.69352         1.33336
|137> *
|138>
|139>                          ****END OF INPUT****

CARTESIAN COORDINATES (ANGSTROEM)
---------------------------------
  C     -0.626200   -1.189620   -3.932460
  C      0.211840   -2.280290   -3.803580
  C      0.898600   -2.493880   -2.603040
  C      0.667180   -1.560990   -1.583960
  N     -0.130450   -0.519580   -1.702280
  C     -0.761700   -0.332670   -2.850030
  C      1.779360   -3.636220   -2.476370
  C      2.589440   -3.898000   -1.438690
  C      3.477370   -5.033370   -1.298860
  C      4.296730   -5.098070   -0.160980
  C      5.158830   -6.153690    0.006060
  C      5.221780   -7.178800   -0.950910
  C      4.412020   -7.133770   -2.076200
  C      3.551570   -6.067250   -2.240260
  C      6.220770   -8.138520   -0.532160
  C      6.779360   -7.704690    0.682720
  C      6.096900   -6.441820    1.160130
  C      5.213110   -6.705510    2.402520
  C      5.939990   -7.203610    3.645080
  C      7.089200   -5.296110    1.403890
  C      7.879250   -4.938990    0.150090
  C      7.811730   -8.402370    1.261560
  C      8.273090   -9.586440    0.668700
  C      7.678830  -10.021040   -0.521680
  C      6.672730   -9.302090   -1.135390
  C      9.320670  -10.396920    1.259210
  C     10.068230  -10.072450    2.322360
  C     11.095910  -10.946250    2.877430
  C     11.302010  -11.161770    4.250190
  N     10.626550  -10.684800    5.355680
  C      9.470190   -9.826670    5.329280
  C      9.826010   -8.339940    5.291350
  C     11.156470  -11.271150    6.487640
  C     12.199320  -12.148460    6.107640
  C     12.301300  -12.067890    4.681310
  C     13.124280  -12.726820    3.779170
  C     12.935390  -12.494890    2.432630
  C     11.935260  -11.634630    2.002230
  C     12.870040  -12.922300    7.044350
  C     12.478510  -12.837570    8.363630
  C     11.455470  -11.975850    8.740530
  C     10.789870  -11.159190    7.832760
  C      9.799220  -10.213330    8.371150
  C     10.077580   -8.907720    8.540620
  C      9.198030   -7.954160    9.116450
  C      9.481180   -6.621580    9.194530
  C      8.693680   -5.596340    9.783660
  C      9.240170   -4.353770    9.707500
  C     10.488460   -4.310140    9.044030
  S     10.951800   -5.918020    8.522890
  C     11.287030   -3.214850    8.794100
  C     11.070890   -1.866950    9.162630
  C     12.056560   -1.021180    8.759970
  C     13.115510   -1.637440    8.040980
  S     12.792590   -3.362660    7.913110
  C     14.203090   -0.983870    7.527760
  C     15.289000   -1.499410    6.784180
  C     16.342590   -0.723690    6.291050
  C     17.238580   -1.561430    5.581340
  C     18.408590   -1.297070    4.904030
  C     19.062450   -2.374150    4.284640
  C     20.228210   -2.440920    3.532990
  C     20.450270   -3.792550    3.127340
  C     19.418170   -4.565290    3.631370
  C     18.526060   -3.720130    4.360380
  C     17.363730   -3.988390    5.034850
  C     16.702300   -2.907680    5.653440
  C     15.527730   -2.856540    6.382040
  C     21.576910   -4.208640    2.325760
  C     21.828790   -5.454330    1.932990
  H     -1.163120   -1.006240   -4.850670
  H      0.344530   -2.969470   -4.626740
  H      1.143340   -1.659950   -0.617850
  H     -1.401810    0.538410   -2.896550
  H      1.760280   -4.307260   -3.325610
  H      2.615730   -3.206180   -0.606390
  H      4.245230   -4.305640    0.572890
  H      4.453000   -7.920480   -2.815030
  H      2.921600   -6.036830   -3.115670
  H      4.455350   -7.442650    2.123190
  H      4.693440   -5.775080    2.643200
  H      6.384320   -8.179640    3.468510
  H      5.229270   -7.300020    4.463600
  H      6.716520   -6.508480    3.955040
  H      7.786430   -5.585560    2.191550
  H      6.538220   -4.418590    1.749630
  H      8.441280   -5.800220   -0.204890
  H      8.579300   -4.134210    0.363400
  H      7.212300   -4.614510   -0.645560
  H      8.269400   -8.042860    2.169300
  H      8.032530  -10.936110   -0.975930
  H      6.245550   -9.642080   -2.067270
  H      9.468480  -11.364180    0.794670
  H      9.939000   -9.110260    2.790760
  H      8.878900  -10.030750    6.226610
  H      8.868230  -10.094920    4.454900
  H     10.235960   -8.019820    6.243950
  H      8.932410   -7.753970    5.089630
  H     10.569320   -8.134060    4.524910
  H     13.886350  -13.405580    4.130000
  H     13.561910  -12.986200    1.703170
  H     11.811120  -11.464860    0.942820
  H     13.667360  -13.582160    6.738680
  H     12.968540  -13.436570    9.116510
  H     11.175140  -11.912200    9.782390
  H      8.864070  -10.623790    8.734870
  H     11.047750   -8.538960    8.227610
  H      8.254160   -8.299850    9.516300
  H      7.750280   -5.819920   10.250310
  H      8.782180   -3.465660   10.105700
  H     10.199470   -1.563070    9.714750
  H     12.062050    0.037720    8.952470
  H     14.232110    0.084500    7.709380
  H     16.454870    0.336860    6.424140
  H     18.814880   -0.297060    4.843360
  H     20.871580   -1.614600    3.286080
  H     19.288030   -5.623830    3.506140
  H     16.954720   -4.987150    5.096170
  H     14.896890   -3.695480    6.608460
  H     22.252890   -3.412310    2.038200
  H     21.186170   -6.277160    2.195130
  H     22.689850   -5.693520    1.333360

 Total Charge           Charge          ....    0
 Multiplicity           Mult            ....    1
 Number of Electrons    NEL             ....  494
 Basis Dimension        Dim             .... 1248

ORBITAL ENERGIES
----------------

  NO   OCC          E(Eh)            E(eV)
   0   2.0000     -88.936295     -2420.0796
   1   2.0000     -88.934486     -2420.0304
   2   2.0000     -14.438196      -392.8833
   3   2.0000     -14.390575      -391.5875
   4   2.0000     -10.302445      -280.3438
   5   2.0000     -10.299108      -280.2530
   6   2.0000     -10.298664      -280.2409
   7   2.0000     -10.298410      -280.2340
   8   2.0000     -10.297507      -280.2094
   9   2.0000     -10.296341      -280.1777
  10   2.0000     -10.296112      -280.1715
  11   2.0000     -10.292900      -280.0840
  12   2.0000     -10.292355      -280.0692
  13   2.0000     -10.292174      -280.0643
  14   2.0000     -10.290964      -280.0314
  15   2.0000     -10.281604      -279.7767
  16   2.0000     -10.281495      -279.7737
  17   2.0000     -10.279591      -279.7219
  18   2.0000     -10.278712      -279.6980
  19   2.0000     -10.278205      -279.6842
  20   2.0000     -10.277505      -279.6651
  21   2.0000     -10.277170      -279.6560
  22   2.0000     -10.275953      -279.6229
  23   2.0000     -10.274767      -279.5906
  24   2.0000     -10.272798      -279.5370
  25   2.0000     -10.272473      -279.5282
  26   2.0000     -10.271771      -279.5091
  27   2.0000     -10.271521      -279.5023
  28   2.0000     -10.269812      -279.4558
  29   2.0000     -10.269704      -279.4528
  30   2.0000     -10.268760      -279.4272
  31   2.0000     -10.268575      -279.4221
  32   2.0000     -10.267687      -279.3980
  33   2.0000     -10.267475      -279.3922
  34   2.0000     -10.267317      -279.3879
  35   2.0000     -10.266630      -279.3692
  36   2.0000     -10.265246      -279.3315
  37   2.0000     -10.265156      -279.3291
  38   2.0000     -10.265099      -279.3276
  39   2.0000     -10.264311      -279.3061
  40   2.0000     -10.263483      -279.2836
  41   2.0000     -10.263406      -279.2815
  42   2.0000     -10.263256      -279.2774
  43   2.0000     -10.263197      -279.2758
  44   2.0000     -10.263115      -279.2736
  45   2.0000     -10.262711      -279.2626
  46   2.0000     -10.262053      -279.2447
  47   2.0000     -10.261498      -279.2295
  48   2.0000     -10.260889      -279.2130
  49   2.0000     -10.260831      -279.2114
  50   2.0000     -10.260710      -279.2081
  51   2.0000     -10.260561      -279.2040
  52   2.0000     -10.260372      -279.1989
  53   2.0000     -10.260366      -279.1988
  54   2.0000     -10.260192      -279.1940
  55   2.0000     -10.260082      -279.1910
  56   2.0000     -10.259279      -279.1692
  57   2.0000     -10.257439      -279.1191
  58   2.0000     -10.255364      -279.0627
  59   2.0000     -10.254951      -279.0514
  60   2.0000     -10.253686      -279.0170
  61   2.0000     -10.252946      -278.9968
  62   2.0000     -10.252761      -278.9918
  63   2.0000     -10.251619      -278.9607
  64   2.0000     -10.251135      -278.9476
  65   2.0000     -10.250776      -278.9378
  66   2.0000     -10.248961      -278.8884
  67   2.0000     -10.247769      -278.8560
  68   2.0000     -10.247734      -278.8550
  69   2.0000     -10.240627      -278.6616
  70   2.0000      -8.032323      -218.5706
  71   2.0000      -8.030459      -218.5199
  72   2.0000      -6.002115      -163.3259
  73   2.0000      -6.000228      -163.2745
  74   2.0000      -5.998100      -163.2166
  75   2.0000      -5.996305      -163.1677
  76   2.0000      -5.993138      -163.0816
  77   2.0000      -5.991280      -163.0310
  78   2.0000      -1.067220       -29.0405
  79   2.0000      -1.024723       -27.8841
  80   2.0000      -0.986331       -26.8394
  81   2.0000      -0.982548       -26.7365
  82   2.0000      -0.980112       -26.6702
  83   2.0000      -0.964486       -26.2450
  84   2.0000      -0.955628       -26.0040
  85   2.0000      -0.940386       -25.5892
  86   2.0000      -0.933649       -25.4059
  87   2.0000      -0.932374       -25.3712
  88   2.0000      -0.915956       -24.9244
  89   2.0000      -0.902128       -24.5481
  90   2.0000      -0.900808       -24.5122
  91   2.0000      -0.895348       -24.3637
  92   2.0000      -0.885764       -24.1029
  93   2.0000      -0.876472       -23.8500
  94   2.0000      -0.868817       -23.6417
  95   2.0000      -0.862851       -23.4794
  96   2.0000      -0.860238       -23.4083
  97   2.0000      -0.853045       -23.2125
  98   2.0000      -0.850308       -23.1381
  99   2.0000      -0.841743       -22.9050
 100   2.0000      -0.834542       -22.7091
 101   2.0000      -0.834136       -22.6980
 102   2.0000      -0.831934       -22.6381
 103   2.0000      -0.826909       -22.5013
 104   2.0000      -0.824048       -22.4235
 105   2.0000      -0.817585       -22.2476
 106   2.0000      -0.812632       -22.1128
 107   2.0000      -0.809520       -22.0282
 108   2.0000      -0.796261       -21.6674
 109   2.0000      -0.792274       -21.5589
 110   2.0000      -0.791358       -21.5340
 111   2.0000      -0.778074       -21.1725
 112   2.0000      -0.770412       -20.9640
 113   2.0000      -0.758062       -20.6279
 114   2.0000      -0.753511       -20.5041
 115   2.0000      -0.744156       -20.2495
 116   2.0000      -0.736703       -20.0467
 117   2.0000      -0.729467       -19.8498
 118   2.0000      -0.720135       -19.5959
 119   2.0000      -0.714229       -19.4352
 120   2.0000      -0.701192       -19.0804
 121   2.0000      -0.698415       -19.0048
 122   2.0000      -0.696051       -18.9405
 123   2.0000      -0.687888       -18.7184
 124   2.0000      -0.685752       -18.6603
 125   2.0000      -0.682202       -18.5637
 126   2.0000      -0.674311       -18.3489
 127   2.0000      -0.673267       -18.3205
 128   2.0000      -0.664931       -18.0937
 129   2.0000      -0.663255       -18.0481
 130   2.0000      -0.656644       -17.8682
 131   2.0000      -0.650442       -17.6994
 132   2.0000      -0.644962       -17.5503
 133   2.0000      -0.637257       -17.3406
 134   2.0000      -0.637173       -17.3384
 135   2.0000      -0.631462       -17.1829
 136   2.0000      -0.620889       -16.8952
 137   2.0000      -0.618044       -16.8178
 138   2.0000      -0.613671       -16.6988
 139   2.0000      -0.613180       -16.6855
 140   2.0000      -0.604206       -16.4413
 141   2.0000      -0.600013       -16.3272
 142   2.0000      -0.597530       -16.2596
 143   2.0000      -0.594103       -16.1664
 144   2.0000      -0.589422       -16.0390
 145   2.0000      -0.584677       -15.9099
 146   2.0000      -0.579069       -15.7573
 147   2.0000      -0.575315       -15.6551
 148   2.0000      -0.573437       -15.6040
 149   2.0000      -0.568415       -15.4674
 150   2.0000      -0.565768       -15.3953
 151   2.0000      -0.559683       -15.2297
 152   2.0000      -0.550335       -14.9754
 153   2.0000      -0.549058       -14.9406
 154   2.0000      -0.541527       -14.7357
 155   2.0000      -0.538523       -14.6540
 156   2.0000      -0.536600       -14.6016
 157   2.0000      -0.533205       -14.5093
 158   2.0000      -0.531643       -14.4667
 159   2.0000      -0.530741       -14.4422
 160   2.0000      -0.527267       -14.3477
 161   2.0000      -0.525173       -14.2907
 162   2.0000      -0.523671       -14.2498
 163   2.0000      -0.518431       -14.1072
 164   2.0000      -0.515462       -14.0264
 165   2.0000      -0.513852       -13.9826
 166   2.0000      -0.511899       -13.9295
 167   2.0000      -0.509858       -13.8739
 168   2.0000      -0.506964       -13.7952
 169   2.0000      -0.506171       -13.7736
 170   2.0000      -0.501776       -13.6540
 171   2.0000      -0.500536       -13.6203
 172   2.0000      -0.497656       -13.5419
 173   2.0000      -0.494976       -13.4690
 174   2.0000      -0.493278       -13.4228
 175   2.0000      -0.492267       -13.3953
 176   2.0000      -0.491246       -13.3675
 177   2.0000      -0.486567       -13.2402
 178   2.0000      -0.485188       -13.2026
 179   2.0000      -0.482525       -13.1302
 180   2.0000      -0.481282       -13.0963
 181   2.0000      -0.477001       -12.9799
 182   2.0000      -0.475989       -12.9523
 183   2.0000      -0.473810       -12.8930
 184   2.0000      -0.471628       -12.8337
 185   2.0000      -0.469145       -12.7661
 186   2.0000      -0.467697       -12.7267
 187   2.0000      -0.463879       -12.6228
 188   2.0000      -0.462324       -12.5805
 189   2.0000      -0.461121       -12.5477
 190   2.0000      -0.458677       -12.4812
 191   2.0000      -0.455973       -12.4077
 192   2.0000      -0.454728       -12.3738
 193   2.0000      -0.451279       -12.2799
 194   2.0000      -0.449964       -12.2441
 195   2.0000      -0.447593       -12.1796
 196   2.0000      -0.445894       -12.1334
 197   2.0000      -0.442440       -12.0394
 198   2.0000      -0.441015       -12.0006
 199   2.0000      -0.439848       -11.9689
 200   2.0000      -0.437308       -11.8998
 201   2.0000      -0.433564       -11.7979
 202   2.0000      -0.432767       -11.7762
 203   2.0000      -0.429822       -11.6961
 204   2.0000      -0.428583       -11.6623
 205   2.0000      -0.428365       -11.6564
 206   2.0000      -0.425766       -11.5857
 207   2.0000      -0.421781       -11.4772
 208   2.0000      -0.418858       -11.3977
 209   2.0000      -0.418230       -11.3806
 210   2.0000      -0.416934       -11.3454
 211   2.0000      -0.414719       -11.2851
 212   2.0000      -0.412432       -11.2228
 213   2.0000      -0.411049       -11.1852
 214   2.0000      -0.407334       -11.0841
 215   2.0000      -0.402634       -10.9562
 216   2.0000      -0.401626       -10.9288
 217   2.0000      -0.400211       -10.8903
 218   2.0000      -0.397466       -10.8156
 219   2.0000      -0.396581       -10.7915
 220   2.0000      -0.387116       -10.5340
 221   2.0000      -0.385289       -10.4842
 222   2.0000      -0.383876       -10.4458
 223   2.0000      -0.380226       -10.3465
 224   2.0000      -0.378212       -10.2917
 225   2.0000      -0.373866       -10.1734
 226   2.0000      -0.372102       -10.1254
 227   2.0000      -0.362812        -9.8726
 228   2.0000      -0.356320        -9.6959
 229   2.0000      -0.348920        -9.4946
 230   2.0000      -0.340016        -9.2523
 231   2.0000      -0.331702        -9.0261
 232   2.0000      -0.327725        -8.9179
 233   2.0000      -0.320277        -8.7152
 234   2.0000      -0.316416        -8.6101
 235   2.0000      -0.314690        -8.5632
 236   2.0000      -0.313871        -8.5409
 237   2.0000      -0.308065        -8.3829
 238   2.0000      -0.307293        -8.3619
 239   2.0000      -0.287219        -7.8156
 240   2.0000      -0.282869        -7.6972
 241   2.0000      -0.264072        -7.1858
 242   2.0000      -0.262380        -7.1397
 243   2.0000      -0.253316        -6.8931
 244   2.0000      -0.245514        -6.6808
 245   2.0000      -0.233962        -6.3664
 246   2.0000      -0.199210        -5.4208
 247   0.0000      -0.094280        -2.5655
 248   0.0000      -0.062636        -1.7044
 249   0.0000      -0.033985        -0.9248
 250   0.0000      -0.008158        -0.2220
 251   0.0000      -0.002927        -0.0796

MULLIKEN ATOMIC CHARGES
-----------------------
   0 C :    0.018903
   1 C :    0.005644
   2 C :    0.059091
   3 C :   -0.015712
   4 N :   -0.067364
   5 C :    0.015461
   6 C :    0.013476
   7 C :    0.009605
   8 C :    0.131437
   9 C :   -0.115253
  10 C :    0.024681
  11 C :    0.099948
  12 C :   -0.047390
  13 C :   -0.016449
  14 C :    0.099646
  15 C :    0.025212
  16 C :   -0.131170
  17 C :    0.081213
  18 C :    0.018587
  19 C :    0.050099
  20 C :    0.026479
  21 C :   -0.096576
  22 C :    0.120864
  23 C :   -0.019845
  24 C :   -0.052404
  25 C :   -0.010722
  26 C :   -0.038074
  27 C :    0.041668
  28 C :    0.105420
  29 N :   -0.188131
  30 C :    0.096529
  31 C :    0.029444
  32 C :    0.119895
  33 C :    0.064721
  34 C :    0.056527
  35 C :   -0.051911
  36 C :    0.031875
  37 C :   -0.051078
  38 C :   -0.053828
  39 C :    0.032304
  40 C :   -0.025229
  41 C :   -0.019254
  42 C :   -0.103832
  43 C :    0.028981
  44 C :   -0.026464
  45 C :   -0.009779
  46 C :    0.034397
  47 C :    0.030276
  48 C :   -0.057896
  49 S :    0.057650
  50 C :   -0.028919
  51 C :    0.022602
  52 C :    0.036843
  53 C :   -0.025136
  54 S :    0.039638
  55 C :   -0.014018
  56 C :    0.056674
  57 C :   -0.035497
  58 C :    0.064957
  59 C :   -0.001538
  60 C :    0.055271
  61 C :   -0.023919
  62 C :    0.059427
  63 C :   -0.022286
  64 C :    0.045015
  65 C :    0.003703
  66 C :    0.038302
  67 C :   -0.025493
  68 C :    0.007831
  69 C :   -0.018803
  70 H :   -0.009388
  71 H :   -0.012710
  72 H :   -0.007920
  73 H :    0.000766
  74 H :   -0.028168
  75 H :   -0.024411
  76 H :   -0.041553
  77 H :   -0.038286
  78 H :   -0.034909
  79 H :    0.005149
  80 H :   -0.006548
  81 H :    0.021511
  82 H :    0.011216
  83 H :    0.011057
  84 H :    0.006585
  85 H :   -0.004118
  86 H :    0.020441
  87 H :    0.009054
  88 H :    0.019964
  89 H :   -0.051244
  90 H :   -0.032724
  91 H :   -0.038836
  92 H :   -0.022247
  93 H :   -0.011822
  94 H :    0.026441
  95 H :    0.030983
  96 H :    0.003328
  97 H :    0.017749
  98 H :    0.026539
  99 H :   -0.037786
 100 H :   -0.028797
 101 H :   -0.030070
 102 H :   -0.038235
 103 H :   -0.027563
 104 H :   -0.033535
 105 H :    0.008777
 106 H :    0.018426
 107 H :   -0.021935
 108 H :   -0.017786
 109 H :   -0.016597
 110 H :   -0.018520
 111 H :   -0.015243
 112 H :   -0.025856
 113 H :   -0.029180
 114 H :   -0.027053
 115 H :   -0.024272
 116 H :   -0.026738
 117 H :   -0.020976
 118 H :   -0.005167
 119 H :   -0.022276
 120 H :    0.009139
 121 H :    0.019012
Sum of atomic charges:   -0.0000000

LOEWDIN ATOMIC CHARGES
----------------------
   0 C :   -0.044824
   1 C :    0.003200
   2 C :   -0.044773
   3 C :    0.022341
   4 N :   -0.070118
   5 C :    0.011813
   6 C :   -0.025833
   7 C :   -0.009419
   8 C :   -0.025898
   9 C :   -0.021445
  10 C :    0.004129
  11 C :   -0.016900
  12 C :   -0.018827
  13 C :   -0.015403
  14 C :   -0.019605
  15 C :    0.004583
  16 C :   -0.034102
  17 C :   -0.008955
  18 C :   -0.061174
  19 C :   -0.016001
  20 C :   -0.056453
  21 C :   -0.021658
  22 C :   -0.023641
  23 C :   -0.021024
  24 C :   -0.020673
  25 C :   -0.022431
  26 C :   -0.022614
  27 C :   -0.052895
  28 C :    0.034213
  29 N :    0.019749
  30 C :    0.038465
  31 C :   -0.063486
  32 C :    0.032100
  33 C :   -0.041923
  34 C :   -0.042455
  35 C :   -0.015607
  36 C :   -0.048051
  37 C :   -0.018781
  38 C :   -0.016887
  39 C :   -0.046634
  40 C :   -0.018969
  41 C :   -0.059015
  42 C :   -0.026444
  43 C :   -0.031150
  44 C :   -0.068813
  45 C :   -0.139279
  46 C :   -0.041701
  47 C :   -0.028644
  48 C :   -0.189064
  49 S :    0.355261
  50 C :   -0.174139
  51 C :   -0.044755
  52 C :   -0.027538
  53 C :   -0.158404
  54 S :    0.367474
  55 C :   -0.043712
  56 C :   -0.068851
  57 C :    0.018639
  58 C :   -0.066313
  59 C :    0.076370
  60 C :   -0.071921
  61 C :    0.044009
  62 C :   -0.065430
  63 C :    0.026948
  64 C :   -0.061283
  65 C :    0.079189
  66 C :   -0.066203
  67 C :    0.034786
  68 C :   -0.025575
  69 C :   -0.048431
  70 H :    0.030911
  71 H :    0.028553
  72 H :    0.017087
  73 H :    0.019499
  74 H :    0.023839
  75 H :    0.025872
  76 H :    0.022620
  77 H :    0.025939
  78 H :    0.023883
  79 H :    0.026865
  80 H :    0.019250
  81 H :    0.023505
  82 H :    0.027188
  83 H :    0.019545
  84 H :    0.019526
  85 H :    0.019478
  86 H :    0.025850
  87 H :    0.023654
  88 H :    0.024952
  89 H :    0.020415
  90 H :    0.024958
  91 H :    0.025423
  92 H :    0.026505
  93 H :    0.023210
  94 H :    0.032084
  95 H :    0.027983
  96 H :    0.024241
  97 H :    0.028751
  98 H :    0.024021
  99 H :    0.025362
 100 H :    0.024136
 101 H :    0.025365
 102 H :    0.025272
 103 H :    0.024258
 104 H :    0.025510
 105 H :    0.026489
 106 H :    0.023712
 107 H :    0.029696
 108 H :    0.031427
 109 H :    0.030874
 110 H :    0.029979
 111 H :    0.032097
 112 H :    0.034156
 113 H :    0.023145
 114 H :    0.034152
 115 H :    0.024791
 116 H :    0.024111
 117 H :    0.036551
 118 H :    0.014691
 119 H :    0.026758
 120 H :    0.019035
 121 H :    0.023681

  Mayer bond orders larger than 0.100000
B(  0-C ,  1-C ) :   1.4157 B(  0-C ,  5-C ) :   1.3807 B(  0-C , 70-H ) :   0.9745
B(  1-C ,  2-C ) :   1.3725 B(  1-C , 71-H ) :   0.9899 B(  2-C ,  3-C ) :   1.3262
B(  2-C ,  6-C ) :   1.0618 B(  3-C ,  4-N ) :   1.5857 B(  3-C , 72-H ) :   0.9827
B(  4-N ,  5-C ) :   1.5328 B(  5-C , 73-H ) :   0.9814 B(  6-C ,  7-C ) :   1.7169
B(  6-C , 74-H ) :   0.9749 B(  7-C ,  8-C ) :   1.0646 B(  7-C , 75-H ) :   0.9791
B(  8-C ,  9-C ) :   1.2877 B(  8-C , 13-C ) :   1.3484 B(  9-C , 10-C ) :   1.3731
B(  9-C , 76-H ) :   1.0111 B( 10-C , 11-C ) :   1.3840 B( 10-C , 16-C ) :   0.9233
B( 11-C , 12-C ) :   1.3297 B( 11-C , 14-C ) :   0.9946 B( 12-C , 13-C ) :   1.4015
B( 12-C , 77-H ) :   0.9888 B( 13-C , 78-H ) :   0.9844 B( 14-C , 15-C ) :   1.3718
B( 14-C , 24-C ) :   1.3472 B( 15-C , 16-C ) :   0.9201 B( 15-C , 21-C ) :   1.4126
B( 16-C , 17-C ) :   1.0148 B( 16-C , 19-C ) :   1.0326 B( 17-C , 18-C ) :   1.1155
B( 17-C , 79-H ) :   0.9382 B( 17-C , 80-H ) :   0.9356 B( 18-C , 81-H ) :   0.9615
B( 18-C , 82-H ) :   0.9567 B( 18-C , 83-H ) :   0.9624 B( 19-C , 20-C ) :   1.1044
B( 19-C , 84-H ) :   0.9379 B( 19-C , 85-H ) :   0.9389 B( 20-C , 86-H ) :   0.9649
B( 20-C , 87-H ) :   0.9648 B( 20-C , 88-H ) :   0.9629 B( 21-C , 22-C ) :   1.3030
B( 21-C , 89-H ) :   0.9897 B( 22-C , 23-C ) :   1.3489 B( 22-C , 25-C ) :   1.0500
B( 23-C , 24-C ) :   1.3675 B( 23-C , 90-H ) :   0.9936 B( 24-C , 91-H ) :   0.9903
B( 25-C , 26-C ) :   1.7888 B( 25-C , 92-H ) :   0.9816 B( 26-C , 27-C ) :   0.9896
B( 26-C , 93-H ) :   0.9450 B( 27-C , 28-C ) :   1.3013 B( 27-C , 37-C ) :   1.4092
B( 28-C , 29-N ) :   1.1325 B( 28-C , 34-C ) :   1.2863 B( 29-N , 30-C ) :   0.9545
B( 29-N , 32-C ) :   1.1346 B( 30-C , 31-C ) :   1.1126 B( 30-C , 94-H ) :   0.9277
B( 30-C , 95-H ) :   0.9365 B( 31-C , 96-H ) :   0.9451 B( 31-C , 97-H ) :   0.9634
B( 31-C , 98-H ) :   0.9549 B( 32-C , 33-C ) :   1.2848 B( 32-C , 41-C ) :   1.3402
B( 33-C , 34-C ) :   1.0797 B( 33-C , 38-C ) :   1.3380 B( 34-C , 35-C ) :   1.3389
B( 35-C , 36-C ) :   1.3836 B( 35-C , 99-H ) :   0.9992 B( 36-C , 37-C ) :   1.3360
B( 36-C ,100-H ) :   0.9855 B( 37-C ,101-H ) :   0.9913 B( 38-C , 39-C ) :   1.3882
B( 38-C ,102-H ) :   0.9989 B( 39-C , 40-C ) :   1.3355 B( 39-C ,103-H ) :   0.9870
B( 40-C , 41-C ) :   1.4273 B( 40-C ,104-H ) :   0.9918 B( 41-C , 42-C ) :   0.9497
B( 42-C , 43-C ) :   1.8009 B( 42-C ,105-H ) :   0.9560 B( 43-C , 44-C ) :   1.1066
B( 43-C ,106-H ) :   0.9540 B( 44-C , 45-C ) :   1.6161 B( 44-C ,107-H ) :   0.9832
B( 45-C , 46-C ) :   1.1239 B( 45-C , 49-S ) :   1.0238 B( 46-C , 47-C ) :   1.6058
B( 46-C ,108-H ) :   0.9980 B( 47-C , 48-C ) :   1.1799 B( 47-C ,109-H ) :   0.9931
B( 48-C , 49-S ) :   1.0334 B( 48-C , 50-C ) :   1.5267 B( 50-C , 51-C ) :   1.1781
B( 50-C , 54-S ) :   1.0411 B( 51-C , 52-C ) :   1.6006 B( 51-C ,110-H ) :   0.9923
B( 52-C , 53-C ) :   1.1360 B( 52-C ,111-H ) :   0.9985 B( 53-C , 54-S ) :   1.0151
B( 53-C , 55-C ) :   1.5886 B( 55-C , 56-C ) :   1.1279 B( 55-C ,112-H ) :   0.9689
B( 56-C , 57-C ) :   1.4166 B( 56-C , 67-C ) :   1.1535 B( 57-C , 58-C ) :   1.1276
B( 57-C ,113-H ) :   1.0189 B( 58-C , 59-C ) :   1.4007 B( 58-C , 66-C ) :   1.1413
B( 59-C , 60-C ) :   1.1597 B( 59-C ,114-H ) :   1.0058 B( 60-C , 61-C ) :   1.3789
B( 60-C , 64-C ) :   1.1376 B( 61-C , 62-C ) :   1.1757 B( 61-C ,115-H ) :   1.0122
B( 62-C , 63-C ) :   1.4828 B( 62-C , 68-C ) :   1.0734 B( 63-C , 64-C ) :   1.1178
B( 63-C ,116-H ) :   1.0111 B( 64-C , 65-C ) :   1.4289 B( 65-C , 66-C ) :   1.1405
B( 65-C ,117-H ) :   1.0050 B( 66-C , 67-C ) :   1.4270 B( 67-C ,118-H ) :   0.9905
B( 68-C , 69-C ) :   1.9481 B( 68-C ,119-H ) :   0.9652 B( 69-C ,120-H ) :   0.9525
B( 69-C ,121-H ) :   0.9489

-----------------------------------------------------------------------------
         ABSORPTION SPECTRUM VIA TRANSITION ELECTRIC DIPOLE MOMENTS
-----------------------------------------------------------------------------
State   Energy  Wavelength   fosc         T2         TX        TY        TZ
        (cm-1)    (nm)                  (au**2)     (au)      (au)      (au)
-----------------------------------------------------------------------------
   0    5634.9   1774.7   0.005277022   0.30831  -0.41555  -0.32705   0.16932
   1   14969.1    668.0   0.013519410   0.29733   0.22957   0.49392  -0.02583
   2   16267.2    614.7   1.464448540  29.63713   4.16840   3.09013  -1.64701
   3   21553.7    464.0   0.001236677   0.01889  -0.08739  -0.09093   0.05461
   4   22223.2    450.0   0.166483197   2.46626  -1.29325   0.30202   0.83819
   5   25012.8    399.8   0.109283972   1.43836   0.70777  -0.66629  -0.70248
   6   25652.0    389.8   0.031342641   0.40224   0.12048  -0.57277  -0.24426
   7   25967.4    385.1   0.041948144   0.53181   0.63828  -0.02989  -0.35146
   8   27019.3    370.1   0.079223241   0.96528   0.68793  -0.62599   0.31651
   9   27211.0    367.5   0.141222233   1.70857   0.01935  -1.14989  -0.62125
  10   27504.9    363.6   0.051465511   0.61600  -0.15714   0.62286   0.45095
  11   28422.9    351.8   0.353645894   4.09614  -0.22431   0.44939   1.96058
  12   28779.1    347.5   1.708381509  19.54263   2.95889  -2.75964   1.78100
  13   29383.7    340.3   1.052815935  11.79564   2.55087  -2.02695  -1.08635
  14   30301.7    330.0   0.031411573   0.34127  -0.21179   0.42658   0.33829
  15   31496.0    317.5   0.020352461   0.21273  -0.28266   0.34694  -0.11168
  16   31785.8    314.6   0.088420817   0.91579  -0.35277   0.86197   0.21989
  17   32239.6    310.2   0.186403048   1.90344  -1.02704   0.89568   0.21537
  18   32957.5    303.4   0.056129304   0.56067  -0.01054  -0.49940   0.55782
  19   33131.4    301.8   0.269715023   2.68004   1.22680  -0.84672  -0.67680
  20   33239.0    300.9   0.011790052   0.11677   0.25232  -0.09140  -0.21155
  21   33303.6    300.3   0.098383537   0.97254   0.75230  -0.55258  -0.31818
  22   34215.8    292.3   0.028471447   0.27394   0.31279  -0.32398  -0.26672
  23   35389.8    282.6   0.067994518   0.63252  -0.58248   0.53988   0.04196
  24   35550.0    281.3   0.045067327   0.41735  -0.40623   0.50219   0.01129
  25   35837.5    279.0   0.049310371   0.45298  -0.39228   0.36943  -0.40325
  26   36773.2    271.9   0.065101352   0.58282   0.72407  -0.21104   0.11832
  27   37090.1    269.6   0.124531956   1.10535  -0.29937   0.84846   0.54391
  28   37257.3    268.4   0.029605837   0.26160  -0.33309   0.13428  -0.36417
  29   37874.3    264.0   0.014786013   0.12852   0.32213  -0.02898  -0.15465
  30   37925.7    263.7   0.047855554   0.41541  -0.28809   0.13020   0.56166
  31   37990.4    263.2   0.009780882   0.08476   0.22012   0.12143   0.14683
  32   38113.7    262.4   0.018316239   0.15821  -0.08029   0.33434   0.19995
  33   38227.8    261.6   0.025817716   0.22234  -0.44535  -0.07230   0.13703
  34   38563.8    259.3   0.103874064   0.88675  -0.60618   0.31146   0.64984
  35   38626.2    258.9   0.168092235   1.43265  -0.82569   0.30803   0.80994
  36   38918.7    256.9   0.005358549   0.04533   0.19587   0.05033  -0.06654
  37   39314.9    254.4   0.046198832   0.38686  -0.45861  -0.41559   0.06179
  38   39918.1    250.5   0.124131815   1.02374   0.09540   0.05559   1.00576
  39   39956.0    250.3   0.010128623   0.08345   0.11922  -0.24881  -0.08564
  40   40253.3    248.4   0.000663804   0.00543   0.01032   0.07179   0.01300

FINAL SINGLE POINT ENERGY     -3448.423631505295

DIPOLE MOMENT
-------------
                                X             Y             Z
Electronic contribution:     25.11538       9.52367      26.71636
Nuclear contribution   :    -25.06783      -8.73408     -26.86005
                        -----------------------------------------
Total Dipole Moment    :      0.04756       0.78959      -0.14369
                        -----------------------------------------
Magnitude (a.u.)       :      0.80397
Magnitude (Debye)      :      2.04353

Rotational constants in cm-1:     0.000796     0.000393     0.000349
Rotational constants in MHz :    23.876789    11.777790    10.469495

                             ****ORCA TERMINATED NORMALLY****
TOTAL RUN TIME: 0 days 0 hours 15 minutes 56 seconds 530 msec
