                         Program Version 4.2.0 -  RELEASE  -
|  1> # ORCA input file
|  2> # SCF done       -106.983686153568          0.000845273810
|  3> ! CAM-B3LYP def2-SVP def2/J RIJCOSX Grid4 TightSCF
|  4> %maxcore 5000
|  5> %tddft
|  6>     Mode sTDDFT
|  7>     Ethresh 5.0
|  8>     maxcore 5000
|  9> end
| 10>
| 11> %pal
| 12>   nprocs 6
| 13>   end
| 14> * xyz 0 1
| 15>    C        5.09727         2.67278        -2.26752
| 16>    C        4.78297         1.32769        -2.29156
| 17>    C        3.66716         0.86969        -1.58196
| 18>    C        2.93340         1.84027        -0.88460
| 19>    N        3.22968         3.12266        -0.85980
| 20>    C        4.28973         3.53333        -1.53663
| 21>    C        3.23794        -0.50902        -1.53453
| 22>    C        3.87956        -1.55697        -2.08433
| 23>    C        3.42916        -2.91066        -2.02906
| 24>    S        4.39318        -4.15406        -2.77588
| 25>    C        3.24486        -5.38030        -2.31675
| 26>    C        2.18906        -4.83082        -1.62050
| 27>    C        2.29376        -3.44931        -1.46056
| 28>    C        3.44140        -6.71159        -2.64815
| 29>    C        3.63541        -7.86982        -2.95430
| 30>    C        3.81384        -9.21157        -3.28531
| 31>    C        4.92976        -9.67755        -3.87680
| 32>    C        5.18290       -11.05500        -4.23789
| 33>    C        4.21563       -12.05939        -4.20168
| 34>    C        4.54969       -13.36743        -4.55075
| 35>    C        5.88255       -13.60308        -4.91764
| 36>    N        6.80729       -12.66530        -4.96788
| 37>    C        6.47106       -11.43267        -4.64451
| 38>    C        3.60655       -14.46485        -4.54957
| 39>    C        2.26706       -14.34160        -4.53854
| 40>    C        1.34429       -15.43187        -4.54641
| 41>    S       -0.35671       -15.09972        -4.71829
| 42>    C       -0.73951       -16.79697        -4.63930
| 43>    C        0.40220       -17.55296        -4.48104
| 44>    C        1.56784       -16.78748        -4.43298
| 45>    C       -2.04799       -17.24371        -4.74248
| 46>    C       -3.19904       -17.61204        -4.85315
| 47>    C       -4.50821       -18.07153        -4.98952
| 48>    C       -5.50422       -17.29582        -5.45549
| 49>    C       -6.87731       -17.70996        -5.64395
| 50>    C       -7.73859       -16.92069        -6.40855
| 51>    C       -9.05696       -17.31501        -6.61685
| 52>    C       -9.45789       -18.51048        -6.01018
| 53>    N       -8.66566       -19.26005        -5.26766
| 54>    C       -7.41776       -18.87723        -5.08794
| 55>    C      -10.01211       -16.55959        -7.41744
| 56>    C       -9.72560       -15.54873        -8.22798
| 57>    H        5.95201         3.05003        -2.80796
| 58>    H        5.39402         0.64184        -2.85920
| 59>    H        2.05735         1.55483        -0.31458
| 60>    H        4.49410         4.59463        -1.49000
| 61>    H        2.31621        -0.68000        -0.99468
| 62>    H        4.80992        -1.40764        -2.61515
| 63>    H        1.37420        -5.42495        -1.24622
| 64>    H        1.55781        -2.85953        -0.94486
| 65>    H        2.99360        -9.86831        -3.02412
| 66>    H        5.73162        -8.98248        -4.09172
| 67>    H        3.20653       -11.82862        -3.89590
| 68>    H        6.20817       -14.59735        -5.19617
| 69>    H        7.26697       -10.70060        -4.69690
| 70>    H        4.04854       -15.45089        -4.59556
| 71>    H        1.81351       -13.35939        -4.54917
| 72>    H        0.37701       -18.62578        -4.40725
| 73>    H        2.54732       -17.21279        -4.30930
| 74>    H       -4.67698       -19.10475        -4.71515
| 75>    H       -5.27420       -16.27861        -5.74900
| 76>    H       -7.36873       -16.00033        -6.83749
| 77>    H      -10.46942       -18.87755        -6.13050
| 78>    H       -6.82662       -19.52411        -4.45406
| 79>    H      -11.03709       -16.89886        -7.33208
| 80>    H       -8.72299       -15.18247        -8.36995
| 81>    H      -10.49307       -15.05031        -8.79451
| 82> *
| 83>
| 84>                          ****END OF INPUT****

CARTESIAN COORDINATES (ANGSTROEM)
---------------------------------
  C      5.097270    2.672780   -2.267520
  C      4.782970    1.327690   -2.291560
  C      3.667160    0.869690   -1.581960
  C      2.933400    1.840270   -0.884600
  N      3.229680    3.122660   -0.859800
  C      4.289730    3.533330   -1.536630
  C      3.237940   -0.509020   -1.534530
  C      3.879560   -1.556970   -2.084330
  C      3.429160   -2.910660   -2.029060
  S      4.393180   -4.154060   -2.775880
  C      3.244860   -5.380300   -2.316750
  C      2.189060   -4.830820   -1.620500
  C      2.293760   -3.449310   -1.460560
  C      3.441400   -6.711590   -2.648150
  C      3.635410   -7.869820   -2.954300
  C      3.813840   -9.211570   -3.285310
  C      4.929760   -9.677550   -3.876800
  C      5.182900  -11.055000   -4.237890
  C      4.215630  -12.059390   -4.201680
  C      4.549690  -13.367430   -4.550750
  C      5.882550  -13.603080   -4.917640
  N      6.807290  -12.665300   -4.967880
  C      6.471060  -11.432670   -4.644510
  C      3.606550  -14.464850   -4.549570
  C      2.267060  -14.341600   -4.538540
  C      1.344290  -15.431870   -4.546410
  S     -0.356710  -15.099720   -4.718290
  C     -0.739510  -16.796970   -4.639300
  C      0.402200  -17.552960   -4.481040
  C      1.567840  -16.787480   -4.432980
  C     -2.047990  -17.243710   -4.742480
  C     -3.199040  -17.612040   -4.853150
  C     -4.508210  -18.071530   -4.989520
  C     -5.504220  -17.295820   -5.455490
  C     -6.877310  -17.709960   -5.643950
  C     -7.738590  -16.920690   -6.408550
  C     -9.056960  -17.315010   -6.616850
  C     -9.457890  -18.510480   -6.010180
  N     -8.665660  -19.260050   -5.267660
  C     -7.417760  -18.877230   -5.087940
  C    -10.012110  -16.559590   -7.417440
  C     -9.725600  -15.548730   -8.227980
  H      5.952010    3.050030   -2.807960
  H      5.394020    0.641840   -2.859200
  H      2.057350    1.554830   -0.314580
  H      4.494100    4.594630   -1.490000
  H      2.316210   -0.680000   -0.994680
  H      4.809920   -1.407640   -2.615150
  H      1.374200   -5.424950   -1.246220
  H      1.557810   -2.859530   -0.944860
  H      2.993600   -9.868310   -3.024120
  H      5.731620   -8.982480   -4.091720
  H      3.206530  -11.828620   -3.895900
  H      6.208170  -14.597350   -5.196170
  H      7.266970  -10.700600   -4.696900
  H      4.048540  -15.450890   -4.595560
  H      1.813510  -13.359390   -4.549170
  H      0.377010  -18.625780   -4.407250
  H      2.547320  -17.212790   -4.309300
  H     -4.676980  -19.104750   -4.715150
  H     -5.274200  -16.278610   -5.749000
  H     -7.368730  -16.000330   -6.837490
  H    -10.469420  -18.877550   -6.130500
  H     -6.826620  -19.524110   -4.454060
  H    -11.037090  -16.898860   -7.332080
  H     -8.722990  -15.182470   -8.369950
  H    -10.493070  -15.050310   -8.794510

 Total Charge           Charge          ....    0
 Multiplicity           Mult            ....    1
 Number of Electrons    NEL             ....  300
 Basis Dimension        Dim             ....  721

ORBITAL ENERGIES
----------------

  NO   OCC          E(Eh)            E(eV)
   0   2.0000     -88.957888     -2420.6672
   1   2.0000     -88.957319     -2420.6517
   2   2.0000     -14.399899      -391.8412
   3   2.0000     -14.398158      -391.7938
   4   2.0000     -14.396239      -391.7416
   5   2.0000     -10.312734      -280.6238
   6   2.0000     -10.311867      -280.6002
   7   2.0000     -10.304325      -280.3949
   8   2.0000     -10.303985      -280.3857
   9   2.0000     -10.301229      -280.3107
  10   2.0000     -10.301098      -280.3071
  11   2.0000     -10.300475      -280.2902
  12   2.0000     -10.298526      -280.2371
  13   2.0000     -10.298335      -280.2319
  14   2.0000     -10.297671      -280.2139
  15   2.0000     -10.293590      -280.1028
  16   2.0000     -10.292208      -280.0652
  17   2.0000     -10.288169      -279.9553
  18   2.0000     -10.288095      -279.9533
  19   2.0000     -10.287130      -279.9271
  20   2.0000     -10.286926      -279.9215
  21   2.0000     -10.286334      -279.9054
  22   2.0000     -10.286231      -279.9026
  23   2.0000     -10.285758      -279.8897
  24   2.0000     -10.285730      -279.8890
  25   2.0000     -10.285520      -279.8832
  26   2.0000     -10.285315      -279.8777
  27   2.0000     -10.284213      -279.8477
  28   2.0000     -10.282481      -279.8005
  29   2.0000     -10.282308      -279.7958
  30   2.0000     -10.281024      -279.7609
  31   2.0000     -10.278798      -279.7003
  32   2.0000     -10.278637      -279.6959
  33   2.0000     -10.276961      -279.6503
  34   2.0000     -10.276344      -279.6335
  35   2.0000     -10.275156      -279.6012
  36   2.0000     -10.275039      -279.5980
  37   2.0000     -10.274774      -279.5908
  38   2.0000     -10.274250      -279.5766
  39   2.0000     -10.272385      -279.5258
  40   2.0000     -10.272317      -279.5239
  41   2.0000     -10.268135      -279.4102
  42   2.0000      -8.053716      -219.1528
  43   2.0000      -8.053094      -219.1358
  44   2.0000      -6.022900      -163.8914
  45   2.0000      -6.022288      -163.8748
  46   2.0000      -6.018879      -163.7820
  47   2.0000      -6.018265      -163.7653
  48   2.0000      -6.015866      -163.7000
  49   2.0000      -6.015244      -163.6831
  50   2.0000      -1.035233       -28.1701
  51   2.0000      -1.033243       -28.1160
  52   2.0000      -1.031077       -28.0570
  53   2.0000      -0.985837       -26.8260
  54   2.0000      -0.985218       -26.8091
  55   2.0000      -0.926362       -25.2076
  56   2.0000      -0.922505       -25.1026
  57   2.0000      -0.918113       -24.9831
  58   2.0000      -0.914326       -24.8801
  59   2.0000      -0.906316       -24.6621
  60   2.0000      -0.884896       -24.0792
  61   2.0000      -0.879308       -23.9272
  62   2.0000      -0.869568       -23.6622
  63   2.0000      -0.861012       -23.4293
  64   2.0000      -0.853031       -23.2121
  65   2.0000      -0.836511       -22.7626
  66   2.0000      -0.834456       -22.7067
  67   2.0000      -0.827084       -22.5061
  68   2.0000      -0.821925       -22.3657
  69   2.0000      -0.819548       -22.3010
  70   2.0000      -0.786435       -21.4000
  71   2.0000      -0.785706       -21.3801
  72   2.0000      -0.745717       -20.2920
  73   2.0000      -0.743037       -20.2191
  74   2.0000      -0.733876       -19.9698
  75   2.0000      -0.729677       -19.8555
  76   2.0000      -0.723825       -19.6963
  77   2.0000      -0.711722       -19.3669
  78   2.0000      -0.691071       -18.8050
  79   2.0000      -0.682779       -18.5794
  80   2.0000      -0.674420       -18.3519
  81   2.0000      -0.672694       -18.3049
  82   2.0000      -0.669193       -18.2097
  83   2.0000      -0.655177       -17.8283
  84   2.0000      -0.635221       -17.2852
  85   2.0000      -0.622537       -16.9401
  86   2.0000      -0.619072       -16.8458
  87   2.0000      -0.612302       -16.6616
  88   2.0000      -0.608549       -16.5594
  89   2.0000      -0.607646       -16.5349
  90   2.0000      -0.605197       -16.4683
  91   2.0000      -0.600304       -16.3351
  92   2.0000      -0.593476       -16.1493
  93   2.0000      -0.582169       -15.8416
  94   2.0000      -0.566553       -15.4167
  95   2.0000      -0.561942       -15.2912
  96   2.0000      -0.560041       -15.2395
  97   2.0000      -0.554339       -15.0843
  98   2.0000      -0.551206       -14.9991
  99   2.0000      -0.547120       -14.8879
 100   2.0000      -0.527400       -14.3513
 101   2.0000      -0.520285       -14.1577
 102   2.0000      -0.518866       -14.1191
 103   2.0000      -0.509027       -13.8513
 104   2.0000      -0.505987       -13.7686
 105   2.0000      -0.504850       -13.7377
 106   2.0000      -0.497418       -13.5354
 107   2.0000      -0.494901       -13.4669
 108   2.0000      -0.493019       -13.4157
 109   2.0000      -0.490935       -13.3590
 110   2.0000      -0.489879       -13.3303
 111   2.0000      -0.486762       -13.2455
 112   2.0000      -0.484525       -13.1846
 113   2.0000      -0.482394       -13.1266
 114   2.0000      -0.480403       -13.0724
 115   2.0000      -0.478110       -13.0100
 116   2.0000      -0.477866       -13.0034
 117   2.0000      -0.477401       -12.9907
 118   2.0000      -0.469963       -12.7883
 119   2.0000      -0.466216       -12.6864
 120   2.0000      -0.457601       -12.4520
 121   2.0000      -0.451077       -12.2744
 122   2.0000      -0.449713       -12.2373
 123   2.0000      -0.435976       -11.8635
 124   2.0000      -0.434330       -11.8187
 125   2.0000      -0.432163       -11.7598
 126   2.0000      -0.432011       -11.7556
 127   2.0000      -0.427719       -11.6388
 128   2.0000      -0.421621       -11.4729
 129   2.0000      -0.420966       -11.4551
 130   2.0000      -0.410518       -11.1708
 131   2.0000      -0.405463       -11.0332
 132   2.0000      -0.393502       -10.7077
 133   2.0000      -0.377827       -10.2812
 134   2.0000      -0.377077       -10.2608
 135   2.0000      -0.352183        -9.5834
 136   2.0000      -0.347711        -9.4617
 137   2.0000      -0.343870        -9.3572
 138   2.0000      -0.339716        -9.2441
 139   2.0000      -0.333343        -9.0707
 140   2.0000      -0.326037        -8.8719
 141   2.0000      -0.325501        -8.8573
 142   2.0000      -0.323749        -8.8096
 143   2.0000      -0.322041        -8.7632
 144   2.0000      -0.321153        -8.7390
 145   2.0000      -0.308558        -8.3963
 146   2.0000      -0.295744        -8.0476
 147   2.0000      -0.288300        -7.8450
 148   2.0000      -0.247697        -6.7402
 149   2.0000      -0.243322        -6.6211
 150   0.0000      -0.054173        -1.4741
 151   0.0000      -0.052876        -1.4388
 152   0.0000      -0.019337        -0.5262
 153   0.0000      -0.018558        -0.5050
 154   0.0000      -0.007554        -0.2056

MULLIKEN ATOMIC CHARGES
-----------------------
   0 C :    0.013172
   1 C :    0.022191
   2 C :    0.051085
   3 C :   -0.020359
   4 N :   -0.061898
   5 C :    0.019993
   6 C :    0.000587
   7 C :    0.087435
   8 C :   -0.082900
   9 S :    0.153365
  10 C :   -0.153826
  11 C :    0.057422
  12 C :   -0.001177
  13 C :    0.058578
  14 C :   -0.028952
  15 C :   -0.066334
  16 C :    0.012899
  17 C :    0.063732
  18 C :   -0.013183
  19 C :    0.076202
  20 C :   -0.025655
  21 N :   -0.045613
  22 C :   -0.022243
  23 C :   -0.009166
  24 C :    0.083426
  25 C :   -0.082227
  26 S :    0.152620
  27 C :   -0.151574
  28 C :    0.055953
  29 C :    0.000368
  30 C :    0.056634
  31 C :   -0.031593
  32 C :   -0.063916
  33 C :    0.012058
  34 C :    0.057411
  35 C :   -0.015312
  36 C :    0.060483
  37 C :   -0.020732
  38 N :   -0.051274
  39 C :   -0.014223
  40 C :    0.005242
  41 C :   -0.014637
  42 H :   -0.007092
  43 H :   -0.011290
  44 H :   -0.007437
  45 H :    0.004290
  46 H :   -0.019533
  47 H :   -0.022205
  48 H :   -0.012027
  49 H :   -0.014563
  50 H :    0.024729
  51 H :   -0.001697
  52 H :   -0.021183
  53 H :   -0.005773
  54 H :   -0.003429
  55 H :   -0.014286
  56 H :   -0.017567
  57 H :   -0.009398
  58 H :   -0.014576
  59 H :    0.029885
  60 H :   -0.003302
  61 H :   -0.022396
  62 H :   -0.006120
  63 H :   -0.003752
  64 H :   -0.007865
  65 H :    0.015381
  66 H :    0.027148
Sum of atomic charges:   -0.0000000

LOEWDIN ATOMIC CHARGES
----------------------
   0 C :   -0.041817
   1 C :    0.011169
   2 C :   -0.048144
   3 C :    0.018204
   4 N :   -0.068823
   5 C :    0.016592
   6 C :   -0.013060
   7 C :   -0.037869
   8 C :   -0.165485
   9 S :    0.447712
  10 C :   -0.191851
  11 C :   -0.032201
  12 C :   -0.057022
  13 C :   -0.056408
  14 C :   -0.029213
  15 C :   -0.038001
  16 C :    0.002564
  17 C :   -0.047429
  18 C :    0.017829
  19 C :   -0.043957
  20 C :    0.019376
  21 N :   -0.062537
  22 C :    0.020245
  23 C :   -0.014632
  24 C :   -0.035843
  25 C :   -0.167808
  26 S :    0.447184
  27 C :   -0.189923
  28 C :   -0.032953
  29 C :   -0.055667
  30 C :   -0.058591
  31 C :   -0.027082
  32 C :   -0.036482
  33 C :    0.003139
  34 C :   -0.048272
  35 C :    0.018425
  36 C :   -0.046829
  37 C :    0.018339
  38 N :   -0.063655
  39 C :    0.024841
  40 C :   -0.019603
  41 C :   -0.036955
  42 H :    0.032122
  43 H :    0.028677
  44 H :    0.018617
  45 H :    0.021040
  46 H :    0.028687
  47 H :    0.024880
  48 H :    0.034735
  49 H :    0.029477
  50 H :    0.040668
  51 H :    0.035695
  52 H :    0.025265
  53 H :    0.019559
  54 H :    0.020458
  55 H :    0.029421
  56 H :    0.025749
  57 H :    0.035401
  58 H :    0.029579
  59 H :    0.042988
  60 H :    0.033812
  61 H :    0.027900
  62 H :    0.019668
  63 H :    0.018807
  64 H :    0.030906
  65 H :    0.020464
  66 H :    0.027920

  Mayer bond orders larger than 0.100000
B(  0-C ,  1-C ) :   1.4434 B(  0-C ,  5-C ) :   1.3659 B(  0-C , 42-H ) :   0.9728
B(  1-C ,  2-C ) :   1.3692 B(  1-C , 43-H ) :   0.9832 B(  2-C ,  3-C ) :   1.3173
B(  2-C ,  6-C ) :   1.0735 B(  3-C ,  4-N ) :   1.5751 B(  3-C , 44-H ) :   0.9874
B(  4-N ,  5-C ) :   1.5450 B(  5-C , 45-H ) :   0.9818 B(  6-C ,  7-C ) :   1.7311
B(  6-C , 46-H ) :   0.9811 B(  7-C ,  8-C ) :   1.1013 B(  7-C , 47-H ) :   0.9525
B(  8-C ,  9-S ) :   1.1291 B(  8-C , 10-C ) :   0.1029 B(  8-C , 12-C ) :   1.5025
B(  9-S , 10-C ) :   1.1080 B( 10-C , 11-C ) :   1.4982 B( 10-C , 13-C ) :   0.9786
B( 11-C , 12-C ) :   1.2782 B( 11-C , 48-H ) :   1.0005 B( 12-C , 49-H ) :   0.9916
B( 13-C , 14-C ) :   2.2976 B( 14-C , 15-C ) :   1.0016 B( 15-C , 16-C ) :   1.7430
B( 15-C , 50-H ) :   0.9486 B( 16-C , 17-C ) :   1.0543 B( 16-C , 51-H ) :   0.9828
B( 17-C , 18-C ) :   1.3803 B( 17-C , 22-C ) :   1.3094 B( 18-C , 19-C ) :   1.3852
B( 18-C , 52-H ) :   0.9765 B( 19-C , 20-C ) :   1.3050 B( 19-C , 23-C ) :   1.0529
B( 20-C , 21-N ) :   1.5682 B( 20-C , 53-H ) :   0.9884 B( 21-N , 22-C ) :   1.5662
B( 22-C , 54-H ) :   0.9889 B( 23-C , 24-C ) :   1.7434 B( 23-C , 55-H ) :   0.9790
B( 24-C , 25-C ) :   1.0951 B( 24-C , 56-H ) :   0.9545 B( 25-C , 26-S ) :   1.1264
B( 25-C , 27-C ) :   0.1031 B( 25-C , 29-C ) :   1.5066 B( 26-S , 27-C ) :   1.1097
B( 27-C , 28-C ) :   1.5002 B( 27-C , 30-C ) :   0.9767 B( 28-C , 29-C ) :   1.2748
B( 28-C , 57-H ) :   1.0012 B( 29-C , 58-H ) :   0.9918 B( 30-C , 31-C ) :   2.3052
B( 31-C , 32-C ) :   1.0032 B( 32-C , 33-C ) :   1.7474 B( 32-C , 59-H ) :   0.9496
B( 33-C , 34-C ) :   1.0538 B( 33-C , 60-H ) :   0.9819 B( 34-C , 35-C ) :   1.3801
B( 34-C , 39-C ) :   1.3154 B( 35-C , 36-C ) :   1.3709 B( 35-C , 61-H ) :   0.9904
B( 36-C , 37-C ) :   1.3329 B( 36-C , 40-C ) :   1.0486 B( 37-C , 38-N ) :   1.5509
B( 37-C , 62-H ) :   0.9878 B( 38-N , 39-C ) :   1.5812 B( 39-C , 63-H ) :   0.9826
B( 40-C , 41-C ) :   1.9625 B( 40-C , 64-H ) :   0.9673 B( 41-C , 65-H ) :   0.9517
B( 41-C , 66-H ) :   0.9501

-----------------------------------------------------------------------------
         ABSORPTION SPECTRUM VIA TRANSITION ELECTRIC DIPOLE MOMENTS
-----------------------------------------------------------------------------
State   Energy  Wavelength   fosc         T2         TX        TY        TZ
        (cm-1)    (nm)                  (au**2)     (au)      (au)      (au)
-----------------------------------------------------------------------------
   0   25656.4    389.8   2.452015745  31.46324   2.14723   5.04720   1.17406
   1   27406.8    364.9   1.436333489  17.25328   3.88599  -1.45933  -0.15065
   2   29592.4    337.9   0.063226070   0.70338  -0.57118  -0.59094  -0.16713
   3   31244.4    320.1   0.013022250   0.13721  -0.22615  -0.27728   0.09582
   4   33946.0    294.6   0.099703104   0.96693   0.96651  -0.05712  -0.17185
   5   34592.7    289.1   0.035054230   0.33360   0.07043   0.47424  -0.32209
   6   36218.7    276.1   0.062798451   0.57081  -0.48298   0.47379  -0.33624
   7   37297.2    268.1   0.026949325   0.23787  -0.43641   0.16342   0.14394
   8   38355.1    260.7   0.116642236   1.00117   0.71970   0.60657  -0.33951
   9   38625.6    258.9   0.013029141   0.11105   0.06544   0.27989  -0.16861
  10   39767.4    251.5   0.041834686   0.34633  -0.55687   0.06756   0.17793

FINAL SINGLE POINT ENERGY     -2383.131254331659

DIPOLE MOMENT
-------------
                                X             Y             Z
Electronic contribution:     15.35909      -0.78494       4.86990
Nuclear contribution   :    -15.46559       1.06100      -5.36310
                        -----------------------------------------
Total Dipole Moment    :     -0.10649       0.27605      -0.49320
                        -----------------------------------------
Magnitude (a.u.)       :      0.57514
Magnitude (Debye)      :      1.46190

Rotational constants in cm-1:     0.002305     0.000425     0.000364
Rotational constants in MHz :    69.105520    12.750823    10.917253

                             ****ORCA TERMINATED NORMALLY****
TOTAL RUN TIME: 0 days 0 hours 2 minutes 41 seconds 225 msec
