                         Program Version 4.2.0 -  RELEASE  -
|  1> # ORCA input file
|  2> # SCF done       -173.672485928477          0.000660319258
|  3> ! CAM-B3LYP def2-SVP def2/J RIJCOSX Grid4 TightSCF
|  4> %maxcore 5000
|  5> %tddft
|  6>     Mode sTDDFT
|  7>     Ethresh 5.0
|  8>     maxcore 5000
|  9> end
| 10>
| 11> %pal
| 12>   nprocs 6
| 13>   end
| 14> * xyz 0 1
| 15>    C       -3.07273         6.85146         9.09214
| 16>    C       -4.25962         7.68485         9.17142
| 17>    N       -4.97817         7.70207         8.07851
| 18>    C       -4.32918         6.88419         7.20939
| 19>    C       -3.11528         6.31663         7.84534
| 20>    C       -2.41112         5.48374         6.89051
| 21>    S       -0.92755         4.80428         7.09641
| 22>    C       -3.22152         5.51578         5.71210
| 23>    C       -4.37343         6.41736         5.92385
| 24>    N       -5.09601         6.54656         4.77656
| 25>    C       -4.46798         5.84872         3.87844
| 26>    C       -3.27428         5.15631         4.37633
| 27>    C       -2.45037         4.26881         3.63230
| 28>    C       -2.22933         4.40857         2.23855
| 29>    C       -1.34345         3.54366         1.52771
| 30>    N       -1.14186         3.74955         0.21445
| 31>    C       -1.75254         4.72602        -0.38416
| 32>    C       -2.62219         5.58556         0.32261
| 33>    N       -2.83861         5.42311         1.58971
| 34>    F       -3.24819         6.58928        -0.28644
| 35>    F       -1.52363         4.88569        -1.68654
| 36>    C       -0.63588         2.45458         2.15112
| 37>    C       -0.93677         2.26668         3.53177
| 38>    C       -1.81038         3.17092         4.24576
| 39>    N       -1.99375         2.79530         5.51150
| 40>    S       -1.16085         1.45499         5.79212
| 41>    N       -0.52020         1.28267         4.31899
| 42>    C        0.24096         1.73484         1.33559
| 43>    C        1.11266         0.67985         1.56616
| 44>    C        1.42636        -0.08329         2.70216
| 45>    C        2.38458        -1.03906         2.48322
| 46>    C        2.86900        -1.07235         1.16560
| 47>    S        2.07812         0.13332         0.20073
| 48>    C        3.85257        -1.91917         0.64136
| 49>    C        4.55305        -2.92469         1.32450
| 50>    C        5.46834        -3.56450         0.53402
| 51>    C        5.52700        -3.08981        -0.79451
| 52>    S        4.36280        -1.81033        -1.02175
| 53>    C        6.42909        -3.60201        -1.71522
| 54>    C        6.69610        -3.27815        -3.04368
| 55>    C        7.75598        -3.97626        -3.71651
| 56>    C        8.12454        -3.69938        -5.06797
| 57>    N        9.14787        -4.37764        -5.62886
| 58>    C        9.76608        -5.27982        -4.93339
| 59>    C        9.39395        -5.55938        -3.60012
| 60>    N        8.42186        -4.91727        -3.02604
| 61>    F       10.02598        -6.48589        -2.88116
| 62>    F       10.76530        -5.93337        -5.52117
| 63>    C        7.48110        -2.68858        -5.83029
| 64>    C        6.41202        -2.02263        -5.19160
| 65>    C        6.01751        -2.31381        -3.83502
| 66>    N        4.95772        -1.60740        -3.46979
| 67>    S        4.47779        -0.67818        -4.70491
| 68>    N        5.60414        -1.12463        -5.75714
| 69>    C        7.86634        -2.36487        -7.15938
| 70>    C        8.41450        -3.29630        -8.15197
| 71>    N        8.60510        -2.77610        -9.32703
| 72>    C        8.24381        -1.46693        -9.22019
| 73>    C        7.74737        -1.17604        -7.85855
| 74>    C        7.48219         0.22363        -7.73136
| 75>    S        7.13818         1.08066        -6.37039
| 76>    C        7.73871         0.76965        -9.04926
| 77>    C        8.22019        -0.30854        -9.94775
| 78>    N        8.50242         0.19426       -11.17785
| 79>    C        8.24006         1.47314       -11.09710
| 80>    C        7.77064         1.90508        -9.79180
| 81>    H       -2.35254         6.71491         9.87451
| 82>    H       -4.56427         8.25479        10.03185
| 83>    H       -4.84010         5.78016         2.87284
| 84>    H        0.24563         2.10289         0.31575
| 85>    H        0.93517         0.09227         3.64095
| 86>    H        2.74411        -1.70848         3.24350
| 87>    H        4.38157        -3.15874         2.35941
| 88>    H        6.10699        -4.36117         0.87220
| 89>    H        7.06501        -4.39135        -1.33101
| 90>    H        8.62282        -4.33418        -7.96782
| 91>    H        8.37438         2.11120       -11.95313
| 92>    H        7.51192         2.91015        -9.52230
| 93> *
| 94>
| 95>                          ****END OF INPUT****

CARTESIAN COORDINATES (ANGSTROEM)
---------------------------------
  C     -3.072730    6.851460    9.092140
  C     -4.259620    7.684850    9.171420
  N     -4.978170    7.702070    8.078510
  C     -4.329180    6.884190    7.209390
  C     -3.115280    6.316630    7.845340
  C     -2.411120    5.483740    6.890510
  S     -0.927550    4.804280    7.096410
  C     -3.221520    5.515780    5.712100
  C     -4.373430    6.417360    5.923850
  N     -5.096010    6.546560    4.776560
  C     -4.467980    5.848720    3.878440
  C     -3.274280    5.156310    4.376330
  C     -2.450370    4.268810    3.632300
  C     -2.229330    4.408570    2.238550
  C     -1.343450    3.543660    1.527710
  N     -1.141860    3.749550    0.214450
  C     -1.752540    4.726020   -0.384160
  C     -2.622190    5.585560    0.322610
  N     -2.838610    5.423110    1.589710
  F     -3.248190    6.589280   -0.286440
  F     -1.523630    4.885690   -1.686540
  C     -0.635880    2.454580    2.151120
  C     -0.936770    2.266680    3.531770
  C     -1.810380    3.170920    4.245760
  N     -1.993750    2.795300    5.511500
  S     -1.160850    1.454990    5.792120
  N     -0.520200    1.282670    4.318990
  C      0.240960    1.734840    1.335590
  C      1.112660    0.679850    1.566160
  C      1.426360   -0.083290    2.702160
  C      2.384580   -1.039060    2.483220
  C      2.869000   -1.072350    1.165600
  S      2.078120    0.133320    0.200730
  C      3.852570   -1.919170    0.641360
  C      4.553050   -2.924690    1.324500
  C      5.468340   -3.564500    0.534020
  C      5.527000   -3.089810   -0.794510
  S      4.362800   -1.810330   -1.021750
  C      6.429090   -3.602010   -1.715220
  C      6.696100   -3.278150   -3.043680
  C      7.755980   -3.976260   -3.716510
  C      8.124540   -3.699380   -5.067970
  N      9.147870   -4.377640   -5.628860
  C      9.766080   -5.279820   -4.933390
  C      9.393950   -5.559380   -3.600120
  N      8.421860   -4.917270   -3.026040
  F     10.025980   -6.485890   -2.881160
  F     10.765300   -5.933370   -5.521170
  C      7.481100   -2.688580   -5.830290
  C      6.412020   -2.022630   -5.191600
  C      6.017510   -2.313810   -3.835020
  N      4.957720   -1.607400   -3.469790
  S      4.477790   -0.678180   -4.704910
  N      5.604140   -1.124630   -5.757140
  C      7.866340   -2.364870   -7.159380
  C      8.414500   -3.296300   -8.151970
  N      8.605100   -2.776100   -9.327030
  C      8.243810   -1.466930   -9.220190
  C      7.747370   -1.176040   -7.858550
  C      7.482190    0.223630   -7.731360
  S      7.138180    1.080660   -6.370390
  C      7.738710    0.769650   -9.049260
  C      8.220190   -0.308540   -9.947750
  N      8.502420    0.194260  -11.177850
  C      8.240060    1.473140  -11.097100
  C      7.770640    1.905080   -9.791800
  H     -2.352540    6.714910    9.874510
  H     -4.564270    8.254790   10.031850
  H     -4.840100    5.780160    2.872840
  H      0.245630    2.102890    0.315750
  H      0.935170    0.092270    3.640950
  H      2.744110   -1.708480    3.243500
  H      4.381570   -3.158740    2.359410
  H      6.106990   -4.361170    0.872200
  H      7.065010   -4.391350   -1.331010
  H      8.622820   -4.334180   -7.967820
  H      8.374380    2.111200  -11.953130
  H      7.511920    2.910150   -9.522300

 Total Charge           Charge          ....    0
 Multiplicity           Mult            ....    1
 Number of Electrons    NEL             ....  492
 Basis Dimension        Dim             .... 1008

ORBITAL ENERGIES
----------------

  NO   OCC          E(Eh)            E(eV)
   0   2.0000     -89.036686     -2422.8114
   1   2.0000     -89.033415     -2422.7224
   2   2.0000     -88.966249     -2420.8947
   3   2.0000     -88.966169     -2420.8925
   4   2.0000     -88.890607     -2418.8364
   5   2.0000     -88.887505     -2418.7520
   6   2.0000     -24.815725      -675.2702
   7   2.0000     -24.813935      -675.2215
   8   2.0000     -24.813790      -675.2176
   9   2.0000     -24.812515      -675.1829
  10   2.0000     -14.456854      -393.3910
  11   2.0000     -14.455880      -393.3645
  12   2.0000     -14.454827      -393.3359
  13   2.0000     -14.452831      -393.2815
  14   2.0000     -14.449899      -393.2018
  15   2.0000     -14.448334      -393.1592
  16   2.0000     -14.446452      -393.1080
  17   2.0000     -14.442688      -393.0055
  18   2.0000     -14.407549      -392.0493
  19   2.0000     -14.404863      -391.9763
  20   2.0000     -14.402790      -391.9198
  21   2.0000     -14.399891      -391.8409
  22   2.0000     -10.431517      -283.8560
  23   2.0000     -10.429581      -283.8033
  24   2.0000     -10.428689      -283.7790
  25   2.0000     -10.426444      -283.7180
  26   2.0000     -10.349332      -281.6196
  27   2.0000     -10.348301      -281.5916
  28   2.0000     -10.347680      -281.5747
  29   2.0000     -10.345751      -281.5222
  30   2.0000     -10.342005      -281.4203
  31   2.0000     -10.339074      -281.3405
  32   2.0000     -10.334809      -281.2245
  33   2.0000     -10.333366      -281.1852
  34   2.0000     -10.331985      -281.1476
  35   2.0000     -10.331848      -281.1439
  36   2.0000     -10.331309      -281.1292
  37   2.0000     -10.330778      -281.1147
  38   2.0000     -10.327984      -281.0387
  39   2.0000     -10.327670      -281.0302
  40   2.0000     -10.327007      -281.0121
  41   2.0000     -10.325313      -280.9660
  42   2.0000     -10.324674      -280.9487
  43   2.0000     -10.324034      -280.9312
  44   2.0000     -10.323967      -280.9294
  45   2.0000     -10.321406      -280.8597
  46   2.0000     -10.321125      -280.8521
  47   2.0000     -10.319973      -280.8207
  48   2.0000     -10.317964      -280.7661
  49   2.0000     -10.316626      -280.7297
  50   2.0000     -10.308742      -280.5151
  51   2.0000     -10.305748      -280.4337
  52   2.0000     -10.304205      -280.3917
  53   2.0000     -10.303951      -280.3847
  54   2.0000     -10.303791      -280.3804
  55   2.0000     -10.301781      -280.3257
  56   2.0000     -10.301196      -280.3098
  57   2.0000     -10.301067      -280.3063
  58   2.0000     -10.300662      -280.2952
  59   2.0000     -10.292790      -280.0811
  60   2.0000     -10.290480      -280.0182
  61   2.0000     -10.289954      -280.0039
  62   2.0000     -10.289313      -279.9864
  63   2.0000     -10.287298      -279.9316
  64   2.0000     -10.286350      -279.9058
  65   2.0000     -10.283265      -279.8219
  66   2.0000      -8.127993      -221.1739
  67   2.0000      -8.124683      -221.0839
  68   2.0000      -8.062710      -219.3975
  69   2.0000      -8.060479      -219.3368
  70   2.0000      -7.986338      -217.3193
  71   2.0000      -7.983190      -217.2336
  72   2.0000      -6.099160      -165.9666
  73   2.0000      -6.095897      -165.8778
  74   2.0000      -6.091470      -165.7573
  75   2.0000      -6.090494      -165.7308
  76   2.0000      -6.088263      -165.6701
  77   2.0000      -6.087011      -165.6360
  78   2.0000      -6.032219      -164.1450
  79   2.0000      -6.030212      -164.0904
  80   2.0000      -6.028132      -164.0338
  81   2.0000      -6.025737      -163.9686
  82   2.0000      -6.024045      -163.9226
  83   2.0000      -6.021843      -163.8627
  84   2.0000      -5.955196      -162.0491
  85   2.0000      -5.954933      -162.0420
  86   2.0000      -5.952059      -161.9638
  87   2.0000      -5.951774      -161.9560
  88   2.0000      -5.945522      -161.7859
  89   2.0000      -5.942376      -161.7003
  90   2.0000      -1.342759       -36.5383
  91   2.0000      -1.341155       -36.4947
  92   2.0000      -1.328684       -36.1553
  93   2.0000      -1.327088       -36.1119
  94   2.0000      -1.135404       -30.8959
  95   2.0000      -1.132661       -30.8213
  96   2.0000      -1.115114       -30.3438
  97   2.0000      -1.113144       -30.2902
  98   2.0000      -1.075968       -29.2786
  99   2.0000      -1.072908       -29.1953
 100   2.0000      -1.055672       -28.7263
 101   2.0000      -1.052664       -28.6444
 102   2.0000      -1.038737       -28.2655
 103   2.0000      -1.036952       -28.2169
 104   2.0000      -1.014987       -27.6192
 105   2.0000      -0.996926       -27.1277
 106   2.0000      -0.991015       -26.9669
 107   2.0000      -0.986354       -26.8401
 108   2.0000      -0.972308       -26.4578
 109   2.0000      -0.970089       -26.3975
 110   2.0000      -0.953875       -25.9563
 111   2.0000      -0.950682       -25.8694
 112   2.0000      -0.917028       -24.9536
 113   2.0000      -0.908815       -24.7301
 114   2.0000      -0.889639       -24.2083
 115   2.0000      -0.883175       -24.0324
 116   2.0000      -0.881187       -23.9783
 117   2.0000      -0.871629       -23.7182
 118   2.0000      -0.862317       -23.4648
 119   2.0000      -0.860803       -23.4236
 120   2.0000      -0.857777       -23.3413
 121   2.0000      -0.851382       -23.1673
 122   2.0000      -0.843906       -22.9639
 123   2.0000      -0.836876       -22.7726
 124   2.0000      -0.833350       -22.6766
 125   2.0000      -0.823754       -22.4155
 126   2.0000      -0.811943       -22.0941
 127   2.0000      -0.809868       -22.0376
 128   2.0000      -0.796436       -21.6721
 129   2.0000      -0.776125       -21.1194
 130   2.0000      -0.768324       -20.9072
 131   2.0000      -0.764876       -20.8133
 132   2.0000      -0.763199       -20.7677
 133   2.0000      -0.757932       -20.6244
 134   2.0000      -0.748193       -20.3594
 135   2.0000      -0.739930       -20.1345
 136   2.0000      -0.732715       -19.9382
 137   2.0000      -0.728872       -19.8336
 138   2.0000      -0.712438       -19.3864
 139   2.0000      -0.703029       -19.1304
 140   2.0000      -0.695284       -18.9196
 141   2.0000      -0.694017       -18.8852
 142   2.0000      -0.682484       -18.5713
 143   2.0000      -0.681429       -18.5426
 144   2.0000      -0.679539       -18.4912
 145   2.0000      -0.674343       -18.3498
 146   2.0000      -0.671882       -18.2828
 147   2.0000      -0.664136       -18.0721
 148   2.0000      -0.661310       -17.9952
 149   2.0000      -0.649580       -17.6760
 150   2.0000      -0.641846       -17.4655
 151   2.0000      -0.639874       -17.4119
 152   2.0000      -0.636606       -17.3229
 153   2.0000      -0.636538       -17.3211
 154   2.0000      -0.629343       -17.1253
 155   2.0000      -0.621434       -16.9101
 156   2.0000      -0.620292       -16.8790
 157   2.0000      -0.618589       -16.8326
 158   2.0000      -0.618084       -16.8189
 159   2.0000      -0.617761       -16.8101
 160   2.0000      -0.616510       -16.7761
 161   2.0000      -0.601257       -16.3610
 162   2.0000      -0.594537       -16.1782
 163   2.0000      -0.590651       -16.0724
 164   2.0000      -0.588888       -16.0245
 165   2.0000      -0.573841       -15.6150
 166   2.0000      -0.570206       -15.5161
 167   2.0000      -0.568746       -15.4764
 168   2.0000      -0.564967       -15.3735
 169   2.0000      -0.563654       -15.3378
 170   2.0000      -0.561982       -15.2923
 171   2.0000      -0.560584       -15.2543
 172   2.0000      -0.558202       -15.1895
 173   2.0000      -0.553739       -15.0680
 174   2.0000      -0.548651       -14.9295
 175   2.0000      -0.544338       -14.8122
 176   2.0000      -0.539059       -14.6685
 177   2.0000      -0.534199       -14.5363
 178   2.0000      -0.531818       -14.4715
 179   2.0000      -0.530579       -14.4378
 180   2.0000      -0.528201       -14.3731
 181   2.0000      -0.524854       -14.2820
 182   2.0000      -0.520417       -14.1613
 183   2.0000      -0.519155       -14.1269
 184   2.0000      -0.517667       -14.0864
 185   2.0000      -0.514341       -13.9959
 186   2.0000      -0.513122       -13.9628
 187   2.0000      -0.510733       -13.8978
 188   2.0000      -0.509955       -13.8766
 189   2.0000      -0.508573       -13.8390
 190   2.0000      -0.496692       -13.5157
 191   2.0000      -0.492933       -13.4134
 192   2.0000      -0.489310       -13.3148
 193   2.0000      -0.487230       -13.2582
 194   2.0000      -0.484384       -13.1808
 195   2.0000      -0.481823       -13.1111
 196   2.0000      -0.479925       -13.0594
 197   2.0000      -0.479398       -13.0451
 198   2.0000      -0.477740       -13.0000
 199   2.0000      -0.476436       -12.9645
 200   2.0000      -0.475354       -12.9350
 201   2.0000      -0.474277       -12.9057
 202   2.0000      -0.470263       -12.7965
 203   2.0000      -0.466914       -12.7054
 204   2.0000      -0.458554       -12.4779
 205   2.0000      -0.455678       -12.3996
 206   2.0000      -0.451163       -12.2768
 207   2.0000      -0.448495       -12.2042
 208   2.0000      -0.436163       -11.8686
 209   2.0000      -0.433934       -11.8079
 210   2.0000      -0.433327       -11.7914
 211   2.0000      -0.429925       -11.6989
 212   2.0000      -0.425595       -11.5810
 213   2.0000      -0.425214       -11.5707
 214   2.0000      -0.421999       -11.4832
 215   2.0000      -0.418618       -11.3912
 216   2.0000      -0.416119       -11.3232
 217   2.0000      -0.411443       -11.1959
 218   2.0000      -0.410375       -11.1669
 219   2.0000      -0.406518       -11.0619
 220   2.0000      -0.396009       -10.7760
 221   2.0000      -0.394257       -10.7283
 222   2.0000      -0.376712       -10.2509
 223   2.0000      -0.374690       -10.1958
 224   2.0000      -0.373988       -10.1767
 225   2.0000      -0.364051        -9.9063
 226   2.0000      -0.359400        -9.7798
 227   2.0000      -0.350223        -9.5301
 228   2.0000      -0.348562        -9.4849
 229   2.0000      -0.346291        -9.4231
 230   2.0000      -0.345296        -9.3960
 231   2.0000      -0.343681        -9.3520
 232   2.0000      -0.343137        -9.3372
 233   2.0000      -0.342401        -9.3172
 234   2.0000      -0.340899        -9.2763
 235   2.0000      -0.340122        -9.2552
 236   2.0000      -0.329698        -8.9715
 237   2.0000      -0.328006        -8.9255
 238   2.0000      -0.325277        -8.8512
 239   2.0000      -0.304313        -8.2808
 240   2.0000      -0.299074        -8.1382
 241   2.0000      -0.295747        -8.0477
 242   2.0000      -0.273696        -7.4477
 243   2.0000      -0.269007        -7.3200
 244   2.0000      -0.263352        -7.1662
 245   2.0000      -0.215352        -5.8600
 246   0.0000      -0.143508        -3.9050
 247   0.0000      -0.105814        -2.8793
 248   0.0000      -0.095249        -2.5919
 249   0.0000      -0.090564        -2.4644
 250   0.0000      -0.063090        -1.7168

MULLIKEN ATOMIC CHARGES
-----------------------
   0 C :   -0.089938
   1 C :    0.090506
   2 N :   -0.053457
   3 C :   -0.002777
   4 C :    0.064127
   5 C :    0.005967
   6 S :   -0.153637
   7 C :    0.007909
   8 C :    0.010340
   9 N :   -0.029939
  10 C :    0.087040
  11 C :   -0.100464
  12 C :    0.129049
  13 C :   -0.061669
  14 C :   -0.060347
  15 N :    0.004098
  16 C :    0.131434
  17 C :    0.144516
  18 N :   -0.001662
  19 F :   -0.139001
  20 F :   -0.141872
  21 C :    0.105577
  22 C :    0.043175
  23 C :   -0.015174
  24 N :   -0.254310
  25 S :    0.533103
  26 N :   -0.310247
  27 C :   -0.044453
  28 C :   -0.059627
  29 C :    0.052460
  30 C :    0.007690
  31 C :   -0.037015
  32 S :    0.121931
  33 C :   -0.019231
  34 C :    0.035485
  35 C :    0.026343
  36 C :    0.014854
  37 S :    0.152263
  38 C :   -0.141202
  39 C :    0.125384
  40 C :   -0.063526
  41 C :   -0.054785
  42 N :   -0.000140
  43 C :    0.143670
  44 C :    0.127732
  45 N :    0.005901
  46 F :   -0.144221
  47 F :   -0.140074
  48 C :    0.121339
  49 C :    0.004518
  50 C :    0.045673
  51 N :   -0.336693
  52 S :    0.537730
  53 N :   -0.258951
  54 C :   -0.110665
  55 C :    0.086744
  56 N :   -0.029267
  57 C :   -0.001007
  58 C :    0.009111
  59 C :    0.003531
  60 S :   -0.151442
  61 C :    0.065227
  62 C :    0.004342
  63 N :   -0.053757
  64 C :    0.087057
  65 C :   -0.089245
  66 H :   -0.006830
  67 H :    0.009851
  68 H :    0.008902
  69 H :    0.009144
  70 H :   -0.005608
  71 H :   -0.010168
  72 H :   -0.008078
  73 H :   -0.000678
  74 H :    0.007266
  75 H :    0.008845
  76 H :    0.010062
  77 H :   -0.008743
Sum of atomic charges:   -0.0000000

LOEWDIN ATOMIC CHARGES
----------------------
   0 C :   -0.039320
   1 C :    0.078671
   2 N :   -0.096205
   3 C :    0.026488
   4 C :   -0.018326
   5 C :   -0.144597
   6 S :    0.045776
   7 C :   -0.025401
   8 C :    0.046894
   9 N :   -0.085201
  10 C :    0.100420
  11 C :   -0.033041
  12 C :   -0.043753
  13 C :   -0.001401
  14 C :   -0.006482
  15 N :   -0.034646
  16 C :    0.050241
  17 C :    0.058754
  18 N :   -0.040932
  19 F :   -0.028257
  20 F :   -0.032188
  21 C :   -0.023018
  22 C :   -0.038144
  23 C :   -0.041228
  24 N :   -0.263963
  25 S :    0.658440
  26 N :   -0.275052
  27 C :   -0.035581
  28 C :   -0.125309
  29 C :   -0.025572
  30 C :   -0.026223
  31 C :   -0.168059
  32 S :    0.413489
  33 C :   -0.181105
  34 C :   -0.027793
  35 C :   -0.023691
  36 C :   -0.133468
  37 S :    0.461274
  38 C :   -0.029772
  39 C :   -0.027630
  40 C :   -0.010274
  41 C :    0.000111
  42 N :   -0.041238
  43 C :    0.058093
  44 C :    0.047624
  45 N :   -0.036007
  46 F :   -0.034062
  47 F :   -0.029281
  48 C :   -0.047491
  49 C :   -0.040592
  50 C :   -0.039912
  51 N :   -0.299947
  52 S :    0.659131
  53 N :   -0.267640
  54 C :   -0.033735
  55 C :    0.099739
  56 N :   -0.085859
  57 C :    0.046283
  58 C :   -0.026702
  59 C :   -0.145872
  60 S :    0.048073
  61 C :   -0.017654
  62 C :    0.025529
  63 N :   -0.097138
  64 C :    0.077435
  65 C :   -0.040110
  66 H :    0.033133
  67 H :    0.023731
  68 H :    0.023557
  69 H :    0.035295
  70 H :    0.025116
  71 H :    0.033828
  72 H :    0.032944
  73 H :    0.037455
  74 H :    0.042090
  75 H :    0.023160
  76 H :    0.023434
  77 H :    0.032665

  Mayer bond orders larger than 0.100000
B(  0-C ,  1-C ) :   1.0488 B(  0-C ,  4-C ) :   1.6063 B(  0-C , 66-H ) :   1.0079
B(  1-C ,  2-N ) :   1.6815 B(  1-C , 67-H ) :   0.9883 B(  2-N ,  3-C ) :   1.2789
B(  3-C ,  4-C ) :   1.0522 B(  3-C ,  8-C ) :   1.5185 B(  4-C ,  5-C ) :   0.9884
B(  5-C ,  6-S ) :   1.6607 B(  5-C ,  7-C ) :   1.0708 B(  7-C ,  8-C ) :   1.0507
B(  7-C , 11-C ) :   1.5243 B(  8-C ,  9-N ) :   1.2724 B(  9-N , 10-C ) :   1.7151
B( 10-C , 11-C ) :   1.0438 B( 10-C , 68-H ) :   0.9866 B( 11-C , 12-C ) :   1.0520
B( 12-C , 13-C ) :   1.2876 B( 12-C , 21-C ) :   0.1193 B( 12-C , 23-C ) :   1.2281
B( 13-C , 14-C ) :   1.1404 B( 13-C , 18-N ) :   1.4397 B( 14-C , 15-N ) :   1.4570
B( 14-C , 21-C ) :   1.2050 B( 15-N , 16-C ) :   1.6560 B( 16-C , 17-C ) :   1.1225
B( 16-C , 20-F ) :   1.1775 B( 17-C , 18-N ) :   1.6548 B( 17-C , 19-F ) :   1.1808
B( 21-C , 22-C ) :   1.1195 B( 21-C , 27-C ) :   1.3714 B( 22-C , 23-C ) :   1.0911
B( 22-C , 26-N ) :   1.5122 B( 23-C , 24-N ) :   1.5160 B( 24-N , 25-S ) :   1.2724
B( 24-N , 26-N ) :   0.1392 B( 25-S , 26-N ) :   1.2422 B( 26-N , 70-H ) :   0.1079
B( 27-C , 28-C ) :   1.3912 B( 27-C , 69-H ) :   0.9143 B( 28-C , 29-C ) :   1.2363
B( 28-C , 32-S ) :   1.0770 B( 29-C , 30-C ) :   1.4981 B( 29-C , 70-H ) :   0.9638
B( 30-C , 31-C ) :   1.2502 B( 30-C , 71-H ) :   0.9959 B( 31-C , 32-S ) :   1.0868
B( 31-C , 33-C ) :   1.3741 B( 33-C , 34-C ) :   1.2402 B( 33-C , 37-S ) :   1.0444
B( 34-C , 35-C ) :   1.5152 B( 34-C , 72-H ) :   0.9943 B( 35-C , 36-C ) :   1.1930
B( 35-C , 73-H ) :   1.0047 B( 36-C , 37-S ) :   1.0812 B( 36-C , 38-C ) :   1.4026
B( 38-C , 39-C ) :   1.3152 B( 38-C , 74-H ) :   0.9461 B( 39-C , 40-C ) :   1.1938
B( 39-C , 48-C ) :   0.1211 B( 39-C , 50-C ) :   1.1260 B( 40-C , 41-C ) :   1.1453
B( 40-C , 45-N ) :   1.4640 B( 41-C , 42-N ) :   1.4390 B( 41-C , 48-C ) :   1.2849
B( 42-N , 43-C ) :   1.6531 B( 43-C , 44-C ) :   1.1268 B( 43-C , 47-F ) :   1.1786
B( 44-C , 45-N ) :   1.6518 B( 44-C , 46-F ) :   1.1747 B( 48-C , 49-C ) :   1.2318
B( 48-C , 54-C ) :   1.0528 B( 49-C , 50-C ) :   1.0986 B( 49-C , 53-N ) :   1.5134
B( 50-C , 51-N ) :   1.4932 B( 51-N , 52-S ) :   1.2347 B( 51-N , 53-N ) :   0.1369
B( 52-S , 53-N ) :   1.2665 B( 54-C , 55-C ) :   1.0446 B( 54-C , 58-C ) :   1.5222
B( 55-C , 56-N ) :   1.7157 B( 55-C , 75-H ) :   0.9856 B( 56-N , 57-C ) :   1.2727
B( 57-C , 58-C ) :   1.0527 B( 57-C , 62-C ) :   1.5216 B( 58-C , 59-C ) :   1.0721
B( 59-C , 60-S ) :   1.6605 B( 59-C , 61-C ) :   0.9880 B( 61-C , 62-C ) :   1.0530
B( 61-C , 65-C ) :   1.6025 B( 62-C , 63-N ) :   1.2753 B( 63-N , 64-C ) :   1.6824
B( 64-C , 65-C ) :   1.0489 B( 64-C , 76-H ) :   0.9881 B( 65-C , 77-H ) :   1.0089

-----------------------------------------------------------------------------
         ABSORPTION SPECTRUM VIA TRANSITION ELECTRIC DIPOLE MOMENTS
-----------------------------------------------------------------------------
State   Energy  Wavelength   fosc         T2         TX        TY        TZ
        (cm-1)    (nm)                  (au**2)     (au)      (au)      (au)
-----------------------------------------------------------------------------
   0    3824.8   2614.5   0.495094553  42.61458   4.03939  -2.62834  -4.40338
   1   11011.9    908.1   0.032734183   0.97862  -0.29183   0.93346  -0.14869
   2   11196.3    893.2   0.065425319   1.92375   0.31331  -1.25940   0.48938
   3   11569.1    864.4   0.001536036   0.04371   0.13921   0.11610   0.10417
   4   13315.3    751.0   0.020473206   0.50619  -0.01923  -0.21755   0.67712
   5   13591.0    735.8   0.009429089   0.22840   0.01938  -0.11962  -0.46229
   6   15024.5    665.6   0.188289633   4.12573  -0.51362   1.82441  -0.73037
   7   16366.1    611.0   0.022670301   0.45602  -0.17695  -0.32515   0.56479
   8   16507.2    605.8   0.022997247   0.45865  -0.21760   0.43721   0.46919
   9   18436.7    542.4   0.018624044   0.33256   0.27435   0.09395  -0.49846
  10   18660.2    535.9   0.028912746   0.51009  -0.32434   0.62341  -0.12748
  11   18883.6    529.6   0.036511785   0.63654  -0.28828   0.73174   0.13413
  12   19073.2    524.3   0.022239618   0.38387  -0.03878   0.28235  -0.55013
  13   19511.2    512.5   0.163838518   2.76445   1.09474  -0.83177  -0.93496
  14   20945.3    477.4   0.014149947   0.22240  -0.03620  -0.46245   0.08505
  15   21141.6    473.0   0.040497806   0.63062   0.26588  -0.74109  -0.10354
  16   21975.6    455.1   0.249137484   3.73228   0.70364  -1.09509   1.42757
  17   22491.8    444.6   0.017482400   0.25589   0.34024  -0.36905   0.06267
  18   23093.3    433.0   0.016640792   0.23723  -0.11847   0.39170   0.26412
  19   23495.5    425.6   0.034357195   0.48140   0.20273  -0.57859   0.32487
  20   23948.5    417.6   0.030388167   0.41774  -0.52408   0.12697   0.35631
  21   24631.4    406.0   0.004941829   0.06605  -0.19119  -0.10077  -0.13908
  22   24884.5    401.9   0.040006948   0.52928   0.18215  -0.29465  -0.63975
  23   25038.1    399.4   0.005291701   0.06958   0.06203  -0.11009  -0.23154
  24   25382.2    394.0   0.006815705   0.08840   0.21476  -0.20260  -0.03512
  25   25452.5    392.9   0.004660973   0.06029  -0.13249   0.11849   0.16940
  26   25479.7    392.5   0.001369741   0.01770   0.04419  -0.11784  -0.04310
  27   25517.2    391.9   0.015315508   0.19759  -0.08319   0.02219   0.43610
  28   25680.6    389.4   0.014657354   0.18790  -0.15416   0.38054  -0.13901
  29   26082.8    383.4   0.015700386   0.19817  -0.29297   0.28531  -0.17588
  30   26236.9    381.1   0.001955675   0.02454   0.08471   0.07767  -0.10644
  31   26851.1    372.4   0.027039953   0.33153  -0.10911   0.55933  -0.08231
  32   27008.7    370.3   0.055989154   0.68246  -0.02374   0.30042  -0.76918
  33   27483.7    363.9   0.034529469   0.41361   0.11323  -0.44260  -0.45265
  34   28176.5    354.9   0.011789098   0.13774  -0.18538   0.12027   0.29818
  35   28598.8    349.7   0.034455562   0.39663   0.57676  -0.24637   0.05733
  36   28854.0    346.6   0.001108240   0.01264   0.07021   0.08387  -0.02609
  37   28963.9    345.3   0.246631496   2.80328  -0.88326   1.21314  -0.74258
  38   29383.3    340.3   0.091855746   1.02916   0.28621   0.58211  -0.77999
  39   29600.8    337.8   0.062258480   0.69242   0.44266  -0.53464   0.45895
  40   29700.8    336.7   0.074779332   0.82887  -0.21663   0.18214   0.86532
  41   29827.9    335.3   0.001116561   0.01232  -0.07859  -0.07830  -0.00403
  42   30482.2    328.1   0.004460398   0.04817  -0.02707   0.16278   0.14471
  43   30683.0    325.9   0.026855790   0.28815   0.02914   0.45878  -0.27717
  44   31038.0    322.2   0.027722029   0.29404  -0.11356  -0.01862   0.52990
  45   31127.5    321.3   0.006826891   0.07220  -0.21449  -0.13296  -0.09230
  46   31345.5    319.0   0.023664789   0.24854  -0.05227   0.01559   0.49555
  47   31468.4    317.8   0.005397079   0.05646  -0.01245  -0.22541  -0.07416
  48   31613.9    316.3   0.003857274   0.04017   0.01662   0.13205  -0.14985
  49   31679.8    315.7   0.063873540   0.66376   0.10938   0.11186  -0.79955
  50   32078.8    311.7   0.029291177   0.30060  -0.18289   0.14066   0.49736
  51   32354.5    309.1   0.026232101   0.26692   0.03850   0.01396  -0.51501
  52   32423.9    308.4   0.007270398   0.07382   0.16108   0.20500  -0.07648
  53   32532.0    307.4   0.008023226   0.08119   0.17016   0.14558  -0.17620
  54   32544.9    307.3   0.048056183   0.48612  -0.12405  -0.22626   0.64772
  55   32853.8    304.4   0.002597608   0.02603  -0.13700  -0.07523  -0.04002
  56   32974.8    303.3   0.003172118   0.03167   0.09066   0.10070  -0.11537
  57   33240.9    300.8   0.003590370   0.03556   0.07281   0.17386   0.00530
  58   33862.9    295.3   0.105612796   1.02676  -0.28958   0.92660  -0.29038
  59   34208.9    292.3   0.056191159   0.54076  -0.21373   0.46137   0.53124
  60   34396.3    290.7   0.173312055   1.65880   0.25939  -0.48553   1.16438
  61   34503.2    289.8   0.108811908   1.03823  -0.08164   0.05936   1.01392
  62   34617.0    288.9   0.128681770   1.22378  -0.09524   1.06713  -0.27557
  63   34898.3    286.5   0.053171246   0.50159  -0.56496   0.07305   0.42080
  64   35000.9    285.7   0.082040566   0.77166   0.73212  -0.47930  -0.07696
  65   35380.0    282.6   0.064414145   0.59938   0.36106  -0.67851   0.09293
  66   35657.4    280.4   0.005906074   0.05453  -0.15570  -0.02825   0.17172
  67   36354.5    275.1   0.006365741   0.05765  -0.09734  -0.21885  -0.01663
  68   36375.0    274.9   0.001797463   0.01627  -0.04173   0.11781  -0.02547
  69   36496.2    274.0   0.002173348   0.01960  -0.05637  -0.09417  -0.08695
  70   36720.2    272.3   0.011295440   0.10127   0.17754  -0.07148   0.25424
  71   36805.0    271.7   0.009624231   0.08609   0.09731  -0.14941  -0.23301
  72   37058.3    269.8   0.012347224   0.10969  -0.23727  -0.11406  -0.20095
  73   37436.4    267.1   0.135781284   1.19405   0.23783   0.25069  -1.03665
  74   37494.7    266.7   0.015164795   0.13315  -0.32208  -0.02378   0.16985
  75   37581.6    266.1   0.008047400   0.07049   0.03293  -0.08138   0.25058
  76   37725.3    265.1   0.035567750   0.31038  -0.18555   0.31410   0.42106
  77   37843.8    264.2   0.063181978   0.54963  -0.30472   0.28665   0.61206
  78   38110.7    262.4   0.021415837   0.18500   0.17511  -0.31038  -0.24083
  79   38202.8    261.8   0.056973895   0.49097   0.28091  -0.40314  -0.49954
  80   38245.9    261.5   0.074821304   0.64404  -0.25770   0.40838  -0.64098
  81   38365.1    260.7   0.032034876   0.27489  -0.07916  -0.20403   0.47644
  82   38533.3    259.5   0.027451571   0.23453  -0.09350   0.40937  -0.24127
  83   38589.9    259.1   0.026937225   0.22980   0.44877  -0.16854  -0.00076
  84   38779.1    257.9   0.086913802   0.73785  -0.73725  -0.20151  -0.39205
  85   38855.2    257.4   0.359814909   3.04863  -1.36163   0.88287   0.64431
  86   38960.1    256.7   0.049862651   0.42134  -0.51556   0.38174   0.09907
  87   39046.3    256.1   0.266217129   2.24456   0.44115  -0.51213  -1.33704
  88   39126.0    255.6   0.469077632   3.94689   0.75101  -1.18984   1.40255
  89   39219.8    255.0   0.065670686   0.55124   0.53825  -0.10043  -0.50144
  90   39281.7    254.6   0.045310576   0.37974   0.23543   0.02022  -0.56912
  91   39338.9    254.2   0.030932986   0.25887  -0.09478   0.45095   0.21571
  92   39372.3    254.0   0.018717553   0.15651   0.17446  -0.15256   0.32062
  93   39435.3    253.6   0.027652282   0.23085   0.16186  -0.06394  -0.44784
  94   39520.8    253.0   0.004725431   0.03936  -0.17283   0.06236  -0.07487
  95   39597.9    252.5   0.015253037   0.12681  -0.22674   0.14646   0.23228
  96   39856.5    250.9   0.177757056   1.46826   0.46923  -1.08180  -0.27892
  97   40190.4    248.8   0.042392437   0.34725  -0.12827  -0.05223   0.57277

FINAL SINGLE POINT ENERGY     -5125.113963236408

DIPOLE MOMENT
-------------
                                X             Y             Z
Electronic contribution:      3.66181      -5.74110     -14.91885
Nuclear contribution   :     -3.64216       4.12475      17.13693
                        -----------------------------------------
Total Dipole Moment    :      0.01966      -1.61635       2.21808
                        -----------------------------------------
Magnitude (a.u.)       :      2.74460
Magnitude (Debye)      :      6.97622

Rotational constants in cm-1:     0.002018     0.000291     0.000261
Rotational constants in MHz :    60.501733     8.737879     7.810378

                             ****ORCA TERMINATED NORMALLY****
TOTAL RUN TIME: 0 days 0 hours 16 minutes 2 seconds 351 msec
