                         Program Version 4.2.0 -  RELEASE  -
|  1> # ORCA input file
|  2> # SCF done       -133.897098189787          0.000570371029
|  3> ! CAM-B3LYP def2-SVP def2/J RIJCOSX Grid4 TightSCF
|  4> %maxcore 5000
|  5> %tddft
|  6>     Mode sTDDFT
|  7>     Ethresh 5.0
|  8>     maxcore 5000
|  9> end
| 10>
| 11> %pal
| 12>   nprocs 6
| 13>   end
| 14> * xyz 0 1
| 15>    O       -3.11033         0.57666         0.72151
| 16>    C       -2.14259        -0.09388         0.96737
| 17>    C       -1.69558        -1.36073         0.38777
| 18>    C       -0.54106        -1.74900         0.98655
| 19>    C        0.32963        -2.86109         0.88157
| 20>    S        1.49836        -3.05888         2.14684
| 21>    C        2.09677        -4.53442         1.49127
| 22>    C        3.22167        -5.17622         2.08910
| 23>    S        4.56796        -5.67345         1.12241
| 24>    C        5.52961        -6.08536         2.49106
| 25>    C        6.86392        -6.56110         2.30584
| 26>    S        7.19436        -7.76100         1.09959
| 27>    C        8.86151        -7.82228         1.51859
| 28>    N        9.74868        -8.64010         0.82937
| 29>    C       10.88134        -8.17221         0.14902
| 30>    O       11.18569        -7.02142         0.02143
| 31>    C       11.53874        -9.39534        -0.38908
| 32>    C       10.80645       -10.46083        -0.07681
| 33>    C        9.61274       -10.02430         0.69902
| 34>    O        8.70097       -10.67171         1.13107
| 35>    C        9.17260        -6.94389         2.54255
| 36>    C       10.41723        -6.72498         3.18337
| 37>    F       11.46339        -7.50734         2.85046
| 38>    C       10.55960        -5.76411         4.13506
| 39>    C        9.45968        -4.95726         4.49193
| 40>    C        8.23712        -5.16988         3.93096
| 41>    F        7.20804        -4.36947         4.26896
| 42>    C        8.03014        -6.19185         2.97369
| 43>    C        4.81240        -5.89892         3.67558
| 44>    C        5.17807        -6.25207         4.99418
| 45>    F        6.36402        -6.85062         5.21288
| 46>    C        4.33588        -6.04701         6.04680
| 47>    C        3.05720        -5.50813         5.82743
| 48>    C        2.65128        -5.19595         4.56300
| 49>    F        1.38699        -4.76943         4.37517
| 50>    C        3.50343        -5.36081         3.44794
| 51>    C        1.43434        -4.86530         0.29767
| 52>    C        1.58372        -6.01917        -0.49959
| 53>    F        2.44598        -6.98372        -0.12076
| 54>    C        0.85753        -6.20483        -1.64111
| 55>    C       -0.06133        -5.22612        -2.03885
| 56>    C       -0.26696        -4.11690        -1.26537
| 57>    F       -1.15776        -3.20983        -1.70431
| 58>    C        0.43094        -3.90528        -0.05800
| 59>    C       -0.20605        -0.70590         2.01962
| 60>    O        0.74759        -0.70843         2.76183
| 61>    N       -1.18516         0.23353         1.94218
| 62>    H       -2.25942        -1.84881        -0.38007
| 63>    H       12.45776        -9.34277        -0.94232
| 64>    H       10.98037       -11.49497        -0.30917
| 65>    H       11.51602        -5.61396         4.60792
| 66>    H        9.58279        -4.16883         5.21609
| 67>    H        4.64471        -6.32777         7.04014
| 68>    H        2.37806        -5.36858         6.65238
| 69>    H        0.99786        -7.09831        -2.22639
| 70>    H       -0.62179        -5.34196        -2.95206
| 71>    H       -1.23067         1.06050         2.51778
| 72> *
| 73>
| 74>                          ****END OF INPUT****

CARTESIAN COORDINATES (ANGSTROEM)
---------------------------------
  O     -3.110330    0.576660    0.721510
  C     -2.142590   -0.093880    0.967370
  C     -1.695580   -1.360730    0.387770
  C     -0.541060   -1.749000    0.986550
  C      0.329630   -2.861090    0.881570
  S      1.498360   -3.058880    2.146840
  C      2.096770   -4.534420    1.491270
  C      3.221670   -5.176220    2.089100
  S      4.567960   -5.673450    1.122410
  C      5.529610   -6.085360    2.491060
  C      6.863920   -6.561100    2.305840
  S      7.194360   -7.761000    1.099590
  C      8.861510   -7.822280    1.518590
  N      9.748680   -8.640100    0.829370
  C     10.881340   -8.172210    0.149020
  O     11.185690   -7.021420    0.021430
  C     11.538740   -9.395340   -0.389080
  C     10.806450  -10.460830   -0.076810
  C      9.612740  -10.024300    0.699020
  O      8.700970  -10.671710    1.131070
  C      9.172600   -6.943890    2.542550
  C     10.417230   -6.724980    3.183370
  F     11.463390   -7.507340    2.850460
  C     10.559600   -5.764110    4.135060
  C      9.459680   -4.957260    4.491930
  C      8.237120   -5.169880    3.930960
  F      7.208040   -4.369470    4.268960
  C      8.030140   -6.191850    2.973690
  C      4.812400   -5.898920    3.675580
  C      5.178070   -6.252070    4.994180
  F      6.364020   -6.850620    5.212880
  C      4.335880   -6.047010    6.046800
  C      3.057200   -5.508130    5.827430
  C      2.651280   -5.195950    4.563000
  F      1.386990   -4.769430    4.375170
  C      3.503430   -5.360810    3.447940
  C      1.434340   -4.865300    0.297670
  C      1.583720   -6.019170   -0.499590
  F      2.445980   -6.983720   -0.120760
  C      0.857530   -6.204830   -1.641110
  C     -0.061330   -5.226120   -2.038850
  C     -0.266960   -4.116900   -1.265370
  F     -1.157760   -3.209830   -1.704310
  C      0.430940   -3.905280   -0.058000
  C     -0.206050   -0.705900    2.019620
  O      0.747590   -0.708430    2.761830
  N     -1.185160    0.233530    1.942180
  H     -2.259420   -1.848810   -0.380070
  H     12.457760   -9.342770   -0.942320
  H     10.980370  -11.494970   -0.309170
  H     11.516020   -5.613960    4.607920
  H      9.582790   -4.168830    5.216090
  H      4.644710   -6.327770    7.040140
  H      2.378060   -5.368580    6.652380
  H      0.997860   -7.098310   -2.226390
  H     -0.621790   -5.341960   -2.952060
  H     -1.230670    1.060500    2.517780

 Total Charge           Charge          ....    0
 Multiplicity           Mult            ....    1
 Number of Electrons    NEL             ....  350
 Basis Dimension        Dim             ....  720

ORBITAL ENERGIES
----------------

  NO   OCC          E(Eh)            E(eV)
   0   2.0000     -88.981444     -2421.3082
   1   2.0000     -88.980386     -2421.2794
   2   2.0000     -88.975915     -2421.1577
   3   2.0000     -24.789910      -674.5677
   4   2.0000     -24.789745      -674.5633
   5   2.0000     -24.784104      -674.4098
   6   2.0000     -24.783744      -674.4000
   7   2.0000     -24.783327      -674.3886
   8   2.0000     -24.782569      -674.3680
   9   2.0000     -19.227119      -523.1965
  10   2.0000     -19.225331      -523.1478
  11   2.0000     -19.217710      -522.9405
  12   2.0000     -19.206061      -522.6235
  13   2.0000     -14.473360      -393.8402
  14   2.0000     -14.448712      -393.1694
  15   2.0000     -10.405551      -283.1494
  16   2.0000     -10.403991      -283.1070
  17   2.0000     -10.396164      -282.8940
  18   2.0000     -10.386188      -282.6225
  19   2.0000     -10.366081      -282.0754
  20   2.0000     -10.365128      -282.0495
  21   2.0000     -10.360758      -281.9305
  22   2.0000     -10.360218      -281.9159
  23   2.0000     -10.359628      -281.8998
  24   2.0000     -10.358735      -281.8755
  25   2.0000     -10.347829      -281.5787
  26   2.0000     -10.325043      -280.9587
  27   2.0000     -10.324011      -280.9306
  28   2.0000     -10.323122      -280.9064
  29   2.0000     -10.322399      -280.8868
  30   2.0000     -10.317026      -280.7406
  31   2.0000     -10.315615      -280.7022
  32   2.0000     -10.314851      -280.6814
  33   2.0000     -10.312668      -280.6220
  34   2.0000     -10.307070      -280.4696
  35   2.0000     -10.302477      -280.3447
  36   2.0000     -10.302405      -280.3427
  37   2.0000     -10.300089      -280.2797
  38   2.0000     -10.299628      -280.2671
  39   2.0000     -10.299388      -280.2606
  40   2.0000     -10.288528      -279.9651
  41   2.0000     -10.286428      -279.9079
  42   2.0000     -10.283986      -279.8415
  43   2.0000     -10.283733      -279.8346
  44   2.0000     -10.281949      -279.7861
  45   2.0000     -10.281481      -279.7733
  46   2.0000     -10.280474      -279.7459
  47   2.0000      -8.076762      -219.7799
  48   2.0000      -8.075462      -219.7445
  49   2.0000      -8.069369      -219.5787
  50   2.0000      -6.045652      -164.5106
  51   2.0000      -6.044356      -164.4753
  52   2.0000      -6.041585      -164.3999
  53   2.0000      -6.040162      -164.3612
  54   2.0000      -6.039551      -164.3445
  55   2.0000      -6.038456      -164.3147
  56   2.0000      -6.038379      -164.3126
  57   2.0000      -6.033720      -164.1859
  58   2.0000      -6.032460      -164.1516
  59   2.0000      -1.304753       -35.5041
  60   2.0000      -1.303942       -35.4821
  61   2.0000      -1.299807       -35.3695
  62   2.0000      -1.297521       -35.3073
  63   2.0000      -1.296735       -35.2859
  64   2.0000      -1.293776       -35.2054
  65   2.0000      -1.173818       -31.9412
  66   2.0000      -1.158780       -31.5320
  67   2.0000      -1.149916       -31.2908
  68   2.0000      -1.133766       -30.8513
  69   2.0000      -1.069909       -29.1137
  70   2.0000      -1.042421       -28.3657
  71   2.0000      -1.021072       -27.7848
  72   2.0000      -1.009535       -27.4708
  73   2.0000      -0.998262       -27.1641
  74   2.0000      -0.948786       -25.8178
  75   2.0000      -0.946185       -25.7470
  76   2.0000      -0.943700       -25.6794
  77   2.0000      -0.929381       -25.2897
  78   2.0000      -0.912749       -24.8372
  79   2.0000      -0.882987       -24.0273
  80   2.0000      -0.860437       -23.4137
  81   2.0000      -0.854408       -23.2496
  82   2.0000      -0.851587       -23.1729
  83   2.0000      -0.848591       -23.0913
  84   2.0000      -0.844466       -22.9791
  85   2.0000      -0.824831       -22.4448
  86   2.0000      -0.812924       -22.1208
  87   2.0000      -0.787571       -21.4309
  88   2.0000      -0.772408       -21.0183
  89   2.0000      -0.762245       -20.7417
  90   2.0000      -0.740421       -20.1479
  91   2.0000      -0.728326       -19.8188
  92   2.0000      -0.724789       -19.7225
  93   2.0000      -0.721360       -19.6292
  94   2.0000      -0.719775       -19.5861
  95   2.0000      -0.718320       -19.5465
  96   2.0000      -0.712690       -19.3933
  97   2.0000      -0.701457       -19.0876
  98   2.0000      -0.688596       -18.7377
  99   2.0000      -0.669001       -18.2044
 100   2.0000      -0.664196       -18.0737
 101   2.0000      -0.662366       -18.0239
 102   2.0000      -0.656519       -17.8648
 103   2.0000      -0.636301       -17.3146
 104   2.0000      -0.625477       -17.0201
 105   2.0000      -0.622082       -16.9277
 106   2.0000      -0.615461       -16.7475
 107   2.0000      -0.614607       -16.7243
 108   2.0000      -0.608905       -16.5691
 109   2.0000      -0.605530       -16.4773
 110   2.0000      -0.596026       -16.2187
 111   2.0000      -0.590045       -16.0559
 112   2.0000      -0.584616       -15.9082
 113   2.0000      -0.582112       -15.8401
 114   2.0000      -0.573757       -15.6127
 115   2.0000      -0.570991       -15.5375
 116   2.0000      -0.569697       -15.5023
 117   2.0000      -0.564855       -15.3705
 118   2.0000      -0.561454       -15.2779
 119   2.0000      -0.559444       -15.2233
 120   2.0000      -0.556193       -15.1348
 121   2.0000      -0.555698       -15.1213
 122   2.0000      -0.551628       -15.0106
 123   2.0000      -0.547153       -14.8888
 124   2.0000      -0.543078       -14.7779
 125   2.0000      -0.541431       -14.7331
 126   2.0000      -0.539039       -14.6680
 127   2.0000      -0.533717       -14.5232
 128   2.0000      -0.532626       -14.4935
 129   2.0000      -0.531405       -14.4603
 130   2.0000      -0.525867       -14.3096
 131   2.0000      -0.523232       -14.2379
 132   2.0000      -0.521320       -14.1858
 133   2.0000      -0.517243       -14.0749
 134   2.0000      -0.515053       -14.0153
 135   2.0000      -0.513831       -13.9820
 136   2.0000      -0.507664       -13.8142
 137   2.0000      -0.504286       -13.7223
 138   2.0000      -0.501017       -13.6334
 139   2.0000      -0.496577       -13.5125
 140   2.0000      -0.492971       -13.4144
 141   2.0000      -0.489148       -13.3104
 142   2.0000      -0.483713       -13.1625
 143   2.0000      -0.479315       -13.0428
 144   2.0000      -0.478316       -13.0157
 145   2.0000      -0.473788       -12.8924
 146   2.0000      -0.472923       -12.8689
 147   2.0000      -0.468818       -12.7572
 148   2.0000      -0.464443       -12.6381
 149   2.0000      -0.448136       -12.1944
 150   2.0000      -0.443773       -12.0757
 151   2.0000      -0.441793       -12.0218
 152   2.0000      -0.440671       -11.9913
 153   2.0000      -0.434797       -11.8314
 154   2.0000      -0.430985       -11.7277
 155   2.0000      -0.420892       -11.4530
 156   2.0000      -0.418207       -11.3800
 157   2.0000      -0.411838       -11.2067
 158   2.0000      -0.396437       -10.7876
 159   2.0000      -0.385590       -10.4924
 160   2.0000      -0.383785       -10.4433
 161   2.0000      -0.378927       -10.3111
 162   2.0000      -0.365240        -9.9387
 163   2.0000      -0.362356        -9.8602
 164   2.0000      -0.354049        -9.6342
 165   2.0000      -0.353009        -9.6059
 166   2.0000      -0.338306        -9.2058
 167   2.0000      -0.336336        -9.1522
 168   2.0000      -0.333173        -9.0661
 169   2.0000      -0.328970        -8.9517
 170   2.0000      -0.327624        -8.9151
 171   2.0000      -0.326379        -8.8812
 172   2.0000      -0.288668        -7.8551
 173   2.0000      -0.267541        -7.2802
 174   2.0000      -0.232344        -6.3224
 175   0.0000      -0.085340        -2.3222
 176   0.0000      -0.064186        -1.7466
 177   0.0000      -0.054370        -1.4795
 178   0.0000      -0.029220        -0.7951
 179   0.0000      -0.013805        -0.3757

MULLIKEN ATOMIC CHARGES
-----------------------
   0 O :   -0.148228
   1 C :    0.172461
   2 C :   -0.148930
   3 C :    0.029427
   4 C :   -0.155109
   5 S :    0.273933
   6 C :   -0.143210
   7 C :   -0.167346
   8 S :    0.238011
   9 C :   -0.193787
  10 C :   -0.195691
  11 S :    0.225108
  12 C :   -0.090853
  13 N :   -0.263598
  14 C :    0.207471
  15 O :   -0.135318
  16 C :   -0.009720
  17 C :   -0.012645
  18 C :    0.197899
  19 O :   -0.141785
  20 C :    0.088831
  21 C :    0.233920
  22 F :   -0.191975
  23 C :   -0.055762
  24 C :   -0.064453
  25 C :    0.222093
  26 F :   -0.186452
  27 C :    0.139374
  28 C :    0.120947
  29 C :    0.226002
  30 F :   -0.183777
  31 C :   -0.065978
  32 C :   -0.053744
  33 C :    0.217456
  34 F :   -0.188647
  35 C :    0.072058
  36 C :    0.072820
  37 C :    0.214192
  38 F :   -0.189712
  39 C :   -0.055587
  40 C :   -0.047662
  41 C :    0.204968
  42 F :   -0.186298
  43 C :    0.089236
  44 C :    0.147698
  45 O :   -0.179294
  46 N :   -0.134043
  47 H :    0.006513
  48 H :    0.026298
  49 H :    0.025888
  50 H :   -0.002306
  51 H :   -0.000621
  52 H :   -0.001414
  53 H :    0.001621
  54 H :    0.000002
  55 H :    0.001937
  56 H :    0.137777
Sum of atomic charges:   -0.0000000

LOEWDIN ATOMIC CHARGES
----------------------
   0 O :   -0.147231
   1 C :    0.080221
   2 C :   -0.052068
   3 C :   -0.048785
   4 C :   -0.195389
   5 S :    0.586392
   6 C :   -0.188894
   7 C :   -0.204552
   8 S :    0.527140
   9 C :   -0.194615
  10 C :   -0.200697
  11 S :    0.510864
  12 C :   -0.146206
  13 N :   -0.053814
  14 C :    0.084395
  15 O :   -0.122401
  16 C :   -0.003965
  17 C :   -0.008577
  18 C :    0.082365
  19 O :   -0.131212
  20 C :   -0.061298
  21 C :    0.084107
  22 F :   -0.065996
  23 C :   -0.048721
  24 C :   -0.051349
  25 C :    0.081243
  26 F :   -0.057298
  27 C :   -0.056730
  28 C :   -0.060335
  29 C :    0.084348
  30 F :   -0.054077
  31 C :   -0.051517
  32 C :   -0.045344
  33 C :    0.075560
  34 F :   -0.066432
  35 C :   -0.061049
  36 C :   -0.074180
  37 C :    0.080057
  38 F :   -0.066784
  39 C :   -0.053567
  40 C :   -0.042979
  41 C :    0.078460
  42 F :   -0.056161
  43 C :   -0.048945
  44 C :    0.080234
  45 O :   -0.172461
  46 N :   -0.006616
  47 H :    0.032643
  48 H :    0.044169
  49 H :    0.043737
  50 H :    0.041098
  51 H :    0.040920
  52 H :    0.041036
  53 H :    0.042030
  54 H :    0.041563
  55 H :    0.042243
  56 H :    0.095418

  Mayer bond orders larger than 0.100000
B(  0-O ,  1-C ) :   2.2148 B(  1-C ,  2-C ) :   0.9492 B(  1-C , 46-N ) :   1.0136
B(  2-C ,  3-C ) :   1.6162 B(  2-C , 47-H ) :   1.0244 B(  3-C ,  4-C ) :   1.1596
B(  3-C , 44-C ) :   0.8874 B(  4-C ,  5-S ) :   1.1806 B(  4-C ,  6-C ) :   0.1198
B(  4-C , 43-C ) :   1.3154 B(  5-S ,  6-C ) :   1.2070 B(  6-C ,  7-C ) :   1.1082
B(  6-C , 36-C ) :   1.3240 B(  7-C ,  8-S ) :   1.1740 B(  7-C ,  9-C ) :   0.1304
B(  7-C , 35-C ) :   1.3687 B(  8-S ,  9-C ) :   1.2141 B(  9-C , 10-C ) :   1.0913
B(  9-C , 28-C ) :   1.3860 B( 10-C , 11-S ) :   1.1890 B( 10-C , 12-C ) :   0.1250
B( 10-C , 27-C ) :   1.4021 B( 11-S , 12-C ) :   1.1813 B( 12-C , 13-N ) :   0.9776
B( 12-C , 20-C ) :   1.4067 B( 13-N , 14-C ) :   0.9894 B( 13-N , 18-C ) :   1.0030
B( 14-C , 15-O ) :   2.2064 B( 14-C , 16-C ) :   0.9557 B( 16-C , 17-C ) :   1.7467
B( 16-C , 48-H ) :   1.0132 B( 17-C , 18-C ) :   0.9545 B( 17-C , 49-H ) :   1.0138
B( 18-C , 19-O ) :   2.2052 B( 20-C , 21-C ) :   1.0983 B( 20-C , 27-C ) :   1.2165
B( 21-C , 22-F ) :   1.1158 B( 21-C , 23-C ) :   1.5620 B( 23-C , 24-C ) :   1.1350
B( 23-C , 50-H ) :   0.9908 B( 24-C , 25-C ) :   1.5602 B( 24-C , 51-H ) :   0.9897
B( 25-C , 26-F ) :   1.1051 B( 25-C , 27-C ) :   1.1144 B( 28-C , 29-C ) :   1.1224
B( 28-C , 35-C ) :   1.1911 B( 29-C , 30-F ) :   1.1068 B( 29-C , 31-C ) :   1.5405
B( 31-C , 32-C ) :   1.1540 B( 31-C , 52-H ) :   0.9905 B( 32-C , 33-C ) :   1.5405
B( 32-C , 53-H ) :   0.9904 B( 33-C , 34-F ) :   1.1052 B( 33-C , 35-C ) :   1.1328
B( 36-C , 37-C ) :   1.1430 B( 36-C , 43-C ) :   1.2156 B( 37-C , 38-F ) :   1.1029
B( 37-C , 39-C ) :   1.5191 B( 39-C , 40-C ) :   1.1755 B( 39-C , 54-H ) :   0.9914
B( 40-C , 41-C ) :   1.5216 B( 40-C , 55-H ) :   0.9872 B( 41-C , 42-F ) :   1.1051
B( 41-C , 43-C ) :   1.1493 B( 44-C , 45-O ) :   2.1250 B( 44-C , 46-N ) :   1.1581
B( 46-N , 56-H ) :   0.9213

-----------------------------------------------------------------------------
         ABSORPTION SPECTRUM VIA TRANSITION ELECTRIC DIPOLE MOMENTS
-----------------------------------------------------------------------------
State   Energy  Wavelength   fosc         T2         TX        TY        TZ
        (cm-1)    (nm)                  (au**2)     (au)      (au)      (au)
-----------------------------------------------------------------------------
   0   16722.3    598.0   0.923856701  18.18794   3.57552  -2.15463   0.87246
   1   20686.0    483.4   0.001860383   0.02961   0.09064   0.13969  -0.04334
   2   22651.2    441.5   0.114435174   1.66320  -1.26067  -0.26540   0.05900
   3   23868.0    419.0   0.044950190   0.62000  -0.04994   0.78421   0.05013
   4   26409.9    378.6   0.002752896   0.03432  -0.06282  -0.07568   0.15698
   5   27832.3    359.3   0.206595415   2.44370  -0.43349   0.53474   1.40351
   6   29396.4    340.2   0.002156570   0.02415  -0.02688  -0.10967  -0.10677
   7   30003.4    333.3   0.001055625   0.01158  -0.05779  -0.08784   0.02297
   8   30662.0    326.1   0.011056023   0.11871  -0.07974   0.09200   0.32231
   9   30893.4    323.7   0.027667841   0.29484  -0.33881   0.37001   0.20769
  10   32237.0    310.2   0.002218229   0.02265  -0.01059   0.04232  -0.14405
  11   33924.4    294.8   0.057696869   0.55991  -0.35249   0.59489   0.28593
  12   34551.0    289.4   0.030895748   0.29438   0.53919   0.01974   0.05712
  13   34865.3    286.8   0.077583002   0.73257   0.19267  -0.44474  -0.70544
  14   35798.4    279.3   0.044424602   0.40854  -0.14764   0.34793  -0.51545
  15   36227.6    276.0   0.026390033   0.23981   0.35116  -0.25015  -0.23221
  16   36552.6    273.6   0.001226548   0.01105   0.05037  -0.09049  -0.01795
  17   36888.1    271.1   0.000246525   0.00220  -0.02333  -0.03386   0.02258
  18   37105.8    269.5   0.000433637   0.00385   0.03661  -0.04924   0.00910
  19   37172.9    269.0   0.029615553   0.26228  -0.40178  -0.14578  -0.28215
  20   37671.6    265.5   0.056543633   0.49413   0.32369  -0.35589  -0.51255
  21   38303.3    261.1   0.023045447   0.19807  -0.13414   0.14281  -0.39960
  22   39221.7    255.0   0.021704357   0.18218   0.04224   0.33096   0.26620
  23   39429.0    253.6   0.012441993   0.10388  -0.11093  -0.29215   0.07890
  24   40159.2    249.0   0.045246828   0.37092  -0.53799  -0.19509  -0.20840
  25   40270.9    248.3   0.003352096   0.02740   0.04544   0.01097  -0.15880

FINAL SINGLE POINT ENERGY     -3426.477557158447

DIPOLE MOMENT
-------------
                                X             Y             Z
Electronic contribution:     -0.97502      -0.98918       2.47086
Nuclear contribution   :      2.29732      -0.32845      -2.77473
                        -----------------------------------------
Total Dipole Moment    :      1.32230      -1.31763      -0.30387
                        -----------------------------------------
Magnitude (a.u.)       :      1.89128
Magnitude (Debye)      :      4.80726

Rotational constants in cm-1:     0.004176     0.000967     0.000868
Rotational constants in MHz :   125.187536    29.001986    26.018854

                             ****ORCA TERMINATED NORMALLY****
TOTAL RUN TIME: 0 days 0 hours 3 minutes 40 seconds 139 msec
