                         Program Version 4.2.0 -  RELEASE  -
|  1> # ORCA input file
|  2> # SCF done       -161.659561673801          0.000545332928
|  3> ! CAM-B3LYP def2-SVP def2/J RIJCOSX Grid4 TightSCF
|  4> %maxcore 5000
|  5> %tddft
|  6>     Mode sTDDFT
|  7>     Ethresh 5.0
|  8>     maxcore 5000
|  9> end
| 10>
| 11> %pal
| 12>   nprocs 6
| 13>   end
| 14> * xyz 0 1
| 15>    C        2.11783        -0.46632        -3.06265
| 16>    C        1.69319        -1.67851        -3.74303
| 17>    N        0.39752        -1.80714        -3.85999
| 18>    C       -0.12682        -0.69887        -3.27492
| 19>    C        0.96320         0.17886        -2.76301
| 20>    C        0.39543         1.33934        -2.11154
| 21>    S        1.20399         2.48262        -1.26033
| 22>    C       -1.02636         1.18422        -2.28499
| 23>    C       -1.31527        -0.10161        -2.97105
| 24>    N       -2.65837        -0.29872        -3.06788
| 25>    C       -3.20760         0.73021        -2.49261
| 26>    C       -2.25140         1.71796        -1.98206
| 27>    C       -2.59073         2.97280        -1.35981
| 28>    C       -3.66679         3.12644        -0.50543
| 29>    F       -4.44328         2.06874        -0.21679
| 30>    C       -3.97257         4.34243         0.13707
| 31>    F       -5.00895         4.32233         0.98064
| 32>    C       -3.22823         5.49159        -0.05058
| 33>    C       -2.14632         5.39185        -0.95733
| 34>    C       -1.83083         4.14385        -1.60329
| 35>    N       -0.81007         4.26167        -2.44868
| 36>    S       -0.29160         5.78157        -2.41737
| 37>    N       -1.33569         6.36891        -1.35570
| 38>    C       -3.52148         6.74474         0.65018
| 39>    N       -2.51632         7.60361         0.80740
| 40>    C       -2.78946         8.72979         1.43848
| 41>    C       -4.04884         9.01527         1.94306
| 42>    C       -5.03846         8.04404         1.74505
| 43>    N       -4.75780         6.92249         1.08273
| 44>    C       -6.38244         8.20805         2.26311
| 45>    C       -7.32069         7.26336         2.07387
| 46>    C       -8.67585         7.26794         2.55495
| 47>    C       -9.22463         8.14399         3.48092
| 48>    F       -8.47780         9.11420         4.03330
| 49>    C      -10.55724         8.07275         3.91585
| 50>    F      -10.93668         8.96401         4.85043
| 51>    C      -11.45998         7.12040         3.46853
| 52>    C      -10.92665         6.18239         2.54749
| 53>    C       -9.56978         6.26635         2.08804
| 54>    N       -9.29035         5.30833         1.20679
| 55>    S      -10.59420         4.40462         0.98499
| 56>    N      -11.58541         5.17162         1.98712
| 57>    C      -12.81389         6.95593         3.92278
| 58>    C      -13.70737         7.89475         4.31825
| 59>    C      -14.92012         7.59466         5.08919
| 60>    C      -15.55868         6.39221         5.18620
| 61>    C      -16.72944         6.18300         5.94967
| 62>    N      -17.68064         5.94717         6.54575
| 63>    C      -15.18842         5.20488         4.51462
| 64>    N      -14.96248         4.20188         4.00492
| 65>    C      -15.32344         8.83926         5.72584
| 66>    C      -14.53120         9.89383         5.21578
| 67>    C      -14.69941        11.19012         5.67490
| 68>    C      -15.66323        11.42840         6.64260
| 69>    C      -16.44770        10.39605         7.13933
| 70>    C      -16.28777         9.09450         6.68923
| 71>    C      -13.62914         9.35230         4.21399
| 72>    C      -13.01194        10.06163         3.22356
| 73>    C      -12.33395         9.47931         2.13258
| 74>    N      -11.79495         9.05779         1.21106
| 75>    C      -13.04880        11.47038         3.12729
| 76>    N      -13.04200        12.61022         3.00068
| 77>    H        3.13329        -0.18454        -2.86634
| 78>    H        2.35131        -2.43406        -4.13621
| 79>    H       -4.27810         0.81991        -2.43490
| 80>    H       -1.96143         9.41823         1.54860
| 81>    H       -4.25819         9.93309         2.46777
| 82>    H       -6.57016         9.12089         2.80730
| 83>    H       -7.05358         6.39180         1.49100
| 84>    H      -13.11417         5.91686         3.96668
| 85>    H      -14.08750        11.99648         5.30475
| 86>    H      -15.80161        12.43133         7.01621
| 87>    H      -17.19140        10.60593         7.89267
| 88>    H      -16.89873         8.30407         7.09310
| 89> *
| 90>
| 91>                          ****END OF INPUT****

CARTESIAN COORDINATES (ANGSTROEM)
---------------------------------
  C      2.117830   -0.466320   -3.062650
  C      1.693190   -1.678510   -3.743030
  N      0.397520   -1.807140   -3.859990
  C     -0.126820   -0.698870   -3.274920
  C      0.963200    0.178860   -2.763010
  C      0.395430    1.339340   -2.111540
  S      1.203990    2.482620   -1.260330
  C     -1.026360    1.184220   -2.284990
  C     -1.315270   -0.101610   -2.971050
  N     -2.658370   -0.298720   -3.067880
  C     -3.207600    0.730210   -2.492610
  C     -2.251400    1.717960   -1.982060
  C     -2.590730    2.972800   -1.359810
  C     -3.666790    3.126440   -0.505430
  F     -4.443280    2.068740   -0.216790
  C     -3.972570    4.342430    0.137070
  F     -5.008950    4.322330    0.980640
  C     -3.228230    5.491590   -0.050580
  C     -2.146320    5.391850   -0.957330
  C     -1.830830    4.143850   -1.603290
  N     -0.810070    4.261670   -2.448680
  S     -0.291600    5.781570   -2.417370
  N     -1.335690    6.368910   -1.355700
  C     -3.521480    6.744740    0.650180
  N     -2.516320    7.603610    0.807400
  C     -2.789460    8.729790    1.438480
  C     -4.048840    9.015270    1.943060
  C     -5.038460    8.044040    1.745050
  N     -4.757800    6.922490    1.082730
  C     -6.382440    8.208050    2.263110
  C     -7.320690    7.263360    2.073870
  C     -8.675850    7.267940    2.554950
  C     -9.224630    8.143990    3.480920
  F     -8.477800    9.114200    4.033300
  C    -10.557240    8.072750    3.915850
  F    -10.936680    8.964010    4.850430
  C    -11.459980    7.120400    3.468530
  C    -10.926650    6.182390    2.547490
  C     -9.569780    6.266350    2.088040
  N     -9.290350    5.308330    1.206790
  S    -10.594200    4.404620    0.984990
  N    -11.585410    5.171620    1.987120
  C    -12.813890    6.955930    3.922780
  C    -13.707370    7.894750    4.318250
  C    -14.920120    7.594660    5.089190
  C    -15.558680    6.392210    5.186200
  C    -16.729440    6.183000    5.949670
  N    -17.680640    5.947170    6.545750
  C    -15.188420    5.204880    4.514620
  N    -14.962480    4.201880    4.004920
  C    -15.323440    8.839260    5.725840
  C    -14.531200    9.893830    5.215780
  C    -14.699410   11.190120    5.674900
  C    -15.663230   11.428400    6.642600
  C    -16.447700   10.396050    7.139330
  C    -16.287770    9.094500    6.689230
  C    -13.629140    9.352300    4.213990
  C    -13.011940   10.061630    3.223560
  C    -12.333950    9.479310    2.132580
  N    -11.794950    9.057790    1.211060
  C    -13.048800   11.470380    3.127290
  N    -13.042000   12.610220    3.000680
  H      3.133290   -0.184540   -2.866340
  H      2.351310   -2.434060   -4.136210
  H     -4.278100    0.819910   -2.434900
  H     -1.961430    9.418230    1.548600
  H     -4.258190    9.933090    2.467770
  H     -6.570160    9.120890    2.807300
  H     -7.053580    6.391800    1.491000
  H    -13.114170    5.916860    3.966680
  H    -14.087500   11.996480    5.304750
  H    -15.801610   12.431330    7.016210
  H    -17.191400   10.605930    7.892670
  H    -16.898730    8.304070    7.093100

 Total Charge           Charge          ....    0
 Multiplicity           Mult            ....    1
 Number of Electrons    NEL             ....  438
 Basis Dimension        Dim             ....  940

ORBITAL ENERGIES
----------------

  NO   OCC          E(Eh)            E(eV)
   0   2.0000     -89.036216     -2422.7986
   1   2.0000     -89.021757     -2422.4052
   2   2.0000     -88.898316     -2419.0462
   3   2.0000     -24.825061      -675.5242
   4   2.0000     -24.815798      -675.2722
   5   2.0000     -24.808164      -675.0645
   6   2.0000     -24.796967      -674.7598
   7   2.0000     -14.450529      -393.2189
   8   2.0000     -14.449926      -393.2025
   9   2.0000     -14.436146      -392.8275
  10   2.0000     -14.433024      -392.7425
  11   2.0000     -14.431745      -392.7077
  12   2.0000     -14.429310      -392.6415
  13   2.0000     -14.428406      -392.6169
  14   2.0000     -14.428040      -392.6069
  15   2.0000     -14.414526      -392.2392
  16   2.0000     -14.413787      -392.2191
  17   2.0000     -14.411323      -392.1520
  18   2.0000     -14.410398      -392.1269
  19   2.0000     -10.404194      -283.1125
  20   2.0000     -10.395623      -282.8793
  21   2.0000     -10.387741      -282.6648
  22   2.0000     -10.386857      -282.6407
  23   2.0000     -10.361640      -281.9545
  24   2.0000     -10.361103      -281.9399
  25   2.0000     -10.356860      -281.8245
  26   2.0000     -10.355699      -281.7929
  27   2.0000     -10.355339      -281.7831
  28   2.0000     -10.342666      -281.4382
  29   2.0000     -10.341195      -281.3982
  30   2.0000     -10.338980      -281.3379
  31   2.0000     -10.336539      -281.2715
  32   2.0000     -10.335053      -281.2311
  33   2.0000     -10.334121      -281.2057
  34   2.0000     -10.333356      -281.1849
  35   2.0000     -10.333097      -281.1779
  36   2.0000     -10.332818      -281.1703
  37   2.0000     -10.332713      -281.1674
  38   2.0000     -10.330977      -281.1202
  39   2.0000     -10.330538      -281.1082
  40   2.0000     -10.329895      -281.0907
  41   2.0000     -10.329228      -281.0726
  42   2.0000     -10.328976      -281.0657
  43   2.0000     -10.328310      -281.0476
  44   2.0000     -10.327854      -281.0352
  45   2.0000     -10.325596      -280.9738
  46   2.0000     -10.325309      -280.9659
  47   2.0000     -10.321308      -280.8571
  48   2.0000     -10.320943      -280.8471
  49   2.0000     -10.317859      -280.7632
  50   2.0000     -10.310857      -280.5727
  51   2.0000     -10.308510      -280.5088
  52   2.0000     -10.308411      -280.5061
  53   2.0000     -10.308214      -280.5008
  54   2.0000     -10.307339      -280.4770
  55   2.0000     -10.306593      -280.4567
  56   2.0000     -10.302908      -280.3564
  57   2.0000     -10.298832      -280.2455
  58   2.0000     -10.295494      -280.1546
  59   2.0000     -10.293425      -280.0983
  60   2.0000     -10.292468      -280.0723
  61   2.0000     -10.291937      -280.0578
  62   2.0000      -8.127922      -221.1720
  63   2.0000      -8.113678      -220.7844
  64   2.0000      -7.993913      -217.5254
  65   2.0000      -6.099102      -165.9650
  66   2.0000      -6.091348      -165.7540
  67   2.0000      -6.090360      -165.7271
  68   2.0000      -6.084848      -165.5771
  69   2.0000      -6.077032      -165.3644
  70   2.0000      -6.076184      -165.3414
  71   2.0000      -5.963049      -162.2628
  72   2.0000      -5.962483      -162.2474
  73   2.0000      -5.952868      -161.9858
  74   2.0000      -1.343965       -36.5711
  75   2.0000      -1.328047       -36.1380
  76   2.0000      -1.324088       -36.0303
  77   2.0000      -1.308392       -35.6032
  78   2.0000      -1.139466       -31.0065
  79   2.0000      -1.124788       -30.6070
  80   2.0000      -1.090819       -29.6827
  81   2.0000      -1.083381       -29.4803
  82   2.0000      -1.063366       -28.9357
  83   2.0000      -1.045021       -28.4365
  84   2.0000      -1.026526       -27.9332
  85   2.0000      -1.015829       -27.6421
  86   2.0000      -1.009336       -27.4654
  87   2.0000      -1.006084       -27.3769
  88   2.0000      -0.996407       -27.1136
  89   2.0000      -0.993913       -27.0457
  90   2.0000      -0.988152       -26.8890
  91   2.0000      -0.981562       -26.7097
  92   2.0000      -0.977158       -26.5898
  93   2.0000      -0.966332       -26.2952
  94   2.0000      -0.960677       -26.1414
  95   2.0000      -0.949364       -25.8335
  96   2.0000      -0.926585       -25.2137
  97   2.0000      -0.915869       -24.9221
  98   2.0000      -0.903305       -24.5802
  99   2.0000      -0.895939       -24.3797
 100   2.0000      -0.883146       -24.0316
 101   2.0000      -0.875716       -23.8294
 102   2.0000      -0.874163       -23.7872
 103   2.0000      -0.869172       -23.6514
 104   2.0000      -0.862518       -23.4703
 105   2.0000      -0.852525       -23.1984
 106   2.0000      -0.847341       -23.0573
 107   2.0000      -0.835708       -22.7408
 108   2.0000      -0.808246       -21.9935
 109   2.0000      -0.800204       -21.7746
 110   2.0000      -0.787333       -21.4244
 111   2.0000      -0.774734       -21.0816
 112   2.0000      -0.767525       -20.8854
 113   2.0000      -0.755829       -20.5672
 114   2.0000      -0.741284       -20.1714
 115   2.0000      -0.738529       -20.0964
 116   2.0000      -0.738081       -20.0842
 117   2.0000      -0.726804       -19.7773
 118   2.0000      -0.723340       -19.6831
 119   2.0000      -0.721527       -19.6337
 120   2.0000      -0.716705       -19.5025
 121   2.0000      -0.703226       -19.1357
 122   2.0000      -0.696263       -18.9463
 123   2.0000      -0.686396       -18.6778
 124   2.0000      -0.682036       -18.5591
 125   2.0000      -0.674087       -18.3428
 126   2.0000      -0.673590       -18.3293
 127   2.0000      -0.658824       -17.9275
 128   2.0000      -0.655282       -17.8311
 129   2.0000      -0.651670       -17.7329
 130   2.0000      -0.647711       -17.6251
 131   2.0000      -0.644565       -17.5395
 132   2.0000      -0.640223       -17.4213
 133   2.0000      -0.634139       -17.2558
 134   2.0000      -0.626051       -17.0357
 135   2.0000      -0.625738       -17.0272
 136   2.0000      -0.619598       -16.8601
 137   2.0000      -0.611213       -16.6320
 138   2.0000      -0.602463       -16.3938
 139   2.0000      -0.596366       -16.2280
 140   2.0000      -0.595680       -16.2093
 141   2.0000      -0.592302       -16.1173
 142   2.0000      -0.584434       -15.9033
 143   2.0000      -0.580110       -15.7856
 144   2.0000      -0.573375       -15.6023
 145   2.0000      -0.569338       -15.4925
 146   2.0000      -0.567586       -15.4448
 147   2.0000      -0.565398       -15.3853
 148   2.0000      -0.559343       -15.2205
 149   2.0000      -0.558110       -15.1870
 150   2.0000      -0.555807       -15.1243
 151   2.0000      -0.554901       -15.0996
 152   2.0000      -0.552167       -15.0252
 153   2.0000      -0.546636       -14.8747
 154   2.0000      -0.545714       -14.8496
 155   2.0000      -0.542393       -14.7593
 156   2.0000      -0.541799       -14.7431
 157   2.0000      -0.538961       -14.6659
 158   2.0000      -0.536090       -14.5878
 159   2.0000      -0.526166       -14.3177
 160   2.0000      -0.525108       -14.2889
 161   2.0000      -0.523196       -14.2369
 162   2.0000      -0.513949       -13.9853
 163   2.0000      -0.512504       -13.9459
 164   2.0000      -0.507276       -13.8037
 165   2.0000      -0.502076       -13.6622
 166   2.0000      -0.500544       -13.6205
 167   2.0000      -0.494707       -13.4617
 168   2.0000      -0.491632       -13.3780
 169   2.0000      -0.491127       -13.3642
 170   2.0000      -0.489654       -13.3242
 171   2.0000      -0.484728       -13.1901
 172   2.0000      -0.483263       -13.1502
 173   2.0000      -0.478197       -13.0124
 174   2.0000      -0.476974       -12.9791
 175   2.0000      -0.473254       -12.8779
 176   2.0000      -0.466942       -12.7061
 177   2.0000      -0.465309       -12.6617
 178   2.0000      -0.463264       -12.6060
 179   2.0000      -0.459456       -12.5024
 180   2.0000      -0.459213       -12.4958
 181   2.0000      -0.456028       -12.4092
 182   2.0000      -0.454659       -12.3719
 183   2.0000      -0.453358       -12.3365
 184   2.0000      -0.452427       -12.3112
 185   2.0000      -0.444629       -12.0990
 186   2.0000      -0.441770       -12.0212
 187   2.0000      -0.440816       -11.9952
 188   2.0000      -0.437300       -11.8995
 189   2.0000      -0.435666       -11.8551
 190   2.0000      -0.434901       -11.8343
 191   2.0000      -0.427411       -11.6304
 192   2.0000      -0.424943       -11.5633
 193   2.0000      -0.423699       -11.5294
 194   2.0000      -0.419938       -11.4271
 195   2.0000      -0.416083       -11.3222
 196   2.0000      -0.415656       -11.3106
 197   2.0000      -0.413429       -11.2500
 198   2.0000      -0.408106       -11.1051
 199   2.0000      -0.392820       -10.6892
 200   2.0000      -0.382862       -10.4182
 201   2.0000      -0.380965       -10.3666
 202   2.0000      -0.376455       -10.2439
 203   2.0000      -0.369930       -10.0663
 204   2.0000      -0.361955        -9.8493
 205   2.0000      -0.355525        -9.6743
 206   2.0000      -0.352896        -9.6028
 207   2.0000      -0.349933        -9.5222
 208   2.0000      -0.344055        -9.3622
 209   2.0000      -0.343660        -9.3515
 210   2.0000      -0.338209        -9.2031
 211   2.0000      -0.336272        -9.1504
 212   2.0000      -0.327710        -8.9174
 213   2.0000      -0.321818        -8.7571
 214   2.0000      -0.318753        -8.6737
 215   2.0000      -0.306192        -8.3319
 216   2.0000      -0.293895        -7.9973
 217   2.0000      -0.287250        -7.8165
 218   2.0000      -0.277764        -7.5583
 219   0.0000      -0.112223        -3.0537
 220   0.0000      -0.109453        -2.9784
 221   0.0000      -0.093763        -2.5514
 222   0.0000      -0.082567        -2.2468
 223   0.0000      -0.068368        -1.8604

MULLIKEN ATOMIC CHARGES
-----------------------
   0 C :   -0.087594
   1 C :    0.095211
   2 N :   -0.052874
   3 C :    0.001728
   4 C :    0.067110
   5 C :    0.008289
   6 S :   -0.118750
   7 C :    0.022068
   8 C :    0.010518
   9 N :   -0.028699
  10 C :    0.070145
  11 C :   -0.060837
  12 C :    0.029435
  13 C :    0.146418
  14 F :   -0.167803
  15 C :    0.174930
  16 F :   -0.147547
  17 C :    0.062336
  18 C :    0.019763
  19 C :    0.001509
  20 N :   -0.252638
  21 S :    0.511592
  22 N :   -0.237784
  23 C :   -0.161872
  24 N :   -0.032585
  25 C :    0.082664
  26 C :   -0.039714
  27 C :    0.049687
  28 N :   -0.026388
  29 C :    0.010851
  30 C :   -0.010994
  31 C :    0.059264
  32 C :    0.178272
  33 F :   -0.169630
  34 C :    0.186122
  35 F :   -0.164197
  36 C :   -0.040748
  37 C :    0.031879
  38 C :    0.008996
  39 N :   -0.265682
  40 S :    0.537414
  41 N :   -0.262638
  42 C :   -0.004484
  43 C :   -0.032727
  44 C :    0.276709
  45 C :   -0.330073
  46 C :   -0.191558
  47 N :    0.167284
  48 C :   -0.185353
  49 N :    0.175795
  50 C :    0.016692
  51 C :    0.009216
  52 C :   -0.028007
  53 C :    0.049170
  54 C :    0.046317
  55 C :   -0.031475
  56 C :    0.242528
  57 C :   -0.322235
  58 C :   -0.195041
  59 N :    0.181007
  60 C :   -0.189372
  61 N :    0.172272
  62 H :   -0.003904
  63 H :    0.015455
  64 H :    0.013809
  65 H :    0.010374
  66 H :   -0.001996
  67 H :   -0.004338
  68 H :    0.029173
  69 H :    0.044260
  70 H :    0.009281
  71 H :    0.007218
  72 H :    0.007935
  73 H :    0.008838
Sum of atomic charges:    0.0000000

LOEWDIN ATOMIC CHARGES
----------------------
   0 C :   -0.036414
   1 C :    0.087501
   2 N :   -0.095122
   3 C :    0.037719
   4 C :   -0.015503
   5 C :   -0.148402
   6 S :    0.073343
   7 C :   -0.007462
   8 C :    0.042189
   9 N :   -0.083354
  10 C :    0.094950
  11 C :   -0.039770
  12 C :   -0.048799
  13 C :    0.073166
  14 F :   -0.045212
  15 C :    0.082248
  16 F :   -0.030562
  17 C :   -0.058948
  18 C :   -0.042229
  19 C :   -0.048799
  20 N :   -0.278587
  21 S :    0.652187
  22 N :   -0.266257
  23 C :    0.031283
  24 N :   -0.064968
  25 C :    0.053785
  26 C :   -0.054977
  27 C :    0.032416
  28 N :   -0.072397
  29 C :   -0.014045
  30 C :    0.019154
  31 C :   -0.030312
  32 C :    0.073415
  33 F :   -0.040852
  34 C :    0.086569
  35 F :   -0.037272
  36 C :   -0.069367
  37 C :   -0.040006
  38 C :   -0.041719
  39 N :   -0.273340
  40 S :    0.670586
  41 N :   -0.277868
  42 C :    0.066666
  43 C :   -0.034855
  44 C :    0.077196
  45 C :   -0.120585
  46 C :   -0.018306
  47 N :   -0.038676
  48 C :   -0.025873
  49 N :   -0.027899
  50 C :   -0.012912
  51 C :   -0.008549
  52 C :    0.004543
  53 C :    0.007435
  54 C :    0.004623
  55 C :    0.006534
  56 C :    0.069957
  57 C :   -0.123249
  58 C :   -0.018618
  59 N :   -0.039040
  60 C :   -0.018714
  61 N :   -0.037760
  62 H :    0.034981
  63 H :    0.026108
  64 H :    0.026753
  65 H :    0.028582
  66 H :    0.034942
  67 H :    0.027664
  68 H :    0.044165
  69 H :    0.054437
  70 H :    0.042153
  71 H :    0.038916
  72 H :    0.039082
  73 H :    0.042332

  Mayer bond orders larger than 0.100000
B(  0-C ,  1-C ) :   1.0474 B(  0-C ,  4-C ) :   1.6047 B(  0-C , 62-H ) :   1.0099
B(  1-C ,  2-N ) :   1.6808 B(  1-C , 63-H ) :   0.9879 B(  2-N ,  3-C ) :   1.2768
B(  3-C ,  4-C ) :   1.0435 B(  3-C ,  8-C ) :   1.5303 B(  4-C ,  5-C ) :   0.9876
B(  5-C ,  6-S ) :   1.7072 B(  5-C ,  7-C ) :   1.0306 B(  7-C ,  8-C ) :   1.0488
B(  7-C , 11-C ) :   1.6099 B(  8-C ,  9-N ) :   1.2785 B(  9-N , 10-C ) :   1.7107
B( 10-C , 11-C ) :   1.0504 B( 10-C , 64-H ) :   0.9926 B( 11-C , 12-C ) :   0.9743
B( 12-C , 13-C ) :   1.4331 B( 12-C , 17-C ) :   0.1343 B( 12-C , 19-C ) :   1.2167
B( 13-C , 14-F ) :   1.1604 B( 13-C , 15-C ) :   1.1229 B( 15-C , 16-F ) :   1.1804
B( 15-C , 17-C ) :   1.4383 B( 17-C , 18-C ) :   1.2042 B( 17-C , 23-C ) :   0.9148
B( 17-C , 28-N ) :  -0.1023 B( 18-C , 19-C ) :   1.1416 B( 18-C , 22-N ) :   1.5627
B( 19-C , 20-N ) :   1.5559 B( 20-N , 21-S ) :   1.2589 B( 20-N , 22-N ) :   0.1454
B( 21-S , 22-N ) :   1.2762 B( 23-C , 24-N ) :   1.5918 B( 23-C , 28-N ) :   1.6285
B( 24-N , 25-C ) :   1.5456 B( 25-C , 26-C ) :   1.3624 B( 25-C , 65-H ) :   0.9803
B( 26-C , 27-C ) :   1.3383 B( 26-C , 66-H ) :   0.9756 B( 27-C , 28-N ) :   1.5092
B( 27-C , 29-C ) :   1.0564 B( 29-C , 30-C ) :   1.6890 B( 29-C , 67-H ) :   0.9752
B( 30-C , 31-C ) :   1.1004 B( 30-C , 68-H ) :   0.9726 B( 31-C , 32-C ) :   1.3789
B( 31-C , 36-C ) :   0.1319 B( 31-C , 38-C ) :   1.1547 B( 32-C , 33-F ) :   1.1333
B( 32-C , 34-C ) :   1.1627 B( 34-C , 35-F ) :   1.1416 B( 34-C , 36-C ) :   1.3685
B( 36-C , 37-C ) :   1.1801 B( 36-C , 42-C ) :   1.0954 B( 37-C , 38-C ) :   1.1484
B( 37-C , 41-N ) :   1.5780 B( 38-C , 39-N ) :   1.5660 B( 39-N , 40-S ) :   1.2778
B( 39-N , 41-N ) :   0.1451 B( 40-S , 41-N ) :   1.2636 B( 42-C , 43-C ) :   1.6907
B( 42-C , 69-H ) :   0.9233 B( 43-C , 44-C ) :   1.0249 B( 43-C , 56-C ) :   0.9956
B( 44-C , 45-C ) :   1.6713 B( 44-C , 50-C ) :   1.0054 B( 45-C , 46-C ) :   1.1429
B( 45-C , 48-C ) :   1.1286 B( 46-C , 47-N ) :   2.9843 B( 48-C , 49-N ) :   2.9856
B( 50-C , 51-C ) :   1.3058 B( 50-C , 55-C ) :   1.3759 B( 51-C , 52-C ) :   1.3801
B( 51-C , 56-C ) :   1.0160 B( 52-C , 53-C ) :   1.3700 B( 52-C , 70-H ) :   0.9865
B( 53-C , 54-C ) :   1.3715 B( 53-C , 71-H ) :   0.9870 B( 54-C , 55-C ) :   1.3756
B( 54-C , 72-H ) :   0.9869 B( 55-C , 73-H ) :   0.9846 B( 56-C , 57-C ) :   1.6715
B( 57-C , 58-C ) :   1.1647 B( 57-C , 60-C ) :   1.1371 B( 58-C , 59-N ) :   2.9979
B( 60-C , 61-N ) :   3.0002

-----------------------------------------------------------------------------
         ABSORPTION SPECTRUM VIA TRANSITION ELECTRIC DIPOLE MOMENTS
-----------------------------------------------------------------------------
State   Energy  Wavelength   fosc         T2         TX        TY        TZ
        (cm-1)    (nm)                  (au**2)     (au)      (au)      (au)
-----------------------------------------------------------------------------
   0   14958.3    668.5   0.004321171   0.09510   0.20867  -0.19366  -0.11856
   1   17467.0    572.5   0.004296429   0.08098  -0.11338   0.24338   0.09427
   2   20020.3    499.5   0.038820133   0.63836  -0.56896   0.47289   0.30168
   3   21456.2    466.1   0.943932937  14.48317  -3.53678   0.89692   1.08161
   4   22230.5    449.8   0.047797302   0.70783  -0.13493   0.78471   0.27177
   5   25662.7    389.7   0.010407202   0.13351  -0.20873   0.06715   0.29229
   6   25829.9    387.1   0.174423552   2.22309   1.21083   0.62077  -0.60961
   7   25990.8    384.8   0.005607143   0.07102  -0.06306   0.23816   0.10162
   8   26757.6    373.7   0.341116474   4.19692   1.05819  -1.50316  -0.90424
   9   26848.8    372.5   0.103857945   1.27347  -0.24752   1.06763   0.26902
  10   26928.2    371.4   0.021182730   0.25897  -0.36946  -0.05212   0.34605
  11   27286.2    366.5   0.036533885   0.44079   0.46338   0.33870  -0.33369
  12   28494.9    350.9   0.047772548   0.55193  -0.46153   0.56206   0.15170
  13   28830.8    346.9   0.050063371   0.57166   0.44359  -0.49878  -0.35512
  14   29073.0    344.0   0.004278738   0.04845  -0.19511  -0.06689   0.07688
  15   29501.7    339.0   0.056484259   0.63031   0.64642  -0.43095  -0.16350
  16   29654.4    337.2   0.005771805   0.06408   0.21517  -0.13180  -0.02020
  17   30186.0    331.3   0.045872146   0.50029   0.54173   0.10087  -0.44344
  18   30424.3    328.7   0.072275228   0.78207  -0.47486  -0.14709   0.73140
  19   30693.1    325.8   0.064500491   0.69183  -0.80741  -0.19083  -0.05922
  20   30857.6    324.1   0.001167391   0.01245   0.09214  -0.00113  -0.06295
  21   31592.0    316.5   0.306777133   3.19685  -1.08902  -1.39909   0.23112
  22   32889.7    304.0   0.120910476   1.21026  -0.21958   0.93396   0.53830
  23   33251.7    300.7   0.484457664   4.79642   1.09760   1.53207  -1.11556
  24   33719.7    296.6   0.001810240   0.01767  -0.01310   0.01331  -0.13162
  25   33775.6    296.1   0.004378486   0.04268   0.16874  -0.08266   0.08587
  26   33871.7    295.2   0.011873506   0.11540  -0.19185  -0.11213   0.25695
  27   34131.9    293.0   0.032694750   0.31535  -0.01622   0.44847   0.33758
  28   34388.0    290.8   0.024893096   0.23831  -0.06418   0.44807   0.18284
  29   34914.7    286.4   0.052305058   0.49319  -0.38838  -0.52424   0.25985
  30   35255.3    283.6   0.063295856   0.59105  -0.36013   0.18454   0.65369
  31   35310.5    283.2   0.256004722   2.38682   0.70453  -1.10339  -0.82035
  32   35518.6    281.5   0.056621587   0.52481  -0.05970   0.62680   0.35829
  33   35842.0    279.0   0.048134888   0.44212  -0.41986   0.30786   0.41360
  34   36079.7    277.2   0.010060685   0.09180  -0.01956  -0.22442  -0.20261
  35   36379.1    274.9   0.001445006   0.01308   0.01031   0.06549  -0.09317
  36   36463.9    274.2   0.008785941   0.07932   0.07282   0.27116   0.02225
  37   36525.8    273.8   0.095800662   0.86347  -0.39030  -0.80128  -0.26284
  38   36752.7    272.1   0.036743253   0.32913   0.37908  -0.34328  -0.25996
  39   36856.5    271.3   0.063753462   0.56946   0.62867  -0.02429  -0.41671
  40   37405.2    267.3   0.152396477   1.34128  -1.01694  -0.55416   0.00468
  41   38303.3    261.1   0.235802693   2.02669  -0.68189   0.81663   0.94596
  42   38446.2    260.1   0.092470563   0.79182  -0.71163  -0.34960  -0.40395
  43   38574.1    259.2   0.009090111   0.07758  -0.27625   0.01674   0.03136
  44   38700.0    258.4   0.128076197   1.08951   0.62385  -0.70131  -0.45660
  45   38948.0    256.8   0.103762213   0.87706   0.92316  -0.11212  -0.11074
  46   39166.6    255.3   0.109257655   0.91836  -0.34664   0.67437   0.58602
  47   39255.8    254.7   0.143487266   1.20333   0.80469   0.29049   0.68660
  48   39365.4    254.0   0.005986834   0.05007   0.19257  -0.05864   0.09770
  49   39694.0    251.9   0.143500471   1.19016   0.83425  -0.66597  -0.22509
  50   39872.7    250.8   0.005326729   0.04398  -0.08361  -0.19175  -0.01496
  51   40050.3    249.7   0.106744688   0.87744   0.62588  -0.60637  -0.34355
  52   40179.6    248.9   0.003247329   0.02661  -0.15177  -0.00007  -0.05978
  53   40302.0    248.1   0.024217785   0.19783  -0.40219   0.18799  -0.02696

FINAL SINGLE POINT ENERGY     -3892.841254027569

DIPOLE MOMENT
-------------
                                X             Y             Z
Electronic contribution:      9.35278      -9.42908      -7.79156
Nuclear contribution   :     -8.29451      11.26131       9.15385
                        -----------------------------------------
Total Dipole Moment    :      1.05826       1.83223       1.36229
                        -----------------------------------------
Magnitude (a.u.)       :      2.51651
Magnitude (Debye)      :      6.39645

Rotational constants in cm-1:     0.003160     0.000383     0.000351
Rotational constants in MHz :    94.722888    11.473894    10.511608

                             ****ORCA TERMINATED NORMALLY****
TOTAL RUN TIME: 0 days 0 hours 6 minutes 36 seconds 966 msec
