                         Program Version 4.2.0 -  RELEASE  -
|  1> # ORCA input file
|  2> # SCF done       -149.236313669637          0.000518129493
|  3> ! CAM-B3LYP def2-SVP def2/J RIJCOSX Grid4 TightSCF
|  4> %maxcore 5000
|  5> %tddft
|  6>     Mode sTDDFT
|  7>     Ethresh 5.0
|  8>     maxcore 5000
|  9> end
| 10>
| 11> %pal
| 12>   nprocs 6
| 13>   end
| 14> * xyz 0 1
| 15>    C      -10.33829         8.17756        10.73853
| 16>    C      -10.50793         9.24099        11.73651
| 17>    N       -9.41983         9.89387        12.00012
| 18>    C       -8.45135         9.32150        11.21170
| 19>    C       -9.02581         8.22794        10.41928
| 20>    C       -7.97227         7.64799         9.58654
| 21>    S       -8.31697         6.38720         8.45583
| 22>    C       -6.83157         8.36410         9.84431
| 23>    C       -7.13576         9.42678        10.86610
| 24>    N       -6.04781        10.19410        11.08878
| 25>    C       -5.11095         9.74155        10.29517
| 26>    C       -5.47655         8.59641         9.48571
| 27>    C       -4.63251         7.97121         8.57658
| 28>    C       -3.37342         8.53725         8.08224
| 29>    N       -2.76072         7.81471         7.19111
| 30>    C       -3.51293         6.69408         7.02731
| 31>    C       -4.71925         6.74359         7.89240
| 32>    C       -5.43047         5.55529         7.74139
| 33>    S       -6.80646         4.97116         8.62670
| 34>    C       -4.71039         4.76720         6.79724
| 35>    C       -3.52875         5.49666         6.36043
| 36>    N       -2.81449         4.75237         5.45029
| 37>    C       -3.46779         3.64841         5.29383
| 38>    C       -4.69412         3.54530         6.11733
| 39>    C       -5.60783         2.50658         6.24015
| 40>    C       -5.62628         1.28589         5.58368
| 41>    C       -6.56785         0.26183         5.80908
| 42>    C       -6.35653        -0.86983         5.06638
| 43>    C       -5.24170        -0.78050         4.21816
| 44>    S       -4.47589         0.77497         4.37289
| 45>    C       -4.71822        -1.75385         3.36631
| 46>    C       -5.14582        -3.08112         3.19157
| 47>    C       -4.36696        -3.79132         2.31950
| 48>    C       -3.28493        -3.05879         1.78550
| 49>    S       -3.31884        -1.42579         2.38812
| 50>    C       -2.38996        -3.52569         0.83755
| 51>    C       -1.27106        -2.90370         0.29117
| 52>    C       -0.77522        -3.31576        -1.04525
| 53>    N        0.19075        -2.59813        -1.50313
| 54>    C        0.48045        -1.68990        -0.51683
| 55>    C       -0.40956        -1.85834         0.64104
| 56>    C        0.03270        -0.97186         1.67304
| 57>    S       -0.41783        -1.05046         3.34824
| 58>    C        1.10169        -0.23834         1.15161
| 59>    C        1.37620        -0.70101        -0.22695
| 60>    N        2.46218        -0.06189        -0.74437
| 61>    C        2.89257         0.72919         0.19012
| 62>    C        2.10014         0.71376         1.42718
| 63>    C        2.36195         1.52222         2.52805
| 64>    C        3.58478         2.28358         2.70719
| 65>    N        3.63645         3.02149         3.78510
| 66>    C        2.45537         2.85225         4.41667
| 67>    C        1.59176         1.87641         3.66560
| 68>    C        0.38581         1.75409         4.31161
| 69>    S       -1.03442         0.85704         3.92570
| 70>    C        0.43493         2.64836         5.46483
| 71>    C        1.74994         3.30556         5.49266
| 72>    N        1.82587         4.16666         6.55828
| 73>    C        0.67704         4.08108         7.15276
| 74>    C       -0.25323         3.13840         6.51976
| 75>    H      -11.11573         7.53415        10.37498
| 76>    H      -11.43344         9.48657        12.22583
| 77>    H       -4.14113        10.20874        10.29870
| 78>    H       -2.96527         9.48700         8.37965
| 79>    H       -3.09795         2.89335         4.62293
| 80>    H       -6.40867         2.66401         6.95388
| 81>    H       -7.36757         0.38026         6.51860
| 82>    H       -6.97227        -1.74934         5.11707
| 83>    H       -5.99831        -3.48348         3.70787
| 84>    H       -4.52932        -4.82299         2.06254
| 85>    H       -2.64194        -4.48858         0.40607
| 86>    H       -1.19887        -4.11877        -1.62284
| 87>    H        3.75372         1.34972         0.01697
| 88>    H        4.42907         2.26003         2.04020
| 89>    H        0.46034         4.66747         8.02747
| 90>    H       -1.24707         2.92581         6.85975
| 91> *
| 92>
| 93>                          ****END OF INPUT****

CARTESIAN COORDINATES (ANGSTROEM)
---------------------------------
  C    -10.338290    8.177560   10.738530
  C    -10.507930    9.240990   11.736510
  N     -9.419830    9.893870   12.000120
  C     -8.451350    9.321500   11.211700
  C     -9.025810    8.227940   10.419280
  C     -7.972270    7.647990    9.586540
  S     -8.316970    6.387200    8.455830
  C     -6.831570    8.364100    9.844310
  C     -7.135760    9.426780   10.866100
  N     -6.047810   10.194100   11.088780
  C     -5.110950    9.741550   10.295170
  C     -5.476550    8.596410    9.485710
  C     -4.632510    7.971210    8.576580
  C     -3.373420    8.537250    8.082240
  N     -2.760720    7.814710    7.191110
  C     -3.512930    6.694080    7.027310
  C     -4.719250    6.743590    7.892400
  C     -5.430470    5.555290    7.741390
  S     -6.806460    4.971160    8.626700
  C     -4.710390    4.767200    6.797240
  C     -3.528750    5.496660    6.360430
  N     -2.814490    4.752370    5.450290
  C     -3.467790    3.648410    5.293830
  C     -4.694120    3.545300    6.117330
  C     -5.607830    2.506580    6.240150
  C     -5.626280    1.285890    5.583680
  C     -6.567850    0.261830    5.809080
  C     -6.356530   -0.869830    5.066380
  C     -5.241700   -0.780500    4.218160
  S     -4.475890    0.774970    4.372890
  C     -4.718220   -1.753850    3.366310
  C     -5.145820   -3.081120    3.191570
  C     -4.366960   -3.791320    2.319500
  C     -3.284930   -3.058790    1.785500
  S     -3.318840   -1.425790    2.388120
  C     -2.389960   -3.525690    0.837550
  C     -1.271060   -2.903700    0.291170
  C     -0.775220   -3.315760   -1.045250
  N      0.190750   -2.598130   -1.503130
  C      0.480450   -1.689900   -0.516830
  C     -0.409560   -1.858340    0.641040
  C      0.032700   -0.971860    1.673040
  S     -0.417830   -1.050460    3.348240
  C      1.101690   -0.238340    1.151610
  C      1.376200   -0.701010   -0.226950
  N      2.462180   -0.061890   -0.744370
  C      2.892570    0.729190    0.190120
  C      2.100140    0.713760    1.427180
  C      2.361950    1.522220    2.528050
  C      3.584780    2.283580    2.707190
  N      3.636450    3.021490    3.785100
  C      2.455370    2.852250    4.416670
  C      1.591760    1.876410    3.665600
  C      0.385810    1.754090    4.311610
  S     -1.034420    0.857040    3.925700
  C      0.434930    2.648360    5.464830
  C      1.749940    3.305560    5.492660
  N      1.825870    4.166660    6.558280
  C      0.677040    4.081080    7.152760
  C     -0.253230    3.138400    6.519760
  H    -11.115730    7.534150   10.374980
  H    -11.433440    9.486570   12.225830
  H     -4.141130   10.208740   10.298700
  H     -2.965270    9.487000    8.379650
  H     -3.097950    2.893350    4.622930
  H     -6.408670    2.664010    6.953880
  H     -7.367570    0.380260    6.518600
  H     -6.972270   -1.749340    5.117070
  H     -5.998310   -3.483480    3.707870
  H     -4.529320   -4.822990    2.062540
  H     -2.641940   -4.488580    0.406070
  H     -1.198870   -4.118770   -1.622840
  H      3.753720    1.349720    0.016970
  H      4.429070    2.260030    2.040200
  H      0.460340    4.667470    8.027470
  H     -1.247070    2.925810    6.859750

 Total Charge           Charge          ....    0
 Multiplicity           Mult            ....    1
 Number of Electrons    NEL             ....  444
 Basis Dimension        Dim             ....  944

ORBITAL ENERGIES
----------------

  NO   OCC          E(Eh)            E(eV)
   0   2.0000     -88.975693     -2421.1517
   1   2.0000     -88.973809     -2421.1004
   2   2.0000     -88.967693     -2420.9340
   3   2.0000     -88.967503     -2420.9288
   4   2.0000     -88.961593     -2420.7680
   5   2.0000     -88.956884     -2420.6399
   6   2.0000     -14.421049      -392.4167
   7   2.0000     -14.419189      -392.3661
   8   2.0000     -14.414739      -392.2450
   9   2.0000     -14.414509      -392.2387
  10   2.0000     -14.410924      -392.1412
  11   2.0000     -14.404493      -391.9662
  12   2.0000     -14.400289      -391.8518
  13   2.0000     -14.392955      -391.6522
  14   2.0000     -10.341545      -281.4077
  15   2.0000     -10.340715      -281.3852
  16   2.0000     -10.339941      -281.3641
  17   2.0000     -10.339208      -281.3441
  18   2.0000     -10.336834      -281.2795
  19   2.0000     -10.336226      -281.2630
  20   2.0000     -10.332972      -281.1745
  21   2.0000     -10.331627      -281.1379
  22   2.0000     -10.327811      -281.0340
  23   2.0000     -10.327024      -281.0126
  24   2.0000     -10.326370      -280.9948
  25   2.0000     -10.326295      -280.9928
  26   2.0000     -10.321406      -280.8597
  27   2.0000     -10.320736      -280.8415
  28   2.0000     -10.318531      -280.7815
  29   2.0000     -10.317586      -280.7558
  30   2.0000     -10.315900      -280.7099
  31   2.0000     -10.313539      -280.6457
  32   2.0000     -10.313234      -280.6374
  33   2.0000     -10.312388      -280.6143
  34   2.0000     -10.312348      -280.6133
  35   2.0000     -10.311727      -280.5963
  36   2.0000     -10.311663      -280.5946
  37   2.0000     -10.311051      -280.5779
  38   2.0000     -10.310877      -280.5732
  39   2.0000     -10.310076      -280.5514
  40   2.0000     -10.308614      -280.5116
  41   2.0000     -10.307969      -280.4941
  42   2.0000     -10.307908      -280.4924
  43   2.0000     -10.306629      -280.4576
  44   2.0000     -10.304904      -280.4107
  45   2.0000     -10.302913      -280.3565
  46   2.0000     -10.301308      -280.3128
  47   2.0000     -10.300269      -280.2846
  48   2.0000     -10.299542      -280.2648
  49   2.0000     -10.296161      -280.1728
  50   2.0000     -10.294478      -280.1270
  51   2.0000     -10.293323      -280.0956
  52   2.0000     -10.291724      -280.0520
  53   2.0000     -10.291525      -280.0466
  54   2.0000     -10.289847      -280.0010
  55   2.0000     -10.289207      -279.9836
  56   2.0000     -10.287425      -279.9351
  57   2.0000     -10.285882      -279.8931
  58   2.0000     -10.285671      -279.8873
  59   2.0000     -10.280825      -279.7555
  60   2.0000      -8.071685      -219.6417
  61   2.0000      -8.069800      -219.5904
  62   2.0000      -8.062712      -219.3975
  63   2.0000      -8.062191      -219.3834
  64   2.0000      -8.056077      -219.2170
  65   2.0000      -8.051365      -219.0888
  66   2.0000      -6.041336      -164.3931
  67   2.0000      -6.039323      -164.3383
  68   2.0000      -6.037114      -164.2782
  69   2.0000      -6.035087      -164.2231
  70   2.0000      -6.033678      -164.1847
  71   2.0000      -6.033177      -164.1711
  72   2.0000      -6.032883      -164.1631
  73   2.0000      -6.031192      -164.1171
  74   2.0000      -6.028813      -164.0523
  75   2.0000      -6.028399      -164.0411
  76   2.0000      -6.026883      -163.9998
  77   2.0000      -6.022523      -163.8812
  78   2.0000      -6.022209      -163.8726
  79   2.0000      -6.021871      -163.8634
  80   2.0000      -6.021296      -163.8478
  81   2.0000      -6.017671      -163.7492
  82   2.0000      -6.015475      -163.6894
  83   2.0000      -6.010194      -163.5457
  84   2.0000      -1.081443       -29.4276
  85   2.0000      -1.077220       -29.3126
  86   2.0000      -1.074369       -29.2351
  87   2.0000      -1.070057       -29.1177
  88   2.0000      -1.058814       -28.8118
  89   2.0000      -1.052057       -28.6279
  90   2.0000      -1.051959       -28.6253
  91   2.0000      -1.044961       -28.4348
  92   2.0000      -1.025547       -27.9065
  93   2.0000      -1.002959       -27.2919
  94   2.0000      -0.972558       -26.4647
  95   2.0000      -0.965093       -26.2615
  96   2.0000      -0.957666       -26.0594
  97   2.0000      -0.950325       -25.8596
  98   2.0000      -0.927776       -25.2461
  99   2.0000      -0.912937       -24.8423
 100   2.0000      -0.910897       -24.7868
 101   2.0000      -0.910527       -24.7767
 102   2.0000      -0.905076       -24.6284
 103   2.0000      -0.903009       -24.5721
 104   2.0000      -0.880342       -23.9553
 105   2.0000      -0.864103       -23.5134
 106   2.0000      -0.857274       -23.3276
 107   2.0000      -0.852133       -23.1877
 108   2.0000      -0.849799       -23.1242
 109   2.0000      -0.846541       -23.0355
 110   2.0000      -0.840640       -22.8750
 111   2.0000      -0.837271       -22.7833
 112   2.0000      -0.824101       -22.4249
 113   2.0000      -0.817985       -22.2585
 114   2.0000      -0.798900       -21.7392
 115   2.0000      -0.786827       -21.4107
 116   2.0000      -0.781125       -21.2555
 117   2.0000      -0.775083       -21.0911
 118   2.0000      -0.767247       -20.8778
 119   2.0000      -0.763627       -20.7793
 120   2.0000      -0.758335       -20.6353
 121   2.0000      -0.740537       -20.1510
 122   2.0000      -0.727569       -19.7982
 123   2.0000      -0.721196       -19.6247
 124   2.0000      -0.710573       -19.3357
 125   2.0000      -0.705162       -19.1884
 126   2.0000      -0.701606       -19.0917
 127   2.0000      -0.686879       -18.6909
 128   2.0000      -0.682306       -18.5665
 129   2.0000      -0.680315       -18.5123
 130   2.0000      -0.672911       -18.3109
 131   2.0000      -0.672670       -18.3043
 132   2.0000      -0.654982       -17.8230
 133   2.0000      -0.651582       -17.7304
 134   2.0000      -0.647572       -17.6213
 135   2.0000      -0.643621       -17.5138
 136   2.0000      -0.639487       -17.4013
 137   2.0000      -0.638927       -17.3861
 138   2.0000      -0.624360       -16.9897
 139   2.0000      -0.623748       -16.9730
 140   2.0000      -0.615589       -16.7510
 141   2.0000      -0.608758       -16.5651
 142   2.0000      -0.597760       -16.2659
 143   2.0000      -0.583345       -15.8736
 144   2.0000      -0.579466       -15.7681
 145   2.0000      -0.576192       -15.6790
 146   2.0000      -0.572476       -15.5779
 147   2.0000      -0.568365       -15.4660
 148   2.0000      -0.564451       -15.3595
 149   2.0000      -0.562353       -15.3024
 150   2.0000      -0.557881       -15.1807
 151   2.0000      -0.555241       -15.1089
 152   2.0000      -0.549557       -14.9542
 153   2.0000      -0.545421       -14.8417
 154   2.0000      -0.543036       -14.7767
 155   2.0000      -0.537647       -14.6301
 156   2.0000      -0.536209       -14.5910
 157   2.0000      -0.533380       -14.5140
 158   2.0000      -0.528485       -14.3808
 159   2.0000      -0.526963       -14.3394
 160   2.0000      -0.525086       -14.2883
 161   2.0000      -0.522624       -14.2213
 162   2.0000      -0.519819       -14.1450
 163   2.0000      -0.516893       -14.0654
 164   2.0000      -0.516114       -14.0442
 165   2.0000      -0.509795       -13.8722
 166   2.0000      -0.502976       -13.6867
 167   2.0000      -0.498718       -13.5708
 168   2.0000      -0.496048       -13.4982
 169   2.0000      -0.494878       -13.4663
 170   2.0000      -0.491968       -13.3871
 171   2.0000      -0.488987       -13.3060
 172   2.0000      -0.488046       -13.2804
 173   2.0000      -0.484645       -13.1879
 174   2.0000      -0.483896       -13.1675
 175   2.0000      -0.481387       -13.0992
 176   2.0000      -0.476155       -12.9568
 177   2.0000      -0.473146       -12.8750
 178   2.0000      -0.470707       -12.8086
 179   2.0000      -0.468485       -12.7481
 180   2.0000      -0.465008       -12.6535
 181   2.0000      -0.464299       -12.6342
 182   2.0000      -0.461025       -12.5451
 183   2.0000      -0.454702       -12.3731
 184   2.0000      -0.451514       -12.2863
 185   2.0000      -0.449768       -12.2388
 186   2.0000      -0.448438       -12.2026
 187   2.0000      -0.440188       -11.9781
 188   2.0000      -0.435936       -11.8624
 189   2.0000      -0.432363       -11.7652
 190   2.0000      -0.424599       -11.5539
 191   2.0000      -0.423880       -11.5344
 192   2.0000      -0.419844       -11.4245
 193   2.0000      -0.411483       -11.1970
 194   2.0000      -0.393457       -10.7065
 195   2.0000      -0.387776       -10.5519
 196   2.0000      -0.385663       -10.4944
 197   2.0000      -0.380189       -10.3455
 198   2.0000      -0.373438       -10.1618
 199   2.0000      -0.364564        -9.9203
 200   2.0000      -0.362254        -9.8574
 201   2.0000      -0.356512        -9.7012
 202   2.0000      -0.354429        -9.6445
 203   2.0000      -0.354143        -9.6367
 204   2.0000      -0.350126        -9.5274
 205   2.0000      -0.345491        -9.4013
 206   2.0000      -0.343142        -9.3374
 207   2.0000      -0.340510        -9.2658
 208   2.0000      -0.339394        -9.2354
 209   2.0000      -0.338516        -9.2115
 210   2.0000      -0.335351        -9.1254
 211   2.0000      -0.326779        -8.8921
 212   2.0000      -0.324711        -8.8358
 213   2.0000      -0.323449        -8.8015
 214   2.0000      -0.316062        -8.6005
 215   2.0000      -0.310298        -8.4436
 216   2.0000      -0.300137        -8.1672
 217   2.0000      -0.295750        -8.0478
 218   2.0000      -0.291946        -7.9442
 219   2.0000      -0.244842        -6.6625
 220   2.0000      -0.235594        -6.4108
 221   2.0000      -0.223843        -6.0911
 222   0.0000      -0.140161        -3.8140
 223   0.0000      -0.103471        -2.8156
 224   0.0000      -0.097271        -2.6469
 225   0.0000      -0.092382        -2.5138
 226   0.0000      -0.087784        -2.3887

MULLIKEN ATOMIC CHARGES
-----------------------
   0 C :   -0.099143
   1 C :    0.067101
   2 N :   -0.041474
   3 C :   -0.011555
   4 C :    0.048009
   5 C :   -0.069480
   6 S :    0.032805
   7 C :    0.027809
   8 C :   -0.017879
   9 N :   -0.019122
  10 C :    0.051276
  11 C :    0.005816
  12 C :    0.010796
  13 C :    0.045971
  14 N :   -0.008393
  15 C :   -0.024717
  16 C :    0.009465
  17 C :   -0.085751
  18 S :    0.014213
  19 C :   -0.028697
  20 C :   -0.026310
  21 N :   -0.010412
  22 C :    0.011854
  23 C :    0.036652
  24 C :   -0.063157
  25 C :   -0.016642
  26 C :    0.031902
  27 C :    0.035582
  28 C :   -0.027707
  29 S :    0.096083
  30 C :   -0.053642
  31 C :    0.034931
  32 C :    0.038142
  33 C :   -0.026361
  34 S :    0.159059
  35 C :   -0.041533
  36 C :    0.007818
  37 C :    0.031065
  38 N :   -0.011429
  39 C :   -0.048693
  40 C :   -0.016688
  41 C :   -0.118671
  42 S :    0.013502
  43 C :    0.018030
  44 C :    0.006114
  45 N :   -0.014715
  46 C :    0.042150
  47 C :    0.005386
  48 C :    0.016350
  49 C :    0.042001
  50 N :   -0.009811
  51 C :   -0.025961
  52 C :    0.022931
  53 C :   -0.041160
  54 S :    0.004640
  55 C :    0.037858
  56 C :   -0.011502
  57 N :   -0.039958
  58 C :    0.070948
  59 C :   -0.063743
  60 H :   -0.010052
  61 H :    0.002209
  62 H :    0.009568
  63 H :    0.006448
  64 H :    0.008386
  65 H :   -0.003215
  66 H :    0.003835
  67 H :   -0.001835
  68 H :   -0.005117
  69 H :   -0.000429
  70 H :   -0.003888
  71 H :   -0.006627
  72 H :    0.004005
  73 H :    0.008706
  74 H :    0.001967
  75 H :   -0.015917
Sum of atomic charges:   -0.0000000

LOEWDIN ATOMIC CHARGES
----------------------
   0 C :   -0.024287
   1 C :    0.043710
   2 N :   -0.077832
   3 C :   -0.023669
   4 C :   -0.034713
   5 C :   -0.171082
   6 S :    0.213267
   7 C :   -0.036826
   8 C :    0.044453
   9 N :   -0.065501
  10 C :    0.089421
  11 C :   -0.053117
  12 C :   -0.046624
  13 C :    0.079594
  14 N :   -0.062979
  15 C :    0.033562
  16 C :   -0.048505
  17 C :   -0.179855
  18 S :    0.202840
  19 C :   -0.048818
  20 C :   -0.034608
  21 N :   -0.050198
  22 C :    0.029541
  23 C :   -0.029961
  24 C :   -0.042469
  25 C :   -0.133728
  26 C :   -0.023608
  27 C :   -0.022824
  28 C :   -0.169306
  29 S :    0.423064
  30 C :   -0.173041
  31 C :   -0.026840
  32 C :   -0.023905
  33 C :   -0.134469
  34 S :    0.442653
  35 C :   -0.046579
  36 C :   -0.038639
  37 C :    0.044960
  38 N :   -0.057447
  39 C :   -0.025987
  40 C :   -0.051262
  41 C :   -0.200724
  42 S :    0.201878
  43 C :   -0.037688
  44 C :    0.026123
  45 N :   -0.065915
  46 C :    0.075604
  47 C :   -0.051523
  48 C :   -0.047356
  49 C :    0.084150
  50 N :   -0.062390
  51 C :    0.039245
  52 C :   -0.040683
  53 C :   -0.163297
  54 S :    0.205509
  55 C :   -0.038637
  56 C :   -0.015462
  57 N :   -0.077698
  58 C :    0.053184
  59 C :   -0.008790
  60 H :    0.030116
  61 H :    0.019185
  62 H :    0.026337
  63 H :    0.024061
  64 H :    0.000567
  65 H :    0.034076
  66 H :    0.039605
  67 H :    0.036822
  68 H :    0.035445
  69 H :    0.038065
  70 H :    0.040523
  71 H :    0.018284
  72 H :    0.022489
  73 H :    0.025251
  74 H :    0.019869
  75 H :    0.025388

  Mayer bond orders larger than 0.100000
B(  0-C ,  1-C ) :   0.9974 B(  0-C ,  4-C ) :   1.6358 B(  0-C , 60-H ) :   1.0060
B(  1-C ,  2-N ) :   1.7831 B(  1-C , 61-H ) :   0.9877 B(  2-N ,  3-C ) :   1.2083
B(  3-C ,  4-C ) :   1.0922 B(  3-C ,  8-C ) :   1.5953 B(  4-C ,  5-C ) :   0.9695
B(  4-C ,  7-C ) :   0.1041 B(  5-C ,  6-S ) :   1.0353 B(  5-C ,  7-C ) :   1.5596
B(  6-S , 18-S ) :   1.0160 B(  7-C ,  8-C ) :   1.0199 B(  7-C , 11-C ) :   1.1254
B(  8-C ,  9-N ) :   1.2806 B(  9-N , 10-C ) :   1.6967 B( 10-C , 11-C ) :   1.0603
B( 10-C , 62-H ) :   0.9898 B( 11-C , 12-C ) :   1.3490 B( 12-C , 13-C ) :   1.0259
B( 12-C , 16-C ) :   1.1651 B( 13-C , 14-N ) :   1.7308 B( 13-C , 63-H ) :   0.9878
B( 14-N , 15-C ) :   1.2550 B( 15-C , 16-C ) :   1.0616 B( 15-C , 20-C ) :   1.5630
B( 16-C , 17-C ) :   1.4454 B( 16-C , 19-C ) :   0.1100 B( 17-C , 18-S ) :   1.0306
B( 17-C , 19-C ) :   1.0969 B( 19-C , 20-C ) :   1.1322 B( 19-C , 23-C ) :   1.4040
B( 20-C , 21-N ) :   1.1965 B( 21-N , 22-C ) :   1.8114 B( 22-C , 23-C ) :   0.9506
B( 22-C , 64-H ) :   0.9816 B( 23-C , 24-C ) :   1.2135 B( 24-C , 25-C ) :   1.4625
B( 24-C , 65-H ) :   0.9660 B( 25-C , 26-C ) :   1.1856 B( 25-C , 29-S ) :   1.0653
B( 26-C , 27-C ) :   1.5307 B( 26-C , 66-H ) :   1.0019 B( 27-C , 28-C ) :   1.2320
B( 27-C , 67-H ) :   0.9948 B( 28-C , 29-S ) :   1.0758 B( 28-C , 30-C ) :   1.4104
B( 30-C , 31-C ) :   1.2183 B( 30-C , 34-S ) :   1.0888 B( 31-C , 32-C ) :   1.5477
B( 31-C , 68-H ) :   0.9947 B( 32-C , 33-C ) :   1.1770 B( 32-C , 69-H ) :   0.9986
B( 33-C , 34-S ) :   1.0857 B( 33-C , 35-C ) :   1.4858 B( 35-C , 36-C ) :   1.2234
B( 35-C , 70-H ) :   0.9542 B( 36-C , 37-C ) :   0.9615 B( 36-C , 40-C ) :   1.3867
B( 37-C , 38-N ) :   1.8362 B( 37-C , 71-H ) :   0.9916 B( 38-N , 39-C ) :   1.1957
B( 39-C , 40-C ) :   1.1231 B( 39-C , 44-C ) :   1.5808 B( 40-C , 41-C ) :   1.1057
B( 40-C , 43-C ) :   0.1065 B( 41-C , 42-S ) :   1.0423 B( 41-C , 43-C ) :   1.4261
B( 42-S , 54-S ) :   0.9943 B( 43-C , 44-C ) :   1.0527 B( 43-C , 47-C ) :   1.1723
B( 44-C , 45-N ) :   1.2482 B( 45-N , 46-C ) :   1.7473 B( 46-C , 47-C ) :   1.0232
B( 46-C , 72-H ) :   0.9869 B( 47-C , 48-C ) :   1.3451 B( 48-C , 49-C ) :   1.0572
B( 48-C , 52-C ) :   1.1351 B( 49-C , 50-N ) :   1.7016 B( 49-C , 73-H ) :   0.9893
B( 50-N , 51-C ) :   1.2797 B( 51-C , 52-C ) :   1.0269 B( 51-C , 56-C ) :   1.6016
B( 52-C , 53-C ) :   1.5302 B( 52-C , 55-C ) :   0.1077 B( 53-C , 54-S ) :   1.0538
B( 53-C , 55-C ) :   0.9750 B( 55-C , 56-C ) :   1.0870 B( 55-C , 59-C ) :   1.6393
B( 56-C , 57-N ) :   1.2107 B( 57-N , 58-C ) :   1.7795 B( 58-C , 59-C ) :   0.9972
B( 58-C , 74-H ) :   0.9881 B( 59-C , 75-H ) :   0.9970

-----------------------------------------------------------------------------
         ABSORPTION SPECTRUM VIA TRANSITION ELECTRIC DIPOLE MOMENTS
-----------------------------------------------------------------------------
State   Energy  Wavelength   fosc         T2         TX        TY        TZ
        (cm-1)    (nm)                  (au**2)     (au)      (au)      (au)
-----------------------------------------------------------------------------
   0    2802.5   3568.2   0.026309826   3.09060   1.32001  -0.76579  -0.87277
   1    5428.5   1842.1   0.071221924   4.31926  -0.82225   1.54509   1.12064
   2    8116.2   1232.1   0.412889107  16.74766   2.46970  -2.38013  -2.23231
   3    9968.7   1003.1   0.030098904   0.99400   0.13820   0.86004   0.48501
   4   10639.4    939.9   0.005290560   0.16370  -0.13498   0.28350   0.25517
   5   11696.0    855.0   0.026517277   0.74639  -0.44436  -0.74058  -0.02187
   6   14093.0    709.6   0.125174766   2.92408   1.21901   1.09110   0.49758
   7   14423.7    693.3   0.650468011  14.84654  -0.84453   2.58030   2.73411
   8   14877.6    672.1   0.040197933   0.88950  -0.60328   0.68069   0.24944
   9   16453.8    607.8   0.145357534   2.90835   0.64726  -1.18405  -1.04280
  10   16931.0    590.6   0.011389751   0.22147   0.02294   0.33469   0.33003
  11   17230.3    580.4   0.005571541   0.10645   0.23288   0.22344   0.04790
  12   17539.3    570.1   0.095739376   1.79702  -0.36050  -0.89214  -0.93335
  13   17614.9    567.7   0.010644936   0.19895  -0.27297  -0.32016   0.14810
  14   18180.6    550.0   0.007461188   0.13511  -0.16108  -0.28519  -0.16681
  15   19441.1    514.4   0.049910862   0.84518  -0.67685  -0.56166   0.26759
  16   19689.7    507.9   0.075432896   1.26124  -0.27325  -1.04637  -0.30278
  17   19771.4    505.8   0.068352599   1.13813  -0.18859   0.91381   0.51721
  18   20391.8    490.4   0.220187468   3.55478   1.17967   1.44935   0.25007
  19   20934.6    477.7   0.030519360   0.47994  -0.09399   0.62169   0.29087
  20   21168.6    472.4   0.048930439   0.76096  -0.54972  -0.66727  -0.11630
  21   22061.3    453.3   0.042232509   0.63022   0.15691   0.72442   0.28427
  22   22277.3    448.9   0.002934430   0.04336  -0.03669   0.20458  -0.01285
  23   23169.0    431.6   0.002009267   0.02855  -0.09581  -0.12003   0.07044
  24   23702.1    421.9   0.019814561   0.27522  -0.34344  -0.35625   0.17421
  25   23833.7    419.6   0.001425259   0.01969   0.06714   0.12250  -0.01320
  26   23928.2    417.9   0.050415291   0.69363   0.04929   0.62669   0.54631
  27   24011.6    416.5   0.007571737   0.10381   0.01968  -0.28011  -0.15801
  28   24507.7    408.0   0.029734626   0.39943   0.02676  -0.55238  -0.30592
  29   24615.8    406.2   0.095171530   1.27282   0.13186   1.02873   0.44402
  30   24700.9    404.8   0.030473288   0.40615  -0.20865  -0.51873  -0.30583
  31   24920.9    401.3   0.019865724   0.26243  -0.25197  -0.32584  -0.30459
  32   25041.6    399.3   0.015970237   0.20995  -0.27026   0.11558   0.35150
  33   25189.8    397.0   0.146776317   1.91826  -0.56078  -1.18393  -0.44956
  34   25665.6    389.6   0.004720173   0.06055   0.13967   0.17856  -0.09568
  35   25852.9    386.8   0.005126330   0.06528  -0.06517   0.21507   0.12156
  36   26201.9    381.7   0.010006815   0.12573   0.29418   0.04400  -0.19301
  37   26543.9    376.7   0.126375597   1.56738   0.70392   0.98489   0.31918
  38   27379.2    365.2   0.047527735   0.57148   0.24309   0.61433   0.36741
  39   27862.1    358.9   0.007595423   0.08975  -0.25851  -0.06647   0.13601
  40   27900.4    358.4   0.010844178   0.12796   0.03209   0.17863   0.30825
  41   27997.6    357.2   0.024658884   0.28995  -0.22172   0.24355   0.42600
  42   28068.9    356.3   0.006835199   0.08017  -0.04948  -0.27494   0.04615
  43   28270.2    353.7   0.019385884   0.22575   0.28970  -0.06832  -0.37035
  44   28445.2    351.6   0.032937348   0.38120  -0.55687   0.19609   0.18068
  45   28572.7    350.0   0.023818732   0.27444   0.01758   0.32099   0.41363
  46   28811.9    347.1   0.013495520   0.15420   0.35557   0.14328  -0.08511
  47   29181.6    342.7   0.008127323   0.09169  -0.09833   0.16878   0.23137
  48   29228.7    342.1   0.103805696   1.16919  -0.10834  -0.89404  -0.59845
  49   29327.1    341.0   0.016182398   0.18166   0.00861  -0.18107  -0.38574
  50   29710.8    336.6   0.009444565   0.10465  -0.21255  -0.23086   0.07859
  51   29985.2    333.5   0.131095915   1.43932  -0.30706   0.89533   0.73717
  52   30238.6    330.7   0.015832017   0.17237  -0.40857  -0.04227  -0.06043
  53   30275.5    330.3   0.054286412   0.59030   0.07439  -0.56162  -0.51899
  54   30496.8    327.9   0.022431580   0.24215  -0.28199  -0.37408  -0.15065
  55   30615.0    326.6   0.001115839   0.01200   0.06622   0.08705   0.00603
  56   30752.9    325.2   0.047526919   0.50878  -0.57777  -0.40183  -0.11618
  57   31025.6    322.3   0.007413130   0.07866  -0.11799  -0.07346  -0.24360
  58   31082.4    321.7   0.109746402   1.16239  -0.27656  -0.90957  -0.50852
  59   31214.6    320.4   0.057412412   0.60551  -0.65344   0.21748   0.36226
  60   31379.2    318.7   0.009159739   0.09610  -0.02111  -0.19403  -0.24084
  61   31418.7    318.3   0.002748641   0.02880   0.11553  -0.11230  -0.05330
  62   31577.4    316.7   0.010112661   0.10543  -0.12819   0.25396   0.15653
  63   31861.0    313.9   0.015817880   0.16344  -0.37295  -0.00748   0.15588
  64   32030.4    312.2   0.058587843   0.60217   0.10850  -0.55443  -0.53199
  65   32234.6    310.2   0.015024986   0.15345   0.02667  -0.36902  -0.12870
  66   32410.1    308.5   0.037300042   0.37888  -0.54002  -0.18602   0.22947
  67   32877.2    304.2   0.019310729   0.19337   0.16097  -0.18613  -0.36443
  68   32913.4    303.8   0.219482946   2.19535  -0.09816   0.99756   1.09114
  69   33173.3    301.4   0.019010233   0.18866  -0.41188  -0.13545   0.02586
  70   33306.2    300.2   0.038581642   0.38136  -0.08645  -0.44898  -0.41509
  71   33338.6    300.0   0.007289717   0.07198   0.26438  -0.01421  -0.04344
  72   33521.2    298.3   0.011437912   0.11233   0.16218   0.24844   0.15592
  73   33780.0    296.0   0.049745649   0.48481   0.15472   0.56231   0.38036
  74   33875.0    295.2   0.128819081   1.25192  -1.08959  -0.24062   0.08260
  75   34152.3    292.8   0.096665301   0.93181  -0.78663  -0.55690   0.05365
  76   34265.1    291.8   0.090629459   0.87075   0.75575   0.05657  -0.54442
  77   34485.6    290.0   0.238330499   2.27519  -0.98438   0.44889   1.05104
  78   34540.6    289.5   0.043051309   0.41033   0.34979  -0.31426  -0.43499
  79   34687.6    288.3   0.008594755   0.08157  -0.15498   0.05887   0.23256
  80   34731.2    287.9   0.048960213   0.46409   0.12782  -0.11616  -0.65898
  81   34899.8    286.5   0.001767710   0.01667   0.07872  -0.03822   0.09496
  82   34934.6    286.2   0.049151539   0.46319   0.60872   0.26583   0.14829
  83   35091.6    285.0   0.018226637   0.17099  -0.13109   0.26905   0.28535
  84   35152.7    284.5   0.084105712   0.78767  -0.44415   0.33346   0.69225
  85   35258.8    283.6   0.017815111   0.16634  -0.28720  -0.21163   0.19766
  86   35369.8    282.7   0.027260691   0.25373   0.36581   0.34439   0.03629
  87   35571.6    281.1   0.047847839   0.44283  -0.44776  -0.39021   0.30012
  88   35778.9    279.5   0.340510744   3.13313  -1.51263   0.18669   0.90012
  89   35806.3    279.3   0.145267629   1.33563  -1.03056  -0.17421   0.49318
  90   36032.9    277.5   0.030309255   0.27692  -0.36859   0.00131   0.37557
  91   36175.2    276.4   0.044048730   0.40086   0.57498   0.05836  -0.25857
  92   36305.0    275.4   0.020312974   0.18420  -0.21743   0.19606   0.31382
  93   36400.9    274.7   0.091597650   0.82842   0.31098  -0.38552  -0.76360
  94   36771.9    271.9   0.031561229   0.28256   0.45959   0.06393  -0.25933
  95   37079.4    269.7   0.000747906   0.00664   0.02476  -0.01826  -0.07546
  96   37168.9    269.0   0.089027408   0.78853  -0.64526  -0.59787   0.12135
  97   37368.4    267.6   0.011797901   0.10394  -0.30571  -0.06045   0.08262
  98   37531.7    266.4   0.007072953   0.06204   0.16555   0.05313  -0.17836
  99   37604.4    265.9   0.036323557   0.31800   0.42388   0.15782  -0.33678
 100   37674.6    265.4   0.052910572   0.46235  -0.54614  -0.37314   0.15762
 101   37871.7    264.0   0.011692050   0.10164  -0.16781  -0.19481  -0.18849
 102   37948.3    263.5   0.079156321   0.68670   0.48637   0.62056   0.25508
 103   38058.0    262.8   0.008782674   0.07597  -0.01138  -0.10836  -0.25318
 104   38282.3    261.2   0.016333404   0.14046  -0.28013  -0.09122   0.23167
 105   38414.9    260.3   0.008418392   0.07214   0.04644  -0.06616  -0.25614
 106   38603.4    259.0   0.015176898   0.12943   0.32820   0.14576  -0.02158
 107   38681.7    258.5   0.013405007   0.11409  -0.26463  -0.20942   0.01418
 108   38901.8    257.1   0.014120252   0.11949  -0.29814   0.05091   0.16737
 109   38956.3    256.7   0.001069759   0.00904   0.09492   0.00403  -0.00366
 110   39163.4    255.3   0.010530938   0.08852   0.21309   0.20759   0.00508
 111   39243.2    254.8   0.005402136   0.04532  -0.16467  -0.10127   0.08915
 112   39299.1    254.5   0.009047462   0.07579   0.21416   0.16548  -0.05042
 113   39530.8    253.0   0.039024237   0.32499   0.10306  -0.42019  -0.37123
 114   39581.3    252.6   0.012470920   0.10373   0.17467   0.27052  -0.00597
 115   39709.9    251.8   0.043199186   0.35814  -0.50365  -0.30622   0.10347
 116   39932.7    250.4   0.014911595   0.12293  -0.09299   0.13245   0.31104
 117   40134.2    249.2   0.062716488   0.51445   0.13810   0.54933   0.44001
 118   40312.2    248.1   0.013717353   0.11202  -0.16653  -0.23505  -0.17043

FINAL SINGLE POINT ENERGY     -4585.748522494076

DIPOLE MOMENT
-------------
                                X             Y             Z
Electronic contribution:      6.48452       5.95242      -1.20275
Nuclear contribution   :    -10.05574      -9.35853       1.45574
                        -----------------------------------------
Total Dipole Moment    :     -3.57122      -3.40611       0.25300
                        -----------------------------------------
Magnitude (a.u.)       :      4.94158
Magnitude (Debye)      :     12.56050

Rotational constants in cm-1:     0.002431     0.000550     0.000462
Rotational constants in MHz :    72.877650    16.482818    13.854149

                             ****ORCA TERMINATED NORMALLY****
TOTAL RUN TIME: 0 days 0 hours 11 minutes 21 seconds 428 msec
