                         Program Version 4.2.0 -  RELEASE  -
|  1> # ORCA input file
|  2> # SCF done       -132.456503495666          0.000478421957
|  3> ! CAM-B3LYP def2-SVP def2/J RIJCOSX Grid4 TightSCF
|  4> %maxcore 5000
|  5> %tddft
|  6>     Mode sTDDFT
|  7>     Ethresh 5.0
|  8>     maxcore 5000
|  9> end
| 10>
| 11> %pal
| 12>   nprocs 6
| 13>   end
| 14> * xyz 0 1
| 15>    C        5.32195         2.69426         1.46094
| 16>    N        6.07916         1.66043         0.80014
| 17>    C        7.35293         1.87700         0.26931
| 18>    O        7.92910         2.92933         0.31863
| 19>    C        7.73790         0.56579        -0.29015
| 20>    C        8.81703         0.01437        -0.94066
| 21>    C       10.04455         0.63175        -1.36090
| 22>    N       10.23350         1.91057        -1.12732
| 23>    C       11.35450         2.52083        -1.51374
| 24>    C       12.39766         1.91512        -2.17532
| 25>    C       12.24874         0.54762        -2.44979
| 26>    N       13.08751        -0.28790        -3.07012
| 27>    S       12.42368        -1.74591        -3.11781
| 28>    N       11.04406        -1.40960        -2.36139
| 29>    C       11.04611        -0.12085        -2.03467
| 30>    S        8.52919        -1.67420        -1.25544
| 31>    C        6.94117        -1.62285        -0.52437
| 32>    C        6.13995        -2.81059        -0.50422
| 33>    C        4.80757        -2.85903        -0.08835
| 34>    N        4.04838        -3.94390        -0.09651
| 35>    C        4.50922        -5.11239        -0.49558
| 36>    C        3.63163        -6.24653        -0.48489
| 37>    S        4.26657        -7.86848        -0.52524
| 38>    C        2.67351        -8.58014        -0.41405
| 39>    C        2.54386       -10.01033        -0.37500
| 40>    C        1.33491       -10.68798        -0.26028
| 41>    N        1.20678       -12.01705        -0.20833
| 42>    C        2.24918       -12.79887        -0.26685
| 43>    C        3.54555       -12.26394        -0.38995
| 44>    N        4.72264       -12.88955        -0.46762
| 45>    S        5.88166       -11.79264        -0.59306
| 46>    N        4.96829       -10.46952        -0.55659
| 47>    C        3.69320       -10.83643        -0.44341
| 48>    C        1.71925        -7.58550        -0.37601
| 49>    C        2.25938        -6.27792        -0.41662
| 50>    C        1.14959        -5.30676        -0.44255
| 51>    O        1.13493        -4.11097        -0.54540
| 52>    N        0.00195        -6.10070        -0.36064
| 53>    C       -1.32968        -5.54801        -0.35156
| 54>    C        0.24872        -7.46122        -0.32176
| 55>    O       -0.61387        -8.30451        -0.26250
| 56>    C        5.86150        -5.22760        -0.91644
| 57>    N        6.52082        -6.30357        -1.33839
| 58>    S        8.02133        -5.87339        -1.71723
| 59>    N        7.91038        -4.30856        -1.36961
| 60>    C        6.67835        -4.04910        -0.93443
| 61>    C        6.68325        -0.34994        -0.05998
| 62>    C        5.60877         0.36677         0.65314
| 63>    O        4.53904        -0.01530         1.06194
| 64>    H        6.00954         3.49320         1.73283
| 65>    H        4.84572         2.27902         2.34853
| 66>    H        4.55007         3.08753         0.79661
| 67>    H       11.39135         3.57182        -1.26389
| 68>    H       13.28483         2.44794        -2.47302
| 69>    H        4.31466        -1.97020         0.27851
| 70>    H        0.40357       -10.14281        -0.20311
| 71>    H        2.08190       -13.86482        -0.21882
| 72>    H       -1.23659        -4.46550        -0.41703
| 73>    H       -1.84413        -5.82538         0.56919
| 74>    H       -1.89909        -5.92805        -1.20071
| 75> *
| 76>
| 77>                          ****END OF INPUT****

CARTESIAN COORDINATES (ANGSTROEM)
---------------------------------
  C      5.321950    2.694260    1.460940
  N      6.079160    1.660430    0.800140
  C      7.352930    1.877000    0.269310
  O      7.929100    2.929330    0.318630
  C      7.737900    0.565790   -0.290150
  C      8.817030    0.014370   -0.940660
  C     10.044550    0.631750   -1.360900
  N     10.233500    1.910570   -1.127320
  C     11.354500    2.520830   -1.513740
  C     12.397660    1.915120   -2.175320
  C     12.248740    0.547620   -2.449790
  N     13.087510   -0.287900   -3.070120
  S     12.423680   -1.745910   -3.117810
  N     11.044060   -1.409600   -2.361390
  C     11.046110   -0.120850   -2.034670
  S      8.529190   -1.674200   -1.255440
  C      6.941170   -1.622850   -0.524370
  C      6.139950   -2.810590   -0.504220
  C      4.807570   -2.859030   -0.088350
  N      4.048380   -3.943900   -0.096510
  C      4.509220   -5.112390   -0.495580
  C      3.631630   -6.246530   -0.484890
  S      4.266570   -7.868480   -0.525240
  C      2.673510   -8.580140   -0.414050
  C      2.543860  -10.010330   -0.375000
  C      1.334910  -10.687980   -0.260280
  N      1.206780  -12.017050   -0.208330
  C      2.249180  -12.798870   -0.266850
  C      3.545550  -12.263940   -0.389950
  N      4.722640  -12.889550   -0.467620
  S      5.881660  -11.792640   -0.593060
  N      4.968290  -10.469520   -0.556590
  C      3.693200  -10.836430   -0.443410
  C      1.719250   -7.585500   -0.376010
  C      2.259380   -6.277920   -0.416620
  C      1.149590   -5.306760   -0.442550
  O      1.134930   -4.110970   -0.545400
  N      0.001950   -6.100700   -0.360640
  C     -1.329680   -5.548010   -0.351560
  C      0.248720   -7.461220   -0.321760
  O     -0.613870   -8.304510   -0.262500
  C      5.861500   -5.227600   -0.916440
  N      6.520820   -6.303570   -1.338390
  S      8.021330   -5.873390   -1.717230
  N      7.910380   -4.308560   -1.369610
  C      6.678350   -4.049100   -0.934430
  C      6.683250   -0.349940   -0.059980
  C      5.608770    0.366770    0.653140
  O      4.539040   -0.015300    1.061940
  H      6.009540    3.493200    1.732830
  H      4.845720    2.279020    2.348530
  H      4.550070    3.087530    0.796610
  H     11.391350    3.571820   -1.263890
  H     13.284830    2.447940   -2.473020
  H      4.314660   -1.970200    0.278510
  H      0.403570  -10.142810   -0.203110
  H      2.081900  -13.864820   -0.218820
  H     -1.236590   -4.465500   -0.417030
  H     -1.844130   -5.825380    0.569190
  H     -1.899090   -5.928050   -1.200710

 Total Charge           Charge          ....    0
 Multiplicity           Mult            ....    1
 Number of Electrons    NEL             ....  374
 Basis Dimension        Dim             ....  761

ORBITAL ENERGIES
----------------

  NO   OCC          E(Eh)            E(eV)
   0   2.0000     -89.043232     -2422.9895
   1   2.0000     -89.040611     -2422.9182
   2   2.0000     -89.036753     -2422.8132
   3   2.0000     -88.969219     -2420.9755
   4   2.0000     -88.966225     -2420.8941
   5   2.0000     -19.206670      -522.6401
   6   2.0000     -19.204267      -522.5747
   7   2.0000     -19.198976      -522.4307
   8   2.0000     -19.196943      -522.3754
   9   2.0000     -14.459515      -393.4634
  10   2.0000     -14.455547      -393.3554
  11   2.0000     -14.453245      -393.2928
  12   2.0000     -14.452874      -393.2827
  13   2.0000     -14.450537      -393.2191
  14   2.0000     -14.447591      -393.1389
  15   2.0000     -14.446224      -393.1017
  16   2.0000     -14.445763      -393.0892
  17   2.0000     -14.416021      -392.2799
  18   2.0000     -14.414602      -392.2413
  19   2.0000     -14.412077      -392.1726
  20   2.0000     -10.389353      -282.7087
  21   2.0000     -10.386949      -282.6433
  22   2.0000     -10.383737      -282.5558
  23   2.0000     -10.382092      -282.5111
  24   2.0000     -10.342515      -281.4341
  25   2.0000     -10.339551      -281.3535
  26   2.0000     -10.339322      -281.3472
  27   2.0000     -10.337200      -281.2895
  28   2.0000     -10.336761      -281.2776
  29   2.0000     -10.332727      -281.1678
  30   2.0000     -10.331708      -281.1401
  31   2.0000     -10.330885      -281.1177
  32   2.0000     -10.329349      -281.0759
  33   2.0000     -10.326585      -281.0007
  34   2.0000     -10.325782      -280.9788
  35   2.0000     -10.317563      -280.7552
  36   2.0000     -10.316124      -280.7160
  37   2.0000     -10.312624      -280.6208
  38   2.0000     -10.311842      -280.5995
  39   2.0000     -10.311462      -280.5891
  40   2.0000     -10.308438      -280.5069
  41   2.0000     -10.307523      -280.4820
  42   2.0000     -10.295601      -280.1576
  43   2.0000     -10.294569      -280.1295
  44   2.0000     -10.291268      -280.0396
  45   2.0000     -10.290634      -280.0224
  46   2.0000     -10.289920      -280.0030
  47   2.0000     -10.289665      -279.9960
  48   2.0000     -10.288317      -279.9594
  49   2.0000      -8.134603      -221.3538
  50   2.0000      -8.132154      -221.2872
  51   2.0000      -8.128486      -221.1874
  52   2.0000      -8.062877      -219.4020
  53   2.0000      -8.059682      -219.3151
  54   2.0000      -6.105786      -166.1469
  55   2.0000      -6.103238      -166.0775
  56   2.0000      -6.099589      -165.9783
  57   2.0000      -6.098024      -165.9357
  58   2.0000      -6.097133      -165.9114
  59   2.0000      -6.095504      -165.8671
  60   2.0000      -6.094836      -165.8489
  61   2.0000      -6.091832      -165.7672
  62   2.0000      -6.091090      -165.7470
  63   2.0000      -6.032345      -164.1484
  64   2.0000      -6.029176      -164.0622
  65   2.0000      -6.027603      -164.0194
  66   2.0000      -6.025092      -163.9511
  67   2.0000      -6.024403      -163.9323
  68   2.0000      -6.021873      -163.8635
  69   2.0000      -1.151112       -31.3233
  70   2.0000      -1.149103       -31.2687
  71   2.0000      -1.143306       -31.1109
  72   2.0000      -1.140011       -31.0213
  73   2.0000      -1.136212       -30.9179
  74   2.0000      -1.126719       -30.6596
  75   2.0000      -1.124663       -30.6036
  76   2.0000      -1.053875       -28.6774
  77   2.0000      -1.050494       -28.5854
  78   2.0000      -1.047361       -28.5001
  79   2.0000      -1.041041       -28.3282
  80   2.0000      -1.038981       -28.2721
  81   2.0000      -1.006302       -27.3829
  82   2.0000      -0.999734       -27.2041
  83   2.0000      -0.991903       -26.9911
  84   2.0000      -0.984777       -26.7972
  85   2.0000      -0.982434       -26.7334
  86   2.0000      -0.920284       -25.0422
  87   2.0000      -0.916410       -24.9368
  88   2.0000      -0.903431       -24.5836
  89   2.0000      -0.897867       -24.4322
  90   2.0000      -0.888537       -24.1783
  91   2.0000      -0.882678       -24.0189
  92   2.0000      -0.877122       -23.8677
  93   2.0000      -0.864407       -23.5217
  94   2.0000      -0.837996       -22.8030
  95   2.0000      -0.811330       -22.0774
  96   2.0000      -0.792134       -21.5551
  97   2.0000      -0.790245       -21.5036
  98   2.0000      -0.780326       -21.2338
  99   2.0000      -0.769026       -20.9263
 100   2.0000      -0.766519       -20.8580
 101   2.0000      -0.744817       -20.2675
 102   2.0000      -0.743926       -20.2432
 103   2.0000      -0.730177       -19.8691
 104   2.0000      -0.725878       -19.7521
 105   2.0000      -0.723657       -19.6917
 106   2.0000      -0.722551       -19.6616
 107   2.0000      -0.704651       -19.1745
 108   2.0000      -0.693618       -18.8743
 109   2.0000      -0.679998       -18.5037
 110   2.0000      -0.679283       -18.4842
 111   2.0000      -0.662889       -18.0381
 112   2.0000      -0.650277       -17.6949
 113   2.0000      -0.636553       -17.3215
 114   2.0000      -0.624774       -17.0010
 115   2.0000      -0.621750       -16.9187
 116   2.0000      -0.617294       -16.7974
 117   2.0000      -0.612906       -16.6780
 118   2.0000      -0.606570       -16.5056
 119   2.0000      -0.597798       -16.2669
 120   2.0000      -0.589987       -16.0544
 121   2.0000      -0.573340       -15.6014
 122   2.0000      -0.570874       -15.5343
 123   2.0000      -0.567411       -15.4400
 124   2.0000      -0.566273       -15.4091
 125   2.0000      -0.563287       -15.3278
 126   2.0000      -0.561330       -15.2746
 127   2.0000      -0.560578       -15.2541
 128   2.0000      -0.554548       -15.0900
 129   2.0000      -0.551541       -15.0082
 130   2.0000      -0.548505       -14.9256
 131   2.0000      -0.547909       -14.9094
 132   2.0000      -0.536690       -14.6041
 133   2.0000      -0.533584       -14.5196
 134   2.0000      -0.522240       -14.2109
 135   2.0000      -0.516790       -14.0626
 136   2.0000      -0.511474       -13.9179
 137   2.0000      -0.508596       -13.8396
 138   2.0000      -0.505350       -13.7513
 139   2.0000      -0.504155       -13.7188
 140   2.0000      -0.497522       -13.5383
 141   2.0000      -0.497043       -13.5252
 142   2.0000      -0.491847       -13.3838
 143   2.0000      -0.490947       -13.3593
 144   2.0000      -0.487565       -13.2673
 145   2.0000      -0.485256       -13.2045
 146   2.0000      -0.482175       -13.1206
 147   2.0000      -0.478492       -13.0204
 148   2.0000      -0.474723       -12.9179
 149   2.0000      -0.472551       -12.8588
 150   2.0000      -0.472102       -12.8465
 151   2.0000      -0.471832       -12.8392
 152   2.0000      -0.470209       -12.7950
 153   2.0000      -0.466618       -12.6973
 154   2.0000      -0.465865       -12.6768
 155   2.0000      -0.463355       -12.6085
 156   2.0000      -0.455883       -12.4052
 157   2.0000      -0.452504       -12.3133
 158   2.0000      -0.451134       -12.2760
 159   2.0000      -0.435272       -11.8444
 160   2.0000      -0.422084       -11.4855
 161   2.0000      -0.416543       -11.3347
 162   2.0000      -0.416060       -11.3216
 163   2.0000      -0.409455       -11.1418
 164   2.0000      -0.402429       -10.9507
 165   2.0000      -0.386821       -10.5259
 166   2.0000      -0.376992       -10.2585
 167   2.0000      -0.374144       -10.1810
 168   2.0000      -0.373406       -10.1609
 169   2.0000      -0.366592        -9.9755
 170   2.0000      -0.359880        -9.7928
 171   2.0000      -0.357971        -9.7409
 172   2.0000      -0.355251        -9.6669
 173   2.0000      -0.352071        -9.5803
 174   2.0000      -0.349922        -9.5219
 175   2.0000      -0.348580        -9.4853
 176   2.0000      -0.344659        -9.3787
 177   2.0000      -0.342693        -9.3251
 178   2.0000      -0.342475        -9.3192
 179   2.0000      -0.333823        -9.0838
 180   2.0000      -0.327462        -8.9107
 181   2.0000      -0.323920        -8.8143
 182   2.0000      -0.322219        -8.7680
 183   2.0000      -0.320532        -8.7221
 184   2.0000      -0.319543        -8.6952
 185   2.0000      -0.293718        -7.9925
 186   2.0000      -0.262625        -7.1464
 187   0.0000      -0.100600        -2.7375
 188   0.0000      -0.080600        -2.1932
 189   0.0000      -0.074257        -2.0206
 190   0.0000      -0.026536        -0.7221
 191   0.0000      -0.022534        -0.6132

MULLIKEN ATOMIC CHARGES
-----------------------
   0 C :    0.141152
   1 N :   -0.310350
   2 C :    0.178047
   3 O :   -0.126189
   4 C :    0.008752
   5 C :   -0.151950
   6 C :   -0.000785
   7 N :   -0.008304
   8 C :    0.029984
   9 C :   -0.030295
  10 C :    0.088404
  11 N :   -0.267929
  12 S :    0.523991
  13 N :   -0.287872
  14 C :   -0.048105
  15 S :    0.214261
  16 C :   -0.127681
  17 C :    0.037273
  18 C :   -0.038334
  19 N :    0.008252
  20 C :   -0.036188
  21 C :   -0.155404
  22 S :    0.224141
  23 C :   -0.133254
  24 C :    0.061724
  25 C :   -0.034186
  26 N :   -0.038886
  27 C :    0.003111
  28 C :    0.018606
  29 N :   -0.251060
  30 S :    0.528350
  31 N :   -0.314034
  32 C :    0.006740
  33 C :    0.000906
  34 C :    0.020224
  35 C :    0.182212
  36 O :   -0.125176
  37 N :   -0.310918
  38 C :    0.140799
  39 C :    0.194926
  40 O :   -0.172061
  41 C :    0.002050
  42 N :   -0.267446
  43 S :    0.534642
  44 N :   -0.307046
  45 C :    0.039289
  46 C :    0.006802
  47 C :    0.191948
  48 O :   -0.171589
  49 H :    0.047345
  50 H :    0.039933
  51 H :    0.036871
  52 H :    0.016845
  53 H :   -0.003687
  54 H :    0.028650
  55 H :    0.026741
  56 H :    0.008975
  57 H :    0.053863
  58 H :    0.036549
  59 H :    0.036371
Sum of atomic charges:   -0.0000000

LOEWDIN ATOMIC CHARGES
----------------------
   0 C :    0.035915
   1 N :   -0.040576
   2 C :    0.086211
   3 O :   -0.137248
   4 C :   -0.068997
   5 C :   -0.159308
   6 C :   -0.004285
   7 N :   -0.042084
   8 C :    0.024955
   9 C :   -0.041341
  10 C :   -0.043594
  11 N :   -0.284746
  12 S :    0.658919
  13 N :   -0.290702
  14 C :   -0.074180
  15 S :    0.530159
  16 C :   -0.133043
  17 C :   -0.074512
  18 C :    0.048606
  19 N :   -0.035978
  20 C :   -0.000988
  21 C :   -0.159509
  22 S :    0.529276
  23 C :   -0.130719
  24 C :   -0.072463
  25 C :    0.042341
  26 N :   -0.055367
  27 C :    0.042164
  28 C :   -0.078586
  29 N :   -0.266418
  30 S :    0.663663
  31 N :   -0.306919
  32 C :   -0.043802
  33 C :   -0.092745
  34 C :   -0.067626
  35 C :    0.087576
  36 O :   -0.134942
  37 N :   -0.040008
  38 C :    0.035953
  39 C :    0.089991
  40 O :   -0.162999
  41 C :   -0.071202
  42 N :   -0.278493
  43 S :    0.662536
  44 N :   -0.298727
  45 C :   -0.040884
  46 C :   -0.093231
  47 C :    0.088991
  48 O :   -0.162021
  49 H :    0.035681
  50 H :    0.033529
  51 H :    0.030227
  52 H :    0.029918
  53 H :    0.040641
  54 H :    0.031107
  55 H :    0.027947
  56 H :    0.031167
  57 H :    0.037642
  58 H :    0.031747
  59 H :    0.031378

  Mayer bond orders larger than 0.100000
B(  0-C ,  1-N ) :   0.9446 B(  0-C , 49-H ) :   0.9615 B(  0-C , 50-H ) :   0.9692
B(  0-C , 51-H ) :   0.9807 B(  1-N ,  2-C ) :   1.0494 B(  1-N , 47-C ) :   1.1021
B(  2-C ,  3-O ) :   2.2407 B(  2-C ,  4-C ) :   0.8728 B(  4-C ,  5-C ) :   1.5059
B(  4-C , 46-C ) :   1.2801 B(  5-C ,  6-C ) :   1.1103 B(  5-C , 15-S ) :   1.1312
B(  6-C ,  7-N ) :   1.7585 B(  6-C ,  9-C ) :   0.1035 B(  6-C , 14-C ) :   1.1098
B(  7-N ,  8-C ) :   1.3938 B(  8-C ,  9-C ) :   1.4869 B(  8-C , 52-H ) :   0.9754
B(  9-C , 10-C ) :   1.2385 B(  9-C , 53-H ) :   0.9905 B( 10-C , 11-N ) :   1.4984
B( 10-C , 14-C ) :   1.1845 B( 11-N , 12-S ) :   1.2880 B( 11-N , 13-N ) :   0.1538
B( 12-S , 13-N ) :   1.2667 B( 13-N , 14-C ) :   1.5176 B( 15-S , 16-C ) :   1.1326
B( 16-C , 17-C ) :   1.1234 B( 16-C , 46-C ) :   1.4879 B( 17-C , 18-C ) :   1.4207
B( 17-C , 20-C ) :   0.1039 B( 17-C , 45-C ) :   1.1870 B( 18-C , 19-N ) :   1.4274
B( 18-C , 54-H ) :   0.9613 B( 19-N , 20-C ) :   1.7116 B( 20-C , 21-C ) :   1.1052
B( 20-C , 41-C ) :   1.1232 B( 21-C , 22-S ) :   1.1262 B( 21-C , 34-C ) :   1.5121
B( 22-S , 23-C ) :   1.1470 B( 23-C , 24-C ) :   1.1068 B( 23-C , 33-C ) :   1.4957
B( 24-C , 25-C ) :   1.4795 B( 24-C , 27-C ) :   0.1039 B( 24-C , 32-C ) :   1.1778
B( 25-C , 26-N ) :   1.3967 B( 25-C , 55-H ) :   0.9604 B( 26-N , 27-C ) :   1.7093
B( 27-C , 28-C ) :   1.1741 B( 27-C , 56-H ) :   0.9936 B( 28-C , 29-N ) :   1.4915
B( 28-C , 32-C ) :   1.1914 B( 29-N , 30-S ) :   1.3114 B( 29-N , 31-N ) :   0.1518
B( 30-S , 31-N ) :   1.2507 B( 31-N , 32-C ) :   1.4924 B( 33-C , 34-C ) :   1.2795
B( 33-C , 39-C ) :   0.8840 B( 34-C , 35-C ) :   0.8766 B( 35-C , 36-O ) :   2.2396
B( 35-C , 37-N ) :   1.0471 B( 37-N , 38-C ) :   0.9416 B( 37-N , 39-C ) :   1.1050
B( 38-C , 57-H ) :   0.9589 B( 38-C , 58-H ) :   0.9761 B( 38-C , 59-H ) :   0.9756
B( 39-C , 40-O ) :   2.1158 B( 41-C , 42-N ) :   1.5299 B( 41-C , 45-C ) :   1.1923
B( 42-N , 43-S ) :   1.2818 B( 42-N , 44-N ) :   0.1503 B( 43-S , 44-N ) :   1.2605
B( 44-N , 45-C ) :   1.4930 B( 46-C , 47-C ) :   0.8838 B( 47-C , 48-O ) :   2.1193

-----------------------------------------------------------------------------
         ABSORPTION SPECTRUM VIA TRANSITION ELECTRIC DIPOLE MOMENTS
-----------------------------------------------------------------------------
State   Energy  Wavelength   fosc         T2         TX        TY        TZ
        (cm-1)    (nm)                  (au**2)     (au)      (au)      (au)
-----------------------------------------------------------------------------
   0   19249.3    519.5   1.100664929  18.82415  -2.70968  -3.36819   0.37028
   1   24593.6    406.6   0.185680300   2.48553   1.35838  -0.47875  -0.64120
   2   25065.4    399.0   0.001318375   0.01732  -0.04555   0.09513  -0.07869
   3   25392.4    393.8   0.117623109   1.52498   0.03015   1.21914  -0.19431
   4   26657.3    375.1   0.002158323   0.02665  -0.02458  -0.09690  -0.12908
   5   26681.0    374.8   0.005001016   0.06171  -0.01306   0.24675  -0.02550
   6   28294.8    353.4   0.000155178   0.00181   0.01886  -0.00106   0.03806
   7   30670.9    326.0   0.014075860   0.15109  -0.32590   0.21139   0.01366
   8   30812.5    324.5   0.010396946   0.11108  -0.24426   0.00888   0.22659
   9   31964.8    312.8   0.000629765   0.00649  -0.01659  -0.06805  -0.03975
  10   32614.3    306.6   0.021560747   0.21764  -0.00972  -0.30927  -0.34913
  11   32970.3    303.3   0.012300763   0.12282   0.31808   0.13438   0.05993
  12   33150.5    301.7   0.152556273   1.51501   0.91638   0.80705  -0.15465
  13   33359.8    299.8   0.004310380   0.04254   0.06593   0.18743   0.05531
  14   33606.9    297.6   0.156044353   1.52860  -0.08387  -1.19492  -0.30617
  15   33982.2    294.3   0.008633287   0.08364  -0.08074  -0.26336  -0.08807
  16   34182.4    292.5   0.037889771   0.36492  -0.12243  -0.57936  -0.11947
  17   34427.6    290.5   0.075037590   0.71754   0.78022   0.31556  -0.09605
  18   34622.4    288.8   0.006574475   0.06251  -0.05132   0.24413   0.01672
  19   35201.7    284.1   0.037748078   0.35303   0.15878  -0.54676  -0.16991
  20   35530.1    281.5   0.001916201   0.01775   0.03241  -0.12358  -0.03783
  21   35769.2    279.6   0.196919601   1.81240   1.01681  -0.84999  -0.23666
  22   36211.2    276.2   0.108598658   0.98732   0.13527  -0.98216   0.06624
  23   36320.7    275.3   0.079735222   0.72272   0.37033   0.74459  -0.17654
  24   36496.5    274.0   0.043940353   0.39636  -0.08043  -0.59221   0.19794
  25   36744.2    272.2   0.141208066   1.26516   0.97171   0.34506  -0.44930
  26   36953.7    270.6   0.020456443   0.18224  -0.33602   0.21784   0.14791
  27   38007.1    263.1   0.006699771   0.05803  -0.23324   0.04536   0.03967
  28   38510.4    259.7   0.057783076   0.49397   0.32250  -0.58590  -0.21606
  29   38650.9    258.7   0.072824415   0.62029   0.30510  -0.67884  -0.25764
  30   39279.8    254.6   0.000583355   0.00489   0.06497  -0.00640   0.02503
  31   39464.8    253.4   0.035661170   0.29748   0.26696   0.47050   0.06962
  32   39655.8    252.2   0.007162026   0.05946   0.16893  -0.14745   0.09579
  33   39935.5    250.4   0.000895218   0.00738  -0.05312   0.06687  -0.00932
  34   40233.0    248.6   0.124515150   1.01886  -0.96833   0.18175   0.21946

FINAL SINGLE POINT ENERGY     -4002.783833265193

DIPOLE MOMENT
-------------
                                X             Y             Z
Electronic contribution:     24.56418     -20.98302      -8.70926
Nuclear contribution   :    -22.24153      20.02607       7.95308
                        -----------------------------------------
Total Dipole Moment    :      2.32264      -0.95694      -0.75617
                        -----------------------------------------
Magnitude (a.u.)       :      2.62339
Magnitude (Debye)      :      6.66814

Rotational constants in cm-1:     0.003130     0.000775     0.000634
Rotational constants in MHz :    93.838688    23.239626    19.000740

                             ****ORCA TERMINATED NORMALLY****
TOTAL RUN TIME: 0 days 0 hours 7 minutes 3 seconds 697 msec
