                         Program Version 4.2.0 -  RELEASE  -
|  1> # ORCA input file
|  2> # SCF done       -219.025847260684          0.000771543080
|  3> ! CAM-B3LYP def2-SVP def2/J RIJCOSX Grid4 TightSCF
|  4> %maxcore 5000
|  5> %tddft
|  6>     Mode sTDDFT
|  7>     Ethresh 5.0
|  8>     maxcore 5000
|  9> end
| 10>
| 11> %pal
| 12>   nprocs 6
| 13>   end
| 14> * xyz 0 1
| 15>    C      -10.15710       -21.70583        -3.20570
| 16>    F      -11.41802       -22.05238        -2.88632
| 17>    C       -9.61072       -22.12152        -4.42007
| 18>    C      -10.36324       -22.88962        -5.48335
| 19>    O      -10.07757       -22.80071        -6.63963
| 20>    O      -11.35583       -23.67598        -5.06893
| 21>    C       -8.29046       -21.72807        -4.65894
| 22>    F       -7.66568       -22.09927        -5.76930
| 23>    C       -7.57954       -20.97333        -3.73796
| 24>    F       -6.31412       -20.65399        -4.04740
| 25>    C       -8.12699       -20.53196        -2.52089
| 26>    C       -9.45357       -20.94011        -2.29175
| 27>    F      -10.08129       -20.61812        -1.15487
| 28>    C       -7.38217       -19.73569        -1.58118
| 29>    C       -7.85731       -19.07115        -0.46179
| 30>    C       -6.84499       -18.40594         0.22487
| 31>    C       -5.58149       -18.57119        -0.37402
| 32>    S       -5.64430       -19.52219        -1.77980
| 33>    C       -4.62277       -17.86656         0.39482
| 34>    C       -5.27931       -17.25384         1.47975
| 35>    C       -6.69467       -17.59028         1.42014
| 36>    C       -7.66124       -17.24802         2.31750
| 37>    C       -7.38350       -16.53451         3.50537
| 38>    N       -7.17659       -15.99411         4.49430
| 39>    C       -9.01230       -17.62086         2.14496
| 40>    N      -10.11226       -17.91350         2.00940
| 41>    C       -4.42321       -16.50108         2.27655
| 42>    C       -3.11561       -16.54686         1.81924
| 43>    S       -2.94955       -17.54318         0.37679
| 44>    C       -1.97551       -15.91063         2.36434
| 45>    C       -0.59158       -16.20468         1.96392
| 46>    N        0.30724       -15.52073         2.60114
| 47>    C       -0.38811       -14.71229         3.45498
| 48>    C       -1.83518       -14.93955         3.33483
| 49>    C       -2.54275       -14.04219         4.21799
| 50>    S       -4.17426       -13.90435         4.40964
| 51>    C       -1.50586       -13.28619         4.87213
| 52>    C       -0.19133       -13.72830         4.38678
| 53>    N        0.81645       -13.03432         4.99729
| 54>    C        0.22729       -12.21477         5.80963
| 55>    C       -1.24234       -12.29256         5.79617
| 56>    C       -2.08324       -11.48030         6.58558
| 57>    C       -3.46851       -11.40029         6.57024
| 58>    C       -3.94868       -10.48227         7.49521
| 59>    C       -2.92266        -9.85907         8.23710
| 60>    S       -1.37181       -10.38840         7.77699
| 61>    C       -3.51470        -8.97574         9.17074
| 62>    C       -4.91040        -9.03695         9.02533
| 63>    C       -5.23039        -9.96933         7.95523
| 64>    C       -6.46913       -10.26717         7.47077
| 65>    C       -7.63470        -9.69696         8.02619
| 66>    N       -8.57741        -9.23248         8.48471
| 67>    C       -6.68340       -11.12807         6.37137
| 68>    N       -6.88449       -11.79758         5.46353
| 69>    C       -5.58410        -8.19817         9.91516
| 70>    C       -4.72022        -7.49865        10.73329
| 71>    S       -3.04045        -7.88258        10.39310
| 72>    C       -5.04685        -6.55166        11.76892
| 73>    C       -6.36734        -6.41035        12.22714
| 74>    C       -6.70362        -5.51187        13.21439
| 75>    C       -5.71224        -4.71047        13.77727
| 76>    C       -4.39121        -4.86292        13.32884
| 77>    C       -4.04840        -5.75943        12.34376
| 78>    S       -3.32548        -3.76308        14.17024
| 79>    C       -4.66850        -3.15109        15.11062
| 80>    C       -4.54896        -2.27396        16.16476
| 81>    C       -3.43427        -1.52122        16.54206
| 82>    C       -2.30248        -1.11924        15.86578
| 83>    C       -1.94274        -1.01388        14.48500
| 84>    C       -2.79608        -0.95746        13.40194
| 85>    C       -4.19207        -0.89018        13.52374
| 86>    N       -5.33828        -0.83599        13.60224
| 87>    C       -2.38212        -0.88682        12.05896
| 88>    N       -2.12189        -0.87416        10.93989
| 89>    C       -0.49869        -0.77246        14.41708
| 90>    C       -0.01680        -0.54977        15.71864
| 91>    C       -1.13271        -0.69169        16.67739
| 92>    O       -1.10527        -0.52587        17.87749
| 93>    C        1.30981        -0.25602        15.95866
| 94>    C        2.17460        -0.19312        14.87329
| 95>    C        1.70820        -0.42288        13.58814
| 96>    C        0.37070        -0.71084        13.34197
| 97>    N       -5.83847        -3.75841        14.75293
| 98>    C       -7.10157        -3.25747        15.23318
| 99>    H      -11.56644       -23.61858        -4.12705
|100>    H       -8.88823       -19.05534        -0.16316
|101>    H       -4.71246       -15.93806         3.14629
|102>    H       -0.31128       -16.92876         1.21810
|103>    H        0.79790       -11.54152         6.42657
|104>    H       -4.07315       -11.99540         5.90820
|105>    H       -6.65237        -8.09481         9.95156
|106>    H       -7.14278        -7.02908        11.80654
|107>    H       -7.72717        -5.44553        13.54597
|108>    H       -3.02325        -5.83809        12.01735
|109>    H       -5.39861        -2.21131        16.82970
|110>    H       -3.42663        -1.21443        17.58492
|111>    H        1.65272        -0.08005        16.96675
|112>    H        3.21798         0.03565        15.03062
|113>    H        2.39534        -0.37561        12.75639
|114>    H        0.03470        -0.88712        12.33284
|115>    H       -7.09802        -2.16787        15.17312
|116>    H       -7.27786        -3.56803        16.26552
|117>    H       -7.90279        -3.63740        14.60608
|118> *
|119>
|120>                          ****END OF INPUT****

CARTESIAN COORDINATES (ANGSTROEM)
---------------------------------
  C    -10.157100  -21.705830   -3.205700
  F    -11.418020  -22.052380   -2.886320
  C     -9.610720  -22.121520   -4.420070
  C    -10.363240  -22.889620   -5.483350
  O    -10.077570  -22.800710   -6.639630
  O    -11.355830  -23.675980   -5.068930
  C     -8.290460  -21.728070   -4.658940
  F     -7.665680  -22.099270   -5.769300
  C     -7.579540  -20.973330   -3.737960
  F     -6.314120  -20.653990   -4.047400
  C     -8.126990  -20.531960   -2.520890
  C     -9.453570  -20.940110   -2.291750
  F    -10.081290  -20.618120   -1.154870
  C     -7.382170  -19.735690   -1.581180
  C     -7.857310  -19.071150   -0.461790
  C     -6.844990  -18.405940    0.224870
  C     -5.581490  -18.571190   -0.374020
  S     -5.644300  -19.522190   -1.779800
  C     -4.622770  -17.866560    0.394820
  C     -5.279310  -17.253840    1.479750
  C     -6.694670  -17.590280    1.420140
  C     -7.661240  -17.248020    2.317500
  C     -7.383500  -16.534510    3.505370
  N     -7.176590  -15.994110    4.494300
  C     -9.012300  -17.620860    2.144960
  N    -10.112260  -17.913500    2.009400
  C     -4.423210  -16.501080    2.276550
  C     -3.115610  -16.546860    1.819240
  S     -2.949550  -17.543180    0.376790
  C     -1.975510  -15.910630    2.364340
  C     -0.591580  -16.204680    1.963920
  N      0.307240  -15.520730    2.601140
  C     -0.388110  -14.712290    3.454980
  C     -1.835180  -14.939550    3.334830
  C     -2.542750  -14.042190    4.217990
  S     -4.174260  -13.904350    4.409640
  C     -1.505860  -13.286190    4.872130
  C     -0.191330  -13.728300    4.386780
  N      0.816450  -13.034320    4.997290
  C      0.227290  -12.214770    5.809630
  C     -1.242340  -12.292560    5.796170
  C     -2.083240  -11.480300    6.585580
  C     -3.468510  -11.400290    6.570240
  C     -3.948680  -10.482270    7.495210
  C     -2.922660   -9.859070    8.237100
  S     -1.371810  -10.388400    7.776990
  C     -3.514700   -8.975740    9.170740
  C     -4.910400   -9.036950    9.025330
  C     -5.230390   -9.969330    7.955230
  C     -6.469130  -10.267170    7.470770
  C     -7.634700   -9.696960    8.026190
  N     -8.577410   -9.232480    8.484710
  C     -6.683400  -11.128070    6.371370
  N     -6.884490  -11.797580    5.463530
  C     -5.584100   -8.198170    9.915160
  C     -4.720220   -7.498650   10.733290
  S     -3.040450   -7.882580   10.393100
  C     -5.046850   -6.551660   11.768920
  C     -6.367340   -6.410350   12.227140
  C     -6.703620   -5.511870   13.214390
  C     -5.712240   -4.710470   13.777270
  C     -4.391210   -4.862920   13.328840
  C     -4.048400   -5.759430   12.343760
  S     -3.325480   -3.763080   14.170240
  C     -4.668500   -3.151090   15.110620
  C     -4.548960   -2.273960   16.164760
  C     -3.434270   -1.521220   16.542060
  C     -2.302480   -1.119240   15.865780
  C     -1.942740   -1.013880   14.485000
  C     -2.796080   -0.957460   13.401940
  C     -4.192070   -0.890180   13.523740
  N     -5.338280   -0.835990   13.602240
  C     -2.382120   -0.886820   12.058960
  N     -2.121890   -0.874160   10.939890
  C     -0.498690   -0.772460   14.417080
  C     -0.016800   -0.549770   15.718640
  C     -1.132710   -0.691690   16.677390
  O     -1.105270   -0.525870   17.877490
  C      1.309810   -0.256020   15.958660
  C      2.174600   -0.193120   14.873290
  C      1.708200   -0.422880   13.588140
  C      0.370700   -0.710840   13.341970
  N     -5.838470   -3.758410   14.752930
  C     -7.101570   -3.257470   15.233180
  H    -11.566440  -23.618580   -4.127050
  H     -8.888230  -19.055340   -0.163160
  H     -4.712460  -15.938060    3.146290
  H     -0.311280  -16.928760    1.218100
  H      0.797900  -11.541520    6.426570
  H     -4.073150  -11.995400    5.908200
  H     -6.652370   -8.094810    9.951560
  H     -7.142780   -7.029080   11.806540
  H     -7.727170   -5.445530   13.545970
  H     -3.023250   -5.838090   12.017350
  H     -5.398610   -2.211310   16.829700
  H     -3.426630   -1.214430   17.584920
  H      1.652720   -0.080050   16.966750
  H      3.217980    0.035650   15.030620
  H      2.395340   -0.375610   12.756390
  H      0.034700   -0.887120   12.332840
  H     -7.098020   -2.167870   15.173120
  H     -7.277860   -3.568030   16.265520
  H     -7.902790   -3.637400   14.606080

 Total Charge           Charge          ....    0
 Multiplicity           Mult            ....    1
 Number of Electrons    NEL             ....  610
 Basis Dimension        Dim             .... 1295

ORBITAL ENERGIES
----------------

  NO   OCC          E(Eh)            E(eV)
   0   2.0000     -88.999747     -2421.8062
   1   2.0000     -88.998661     -2421.7767
   2   2.0000     -88.997427     -2421.7431
   3   2.0000     -88.995288     -2421.6849
   4   2.0000     -88.986275     -2421.4397
   5   2.0000     -88.905733     -2419.2480
   6   2.0000     -24.833878      -675.7642
   7   2.0000     -24.824715      -675.5148
   8   2.0000     -24.821596      -675.4300
   9   2.0000     -24.809337      -675.0964
  10   2.0000     -19.268500      -524.3225
  11   2.0000     -19.209250      -522.7103
  12   2.0000     -19.202828      -522.5355
  13   2.0000     -14.499101      -394.5406
  14   2.0000     -14.434050      -392.7705
  15   2.0000     -14.433280      -392.7495
  16   2.0000     -14.428991      -392.6328
  17   2.0000     -14.428711      -392.6252
  18   2.0000     -14.425647      -392.5418
  19   2.0000     -14.424403      -392.5080
  20   2.0000     -14.411050      -392.1446
  21   2.0000     -14.404760      -391.9735
  22   2.0000     -10.423317      -283.6329
  23   2.0000     -10.406608      -283.1782
  24   2.0000     -10.402111      -283.0558
  25   2.0000     -10.401500      -283.0392
  26   2.0000     -10.398907      -282.9686
  27   2.0000     -10.378251      -282.4066
  28   2.0000     -10.369540      -282.1695
  29   2.0000     -10.368657      -282.1455
  30   2.0000     -10.355479      -281.7869
  31   2.0000     -10.354462      -281.7592
  32   2.0000     -10.352004      -281.6924
  33   2.0000     -10.349238      -281.6171
  34   2.0000     -10.348954      -281.6094
  35   2.0000     -10.346453      -281.5413
  36   2.0000     -10.344468      -281.4873
  37   2.0000     -10.342709      -281.4394
  38   2.0000     -10.342247      -281.4269
  39   2.0000     -10.342227      -281.4263
  40   2.0000     -10.341779      -281.4141
  41   2.0000     -10.340799      -281.3874
  42   2.0000     -10.335995      -281.2567
  43   2.0000     -10.335392      -281.2403
  44   2.0000     -10.334327      -281.2113
  45   2.0000     -10.333463      -281.1878
  46   2.0000     -10.332984      -281.1748
  47   2.0000     -10.332969      -281.1744
  48   2.0000     -10.332190      -281.1532
  49   2.0000     -10.331438      -281.1327
  50   2.0000     -10.331402      -281.1317
  51   2.0000     -10.330220      -281.0996
  52   2.0000     -10.329844      -281.0893
  53   2.0000     -10.328424      -281.0507
  54   2.0000     -10.327818      -281.0342
  55   2.0000     -10.327466      -281.0246
  56   2.0000     -10.326174      -280.9895
  57   2.0000     -10.321790      -280.8702
  58   2.0000     -10.320983      -280.8482
  59   2.0000     -10.314469      -280.6710
  60   2.0000     -10.312862      -280.6273
  61   2.0000     -10.312519      -280.6179
  62   2.0000     -10.310737      -280.5694
  63   2.0000     -10.310246      -280.5561
  64   2.0000     -10.309801      -280.5439
  65   2.0000     -10.309434      -280.5340
  66   2.0000     -10.308941      -280.5206
  67   2.0000     -10.307077      -280.4698
  68   2.0000     -10.304799      -280.4078
  69   2.0000     -10.304625      -280.4031
  70   2.0000     -10.304186      -280.3912
  71   2.0000     -10.302315      -280.3403
  72   2.0000     -10.302030      -280.3325
  73   2.0000     -10.301742      -280.3246
  74   2.0000     -10.300138      -280.2810
  75   2.0000     -10.298467      -280.2355
  76   2.0000     -10.293976      -280.1133
  77   2.0000     -10.284713      -279.8613
  78   2.0000     -10.284591      -279.8580
  79   2.0000     -10.284352      -279.8514
  80   2.0000     -10.283873      -279.8384
  81   2.0000     -10.283419      -279.8261
  82   2.0000     -10.278855      -279.7019
  83   2.0000     -10.277593      -279.6675
  84   2.0000      -8.093906      -220.2464
  85   2.0000      -8.093193      -220.2270
  86   2.0000      -8.091897      -220.1917
  87   2.0000      -8.089785      -220.1342
  88   2.0000      -8.081081      -219.8974
  89   2.0000      -8.000924      -217.7162
  90   2.0000      -6.063224      -164.9887
  91   2.0000      -6.062399      -164.9663
  92   2.0000      -6.061084      -164.9305
  93   2.0000      -6.059016      -164.8742
  94   2.0000      -6.058784      -164.8679
  95   2.0000      -6.058250      -164.8534
  96   2.0000      -6.056958      -164.8182
  97   2.0000      -6.056305      -164.8004
  98   2.0000      -6.055648      -164.7826
  99   2.0000      -6.054830      -164.7603
 100   2.0000      -6.054399      -164.7486
 101   2.0000      -6.052229      -164.6895
 102   2.0000      -6.050742      -164.6491
 103   2.0000      -6.046716      -164.5395
 104   2.0000      -6.042194      -164.4164
 105   2.0000      -5.969638      -162.4421
 106   2.0000      -5.969324      -162.4336
 107   2.0000      -5.960414      -162.1911
 108   2.0000      -1.353085       -36.8193
 109   2.0000      -1.345706       -36.6185
 110   2.0000      -1.333045       -36.2740
 111   2.0000      -1.324986       -36.0547
 112   2.0000      -1.195348       -32.5271
 113   2.0000      -1.124689       -30.6043
 114   2.0000      -1.116868       -30.3915
 115   2.0000      -1.110100       -30.2074
 116   2.0000      -1.091667       -29.7058
 117   2.0000      -1.073763       -29.2186
 118   2.0000      -1.051827       -28.6217
 119   2.0000      -1.049332       -28.5538
 120   2.0000      -1.024304       -27.8727
 121   2.0000      -1.024139       -27.8682
 122   2.0000      -1.015846       -27.6426
 123   2.0000      -1.010007       -27.4837
 124   2.0000      -1.008634       -27.4463
 125   2.0000      -1.007798       -27.4236
 126   2.0000      -1.005889       -27.3716
 127   2.0000      -1.000684       -27.2300
 128   2.0000      -0.988459       -26.8973
 129   2.0000      -0.986171       -26.8351
 130   2.0000      -0.984160       -26.7804
 131   2.0000      -0.968814       -26.3628
 132   2.0000      -0.964998       -26.2589
 133   2.0000      -0.962501       -26.1910
 134   2.0000      -0.951827       -25.9005
 135   2.0000      -0.935635       -25.4599
 136   2.0000      -0.929675       -25.2977
 137   2.0000      -0.924558       -25.1585
 138   2.0000      -0.909352       -24.7447
 139   2.0000      -0.908690       -24.7267
 140   2.0000      -0.891945       -24.2711
 141   2.0000      -0.887110       -24.1395
 142   2.0000      -0.886236       -24.1157
 143   2.0000      -0.878011       -23.8919
 144   2.0000      -0.874039       -23.7838
 145   2.0000      -0.869926       -23.6719
 146   2.0000      -0.867571       -23.6078
 147   2.0000      -0.863304       -23.4917
 148   2.0000      -0.860371       -23.4119
 149   2.0000      -0.855864       -23.2892
 150   2.0000      -0.851077       -23.1590
 151   2.0000      -0.848841       -23.0981
 152   2.0000      -0.828494       -22.5445
 153   2.0000      -0.822702       -22.3869
 154   2.0000      -0.817664       -22.2498
 155   2.0000      -0.803921       -21.8758
 156   2.0000      -0.792713       -21.5708
 157   2.0000      -0.784213       -21.3395
 158   2.0000      -0.779215       -21.2035
 159   2.0000      -0.775012       -21.0891
 160   2.0000      -0.766030       -20.8447
 161   2.0000      -0.754780       -20.5386
 162   2.0000      -0.753361       -20.5000
 163   2.0000      -0.745707       -20.2917
 164   2.0000      -0.735104       -20.0032
 165   2.0000      -0.726929       -19.7807
 166   2.0000      -0.722225       -19.6527
 167   2.0000      -0.721381       -19.6298
 168   2.0000      -0.715074       -19.4582
 169   2.0000      -0.707763       -19.2592
 170   2.0000      -0.702408       -19.1135
 171   2.0000      -0.700228       -19.0542
 172   2.0000      -0.697096       -18.9689
 173   2.0000      -0.696435       -18.9510
 174   2.0000      -0.694439       -18.8966
 175   2.0000      -0.687040       -18.6953
 176   2.0000      -0.683281       -18.5930
 177   2.0000      -0.679623       -18.4935
 178   2.0000      -0.674057       -18.3420
 179   2.0000      -0.670134       -18.2353
 180   2.0000      -0.662100       -18.0167
 181   2.0000      -0.656540       -17.8654
 182   2.0000      -0.651880       -17.7385
 183   2.0000      -0.645899       -17.5758
 184   2.0000      -0.638859       -17.3842
 185   2.0000      -0.636420       -17.3179
 186   2.0000      -0.632999       -17.2248
 187   2.0000      -0.627655       -17.0794
 188   2.0000      -0.626057       -17.0359
 189   2.0000      -0.623386       -16.9632
 190   2.0000      -0.622365       -16.9354
 191   2.0000      -0.619974       -16.8703
 192   2.0000      -0.619424       -16.8554
 193   2.0000      -0.613300       -16.6887
 194   2.0000      -0.606851       -16.5133
 195   2.0000      -0.604611       -16.4523
 196   2.0000      -0.599561       -16.3149
 197   2.0000      -0.598640       -16.2898
 198   2.0000      -0.596521       -16.2322
 199   2.0000      -0.591878       -16.1058
 200   2.0000      -0.587810       -15.9951
 201   2.0000      -0.581227       -15.8160
 202   2.0000      -0.576671       -15.6920
 203   2.0000      -0.575113       -15.6496
 204   2.0000      -0.570036       -15.5115
 205   2.0000      -0.565498       -15.3880
 206   2.0000      -0.564395       -15.3580
 207   2.0000      -0.562090       -15.2952
 208   2.0000      -0.558037       -15.1850
 209   2.0000      -0.555765       -15.1231
 210   2.0000      -0.552709       -15.0400
 211   2.0000      -0.552512       -15.0346
 212   2.0000      -0.547963       -14.9108
 213   2.0000      -0.547418       -14.8960
 214   2.0000      -0.545994       -14.8573
 215   2.0000      -0.540197       -14.6995
 216   2.0000      -0.535489       -14.5714
 217   2.0000      -0.534252       -14.5377
 218   2.0000      -0.530957       -14.4481
 219   2.0000      -0.529267       -14.4021
 220   2.0000      -0.526703       -14.3323
 221   2.0000      -0.523018       -14.2321
 222   2.0000      -0.521735       -14.1971
 223   2.0000      -0.517984       -14.0951
 224   2.0000      -0.516789       -14.0625
 225   2.0000      -0.515638       -14.0312
 226   2.0000      -0.514542       -14.0014
 227   2.0000      -0.512577       -13.9479
 228   2.0000      -0.510188       -13.8829
 229   2.0000      -0.508144       -13.8273
 230   2.0000      -0.507371       -13.8063
 231   2.0000      -0.505045       -13.7430
 232   2.0000      -0.503792       -13.7089
 233   2.0000      -0.502101       -13.6629
 234   2.0000      -0.500577       -13.6214
 235   2.0000      -0.498914       -13.5761
 236   2.0000      -0.495654       -13.4874
 237   2.0000      -0.494869       -13.4661
 238   2.0000      -0.492561       -13.4033
 239   2.0000      -0.488942       -13.3048
 240   2.0000      -0.488681       -13.2977
 241   2.0000      -0.487566       -13.2674
 242   2.0000      -0.483363       -13.1530
 243   2.0000      -0.481120       -13.0919
 244   2.0000      -0.475779       -12.9466
 245   2.0000      -0.472196       -12.8491
 246   2.0000      -0.469517       -12.7762
 247   2.0000      -0.465433       -12.6651
 248   2.0000      -0.464354       -12.6357
 249   2.0000      -0.463664       -12.6169
 250   2.0000      -0.462401       -12.5826
 251   2.0000      -0.461135       -12.5481
 252   2.0000      -0.460067       -12.5191
 253   2.0000      -0.458259       -12.4699
 254   2.0000      -0.455566       -12.3966
 255   2.0000      -0.454146       -12.3580
 256   2.0000      -0.451964       -12.2986
 257   2.0000      -0.451787       -12.2938
 258   2.0000      -0.447937       -12.1890
 259   2.0000      -0.447395       -12.1742
 260   2.0000      -0.443414       -12.0659
 261   2.0000      -0.443198       -12.0600
 262   2.0000      -0.443118       -12.0578
 263   2.0000      -0.442598       -12.0437
 264   2.0000      -0.441054       -12.0017
 265   2.0000      -0.440579       -11.9888
 266   2.0000      -0.439798       -11.9675
 267   2.0000      -0.438442       -11.9306
 268   2.0000      -0.436657       -11.8820
 269   2.0000      -0.434152       -11.8139
 270   2.0000      -0.433625       -11.7995
 271   2.0000      -0.428310       -11.6549
 272   2.0000      -0.426268       -11.5993
 273   2.0000      -0.425840       -11.5877
 274   2.0000      -0.423901       -11.5349
 275   2.0000      -0.421349       -11.4655
 276   2.0000      -0.414133       -11.2691
 277   2.0000      -0.407267       -11.0823
 278   2.0000      -0.404218       -10.9993
 279   2.0000      -0.403421       -10.9776
 280   2.0000      -0.399530       -10.8718
 281   2.0000      -0.397291       -10.8108
 282   2.0000      -0.393790       -10.7156
 283   2.0000      -0.376330       -10.2405
 284   2.0000      -0.374866       -10.2006
 285   2.0000      -0.364140        -9.9088
 286   2.0000      -0.363596        -9.8939
 287   2.0000      -0.362717        -9.8700
 288   2.0000      -0.356363        -9.6971
 289   2.0000      -0.355502        -9.6737
 290   2.0000      -0.352642        -9.5959
 291   2.0000      -0.338983        -9.2242
 292   2.0000      -0.333836        -9.0841
 293   2.0000      -0.332385        -9.0446
 294   2.0000      -0.331772        -9.0280
 295   2.0000      -0.327837        -8.9209
 296   2.0000      -0.326144        -8.8748
 297   2.0000      -0.325761        -8.8644
 298   2.0000      -0.322132        -8.7657
 299   2.0000      -0.313782        -8.5384
 300   2.0000      -0.298786        -8.1304
 301   2.0000      -0.292691        -7.9645
 302   2.0000      -0.273559        -7.4439
 303   2.0000      -0.266686        -7.2569
 304   2.0000      -0.251019        -6.8306
 305   0.0000      -0.123272        -3.3544
 306   0.0000      -0.112333        -3.0567
 307   0.0000      -0.105505        -2.8709
 308   0.0000      -0.082654        -2.2491
 309   0.0000      -0.069900        -1.9021

MULLIKEN ATOMIC CHARGES
-----------------------
   0 C :    0.210284
   1 F :   -0.181634
   2 C :   -0.217156
   3 C :    0.182983
   4 O :   -0.142729
   5 O :   -0.145849
   6 C :    0.206093
   7 F :   -0.134318
   8 C :    0.139819
   9 F :   -0.169920
  10 C :    0.044392
  11 C :    0.166364
  12 F :   -0.158955
  13 C :   -0.103383
  14 C :   -0.043564
  15 C :    0.010736
  16 C :   -0.091361
  17 S :    0.213475
  18 C :   -0.095789
  19 C :    0.012575
  20 C :    0.303812
  21 C :   -0.292069
  22 C :   -0.189525
  23 N :    0.194044
  24 C :   -0.190543
  25 N :    0.177954
  26 C :   -0.010307
  27 C :   -0.098684
  28 S :    0.179948
  29 C :    0.038694
  30 C :    0.032743
  31 N :   -0.014614
  32 C :   -0.000263
  33 C :   -0.032824
  34 C :   -0.013812
  35 S :   -0.078546
  36 C :   -0.035551
  37 C :   -0.003592
  38 N :   -0.012891
  39 C :    0.036008
  40 C :    0.041989
  41 C :   -0.103263
  42 C :   -0.008723
  43 C :    0.009029
  44 C :   -0.089597
  45 S :    0.172203
  46 C :   -0.097282
  47 C :    0.014074
  48 C :    0.305329
  49 C :   -0.291184
  50 C :   -0.187678
  51 N :    0.170550
  52 C :   -0.192960
  53 N :    0.195761
  54 C :   -0.044210
  55 C :   -0.064114
  56 S :    0.171344
  57 C :    0.143640
  58 C :   -0.029397
  59 C :   -0.059599
  60 C :    0.204971
  61 C :   -0.034488
  62 C :   -0.105314
  63 S :    0.176891
  64 C :    0.034620
  65 C :   -0.047839
  66 C :    0.021948
  67 C :   -0.155757
  68 C :    0.283755
  69 C :   -0.365089
  70 C :   -0.185217
  71 N :    0.131644
  72 C :   -0.175969
  73 N :    0.139952
  74 C :    0.014223
  75 C :    0.001996
  76 C :    0.131791
  77 O :   -0.152961
  78 C :   -0.032639
  79 C :    0.039491
  80 C :    0.038830
  81 C :   -0.041909
  82 N :   -0.172555
  83 C :    0.114347
  84 H :    0.185869
  85 H :    0.021404
  86 H :    0.007827
  87 H :    0.013634
  88 H :    0.015511
  89 H :    0.002249
  90 H :    0.006622
  91 H :   -0.007891
  92 H :   -0.020155
  93 H :   -0.009027
  94 H :   -0.002116
  95 H :    0.023118
  96 H :   -0.008029
  97 H :   -0.004513
  98 H :   -0.003482
  99 H :   -0.002341
 100 H :    0.073743
 101 H :    0.046656
 102 H :    0.048238
Sum of atomic charges:   -0.0000000

LOEWDIN ATOMIC CHARGES
----------------------
   0 C :    0.062403
   1 F :   -0.045416
   2 C :   -0.127768
   3 C :    0.080100
   4 O :   -0.130249
   5 O :   -0.018227
   6 C :    0.081001
   7 F :   -0.017430
   8 C :    0.048475
   9 F :   -0.045582
  10 C :   -0.061711
  11 C :    0.058848
  12 F :   -0.032385
  13 C :   -0.175148
  14 C :   -0.013295
  15 C :   -0.068746
  16 C :   -0.179069
  17 S :    0.500621
  18 C :   -0.177508
  19 C :   -0.062680
  20 C :    0.074988
  21 C :   -0.090455
  22 C :   -0.022360
  23 N :   -0.013817
  24 C :   -0.017117
  25 N :   -0.026752
  26 C :   -0.004202
  27 C :   -0.164608
  28 S :    0.476971
  29 C :   -0.050641
  30 C :    0.069050
  31 N :   -0.070009
  32 C :    0.030698
  33 C :   -0.044942
  34 C :   -0.140718
  35 S :    0.122456
  36 C :   -0.053997
  37 C :    0.037041
  38 N :   -0.068950
  39 C :    0.072464
  40 C :   -0.045920
  41 C :   -0.170815
  42 C :    0.000123
  43 C :   -0.070861
  44 C :   -0.168059
  45 S :    0.473145
  46 C :   -0.187918
  47 C :   -0.059166
  48 C :    0.077278
  49 C :   -0.092593
  50 C :   -0.013302
  51 N :   -0.034155
  52 C :   -0.023455
  53 N :   -0.013813
  54 C :   -0.033267
  55 C :   -0.148647
  56 S :    0.477625
  57 C :   -0.045448
  58 C :    0.001778
  59 C :   -0.037850
  60 C :    0.012538
  61 C :   -0.164974
  62 C :   -0.033716
  63 S :    0.474250
  64 C :   -0.056357
  65 C :   -0.135105
  66 C :    0.054123
  67 C :   -0.136451
  68 C :    0.048599
  69 C :   -0.177498
  70 C :   -0.011376
  71 N :   -0.077520
  72 C :   -0.023182
  73 N :   -0.069461
  74 C :   -0.010664
  75 C :   -0.047479
  76 C :    0.083958
  77 O :   -0.150607
  78 C :    0.010809
  79 C :   -0.010990
  80 C :   -0.003800
  81 C :   -0.009290
  82 N :    0.033034
  83 C :    0.042320
  84 H :    0.084791
  85 H :    0.039973
  86 H :    0.021383
  87 H :    0.020678
  88 H :    0.020580
  89 H :    0.019084
  90 H :    0.038967
  91 H :    0.036523
  92 H :    0.034806
  93 H :    0.026329
  94 H :    0.038830
  95 H :    0.045994
  96 H :    0.037665
  97 H :    0.032084
  98 H :    0.033625
  99 H :    0.037172
 100 H :    0.044409
 101 H :    0.032350
 102 H :    0.037578

  Mayer bond orders larger than 0.100000
B(  0-C ,  1-F ) :   1.1120 B(  0-C ,  2-C ) :   1.3253 B(  0-C , 11-C ) :   1.3341
B(  2-C ,  3-C ) :   0.8500 B(  2-C ,  6-C ) :   1.3471 B(  2-C , 10-C ) :   0.1150
B(  3-C ,  4-O ) :   2.2197 B(  3-C ,  5-O ) :   1.2655 B(  5-O , 84-H ) :   0.9374
B(  6-C ,  7-F ) :   1.2107 B(  6-C ,  8-C ) :   1.3147 B(  8-C ,  9-F ) :   1.1317
B(  8-C , 10-C ) :   1.2763 B( 10-C , 11-C ) :   1.2835 B( 10-C , 13-C ) :   1.1104
B( 11-C , 12-F ) :   1.1474 B( 13-C , 14-C ) :   1.4626 B( 13-C , 17-S ) :   1.0994
B( 14-C , 15-C ) :   1.2923 B( 14-C , 85-H ) :   0.9919 B( 15-C , 16-C ) :   1.4286
B( 15-C , 20-C ) :   0.9956 B( 16-C , 17-S ) :   1.1225 B( 16-C , 18-C ) :   1.1881
B( 18-C , 19-C ) :   1.4212 B( 18-C , 28-S ) :   1.1334 B( 19-C , 20-C ) :   0.9886
B( 19-C , 26-C ) :   1.3048 B( 20-C , 21-C ) :   1.7199 B( 21-C , 22-C ) :   1.1344
B( 21-C , 24-C ) :   1.1334 B( 22-C , 23-N ) :   2.9990 B( 24-C , 25-N ) :   2.9904
B( 26-C , 27-C ) :   1.4488 B( 26-C , 86-H ) :   0.9714 B( 27-C , 28-S ) :   1.0836
B( 27-C , 29-C ) :   1.1204 B( 29-C , 30-C ) :   1.0162 B( 29-C , 33-C ) :   1.5317
B( 30-C , 31-N ) :   1.7524 B( 30-C , 87-H ) :   0.9852 B( 31-N , 32-C ) :   1.2529
B( 32-C , 33-C ) :   1.0837 B( 32-C , 37-C ) :   1.5256 B( 33-C , 34-C ) :   1.0421
B( 34-C , 35-S ) :   1.6742 B( 34-C , 36-C ) :   1.0518 B( 35-S , 89-H ) :   0.1006
B( 36-C , 37-C ) :   1.0849 B( 36-C , 40-C ) :   1.5154 B( 37-C , 38-N ) :   1.2493
B( 38-N , 39-C ) :   1.7562 B( 39-C , 40-C ) :   1.0116 B( 39-C , 88-H ) :   0.9835
B( 40-C , 41-C ) :   1.1441 B( 41-C , 42-C ) :   1.4396 B( 41-C , 45-S ) :   1.0701
B( 42-C , 43-C ) :   1.3175 B( 42-C , 89-H ) :   0.9674 B( 43-C , 44-C ) :   1.4070
B( 43-C , 48-C ) :   0.9886 B( 44-C , 45-S ) :   1.1415 B( 44-C , 46-C ) :   1.1916
B( 46-C , 47-C ) :   1.4489 B( 46-C , 56-S ) :   1.1126 B( 47-C , 48-C ) :   0.9993
B( 47-C , 54-C ) :   1.2808 B( 48-C , 49-C ) :   1.7150 B( 49-C , 50-C ) :   1.1353
B( 49-C , 52-C ) :   1.1333 B( 50-C , 51-N ) :   2.9859 B( 52-C , 53-N ) :   3.0047
B( 54-C , 55-C ) :   1.4930 B( 54-C , 90-H ) :   0.9875 B( 55-C , 56-S ) :   1.1142
B( 55-C , 57-C ) :   1.0685 B( 57-C , 58-C ) :   1.3314 B( 57-C , 62-C ) :   1.3255
B( 58-C , 59-C ) :   1.4191 B( 58-C , 91-H ) :   0.9894 B( 59-C , 60-C ) :   1.3169
B( 59-C , 92-H ) :   0.9997 B( 60-C , 61-C ) :   1.3420 B( 60-C , 82-N ) :   1.1134
B( 61-C , 62-C ) :   1.4124 B( 61-C , 63-S ) :   1.0205 B( 62-C , 93-H ) :   0.9884
B( 63-S , 64-C ) :   1.1184 B( 64-C , 65-C ) :   1.4061 B( 64-C , 82-N ) :   1.2019
B( 65-C , 66-C ) :   1.3503 B( 65-C , 94-H ) :   0.9459 B( 66-C , 67-C ) :   1.4727
B( 66-C , 95-H ) :   0.9279 B( 67-C , 68-C ) :   1.1360 B( 67-C , 76-C ) :   0.9598
B( 68-C , 69-C ) :   1.5434 B( 68-C , 74-C ) :   0.9965 B( 69-C , 70-C ) :   1.1870
B( 69-C , 72-C ) :   1.1315 B( 70-C , 71-N ) :   2.9637 B( 72-C , 73-N ) :   2.9834
B( 74-C , 75-C ) :   1.3343 B( 74-C , 81-C ) :   1.3948 B( 75-C , 76-C ) :   0.9225
B( 75-C , 78-C ) :   1.4035 B( 76-C , 77-O ) :   2.2500 B( 78-C , 79-C ) :   1.3359
B( 78-C , 96-H ) :   1.0064 B( 79-C , 80-C ) :   1.3947 B( 79-C , 97-H ) :   0.9900
B( 80-C , 81-C ) :   1.3579 B( 80-C , 98-H ) :   0.9858 B( 81-C , 99-H ) :   0.9857
B( 82-N , 83-C ) :   0.9672 B( 83-C ,100-H ) :   0.9551 B( 83-C ,101-H ) :   0.9668
B( 83-C ,102-H ) :   0.9636

-----------------------------------------------------------------------------
         ABSORPTION SPECTRUM VIA TRANSITION ELECTRIC DIPOLE MOMENTS
-----------------------------------------------------------------------------
State   Energy  Wavelength   fosc         T2         TX        TY        TZ
        (cm-1)    (nm)                  (au**2)     (au)      (au)      (au)
-----------------------------------------------------------------------------
   0   13040.3    766.9   0.573269257  14.47258  -0.01699   2.78404   2.59257
   1   14151.9    706.6   0.220341195   5.12575   0.70286   1.54631   1.49688
   2   15192.1    658.2   0.054367237   1.17814  -1.05012  -0.14380  -0.23390
   3   15967.8    626.3   0.015246571   0.31434  -0.55841   0.03449   0.03643
   4   16440.2    608.3   0.062766129   1.25688   0.79955   0.55044   0.56090
   5   18542.8    539.3   0.002312322   0.04105   0.18478  -0.06600  -0.05055
   6   19843.5    503.9   0.747725307  12.40509   0.41776   2.80379   2.09029
   7   21051.1    475.0   0.053758876   0.84072  -0.68281  -0.51529   0.33011
   8   22195.8    450.5   0.103342125   1.53279   0.22543   0.16018   1.20678
   9   22387.9    446.7   0.391471250   5.75656   1.60227   1.75615   0.32434
  10   22727.8    440.0   0.219060303   3.17309   0.05643  -1.33000  -1.18364
  11   23241.2    430.3   0.065329562   0.92540  -0.90787  -0.31637  -0.03285
  12   23545.1    424.7   0.038466559   0.53785  -0.70531  -0.17935  -0.09068
  13   24044.1    415.9   0.001455738   0.01993  -0.10151  -0.01401   0.09712
  14   24371.1    410.3   0.209356158   2.82804  -0.16158  -1.11941  -1.24453
  15   24851.6    402.4   0.119168412   1.57864  -0.96165  -0.55780  -0.58543
  16   26588.8    376.1   0.013615504   0.16858  -0.11675  -0.34575  -0.18818
  17   26788.7    373.3   0.371713106   4.56806   0.78415   1.52862   1.27141
  18   26836.4    372.6   0.006955071   0.08532   0.16609   0.10509   0.21608
  19   27281.2    366.6   0.000355078   0.00428  -0.02741  -0.01917   0.05627
  20   27926.6    358.1   0.031163770   0.36737  -0.45856  -0.33002  -0.21951
  21   28318.4    353.1   0.169062287   1.96541  -0.58295  -0.92987  -0.87231
  22   28988.8    345.0   0.102011961   1.15850  -1.03029  -0.20065  -0.23823
  23   29336.8    340.9   0.563993793   6.32903  -0.14990  -1.40961  -2.07835
  24   29538.7    338.5   0.005725799   0.06381   0.13567  -0.07718   0.19862
  25   29829.6    335.2   0.001346366   0.01486   0.09320  -0.07821   0.00743
  26   30456.5    328.3   0.177647548   1.92024   0.92110   0.57362   0.86185
  27   30687.9    325.9   0.129559480   1.38988  -0.28150   0.21996   1.12350
  28   30935.5    323.3   0.010005299   0.10648  -0.14840  -0.05563  -0.28523
  29   31088.4    321.7   0.038293191   0.40551  -0.59695  -0.21833   0.03855
  30   31514.5    317.3   0.101902513   1.06451   0.10476   0.25002   0.99550
  31   32126.7    311.3   0.152194214   1.55958  -0.30428  -0.60053  -1.05183
  32   32174.5    310.8   0.244801088   2.50482   0.78470   0.55887   1.25568
  33   32351.1    309.1   0.203612098   2.07200   1.37178   0.38835   0.19849
  34   32427.7    308.4   0.293051935   2.97512  -1.35655   0.36701   1.00010
  35   32555.6    307.2   0.071452560   0.72255   0.76702   0.10758   0.35022
  36   32753.6    305.3   0.450420093   4.52725   0.65609  -1.38903  -1.47221
  37   33039.1    302.7   0.161884011   1.61306   1.20665   0.23867   0.31638
  38   33487.5    298.6   0.034345735   0.33765  -0.53517  -0.22541   0.02069
  39   33756.9    296.2   0.232874252   2.27109  -0.46014   0.94436   1.08053
  40   34003.7    294.1   0.180063349   1.74331   1.00000   0.44942   0.73576
  41   34081.0    293.4   0.140153908   1.35384   1.13995   0.02245  -0.23208
  42   34674.0    288.4   0.029879439   0.28369   0.24134   0.21381   0.42395
  43   34828.2    287.1   0.082125535   0.77629  -0.24190  -0.43381  -0.72772
  44   34911.9    286.4   0.093180100   0.87867   0.84782   0.21539   0.33688
  45   35387.7    282.6   0.049412569   0.45969   0.50417  -0.05672  -0.44975
  46   35580.4    281.1   0.406988483   3.76571  -1.86560  -0.21982  -0.48674
  47   35737.0    279.8   0.030867929   0.28436   0.51990   0.05322   0.10596
  48   36131.6    276.8   0.035309662   0.32172   0.54708  -0.14462   0.03883
  49   36237.9    276.0   0.006020515   0.05469  -0.22345  -0.03170   0.06132
  50   36397.1    274.7   0.015098458   0.13657  -0.07111   0.22919   0.28104
  51   36573.3    273.4   0.064194457   0.57784  -0.29269   0.47198   0.51905
  52   36917.0    270.9   0.166160178   1.48175   0.76091   0.60944   0.72894
  53   36941.2    270.7   0.006087211   0.05425  -0.22772  -0.04361   0.02210
  54   37033.8    270.0   0.006005346   0.05338  -0.18863  -0.13332   0.00546
  55   37151.2    269.2   0.002293578   0.02032  -0.02391  -0.13642   0.03380
  56   37272.6    268.3   0.012451800   0.10998  -0.26405   0.00324   0.20061
  57   37386.0    267.5   0.084153875   0.74104   0.29516  -0.58388  -0.55947
  58   37705.5    265.2   0.023138152   0.20202   0.41964   0.16023  -0.01592
  59   37788.4    264.6   0.004492959   0.03914  -0.09425   0.15174  -0.08504
  60   37869.0    264.1   0.002088061   0.01815  -0.09980   0.08309  -0.03588
  61   37947.3    263.5   0.074550327   0.64676  -0.59237  -0.24268  -0.48680
  62   38063.2    262.7   0.111088996   0.96082  -0.94520   0.11288   0.23384
  63   38210.9    261.7   0.052656440   0.45367   0.59080  -0.20932  -0.24659
  64   38724.1    258.2   0.002665941   0.02266  -0.09944  -0.03223   0.10834
  65   38874.4    257.2   0.182547108   1.54592  -1.22036   0.22596   0.07477
  66   38927.6    256.9   0.017535390   0.14830  -0.32578   0.16888  -0.11680
  67   39084.5    255.9   0.039701004   0.33441   0.57339  -0.07439   0.00962
  68   39126.3    255.6   0.055303490   0.46533  -0.31633   0.30972   0.51898
  69   39447.2    253.5   0.143457898   1.19725   1.07448  -0.17286  -0.11338
  70   39565.3    252.7   0.021001214   0.17475  -0.30798  -0.25585  -0.12014
  71   39653.7    252.2   0.229609034   1.90626  -1.37588   0.09843  -0.05933
  72   39970.6    250.2   0.012922016   0.10643  -0.26610  -0.10400  -0.15749
  73   40132.3    249.2   0.004978533   0.04084  -0.16553  -0.11254   0.02786
  74   40242.9    248.5   0.018443544   0.15088  -0.00976   0.32597   0.21101

FINAL SINGLE POINT ENERGY     -5875.734756430286

DIPOLE MOMENT
-------------
                                X             Y             Z
Electronic contribution:    -24.56004    -113.28014    -109.75329
Nuclear contribution   :     25.99037     112.63161     112.08809
                        -----------------------------------------
Total Dipole Moment    :      1.43033      -0.64852       2.33480
                        -----------------------------------------
Magnitude (a.u.)       :      2.81384
Magnitude (Debye)      :      7.15222

Rotational constants in cm-1:     0.001812     0.000135     0.000127
Rotational constants in MHz :    54.310389     4.036941     3.818663

                             ****ORCA TERMINATED NORMALLY****
TOTAL RUN TIME: 0 days 0 hours 12 minutes 4 seconds 505 msec
