                         Program Version 4.2.0 -  RELEASE  -
|  1> # ORCA input file
|  2> # SCF done       -138.501437648884          0.000875909232
|  3> ! CAM-B3LYP def2-SVP def2/J RIJCOSX Grid4 TightSCF
|  4> %maxcore 5000
|  5> %tddft
|  6>     Mode sTDDFT
|  7>     Ethresh 5.0
|  8>     maxcore 5000
|  9> end
| 10>
| 11> %pal
| 12>   nprocs 6
| 13>   end
| 14> * xyz 0 1
| 15>    C        0.35569        -0.97807        -1.32666
| 16>    C        0.35483        -0.40824        -2.56558
| 17>    C        0.84229         0.92394        -2.55247
| 18>    S        1.00435         1.97177        -3.95169
| 19>    C       -0.00450         1.08572        -5.18968
| 20>    C        0.41884        -0.35828        -5.32286
| 21>    S       -0.23491        -1.34400        -3.93792
| 22>    C        1.21594         1.34133        -1.28083
| 23>    S        0.94319         0.07531        -0.11272
| 24>    C        1.77097         2.59018        -0.88983
| 25>    C        2.04768         3.06383         0.38720
| 26>    C        2.64666         4.34440         0.39658
| 27>    S        3.12740         5.29289         1.79819
| 28>    C        2.89431         4.13365         3.18314
| 29>    C        1.57204         3.41513         3.07975
| 30>    S        1.64952         2.10851         1.80908
| 31>    C        2.80600         4.87113        -0.87617
| 32>    S        2.23030         3.76322        -2.08745
| 33>    C        3.34340         6.11944        -1.29365
| 34>    C        4.13955         7.01272        -0.60414
| 35>    C        4.48129         8.12045        -1.38232
| 36>    C        3.93532         8.07998        -2.67402
| 37>    S        3.00931         6.66821        -2.93471
| 38>    C        4.34011         9.24772        -3.37223
| 39>    C        5.15096        10.01691        -2.52408
| 40>    C        5.26641         9.33649        -1.24442
| 41>    C        5.96470         9.74857        -0.14723
| 42>    C        6.69599        10.95460        -0.12388
| 43>    N        7.29613        11.93129        -0.08495
| 44>    C        6.00823         8.99834         1.04683
| 45>    N        6.05722         8.40122         2.02514
| 46>    C        5.60958        11.19436        -3.11828
| 47>    C        5.14802        11.33734        -4.41204
| 48>    S        4.13243         9.98212        -4.90041
| 49>    C        5.35833        12.39191        -5.34218
| 50>    C        6.30784        13.40244        -5.35294
| 51>    C        6.18864        14.25298        -6.47601
| 52>    S        7.24265        15.61017        -6.85106
| 53>    C        8.72436        15.16294        -5.88601
| 54>    C        8.38568        15.03998        -4.42125
| 55>    S        7.51247        13.47983        -4.07311
| 56>    C        5.13173        13.91956        -7.31471
| 57>    S        4.30189        12.51304        -6.71928
| 58>    C        4.68598        14.57317        -8.49576
| 59>    C        3.69527        14.17112        -9.38310
| 60>    C        3.49602        15.10273       -10.43433
| 61>    S        2.36406        15.00988       -11.78179
| 62>    C        1.24178        13.70029       -11.19613
| 63>    C        2.02363        12.47105       -10.79683
| 64>    S        2.80617        12.67384        -9.15884
| 65>    C        4.32737        16.17986       -10.34293
| 66>    S        5.37012        16.09971        -8.98866
| 67>    H        0.02746        -1.96583        -1.07501
| 68>    H        0.17221         1.63589        -6.11390
| 69>    H       -1.05581         1.16747        -4.91231
| 70>    H        1.50484        -0.45504        -5.34611
| 71>    H       -0.00696        -0.81345        -6.21709
| 72>    H        2.93883         4.76603         4.07027
| 73>    H        3.72654         3.42924         3.19701
| 74>    H        0.75888         4.09924         2.83563
| 75>    H        1.33885         2.88342         4.00193
| 76>    H        4.47619         6.85298         0.40192
| 77>    H        6.22448        11.92130        -2.62379
| 78>    H        9.42075        15.98238        -6.06292
| 79>    H        9.14043        14.23661        -6.28306
| 80>    H        7.76590        15.87286        -4.08794
| 81>    H        9.28351        14.98577        -3.80511
| 82>    H        0.58738        13.49362       -12.04306
| 83>    H        0.65066        14.08418       -10.36400
| 84>    H        2.79588        12.23616       -11.52985
| 85>    H        1.36749        11.61003       -10.66986
| 86>    H        4.37777        17.00990       -11.01753
| 87> *
| 88>
| 89>                          ****END OF INPUT****

CARTESIAN COORDINATES (ANGSTROEM)
---------------------------------
  C      0.355690   -0.978070   -1.326660
  C      0.354830   -0.408240   -2.565580
  C      0.842290    0.923940   -2.552470
  S      1.004350    1.971770   -3.951690
  C     -0.004500    1.085720   -5.189680
  C      0.418840   -0.358280   -5.322860
  S     -0.234910   -1.344000   -3.937920
  C      1.215940    1.341330   -1.280830
  S      0.943190    0.075310   -0.112720
  C      1.770970    2.590180   -0.889830
  C      2.047680    3.063830    0.387200
  C      2.646660    4.344400    0.396580
  S      3.127400    5.292890    1.798190
  C      2.894310    4.133650    3.183140
  C      1.572040    3.415130    3.079750
  S      1.649520    2.108510    1.809080
  C      2.806000    4.871130   -0.876170
  S      2.230300    3.763220   -2.087450
  C      3.343400    6.119440   -1.293650
  C      4.139550    7.012720   -0.604140
  C      4.481290    8.120450   -1.382320
  C      3.935320    8.079980   -2.674020
  S      3.009310    6.668210   -2.934710
  C      4.340110    9.247720   -3.372230
  C      5.150960   10.016910   -2.524080
  C      5.266410    9.336490   -1.244420
  C      5.964700    9.748570   -0.147230
  C      6.695990   10.954600   -0.123880
  N      7.296130   11.931290   -0.084950
  C      6.008230    8.998340    1.046830
  N      6.057220    8.401220    2.025140
  C      5.609580   11.194360   -3.118280
  C      5.148020   11.337340   -4.412040
  S      4.132430    9.982120   -4.900410
  C      5.358330   12.391910   -5.342180
  C      6.307840   13.402440   -5.352940
  C      6.188640   14.252980   -6.476010
  S      7.242650   15.610170   -6.851060
  C      8.724360   15.162940   -5.886010
  C      8.385680   15.039980   -4.421250
  S      7.512470   13.479830   -4.073110
  C      5.131730   13.919560   -7.314710
  S      4.301890   12.513040   -6.719280
  C      4.685980   14.573170   -8.495760
  C      3.695270   14.171120   -9.383100
  C      3.496020   15.102730  -10.434330
  S      2.364060   15.009880  -11.781790
  C      1.241780   13.700290  -11.196130
  C      2.023630   12.471050  -10.796830
  S      2.806170   12.673840   -9.158840
  C      4.327370   16.179860  -10.342930
  S      5.370120   16.099710   -8.988660
  H      0.027460   -1.965830   -1.075010
  H      0.172210    1.635890   -6.113900
  H     -1.055810    1.167470   -4.912310
  H      1.504840   -0.455040   -5.346110
  H     -0.006960   -0.813450   -6.217090
  H      2.938830    4.766030    4.070270
  H      3.726540    3.429240    3.197010
  H      0.758880    4.099240    2.835630
  H      1.338850    2.883420    4.001930
  H      4.476190    6.852980    0.401920
  H      6.224480   11.921300   -2.623790
  H      9.420750   15.982380   -6.062920
  H      9.140430   14.236610   -6.283060
  H      7.765900   15.872860   -4.087940
  H      9.283510   14.985770   -3.805110
  H      0.587380   13.493620  -12.043060
  H      0.650660   14.084180  -10.364000
  H      2.795880   12.236160  -11.529850
  H      1.367490   11.610030  -10.669860
  H      4.377770   17.009900  -11.017530

 Total Charge           Charge          ....    0
 Multiplicity           Mult            ....    1
 Number of Electrons    NEL             ....  474
 Basis Dimension        Dim             ....  884

ORBITAL ENERGIES
----------------

  NO   OCC          E(Eh)            E(eV)
   0   2.0000     -88.972695     -2421.0701
   1   2.0000     -88.972601     -2421.0676
   2   2.0000     -88.954607     -2420.5779
   3   2.0000     -88.954297     -2420.5695
   4   2.0000     -88.952635     -2420.5243
   5   2.0000     -88.952335     -2420.5161
   6   2.0000     -88.931325     -2419.9444
   7   2.0000     -88.931325     -2419.9444
   8   2.0000     -88.930400     -2419.9192
   9   2.0000     -88.930246     -2419.9150
  10   2.0000     -88.930027     -2419.9091
  11   2.0000     -88.929964     -2419.9073
  12   2.0000     -88.924697     -2419.7640
  13   2.0000     -88.924570     -2419.7606
  14   2.0000     -14.416556      -392.2944
  15   2.0000     -14.416467      -392.2920
  16   2.0000     -10.349179      -281.6155
  17   2.0000     -10.336429      -281.2685
  18   2.0000     -10.317221      -280.7459
  19   2.0000     -10.317188      -280.7450
  20   2.0000     -10.314381      -280.6686
  21   2.0000     -10.314168      -280.6628
  22   2.0000     -10.312156      -280.6080
  23   2.0000     -10.312064      -280.6055
  24   2.0000     -10.308951      -280.5208
  25   2.0000     -10.308891      -280.5192
  26   2.0000     -10.307275      -280.4752
  27   2.0000     -10.307259      -280.4748
  28   2.0000     -10.307142      -280.4716
  29   2.0000     -10.307140      -280.4715
  30   2.0000     -10.305996      -280.4404
  31   2.0000     -10.305919      -280.4383
  32   2.0000     -10.305899      -280.4378
  33   2.0000     -10.305782      -280.4346
  34   2.0000     -10.305773      -280.4344
  35   2.0000     -10.305693      -280.4322
  36   2.0000     -10.305687      -280.4320
  37   2.0000     -10.305412      -280.4245
  38   2.0000     -10.303484      -280.3721
  39   2.0000     -10.303399      -280.3697
  40   2.0000     -10.302855      -280.3549
  41   2.0000     -10.302600      -280.3480
  42   2.0000     -10.302503      -280.3454
  43   2.0000     -10.302419      -280.3431
  44   2.0000     -10.298688      -280.2415
  45   2.0000     -10.298618      -280.2397
  46   2.0000     -10.286100      -279.8990
  47   2.0000     -10.286076      -279.8984
  48   2.0000     -10.284573      -279.8575
  49   2.0000     -10.284506      -279.8556
  50   2.0000     -10.280662      -279.7510
  51   2.0000     -10.280502      -279.7467
  52   2.0000      -8.067430      -219.5259
  53   2.0000      -8.067351      -219.5238
  54   2.0000      -8.049796      -219.0461
  55   2.0000      -8.049617      -219.0412
  56   2.0000      -8.047776      -218.9911
  57   2.0000      -8.047628      -218.9871
  58   2.0000      -8.026812      -218.4207
  59   2.0000      -8.026785      -218.4199
  60   2.0000      -8.025714      -218.3908
  61   2.0000      -8.025557      -218.3865
  62   2.0000      -8.025504      -218.3851
  63   2.0000      -8.025270      -218.3787
  64   2.0000      -8.020457      -218.2477
  65   2.0000      -8.020403      -218.2463
  66   2.0000      -6.036752      -164.2684
  67   2.0000      -6.036712      -164.2673
  68   2.0000      -6.032511      -164.1530
  69   2.0000      -6.032449      -164.1513
  70   2.0000      -6.029648      -164.0751
  71   2.0000      -6.029596      -164.0737
  72   2.0000      -6.019356      -163.7950
  73   2.0000      -6.019185      -163.7903
  74   2.0000      -6.017271      -163.7383
  75   2.0000      -6.017117      -163.7341
  76   2.0000      -6.015167      -163.6810
  77   2.0000      -6.014976      -163.6758
  78   2.0000      -6.012876      -163.6187
  79   2.0000      -6.012724      -163.6145
  80   2.0000      -6.011317      -163.5762
  81   2.0000      -6.011099      -163.5703
  82   2.0000      -6.009708      -163.5325
  83   2.0000      -6.009508      -163.5270
  84   2.0000      -5.997240      -163.1932
  85   2.0000      -5.997237      -163.1931
  86   2.0000      -5.996197      -163.1648
  87   2.0000      -5.996010      -163.1597
  88   2.0000      -5.995990      -163.1592
  89   2.0000      -5.995785      -163.1536
  90   2.0000      -5.993078      -163.0800
  91   2.0000      -5.993062      -163.0795
  92   2.0000      -5.992051      -163.0520
  93   2.0000      -5.991875      -163.0472
  94   2.0000      -5.991712      -163.0428
  95   2.0000      -5.991453      -163.0357
  96   2.0000      -5.991003      -163.0235
  97   2.0000      -5.990952      -163.0221
  98   2.0000      -5.987015      -162.9150
  99   2.0000      -5.986960      -162.9135
 100   2.0000      -5.986432      -162.8991
 101   2.0000      -5.986385      -162.8978
 102   2.0000      -5.985228      -162.8663
 103   2.0000      -5.985201      -162.8656
 104   2.0000      -5.985050      -162.8615
 105   2.0000      -5.984940      -162.8585
 106   2.0000      -5.979738      -162.7170
 107   2.0000      -5.979660      -162.7148
 108   2.0000      -1.028186       -27.9784
 109   2.0000      -1.008874       -27.4528
 110   2.0000      -1.006901       -27.3992
 111   2.0000      -1.003334       -27.3021
 112   2.0000      -0.993932       -27.0463
 113   2.0000      -0.988737       -26.9049
 114   2.0000      -0.983811       -26.7709
 115   2.0000      -0.972079       -26.4516
 116   2.0000      -0.944084       -25.6898
 117   2.0000      -0.931681       -25.3523
 118   2.0000      -0.931156       -25.3380
 119   2.0000      -0.929598       -25.2956
 120   2.0000      -0.929421       -25.2908
 121   2.0000      -0.904741       -24.6193
 122   2.0000      -0.892494       -24.2860
 123   2.0000      -0.882150       -24.0045
 124   2.0000      -0.874593       -23.7989
 125   2.0000      -0.873363       -23.7654
 126   2.0000      -0.852253       -23.1910
 127   2.0000      -0.851253       -23.1638
 128   2.0000      -0.845684       -23.0122
 129   2.0000      -0.840199       -22.8630
 130   2.0000      -0.837423       -22.7874
 131   2.0000      -0.835947       -22.7473
 132   2.0000      -0.831053       -22.6141
 133   2.0000      -0.826628       -22.4937
 134   2.0000      -0.803342       -21.8601
 135   2.0000      -0.783399       -21.3174
 136   2.0000      -0.761366       -20.7178
 137   2.0000      -0.755563       -20.5599
 138   2.0000      -0.744045       -20.2465
 139   2.0000      -0.743202       -20.2236
 140   2.0000      -0.733612       -19.9626
 141   2.0000      -0.733400       -19.9568
 142   2.0000      -0.724591       -19.7171
 143   2.0000      -0.706548       -19.2261
 144   2.0000      -0.706275       -19.2187
 145   2.0000      -0.699365       -19.0307
 146   2.0000      -0.685194       -18.6451
 147   2.0000      -0.685143       -18.6437
 148   2.0000      -0.669889       -18.2286
 149   2.0000      -0.665175       -18.1003
 150   2.0000      -0.646656       -17.5964
 151   2.0000      -0.640172       -17.4200
 152   2.0000      -0.625546       -17.0220
 153   2.0000      -0.624167       -16.9845
 154   2.0000      -0.613511       -16.6945
 155   2.0000      -0.601098       -16.3567
 156   2.0000      -0.595715       -16.2102
 157   2.0000      -0.595171       -16.1954
 158   2.0000      -0.589541       -16.0422
 159   2.0000      -0.579395       -15.7661
 160   2.0000      -0.567503       -15.4425
 161   2.0000      -0.562543       -15.3076
 162   2.0000      -0.557002       -15.1568
 163   2.0000      -0.551754       -15.0140
 164   2.0000      -0.548189       -14.9170
 165   2.0000      -0.546564       -14.8728
 166   2.0000      -0.540621       -14.7111
 167   2.0000      -0.537716       -14.6320
 168   2.0000      -0.535872       -14.5818
 169   2.0000      -0.531749       -14.4696
 170   2.0000      -0.530690       -14.4408
 171   2.0000      -0.527483       -14.3536
 172   2.0000      -0.524660       -14.2767
 173   2.0000      -0.517553       -14.0833
 174   2.0000      -0.516269       -14.0484
 175   2.0000      -0.507709       -13.8155
 176   2.0000      -0.504862       -13.7380
 177   2.0000      -0.503948       -13.7131
 178   2.0000      -0.503883       -13.7113
 179   2.0000      -0.497956       -13.5501
 180   2.0000      -0.490640       -13.3510
 181   2.0000      -0.489294       -13.3144
 182   2.0000      -0.484783       -13.1916
 183   2.0000      -0.483035       -13.1441
 184   2.0000      -0.481696       -13.1076
 185   2.0000      -0.479412       -13.0455
 186   2.0000      -0.477959       -13.0059
 187   2.0000      -0.477686       -12.9985
 188   2.0000      -0.471768       -12.8375
 189   2.0000      -0.469166       -12.7666
 190   2.0000      -0.462757       -12.5923
 191   2.0000      -0.459787       -12.5114
 192   2.0000      -0.455192       -12.3864
 193   2.0000      -0.449583       -12.2338
 194   2.0000      -0.448348       -12.2002
 195   2.0000      -0.447161       -12.1679
 196   2.0000      -0.442528       -12.0418
 197   2.0000      -0.435867       -11.8606
 198   2.0000      -0.435006       -11.8371
 199   2.0000      -0.433192       -11.7878
 200   2.0000      -0.431430       -11.7398
 201   2.0000      -0.429395       -11.6844
 202   2.0000      -0.426884       -11.6161
 203   2.0000      -0.426098       -11.5947
 204   2.0000      -0.424768       -11.5585
 205   2.0000      -0.418601       -11.3907
 206   2.0000      -0.417257       -11.3541
 207   2.0000      -0.412249       -11.2179
 208   2.0000      -0.406754       -11.0683
 209   2.0000      -0.398201       -10.8356
 210   2.0000      -0.396283       -10.7834
 211   2.0000      -0.393117       -10.6972
 212   2.0000      -0.392935       -10.6923
 213   2.0000      -0.383622       -10.4389
 214   2.0000      -0.383488       -10.4352
 215   2.0000      -0.376665       -10.2496
 216   2.0000      -0.376421       -10.2429
 217   2.0000      -0.372795       -10.1443
 218   2.0000      -0.371778       -10.1166
 219   2.0000      -0.364417        -9.9163
 220   2.0000      -0.363861        -9.9012
 221   2.0000      -0.359768        -9.7898
 222   2.0000      -0.351644        -9.5687
 223   2.0000      -0.340735        -9.2719
 224   2.0000      -0.337909        -9.1950
 225   2.0000      -0.331648        -9.0246
 226   2.0000      -0.330761        -9.0005
 227   2.0000      -0.308560        -8.3963
 228   2.0000      -0.308019        -8.3816
 229   2.0000      -0.300018        -8.1639
 230   2.0000      -0.284961        -7.7542
 231   2.0000      -0.270737        -7.3671
 232   2.0000      -0.267143        -7.2693
 233   2.0000      -0.258321        -7.0293
 234   2.0000      -0.256274        -6.9736
 235   2.0000      -0.240640        -6.5481
 236   2.0000      -0.216439        -5.8896
 237   0.0000      -0.089638        -2.4392
 238   0.0000      -0.037932        -1.0322
 239   0.0000      -0.022896        -0.6230
 240   0.0000       0.011903         0.3239
 241   0.0000       0.022007         0.5988

MULLIKEN ATOMIC CHARGES
-----------------------
   0 C :   -0.086484
   1 C :   -0.030240
   2 C :   -0.026612
   3 S :   -0.020105
   4 C :   -0.029915
   5 C :   -0.062416
   6 S :   -0.004018
   7 C :   -0.130310
   8 S :    0.133018
   9 C :   -0.082388
  10 C :   -0.070026
  11 C :   -0.013354
  12 S :   -0.000300
  13 C :   -0.031554
  14 C :   -0.052010
  15 S :   -0.013882
  16 C :   -0.080031
  17 S :    0.110026
  18 C :   -0.078403
  19 C :   -0.055699
  20 C :   -0.005595
  21 C :   -0.101144
  22 S :    0.171744
  23 C :   -0.099649
  24 C :    0.002136
  25 C :    0.316361
  26 C :   -0.310829
  27 C :   -0.190579
  28 N :    0.170000
  29 C :   -0.185869
  30 N :    0.165574
  31 C :   -0.060223
  32 C :   -0.078747
  33 S :    0.170751
  34 C :   -0.076976
  35 C :   -0.014890
  36 C :   -0.070467
  37 S :   -0.014159
  38 C :   -0.055089
  39 C :   -0.027588
  40 S :   -0.001193
  41 C :   -0.082428
  42 S :    0.109106
  43 C :   -0.128844
  44 C :   -0.028233
  45 C :   -0.029549
  46 S :   -0.003847
  47 C :   -0.058324
  48 C :   -0.034601
  49 S :   -0.019323
  50 C :   -0.088092
  51 S :    0.131315
  52 H :    0.018881
  53 H :    0.057079
  54 H :    0.072680
  55 H :    0.072263
  56 H :    0.058485
  57 H :    0.064589
  58 H :    0.074106
  59 H :    0.074976
  60 H :    0.059818
  61 H :    0.023081
  62 H :    0.022244
  63 H :    0.061141
  64 H :    0.075268
  65 H :    0.073675
  66 H :    0.064119
  67 H :    0.058898
  68 H :    0.071467
  69 H :    0.072826
  70 H :    0.057616
  71 H :    0.020742
Sum of atomic charges:   -0.0000000

LOEWDIN ATOMIC CHARGES
----------------------
   0 C :   -0.216853
   1 C :   -0.215618
   2 C :   -0.218950
   3 S :    0.293418
   4 C :   -0.142875
   5 C :   -0.144965
   6 S :    0.282331
   7 C :   -0.213653
   8 S :    0.451511
   9 C :   -0.202544
  10 C :   -0.221026
  11 C :   -0.203138
  12 S :    0.324774
  13 C :   -0.144374
  14 C :   -0.141535
  15 S :    0.293179
  16 C :   -0.223172
  17 S :    0.434801
  18 C :   -0.179556
  19 C :   -0.043885
  20 C :   -0.073326
  21 C :   -0.184164
  22 S :    0.458588
  23 C :   -0.183835
  24 C :   -0.073599
  25 C :    0.086473
  26 C :   -0.106729
  27 C :   -0.016620
  28 N :   -0.037947
  29 C :   -0.016072
  30 N :   -0.038409
  31 C :   -0.043889
  32 C :   -0.179515
  33 S :    0.458511
  34 C :   -0.222825
  35 C :   -0.203395
  36 C :   -0.220805
  37 S :    0.293074
  38 C :   -0.141934
  39 C :   -0.143939
  40 S :    0.324770
  41 C :   -0.202596
  42 S :    0.434559
  43 C :   -0.213211
  44 C :   -0.219270
  45 C :   -0.215438
  46 S :    0.282652
  47 C :   -0.145063
  48 C :   -0.142762
  49 S :    0.292895
  50 C :   -0.217568
  51 S :    0.451536
  52 H :    0.023331
  53 H :    0.032592
  54 H :    0.027613
  55 H :    0.026995
  56 H :    0.032700
  57 H :    0.035481
  58 H :    0.027833
  59 H :    0.029450
  60 H :    0.033890
  61 H :    0.025924
  62 H :    0.025688
  63 H :    0.034134
  64 H :    0.029470
  65 H :    0.027766
  66 H :    0.035493
  67 H :    0.032843
  68 H :    0.026765
  69 H :    0.027720
  70 H :    0.032677
  71 H :    0.023617

  Mayer bond orders larger than 0.100000
B(  0-C ,  1-C ) :   1.5945 B(  0-C ,  8-S ) :   1.1504 B(  0-C , 52-H ) :   0.9673
B(  1-C ,  2-C ) :   1.2795 B(  1-C ,  6-S ) :   0.9800 B(  2-C ,  3-S ) :   1.0026
B(  2-C ,  7-C ) :   1.5285 B(  3-S ,  4-C ) :   1.0101 B(  4-C ,  5-C ) :   1.0145
B(  4-C , 53-H ) :   0.9468 B(  4-C , 54-H ) :   0.9485 B(  5-C ,  6-S ) :   1.0204
B(  5-C , 55-H ) :   0.9488 B(  5-C , 56-H ) :   0.9479 B(  7-C ,  8-S ) :   1.1401
B(  7-C ,  9-C ) :   1.1641 B(  9-C , 10-C ) :   1.5554 B(  9-C , 16-C ) :   0.1174
B(  9-C , 17-S ) :   1.1170 B( 10-C , 11-C ) :   1.2813 B( 10-C , 15-S ) :   0.9969
B( 11-C , 12-S ) :   1.0102 B( 11-C , 16-C ) :   1.5816 B( 12-S , 13-C ) :   1.0116
B( 13-C , 14-C ) :   1.0182 B( 13-C , 57-H ) :   0.9447 B( 13-C , 58-H ) :   0.9480
B( 14-C , 15-S ) :   1.0129 B( 14-C , 59-H ) :   0.9494 B( 14-C , 60-H ) :   0.9476
B( 16-C , 17-S ) :   1.0982 B( 16-C , 18-C ) :   1.1223 B( 18-C , 19-C ) :   1.4802
B( 18-C , 22-S ) :   1.0944 B( 19-C , 20-C ) :   1.2894 B( 19-C , 61-H ) :   0.9718
B( 20-C , 21-C ) :   1.4523 B( 20-C , 25-C ) :   0.9959 B( 21-C , 22-S ) :   1.1134
B( 21-C , 23-C ) :   1.1827 B( 23-C , 24-C ) :   1.4492 B( 23-C , 33-S ) :   1.1145
B( 24-C , 25-C ) :   0.9954 B( 24-C , 31-C ) :   1.2868 B( 25-C , 26-C ) :   1.7037
B( 26-C , 27-C ) :   1.1395 B( 26-C , 29-C ) :   1.1350 B( 27-C , 28-N ) :   2.9868
B( 29-C , 30-N ) :   2.9859 B( 31-C , 32-C ) :   1.4804 B( 31-C , 62-H ) :   0.9734
B( 32-C , 33-S ) :   1.0927 B( 32-C , 34-C ) :   1.1240 B( 34-C , 35-C ) :   1.5795
B( 34-C , 41-C ) :   0.1173 B( 34-C , 42-S ) :   1.0977 B( 35-C , 36-C ) :   1.2825
B( 35-C , 40-S ) :   1.0107 B( 36-C , 37-S ) :   0.9976 B( 36-C , 41-C ) :   1.5545
B( 37-S , 38-C ) :   1.0125 B( 38-C , 39-C ) :   1.0166 B( 38-C , 63-H ) :   0.9478
B( 38-C , 64-H ) :   0.9497 B( 39-C , 40-S ) :   1.0117 B( 39-C , 65-H ) :   0.9481
B( 39-C , 66-H ) :   0.9447 B( 41-C , 42-S ) :   1.1162 B( 41-C , 43-C ) :   1.1646
B( 43-C , 44-C ) :   1.5295 B( 43-C , 51-S ) :   1.1391 B( 44-C , 45-C ) :   1.2797
B( 44-C , 49-S ) :   1.0031 B( 45-C , 46-S ) :   0.9806 B( 45-C , 50-C ) :   1.5938
B( 46-S , 47-C ) :   1.0199 B( 47-C , 48-C ) :   1.0137 B( 47-C , 67-H ) :   0.9477
B( 47-C , 68-H ) :   0.9488 B( 48-C , 49-S ) :   1.0112 B( 48-C , 69-H ) :   0.9488
B( 48-C , 70-H ) :   0.9472 B( 50-C , 51-S ) :   1.1496 B( 50-C , 71-H ) :   0.9674

-----------------------------------------------------------------------------
         ABSORPTION SPECTRUM VIA TRANSITION ELECTRIC DIPOLE MOMENTS
-----------------------------------------------------------------------------
State   Energy  Wavelength   fosc         T2         TX        TY        TZ
        (cm-1)    (nm)                  (au**2)     (au)      (au)      (au)
-----------------------------------------------------------------------------
   0    9897.5   1010.4   0.122835462   4.08578   0.51838   1.69738  -0.96745
   1   18526.0    539.8   0.012116930   0.21532  -0.23980  -0.14843  -0.36849
   2   22231.0    449.8   0.255073620   3.77730   0.27474   1.74124  -0.81849
   3   22541.4    443.6   0.024630423   0.35972   0.28571   0.10621   0.51654
   4   23274.2    429.7   1.374096484  19.43646  -1.02705  -3.75000   2.07826
   5   25849.6    386.9   0.052320713   0.66634   0.13036   0.71471  -0.37220
   6   27411.8    364.8   0.782008912   9.39181  -1.56886  -0.94404  -2.45749
   7   27599.9    362.3   0.007626576   0.09097  -0.06431  -0.24425   0.16486
   8   27634.1    361.9   0.007501425   0.08937   0.11294   0.26355  -0.08458
   9   30277.6    330.3   0.226999110   2.46819   0.80182   0.47817   1.26358
  10   31149.0    321.0   0.138810008   1.46708  -0.77120  -0.55516   0.75108
  11   31281.3    319.7   0.292127799   3.07442   0.91622   0.53217   1.39705
  12   32274.3    309.8   0.048096207   0.49060  -0.12214   0.68223  -0.10121
  13   32469.7    308.0   0.112689065   1.14256   0.55142   0.31591   0.85947
  14   32626.0    306.5   0.044249265   0.44650   0.32803   0.15583   0.56090
  15   33008.3    303.0   0.113805542   1.13505  -0.55623  -0.37297  -0.82858
  16   33264.8    300.6   0.386105799   3.82118   0.74338   1.46072  -1.06531
  17   33877.6    295.2   0.007734391   0.07516  -0.03490  -0.26137   0.07502
  18   34325.1    291.3   0.034039310   0.32647   0.06229   0.49504  -0.27844
  19   34595.2    289.1   0.002645128   0.02517   0.08858   0.10634   0.07758
  20   35548.3    281.3   0.035121719   0.32526  -0.45827  -0.09465   0.32602
  21   36475.1    274.2   0.128119212   1.15636   0.46712   0.32788   0.91140
  22   36510.1    273.9   0.032834447   0.29607   0.51898   0.11642  -0.11477
  23   37797.2    264.6   0.194921917   1.69776   0.66609   0.40486   1.04411
  24   38788.4    257.8   0.008886513   0.07542   0.14674   0.07089   0.22106
  25   38860.6    257.3   0.001049639   0.00889   0.02638   0.08003   0.04233
  26   39788.6    251.3   0.145926116   1.20740  -0.32015  -0.88748   0.56327
  27   39878.3    250.8   0.005643911   0.04659  -0.12864  -0.16259  -0.06007

FINAL SINGLE POINT ENERGY     -7064.378585854896

DIPOLE MOMENT
-------------
                                X             Y             Z
Electronic contribution:      4.91906       2.92730       7.80792
Nuclear contribution   :     -6.02351      -3.58374      -9.55314
                        -----------------------------------------
Total Dipole Moment    :     -1.10444      -0.65643      -1.74522
                        -----------------------------------------
Magnitude (a.u.)       :      2.16714
Magnitude (Debye)      :      5.50844

Rotational constants in cm-1:     0.001797     0.000428     0.000353
Rotational constants in MHz :    53.876384    12.819132    10.590947

                             ****ORCA TERMINATED NORMALLY****
TOTAL RUN TIME: 0 days 0 hours 5 minutes 20 seconds 560 msec
