                         Program Version 4.2.0 -  RELEASE  -
|  1> # ORCA input file
|  2> # SCF done       -189.593776966145          0.000365127936
|  3> ! CAM-B3LYP def2-SVP def2/J RIJCOSX Grid4 TightSCF
|  4> %maxcore 5000
|  5> %tddft
|  6>     Mode sTDDFT
|  7>     Ethresh 5.0
|  8>     maxcore 5000
|  9> end
| 10>
| 11> %pal
| 12>   nprocs 6
| 13>   end
| 14> * xyz 0 1
| 15>    C       -4.77213         1.15259        -0.34909
| 16>    S       -4.47020        -0.24537        -1.26020
| 17>    C       -4.83058        -1.30616         0.07981
| 18>    C       -5.21325        -0.54823         1.20281
| 19>    C       -5.16642         0.86098         0.94522
| 20>    C       -5.50911         1.77869         1.95713
| 21>    C       -5.90838         1.33589         3.19329
| 22>    C       -6.25320         2.29107         4.24615
| 23>    C       -6.83429         3.46421         4.03623
| 24>    C       -5.98810        -0.06772         3.44589
| 25>    C       -6.46557        -0.55952         4.77744
| 26>    C       -5.65532        -0.97097         2.46967
| 27>    C       -4.68524        -2.68675        -0.16283
| 28>    C       -4.69744        -3.68725         0.76275
| 29>    C       -4.58477        -5.08030         0.52056
| 30>    C       -4.45783        -5.73248        -0.73148
| 31>    C       -4.34037        -7.17624        -0.83172
| 32>    N       -4.30005        -7.73075        -2.05663
| 33>    C       -4.25149        -6.98207        -3.12586
| 34>    C       -4.29501        -5.55533        -3.01887
| 35>    N       -4.43345        -4.98844        -1.84400
| 36>    C       -4.21954        -4.74187        -4.17322
| 37>    N       -4.14699        -4.10804        -5.12588
| 38>    C       -4.13150        -7.61641        -4.38708
| 39>    N       -3.97703        -8.11184        -5.40891
| 40>    C       -4.28843        -8.02841         0.29296
| 41>    C       -4.42377        -7.37767         1.53841
| 42>    C       -4.57632        -5.94515         1.64148
| 43>    N       -4.68064        -5.54062         2.90814
| 44>    S       -4.58259        -6.81756         3.87484
| 45>    N       -4.40849        -7.94600         2.74997
| 46>    C       -4.08723        -9.46845         0.19510
| 47>    C       -3.46375       -10.04362        -0.91982
| 48>    C       -3.28404       -11.41228        -1.06114
| 49>    C       -3.66188       -12.22935         0.01148
| 50>    C       -4.26974       -11.67476         1.15234
| 51>    C       -4.50795       -10.31257         1.22497
| 52>    C       -4.55055       -12.67077         2.15685
| 53>    C       -4.10954       -13.94491         1.76923
| 54>    S       -3.38220       -13.94202         0.17739
| 55>    C       -4.26588       -15.05037         2.58767
| 56>    C       -4.87307       -14.87466         3.81656
| 57>    C       -5.31326       -13.61756         4.21891
| 58>    C       -5.15508       -12.51748         3.40024
| 59>    C       -2.72915       -11.94362        -2.30300
| 60>    C       -3.23781       -13.10644        -2.89565
| 61>    C       -2.66763       -13.67355        -4.09350
| 62>    N       -3.13400       -14.83277        -4.55224
| 63>    C       -4.16145       -15.41740        -3.97959
| 64>    C       -4.81787       -14.77446        -2.88022
| 65>    N       -4.34271       -13.67208        -2.36797
| 66>    C       -5.98948       -15.34240        -2.31852
| 67>    N       -6.92609       -15.83226        -1.87726
| 68>    C       -4.60780       -16.66417        -4.47070
| 69>    N       -4.99434       -17.67315        -4.85464
| 70>    C       -1.59689       -13.06086        -4.80712
| 71>    C       -1.18947       -11.81137        -4.27656
| 72>    C       -1.73997       -11.27575        -3.04542
| 73>    N       -1.21463       -10.08137        -2.75392
| 74>    S       -0.19296        -9.65372        -3.91408
| 75>    N       -0.32483       -10.96231        -4.82896
| 76>    C       -1.08280       -13.68269        -5.97091
| 77>    S       -2.07649       -14.85966        -6.78062
| 78>    C       -0.93201       -15.10871        -8.04200
| 79>    C        0.23369       -14.36273        -7.81516
| 80>    C        0.15713       -13.55230        -6.64223
| 81>    C        1.29088       -12.82593        -6.26400
| 82>    C        2.44288       -12.84354        -7.02466
| 83>    C        3.60002       -12.05688        -6.60574
| 84>    C        3.91144       -11.77381        -5.34699
| 85>    C        2.49633       -13.61229        -8.22120
| 86>    C        3.73980       -13.63832        -9.05632
| 87>    C        1.40905       -14.36108        -8.58727
| 88>    C       -1.18666       -16.01349        -9.11884
| 89>    C       -2.26886       -16.79038        -9.21249
| 90>    H       -4.65441         2.12295        -0.78979
| 91>    H       -5.43833         2.83516         1.74865
| 92>    H       -6.01256         1.99089         5.25696
| 93>    H       -7.12508         3.79138         3.05197
| 94>    H       -7.05857         4.13635         4.84659
| 95>    H       -5.75049        -0.30259         5.55929
| 96>    H       -6.58267        -1.64014         4.76681
| 97>    H       -7.42145        -0.10567         5.03470
| 98>    H       -5.75742        -2.02251         2.68034
| 99>    H       -4.51970        -2.95726        -1.19663
|100>    H       -4.77346        -3.44961         1.81262
|101>    H       -3.11101        -9.41159        -1.71417
|102>    H       -5.00884        -9.90812         2.08768
|103>    H       -3.92224       -16.02133         2.26692
|104>    H       -5.00740       -15.72329         4.47007
|105>    H       -5.78511       -13.50390         5.18342
|106>    H       -5.49604       -11.54299         3.71502
|107>    H        1.25750       -12.21662        -5.37941
|108>    H        4.23889       -11.69452        -7.39938
|109>    H        3.33221       -12.13780        -4.51506
|110>    H        4.77420       -11.17893        -5.10062
|111>    H        4.60454       -13.90899        -8.45243
|112>    H        3.92699       -12.65837        -9.49547
|113>    H        3.64108       -14.35885        -9.86441
|114>    H        1.45549       -14.97165        -9.47665
|115>    H       -0.43324       -16.04683        -9.89463
|116>    H       -3.02978       -16.79021        -8.44979
|117>    H       -2.41751       -17.45030       -10.04844
|118> *
|119>
|120>                          ****END OF INPUT****

CARTESIAN COORDINATES (ANGSTROEM)
---------------------------------
  C     -4.772130    1.152590   -0.349090
  S     -4.470200   -0.245370   -1.260200
  C     -4.830580   -1.306160    0.079810
  C     -5.213250   -0.548230    1.202810
  C     -5.166420    0.860980    0.945220
  C     -5.509110    1.778690    1.957130
  C     -5.908380    1.335890    3.193290
  C     -6.253200    2.291070    4.246150
  C     -6.834290    3.464210    4.036230
  C     -5.988100   -0.067720    3.445890
  C     -6.465570   -0.559520    4.777440
  C     -5.655320   -0.970970    2.469670
  C     -4.685240   -2.686750   -0.162830
  C     -4.697440   -3.687250    0.762750
  C     -4.584770   -5.080300    0.520560
  C     -4.457830   -5.732480   -0.731480
  C     -4.340370   -7.176240   -0.831720
  N     -4.300050   -7.730750   -2.056630
  C     -4.251490   -6.982070   -3.125860
  C     -4.295010   -5.555330   -3.018870
  N     -4.433450   -4.988440   -1.844000
  C     -4.219540   -4.741870   -4.173220
  N     -4.146990   -4.108040   -5.125880
  C     -4.131500   -7.616410   -4.387080
  N     -3.977030   -8.111840   -5.408910
  C     -4.288430   -8.028410    0.292960
  C     -4.423770   -7.377670    1.538410
  C     -4.576320   -5.945150    1.641480
  N     -4.680640   -5.540620    2.908140
  S     -4.582590   -6.817560    3.874840
  N     -4.408490   -7.946000    2.749970
  C     -4.087230   -9.468450    0.195100
  C     -3.463750  -10.043620   -0.919820
  C     -3.284040  -11.412280   -1.061140
  C     -3.661880  -12.229350    0.011480
  C     -4.269740  -11.674760    1.152340
  C     -4.507950  -10.312570    1.224970
  C     -4.550550  -12.670770    2.156850
  C     -4.109540  -13.944910    1.769230
  S     -3.382200  -13.942020    0.177390
  C     -4.265880  -15.050370    2.587670
  C     -4.873070  -14.874660    3.816560
  C     -5.313260  -13.617560    4.218910
  C     -5.155080  -12.517480    3.400240
  C     -2.729150  -11.943620   -2.303000
  C     -3.237810  -13.106440   -2.895650
  C     -2.667630  -13.673550   -4.093500
  N     -3.134000  -14.832770   -4.552240
  C     -4.161450  -15.417400   -3.979590
  C     -4.817870  -14.774460   -2.880220
  N     -4.342710  -13.672080   -2.367970
  C     -5.989480  -15.342400   -2.318520
  N     -6.926090  -15.832260   -1.877260
  C     -4.607800  -16.664170   -4.470700
  N     -4.994340  -17.673150   -4.854640
  C     -1.596890  -13.060860   -4.807120
  C     -1.189470  -11.811370   -4.276560
  C     -1.739970  -11.275750   -3.045420
  N     -1.214630  -10.081370   -2.753920
  S     -0.192960   -9.653720   -3.914080
  N     -0.324830  -10.962310   -4.828960
  C     -1.082800  -13.682690   -5.970910
  S     -2.076490  -14.859660   -6.780620
  C     -0.932010  -15.108710   -8.042000
  C      0.233690  -14.362730   -7.815160
  C      0.157130  -13.552300   -6.642230
  C      1.290880  -12.825930   -6.264000
  C      2.442880  -12.843540   -7.024660
  C      3.600020  -12.056880   -6.605740
  C      3.911440  -11.773810   -5.346990
  C      2.496330  -13.612290   -8.221200
  C      3.739800  -13.638320   -9.056320
  C      1.409050  -14.361080   -8.587270
  C     -1.186660  -16.013490   -9.118840
  C     -2.268860  -16.790380   -9.212490
  H     -4.654410    2.122950   -0.789790
  H     -5.438330    2.835160    1.748650
  H     -6.012560    1.990890    5.256960
  H     -7.125080    3.791380    3.051970
  H     -7.058570    4.136350    4.846590
  H     -5.750490   -0.302590    5.559290
  H     -6.582670   -1.640140    4.766810
  H     -7.421450   -0.105670    5.034700
  H     -5.757420   -2.022510    2.680340
  H     -4.519700   -2.957260   -1.196630
  H     -4.773460   -3.449610    1.812620
  H     -3.111010   -9.411590   -1.714170
  H     -5.008840   -9.908120    2.087680
  H     -3.922240  -16.021330    2.266920
  H     -5.007400  -15.723290    4.470070
  H     -5.785110  -13.503900    5.183420
  H     -5.496040  -11.542990    3.715020
  H      1.257500  -12.216620   -5.379410
  H      4.238890  -11.694520   -7.399380
  H      3.332210  -12.137800   -4.515060
  H      4.774200  -11.178930   -5.100620
  H      4.604540  -13.908990   -8.452430
  H      3.926990  -12.658370   -9.495470
  H      3.641080  -14.358850   -9.864410
  H      1.455490  -14.971650   -9.476650
  H     -0.433240  -16.046830   -9.894630
  H     -3.029780  -16.790210   -8.449790
  H     -2.417510  -17.450300  -10.048440

 Total Charge           Charge          ....    0
 Multiplicity           Mult            ....    1
 Number of Electrons    NEL             ....  540
 Basis Dimension        Dim             .... 1210

ORBITAL ENERGIES
----------------

  NO   OCC          E(Eh)            E(eV)
   0   2.0000     -89.040534     -2422.9161
   1   2.0000     -89.034666     -2422.7564
   2   2.0000     -88.972416     -2421.0625
   3   2.0000     -88.963439     -2420.8183
   4   2.0000     -88.936923     -2420.0967
   5   2.0000     -14.456173      -393.3725
   6   2.0000     -14.452711      -393.2783
   7   2.0000     -14.451481      -393.2448
   8   2.0000     -14.450571      -393.2200
   9   2.0000     -14.446104      -393.0985
  10   2.0000     -14.445530      -393.0828
  11   2.0000     -14.444165      -393.0457
  12   2.0000     -14.439728      -392.9250
  13   2.0000     -14.426596      -392.5676
  14   2.0000     -14.425220      -392.5302
  15   2.0000     -14.418695      -392.3526
  16   2.0000     -14.417421      -392.3180
  17   2.0000     -10.374498      -282.3044
  18   2.0000     -10.372569      -282.2520
  19   2.0000     -10.368382      -282.1380
  20   2.0000     -10.365960      -282.0721
  21   2.0000     -10.339798      -281.3602
  22   2.0000     -10.338834      -281.3340
  23   2.0000     -10.336355      -281.2665
  24   2.0000     -10.336103      -281.2597
  25   2.0000     -10.335369      -281.2397
  26   2.0000     -10.335088      -281.2320
  27   2.0000     -10.333511      -281.1891
  28   2.0000     -10.333039      -281.1763
  29   2.0000     -10.320492      -280.8349
  30   2.0000     -10.319795      -280.8159
  31   2.0000     -10.319290      -280.8022
  32   2.0000     -10.313473      -280.6439
  33   2.0000     -10.310946      -280.5751
  34   2.0000     -10.310851      -280.5725
  35   2.0000     -10.308608      -280.5115
  36   2.0000     -10.307268      -280.4750
  37   2.0000     -10.306549      -280.4555
  38   2.0000     -10.304877      -280.4100
  39   2.0000     -10.303965      -280.3851
  40   2.0000     -10.295789      -280.1627
  41   2.0000     -10.294192      -280.1192
  42   2.0000     -10.289542      -279.9927
  43   2.0000     -10.288309      -279.9591
  44   2.0000     -10.287426      -279.9351
  45   2.0000     -10.285941      -279.8947
  46   2.0000     -10.285842      -279.8920
  47   2.0000     -10.285478      -279.8821
  48   2.0000     -10.285045      -279.8703
  49   2.0000     -10.281786      -279.7816
  50   2.0000     -10.280679      -279.7515
  51   2.0000     -10.279381      -279.7162
  52   2.0000     -10.279116      -279.7090
  53   2.0000     -10.278175      -279.6833
  54   2.0000     -10.278069      -279.6805
  55   2.0000     -10.277564      -279.6667
  56   2.0000     -10.276859      -279.6476
  57   2.0000     -10.276586      -279.6401
  58   2.0000     -10.275462      -279.6095
  59   2.0000     -10.273217      -279.5484
  60   2.0000     -10.272952      -279.5412
  61   2.0000     -10.271197      -279.4935
  62   2.0000     -10.269415      -279.4450
  63   2.0000     -10.269189      -279.4388
  64   2.0000     -10.268730      -279.4263
  65   2.0000     -10.268712      -279.4258
  66   2.0000     -10.266795      -279.3737
  67   2.0000     -10.266525      -279.3663
  68   2.0000     -10.265666      -279.3430
  69   2.0000     -10.265388      -279.3354
  70   2.0000     -10.265280      -279.3325
  71   2.0000     -10.265236      -279.3313
  72   2.0000     -10.263146      -279.2744
  73   2.0000     -10.261149      -279.2201
  74   2.0000     -10.260373      -279.1990
  75   2.0000      -8.131799      -221.2775
  76   2.0000      -8.126013      -221.1200
  77   2.0000      -8.067899      -219.5387
  78   2.0000      -8.057005      -219.2422
  79   2.0000      -8.032319      -218.5705
  80   2.0000      -6.102839      -166.0667
  81   2.0000      -6.097090      -165.9102
  82   2.0000      -6.095092      -165.8559
  83   2.0000      -6.094680      -165.8447
  84   2.0000      -6.089257      -165.6971
  85   2.0000      -6.088833      -165.6856
  86   2.0000      -6.036702      -164.2670
  87   2.0000      -6.032446      -164.1512
  88   2.0000      -6.031149      -164.1159
  89   2.0000      -6.026181      -163.9807
  90   2.0000      -6.021583      -163.8556
  91   2.0000      -6.019886      -163.8094
  92   2.0000      -6.002053      -163.3242
  93   2.0000      -5.998014      -163.2143
  94   2.0000      -5.993366      -163.0878
  95   2.0000      -1.136598       -30.9284
  96   2.0000      -1.132185       -30.8083
  97   2.0000      -1.112997       -30.2862
  98   2.0000      -1.110001       -30.2047
  99   2.0000      -1.039875       -28.2964
 100   2.0000      -1.037625       -28.2352
 101   2.0000      -1.009473       -27.4692
 102   2.0000      -1.004207       -27.3259
 103   2.0000      -1.000435       -27.2232
 104   2.0000      -0.999115       -27.1873
 105   2.0000      -0.997677       -27.1482
 106   2.0000      -0.992824       -27.0161
 107   2.0000      -0.991362       -26.9763
 108   2.0000      -0.987882       -26.8816
 109   2.0000      -0.982873       -26.7453
 110   2.0000      -0.970944       -26.4207
 111   2.0000      -0.965664       -26.2770
 112   2.0000      -0.946991       -25.7689
 113   2.0000      -0.942276       -25.6406
 114   2.0000      -0.937486       -25.5103
 115   2.0000      -0.910368       -24.7724
 116   2.0000      -0.903084       -24.5742
 117   2.0000      -0.901590       -24.5335
 118   2.0000      -0.897758       -24.4292
 119   2.0000      -0.893636       -24.3171
 120   2.0000      -0.881207       -23.9789
 121   2.0000      -0.879646       -23.9364
 122   2.0000      -0.874948       -23.8085
 123   2.0000      -0.871177       -23.7059
 124   2.0000      -0.857161       -23.3245
 125   2.0000      -0.855903       -23.2903
 126   2.0000      -0.847340       -23.0573
 127   2.0000      -0.837246       -22.7826
 128   2.0000      -0.828010       -22.5313
 129   2.0000      -0.822122       -22.3711
 130   2.0000      -0.821409       -22.3517
 131   2.0000      -0.819572       -22.3017
 132   2.0000      -0.803370       -21.8608
 133   2.0000      -0.800949       -21.7949
 134   2.0000      -0.796889       -21.6844
 135   2.0000      -0.792548       -21.5663
 136   2.0000      -0.782224       -21.2854
 137   2.0000      -0.775454       -21.1012
 138   2.0000      -0.767074       -20.8731
 139   2.0000      -0.762068       -20.7369
 140   2.0000      -0.738062       -20.0837
 141   2.0000      -0.736542       -20.0423
 142   2.0000      -0.723749       -19.6942
 143   2.0000      -0.721945       -19.6451
 144   2.0000      -0.715299       -19.4643
 145   2.0000      -0.714076       -19.4310
 146   2.0000      -0.711263       -19.3545
 147   2.0000      -0.695693       -18.9308
 148   2.0000      -0.692459       -18.8428
 149   2.0000      -0.689745       -18.7689
 150   2.0000      -0.685440       -18.6518
 151   2.0000      -0.679227       -18.4827
 152   2.0000      -0.673872       -18.3370
 153   2.0000      -0.670257       -18.2386
 154   2.0000      -0.664996       -18.0955
 155   2.0000      -0.662734       -18.0339
 156   2.0000      -0.649293       -17.6682
 157   2.0000      -0.647150       -17.6099
 158   2.0000      -0.640817       -17.4375
 159   2.0000      -0.640048       -17.4166
 160   2.0000      -0.637725       -17.3534
 161   2.0000      -0.628485       -17.1020
 162   2.0000      -0.624324       -16.9887
 163   2.0000      -0.620956       -16.8971
 164   2.0000      -0.617936       -16.8149
 165   2.0000      -0.616261       -16.7693
 166   2.0000      -0.604899       -16.4601
 167   2.0000      -0.594127       -16.1670
 168   2.0000      -0.591356       -16.0916
 169   2.0000      -0.590161       -16.0591
 170   2.0000      -0.580540       -15.7973
 171   2.0000      -0.573422       -15.6036
 172   2.0000      -0.571526       -15.5520
 173   2.0000      -0.569706       -15.5025
 174   2.0000      -0.568691       -15.4749
 175   2.0000      -0.559607       -15.2277
 176   2.0000      -0.556780       -15.1507
 177   2.0000      -0.552716       -15.0402
 178   2.0000      -0.552091       -15.0232
 179   2.0000      -0.550134       -14.9699
 180   2.0000      -0.548086       -14.9142
 181   2.0000      -0.545088       -14.8326
 182   2.0000      -0.534603       -14.5473
 183   2.0000      -0.533990       -14.5306
 184   2.0000      -0.529384       -14.4053
 185   2.0000      -0.524168       -14.2633
 186   2.0000      -0.521401       -14.1881
 187   2.0000      -0.521144       -14.1811
 188   2.0000      -0.519798       -14.1444
 189   2.0000      -0.515675       -14.0322
 190   2.0000      -0.513087       -13.9618
 191   2.0000      -0.510894       -13.9021
 192   2.0000      -0.507960       -13.8223
 193   2.0000      -0.506164       -13.7734
 194   2.0000      -0.499987       -13.6053
 195   2.0000      -0.497424       -13.5356
 196   2.0000      -0.496057       -13.4984
 197   2.0000      -0.493880       -13.4392
 198   2.0000      -0.492123       -13.3913
 199   2.0000      -0.491735       -13.3808
 200   2.0000      -0.490173       -13.3383
 201   2.0000      -0.486746       -13.2450
 202   2.0000      -0.484846       -13.1933
 203   2.0000      -0.479599       -13.0505
 204   2.0000      -0.479085       -13.0366
 205   2.0000      -0.477170       -12.9844
 206   2.0000      -0.475894       -12.9497
 207   2.0000      -0.474497       -12.9117
 208   2.0000      -0.473454       -12.8833
 209   2.0000      -0.468511       -12.7488
 210   2.0000      -0.466945       -12.7062
 211   2.0000      -0.465614       -12.6700
 212   2.0000      -0.465020       -12.6538
 213   2.0000      -0.456589       -12.4244
 214   2.0000      -0.456166       -12.4129
 215   2.0000      -0.453043       -12.3279
 216   2.0000      -0.451578       -12.2881
 217   2.0000      -0.450564       -12.2605
 218   2.0000      -0.450042       -12.2463
 219   2.0000      -0.447482       -12.1766
 220   2.0000      -0.444612       -12.0985
 221   2.0000      -0.444292       -12.0898
 222   2.0000      -0.442863       -12.0509
 223   2.0000      -0.439307       -11.9542
 224   2.0000      -0.437992       -11.9184
 225   2.0000      -0.432315       -11.7639
 226   2.0000      -0.431907       -11.7528
 227   2.0000      -0.430589       -11.7169
 228   2.0000      -0.427105       -11.6221
 229   2.0000      -0.425438       -11.5768
 230   2.0000      -0.423027       -11.5112
 231   2.0000      -0.422168       -11.4878
 232   2.0000      -0.421253       -11.4629
 233   2.0000      -0.420112       -11.4318
 234   2.0000      -0.419907       -11.4263
 235   2.0000      -0.416808       -11.3419
 236   2.0000      -0.416071       -11.3219
 237   2.0000      -0.414058       -11.2671
 238   2.0000      -0.413314       -11.2469
 239   2.0000      -0.410477       -11.1696
 240   2.0000      -0.408350       -11.1118
 241   2.0000      -0.406664       -11.0659
 242   2.0000      -0.405712       -11.0400
 243   2.0000      -0.399634       -10.8746
 244   2.0000      -0.392201       -10.6723
 245   2.0000      -0.390893       -10.6367
 246   2.0000      -0.389437       -10.5971
 247   2.0000      -0.386718       -10.5231
 248   2.0000      -0.381574       -10.3832
 249   2.0000      -0.372044       -10.1238
 250   2.0000      -0.370332       -10.0773
 251   2.0000      -0.367758       -10.0072
 252   2.0000      -0.367007        -9.9868
 253   2.0000      -0.363558        -9.8929
 254   2.0000      -0.350222        -9.5300
 255   2.0000      -0.344466        -9.3734
 256   2.0000      -0.342885        -9.3304
 257   2.0000      -0.340216        -9.2577
 258   2.0000      -0.339516        -9.2387
 259   2.0000      -0.336987        -9.1699
 260   2.0000      -0.328883        -8.9494
 261   2.0000      -0.321521        -8.7490
 262   2.0000      -0.303697        -8.2640
 263   2.0000      -0.298996        -8.1361
 264   2.0000      -0.292446        -7.9579
 265   2.0000      -0.290984        -7.9181
 266   2.0000      -0.275265        -7.4904
 267   2.0000      -0.266221        -7.2442
 268   2.0000      -0.233435        -6.3521
 269   2.0000      -0.229149        -6.2355
 270   0.0000      -0.114836        -3.1248
 271   0.0000      -0.112012        -3.0480
 272   0.0000      -0.053342        -1.4515
 273   0.0000      -0.047191        -1.2841
 274   0.0000      -0.040457        -1.1009

MULLIKEN ATOMIC CHARGES
-----------------------
   0 C :   -0.113415
   1 S :    0.180485
   2 C :   -0.158972
   3 C :    0.171681
   4 C :    0.089973
   5 C :   -0.078090
   6 C :    0.081681
   7 C :   -0.035601
   8 C :   -0.010971
   9 C :   -0.072433
  10 C :    0.098326
  11 C :   -0.105163
  12 C :    0.092857
  13 C :   -0.127931
  14 C :    0.128575
  15 C :   -0.070786
  16 C :   -0.047565
  17 N :    0.029051
  18 C :   -0.132280
  19 C :   -0.113732
  20 N :    0.046168
  21 C :   -0.234226
  22 N :    0.233874
  23 C :   -0.225786
  24 N :    0.233418
  25 C :    0.117128
  26 C :    0.009415
  27 C :   -0.015667
  28 N :   -0.284883
  29 S :    0.536743
  30 N :   -0.297486
  31 C :    0.033302
  32 C :   -0.044976
  33 C :    0.017766
  34 C :   -0.095738
  35 C :    0.118670
  36 C :   -0.084575
  37 C :    0.109926
  38 C :   -0.056711
  39 S :    0.123369
  40 C :   -0.014675
  41 C :    0.023570
  42 C :    0.033111
  43 C :   -0.045226
  44 C :    0.067274
  45 C :   -0.081644
  46 C :   -0.059962
  47 N :   -0.003262
  48 C :   -0.115813
  49 C :   -0.130590
  50 N :    0.047550
  51 C :   -0.212797
  52 N :    0.236536
  53 C :   -0.230160
  54 N :    0.231147
  55 C :    0.177865
  56 C :   -0.021415
  57 C :    0.013131
  58 N :   -0.294517
  59 S :    0.538489
  60 N :   -0.283505
  61 C :   -0.224589
  62 S :    0.192081
  63 C :   -0.074405
  64 C :    0.099346
  65 C :    0.179723
  66 C :   -0.091334
  67 C :    0.089748
  68 C :   -0.036841
  69 C :   -0.011745
  70 C :   -0.078443
  71 C :    0.099499
  72 C :   -0.094441
  73 C :   -0.011937
  74 C :   -0.006658
  75 H :    0.024600
  76 H :   -0.033076
  77 H :   -0.001481
  78 H :    0.019206
  79 H :    0.024397
  80 H :    0.032112
  81 H :    0.013721
  82 H :    0.032498
  83 H :   -0.036682
  84 H :    0.004158
  85 H :   -0.003364
  86 H :   -0.012105
  87 H :   -0.021296
  88 H :   -0.024730
  89 H :   -0.013055
  90 H :   -0.021279
  91 H :   -0.031590
  92 H :   -0.039024
  93 H :   -0.004194
  94 H :    0.020387
  95 H :    0.022629
  96 H :    0.030684
  97 H :    0.031686
  98 H :    0.008625
  99 H :   -0.043742
 100 H :   -0.003259
 101 H :    0.040638
 102 H :    0.033004
Sum of atomic charges:   -0.0000000

LOEWDIN ATOMIC CHARGES
----------------------
   0 C :   -0.177564
   1 S :    0.505592
   2 C :   -0.187759
   3 C :   -0.031271
   4 C :   -0.055241
   5 C :    0.000346
   6 C :   -0.030027
   7 C :   -0.021373
   8 C :   -0.035774
   9 C :   -0.006073
  10 C :   -0.044507
  11 C :   -0.029135
  12 C :   -0.000987
  13 C :   -0.048915
  14 C :   -0.008198
  15 C :   -0.017222
  16 C :   -0.002928
  17 N :    0.013553
  18 C :   -0.032204
  19 C :   -0.040049
  20 N :    0.008978
  21 C :   -0.039902
  22 N :   -0.015610
  23 C :   -0.035661
  24 N :   -0.016006
  25 C :   -0.020993
  26 C :   -0.035654
  27 C :   -0.044004
  28 N :   -0.282650
  29 S :    0.668281
  30 N :   -0.283319
  31 C :   -0.036068
  32 C :    0.021508
  33 C :   -0.043381
  34 C :   -0.121148
  35 C :   -0.045458
  36 C :    0.012525
  37 C :   -0.040201
  38 C :   -0.144319
  39 S :    0.400740
  40 C :   -0.040162
  41 C :   -0.021216
  42 C :   -0.031639
  43 C :   -0.014277
  44 C :   -0.044086
  45 C :   -0.011233
  46 C :   -0.021352
  47 N :   -0.020497
  48 C :   -0.042475
  49 C :   -0.023951
  50 N :   -0.009011
  51 C :   -0.033138
  52 N :   -0.009700
  53 C :   -0.039482
  54 N :   -0.018976
  55 C :   -0.020668
  56 C :   -0.043879
  57 C :   -0.028546
  58 N :   -0.289431
  59 S :    0.668744
  60 N :   -0.261814
  61 C :   -0.175330
  62 S :    0.538277
  63 C :   -0.153764
  64 C :   -0.049672
  65 C :   -0.023777
  66 C :    0.002222
  67 C :   -0.020365
  68 C :   -0.019707
  69 C :   -0.035503
  70 C :   -0.018673
  71 C :   -0.045170
  72 C :   -0.022760
  73 C :   -0.044647
  74 C :   -0.016811
  75 H :    0.026838
  76 H :    0.029015
  77 H :    0.028818
  78 H :    0.021685
  79 H :    0.025834
  80 H :    0.036080
  81 H :    0.031557
  82 H :    0.036509
  83 H :    0.027492
  84 H :    0.027020
  85 H :    0.029543
  86 H :    0.020980
  87 H :    0.023957
  88 H :    0.029083
  89 H :    0.028747
  90 H :    0.026704
  91 H :    0.026959
  92 H :    0.018734
  93 H :    0.028939
  94 H :    0.021521
  95 H :    0.025182
  96 H :    0.035328
  97 H :    0.035225
  98 H :    0.029970
  99 H :    0.024062
 100 H :    0.034246
 101 H :    0.024015
 102 H :    0.030500

  Mayer bond orders larger than 0.100000
B(  0-C ,  1-S ) :   1.2375 B(  0-C ,  4-C ) :   1.3672 B(  0-C , 75-H ) :   0.9708
B(  1-S ,  2-C ) :   1.1579 B(  2-C ,  3-C ) :   1.2927 B(  2-C , 12-C ) :   1.1869
B(  3-C ,  4-C ) :   1.2182 B(  3-C , 11-C ) :   1.1955 B(  4-C ,  5-C ) :   1.1646
B(  5-C ,  6-C ) :   1.5214 B(  5-C , 76-H ) :   1.0056 B(  6-C ,  7-C ) :   1.0260
B(  6-C ,  9-C ) :   1.2013 B(  7-C ,  8-C ) :   1.9836 B(  7-C , 77-H ) :   0.9507
B(  8-C , 78-H ) :   0.9584 B(  8-C , 79-H ) :   0.9506 B(  9-C , 10-C ) :   1.0897
B(  9-C , 11-C ) :   1.5450 B( 10-C , 80-H ) :   0.9392 B( 10-C , 81-H ) :   0.9538
B( 10-C , 82-H ) :   0.9423 B( 11-C , 83-H ) :   0.9949 B( 12-C , 13-C ) :   1.5341
B( 12-C , 84-H ) :   0.9301 B( 13-C , 14-C ) :   1.2644 B( 13-C , 85-H ) :   0.9622
B( 14-C , 15-C ) :   1.1997 B( 14-C , 25-C ) :   0.1242 B( 14-C , 27-C ) :   1.1684
B( 15-C , 16-C ) :   1.0885 B( 15-C , 20-N ) :   1.4508 B( 16-C , 17-N ) :   1.4011
B( 16-C , 25-C ) :   1.3065 B( 17-N , 18-C ) :   1.7349 B( 18-C , 19-C ) :   1.2027
B( 18-C , 23-C ) :   1.1599 B( 19-C , 20-N ) :   1.7169 B( 19-C , 21-C ) :   1.1515
B( 21-C , 22-N ) :   3.0446 B( 23-C , 24-N ) :   3.0488 B( 25-C , 26-C ) :   1.2295
B( 25-C , 31-C ) :   1.0190 B( 26-C , 27-C ) :   1.1066 B( 26-C , 30-N ) :   1.4812
B( 27-C , 28-N ) :   1.5260 B( 28-N , 29-S ) :   1.2845 B( 28-N , 30-N ) :   0.1536
B( 29-S , 30-N ) :   1.2788 B( 31-C , 32-C ) :   1.2964 B( 31-C , 36-C ) :   1.3463
B( 32-C , 33-C ) :   1.4281 B( 32-C , 86-H ) :   0.9605 B( 33-C , 34-C ) :   1.3671
B( 33-C , 44-C ) :   0.9432 B( 34-C , 35-C ) :   1.3347 B( 34-C , 39-S ) :   1.0509
B( 35-C , 36-C ) :   1.3557 B( 35-C , 37-C ) :   1.0461 B( 36-C , 87-H ) :   0.9732
B( 37-C , 38-C ) :   1.3525 B( 37-C , 43-C ) :   1.3571 B( 38-C , 39-S ) :   1.0245
B( 38-C , 40-C ) :   1.3654 B( 40-C , 41-C ) :   1.4191 B( 40-C , 88-H ) :   0.9939
B( 41-C , 42-C ) :   1.3552 B( 41-C , 89-H ) :   0.9880 B( 42-C , 43-C ) :   1.4101
B( 42-C , 90-H ) :   0.9848 B( 43-C , 91-H ) :   0.9895 B( 44-C , 45-C ) :   1.3559
B( 44-C , 55-C ) :   0.1121 B( 44-C , 57-C ) :   1.2534 B( 45-C , 46-C ) :   1.0988
B( 45-C , 50-N ) :   1.4012 B( 46-C , 47-N ) :   1.4234 B( 46-C , 55-C ) :   1.2113
B( 47-N , 48-C ) :   1.6629 B( 48-C , 49-C ) :   1.2087 B( 48-C , 53-C ) :   1.1651
B( 49-C , 50-N ) :   1.7295 B( 49-C , 51-C ) :   1.1604 B( 51-C , 52-N ) :   3.0521
B( 53-C , 54-N ) :   3.0347 B( 55-C , 56-C ) :   1.1801 B( 55-C , 61-C ) :   1.2523
B( 56-C , 57-C ) :   1.0873 B( 56-C , 60-N ) :   1.5054 B( 57-C , 58-N ) :   1.4993
B( 58-N , 59-S ) :   1.2667 B( 58-N , 60-N ) :   0.1461 B( 59-S , 60-N ) :   1.2830
B( 61-C , 62-S ) :   1.1390 B( 61-C , 65-C ) :   1.2564 B( 62-S , 63-C ) :   1.1649
B( 63-C , 64-C ) :   1.2944 B( 63-C , 73-C ) :   1.1496 B( 64-C , 65-C ) :   1.2184
B( 64-C , 72-C ) :   1.1983 B( 65-C , 66-C ) :   1.2393 B( 66-C , 67-C ) :   1.4817
B( 66-C , 92-H ) :   0.9715 B( 67-C , 68-C ) :   1.0379 B( 67-C , 70-C ) :   1.2195
B( 68-C , 69-C ) :   1.9706 B( 68-C , 93-H ) :   0.9522 B( 69-C , 94-H ) :   0.9557
B( 69-C , 95-H ) :   0.9495 B( 70-C , 71-C ) :   1.0852 B( 70-C , 72-C ) :   1.5403
B( 71-C , 96-H ) :   0.9441 B( 71-C , 97-H ) :   0.9404 B( 71-C , 98-H ) :   0.9539
B( 72-C , 99-H ) :   0.9895 B( 73-C , 74-C ) :   1.8936 B( 73-C ,100-H ) :   0.9602
B( 74-C ,101-H ) :   0.9568 B( 74-C ,102-H ) :   0.9489

-----------------------------------------------------------------------------
         ABSORPTION SPECTRUM VIA TRANSITION ELECTRIC DIPOLE MOMENTS
-----------------------------------------------------------------------------
State   Energy  Wavelength   fosc         T2         TX        TY        TZ
        (cm-1)    (nm)                  (au**2)     (au)      (au)      (au)
-----------------------------------------------------------------------------
   0    9014.4   1109.3   0.494124182  18.04578  -1.65132   3.02416   2.48463
   1    9988.6   1001.1   0.263852986   8.69629  -0.40645  -2.78784   0.87124
   2   13000.3    769.2   0.006217096   0.15744   0.13473  -0.24302  -0.28324
   3   13651.1    732.5   0.016492188   0.39773   0.34197  -0.15675  -0.50618
   4   18005.0    555.4   0.010813878   0.19773   0.25616   0.02806  -0.36238
   5   18700.7    534.7   0.017877142   0.31471  -0.04771   0.10415   0.54917
   6   19988.0    500.3   0.000586386   0.00966   0.05572   0.04746  -0.06558
   7   20861.0    479.4   0.028406733   0.44829  -0.55712  -0.27023  -0.25471
   8   21484.0    465.5   0.004047414   0.06202  -0.23669   0.02136   0.07444
   9   22841.6    437.8   0.062693328   0.90359   0.66363   0.10635  -0.67221
  10   23031.5    434.2   0.195808834   2.79889   0.11279  -1.41086  -0.89199
  11   23463.3    426.2   0.005038088   0.07069  -0.06061   0.25220  -0.05840
  12   23734.0    421.3   0.106348335   1.47514   0.13789  -1.17701   0.26604
  13   24514.3    407.9   0.179678673   2.41297  -0.25294   1.22473   0.92143
  14   25074.3    398.8   0.146906768   1.92881   0.15735  -1.35152   0.27827
  15   25377.8    394.0   0.007513479   0.09747   0.13410   0.23788  -0.15133
  16   25870.2    386.5   0.145707346   1.85420  -0.12268   0.74449   1.13353
  17   26090.9    383.3   0.015202995   0.19183  -0.33111  -0.28658  -0.00839
  18   26348.3    379.5   0.014951669   0.18682   0.06527  -0.13064  -0.40680
  19   26417.9    378.5   0.014710164   0.18331   0.14837  -0.28042  -0.28751
  20   26878.4    372.0   0.238011089   2.91521  -0.03693   1.68493  -0.27358
  21   27612.1    362.2   0.006610546   0.07882   0.06435  -0.25947  -0.08573
  22   28107.3    355.8   0.004233382   0.04958   0.06060   0.14046   0.16181
  23   28374.5    352.4   0.007144834   0.08290   0.07637   0.01769  -0.27704
  24   29158.6    343.0   0.053864750   0.60815   0.08775  -0.27994  -0.72256
  25   29508.8    338.9   0.001374406   0.01533   0.04425  -0.09639   0.06391
  26   30092.2    332.3   0.004696743   0.05138  -0.05831  -0.10612  -0.19163
  27   30730.7    325.4   0.038728906   0.41490  -0.11147   0.38739  -0.50239
  28   30912.3    323.5   0.091356640   0.97294  -0.36440  -0.61622  -0.67854
  29   31287.3    319.6   0.489192242   5.14739   1.12802   1.84540   0.68516
  30   31437.2    318.1   0.006748040   0.07067  -0.09066   0.02272   0.24886
  31   31771.7    314.7   0.315180795   3.26584   0.30422  -0.29024  -1.75757
  32   32018.8    312.3   0.017521676   0.18016  -0.21441  -0.30373   0.20477
  33   32080.7    311.7   0.053194698   0.54588  -0.07785  -0.59785   0.42709
  34   32340.3    309.2   0.134035291   1.36443   0.31488   1.12466   0.02036
  35   32573.9    307.0   0.189045865   1.91061  -0.24956   1.18669  -0.66340
  36   32744.1    305.4   0.022033290   0.22152  -0.23244   0.39574   0.10434
  37   33001.9    303.0   0.180184892   1.79744   0.25126  -0.69862   1.11635
  38   33156.4    301.6   0.167914718   1.66723  -0.20855   0.11002   1.26950
  39   33621.3    297.4   0.179330901   1.75596  -0.25519   1.28685  -0.18673
  40   34122.5    293.1   0.003164021   0.03053  -0.10063  -0.12708   0.06520
  41   34190.0    292.5   0.049981341   0.48126  -0.22157  -0.54871  -0.36207
  42   34343.2    291.2   0.045276448   0.43402   0.05032  -0.18831   0.62931
  43   34666.1    288.5   0.108037000   1.02599  -0.42097   0.35427   0.85045
  44   34892.7    286.6   0.008678196   0.08188  -0.12448  -0.24969  -0.06352
  45   35045.6    285.3   0.095672314   0.89873   0.30322  -0.42657  -0.79046
  46   35239.1    283.8   0.013288463   0.12414   0.01255   0.06660  -0.34576
  47   35393.0    282.5   0.062977980   0.58580  -0.61226  -0.26628   0.37421
  48   35592.2    281.0   0.008923394   0.08254  -0.02097  -0.04605  -0.28280
  49   35737.0    279.8   0.067613248   0.62286  -0.53730  -0.45422   0.35756
  50   35812.2    279.2   0.006977005   0.06414  -0.09474  -0.00556   0.23480
  51   35932.6    278.3   0.074846049   0.68573   0.44083  -0.05621  -0.69874
  52   35998.5    277.8   0.006975492   0.06379   0.00553  -0.25050   0.03182
  53   36405.3    274.7   0.043902992   0.39701  -0.27165   0.49262   0.28381
  54   36629.2    273.0   0.020850897   0.18740   0.35188   0.23938  -0.07923
  55   36954.3    270.6   0.034793371   0.30996  -0.52081  -0.15186  -0.12512
  56   37029.1    270.1   0.035655868   0.31700   0.56026  -0.03153   0.04605
  57   37519.5    266.5   0.019563050   0.17165   0.13132   0.36037   0.15667
  58   37617.6    265.8   0.011933959   0.10444  -0.27325   0.06656   0.15919
  59   37694.0    265.3   0.023735030   0.20730   0.08533   0.42005   0.15354
  60   37778.2    264.7   0.024040329   0.20950  -0.30763  -0.24489  -0.23428
  61   37891.6    263.9   0.037223502   0.32341   0.53899  -0.17267   0.05550
  62   38059.6    262.7   0.184300023   1.59418   0.04229   1.18769   0.42635
  63   38240.1    261.5   0.056397284   0.48553   0.42512  -0.12193  -0.53846
  64   38554.2    259.4   0.050440807   0.43071  -0.17203   0.20699   0.59856
  65   38877.6    257.2   0.470275241   3.98225  -0.02202   0.21530  -1.98379
  66   39108.9    255.7   0.058896119   0.49578  -0.26954  -0.40648   0.50784
  67   39390.9    253.9   0.581906050   4.86332   1.82463   1.21350  -0.24794
  68   39589.5    252.6   0.015449137   0.12847   0.11020   0.04081   0.33862
  69   39650.2    252.2   0.110908821   0.92087  -0.70331  -0.39852  -0.51711
  70   39863.7    250.9   0.242923347   2.00617   1.09716   0.70580  -0.55159
  71   40096.5    249.4   0.296080465   2.43097   1.01433   1.03926   0.56748
  72   40215.7    248.7   0.013161514   0.10774  -0.29138   0.02694  -0.14871

FINAL SINGLE POINT ENERGY     -4870.562951342007

DIPOLE MOMENT
-------------
                                X             Y             Z
Electronic contribution:    -15.88873     -28.53087      -8.98483
Nuclear contribution   :     17.96493      31.58604      10.83100
                        -----------------------------------------
Total Dipole Moment    :      2.07620       3.05517       1.84617
                        -----------------------------------------
Magnitude (a.u.)       :      4.12953
Magnitude (Debye)      :     10.49643

Rotational constants in cm-1:     0.001281     0.000383     0.000321
Rotational constants in MHz :    38.406117    11.485798     9.621091

                             ****ORCA TERMINATED NORMALLY****
TOTAL RUN TIME: 0 days 0 hours 11 minutes 8 seconds 101 msec
