                         Program Version 4.2.0 -  RELEASE  -
|  1> # ORCA input file
|  2> # SCF done       -193.723342196205          0.000955327952
|  3> ! CAM-B3LYP def2-SVP def2/J RIJCOSX Grid4 TightSCF
|  4> %maxcore 5000
|  5> %tddft
|  6>     Mode sTDDFT
|  7>     Ethresh 5.0
|  8>     maxcore 5000
|  9> end
| 10>
| 11> %pal
| 12>   nprocs 6
| 13>   end
| 14> * xyz 0 1
| 15>    C       -4.14261         0.49064         6.41376
| 16>    S       -4.95307        -0.99635         6.52513
| 17>    C       -4.06050        -1.68455         5.18960
| 18>    C       -3.11741        -0.75304         4.71174
| 19>    C       -3.18472         0.49388         5.41442
| 20>    C       -2.32367         1.55138         5.06320
| 21>    C       -1.39533         1.39160         4.06437
| 22>    C       -0.51467         2.49733         3.68813
| 23>    C       -0.03885         3.40231         4.53226
| 24>    C       -1.29149         0.13520         3.39409
| 25>    C       -0.24186        -0.06627         2.34519
| 26>    C       -2.12964        -0.89988         3.72215
| 27>    C       -4.40389        -2.99510         4.81119
| 28>    C       -4.03158        -3.63253         3.66129
| 29>    C       -4.31917        -4.96504         3.28853
| 30>    C       -5.02633        -5.93917         4.04286
| 31>    C       -5.22046        -7.29456         3.56825
| 32>    N       -6.04659        -8.10242         4.23241
| 33>    C       -6.59473        -7.71167         5.36364
| 34>    C       -6.26588        -6.43967         5.91595
| 35>    N       -5.52301        -5.59501         5.23701
| 36>    C       -6.73969        -6.06361         7.19563
| 37>    N       -7.14219        -5.78687         8.23257
| 38>    C       -7.46225        -8.60092         6.03872
| 39>    N       -8.12886        -9.32457         6.62748
| 40>    C       -4.62110        -7.77913         2.36713
| 41>    C       -4.00837        -6.76957         1.57459
| 42>    C       -3.85300        -5.41512         2.02528
| 43>    N       -3.21804        -4.66459         1.12662
| 44>    S       -2.86374        -5.56124        -0.16219
| 45>    N       -3.48666        -6.95165         0.36648
| 46>    C       -4.65150        -9.10697         1.89600
| 47>    S       -4.37612        -9.36100         0.19766
| 48>    C       -4.63413       -11.07777         0.30739
| 49>    C       -4.86955       -11.45358         1.65424
| 50>    C       -4.85202       -10.35440         2.55501
| 51>    C       -4.94156       -10.62874         3.92103
| 52>    C       -5.12354       -11.91700         4.39348
| 53>    C       -5.20421       -12.08219         5.84809
| 54>    C       -4.60545       -13.02576         6.56014
| 55>    C       -5.24533       -12.99298         3.48162
| 56>    C       -5.54495       -14.38900         3.93286
| 57>    C       -5.09592       -12.74603         2.13418
| 58>    C       -4.54438       -11.91535        -0.79907
| 59>    C       -4.29753       -11.46147        -2.07393
| 60>    C       -4.12680       -12.26000        -3.21312
| 61>    C       -3.91341       -11.64290        -4.47971
| 62>    C       -3.66760       -12.40906        -5.67214
| 63>    N       -3.51165       -11.77806        -6.83893
| 64>    C       -3.57830       -10.46639        -6.89575
| 65>    C       -3.80072        -9.70951        -5.70734
| 66>    N       -3.96004       -10.30997        -4.54659
| 67>    C       -3.85128        -8.29587        -5.75971
| 68>    N       -3.87815        -7.15231        -5.83223
| 69>    C       -3.42177        -9.82127        -8.14548
| 70>    N       -3.28988        -9.26700        -9.13995
| 71>    C       -3.55005       -13.82714        -5.67031
| 72>    C       -3.85521       -14.44494        -4.42755
| 73>    C       -4.14718       -13.68182        -3.23369
| 74>    N       -4.44187       -14.46985        -2.20525
| 75>    S       -4.39158       -16.01072        -2.67992
| 76>    N       -3.97742       -15.75148        -4.21200
| 77>    C       -3.21720       -14.50486        -6.86550
| 78>    S       -3.49804       -13.71396        -8.38735
| 79>    C       -3.06551       -15.11513        -9.30325
| 80>    C       -2.57507       -16.12778        -8.46884
| 81>    C       -2.66244       -15.78821        -7.08333
| 82>    C       -2.11594       -16.66574        -6.14291
| 83>    C       -1.54471       -17.86291        -6.52471
| 84>    C       -0.99901       -18.75576        -5.50596
| 85>    C       -1.49569       -18.87851        -4.28113
| 86>    C       -1.46136       -18.20139        -7.90359
| 87>    C       -0.82522       -19.48878        -8.33113
| 88>    C       -1.95884       -17.33644        -8.84311
| 89>    C       -3.23771       -15.06402       -10.72383
| 90>    C       -3.43065       -16.10321       -11.53909
| 91>    H       -4.39261         1.29440         7.07787
| 92>    H       -2.41539         2.49321         5.58200
| 93>    H       -0.24473         2.55275         2.64223
| 94>    H       -0.25001         3.36797         5.58808
| 95>    H        0.59826         4.20400         4.20036
| 96>    H       -0.45469         0.54541         1.46817
| 97>    H       -0.20836        -1.10666         2.03206
| 98>    H        0.73904         0.21853         2.72292
| 99>    H       -2.00534        -1.84652         3.22285
|100>    H       -5.05103        -3.52337         5.49739
|101>    H       -3.47325        -3.09648         2.90882
|102>    H       -4.84905        -9.83086         4.63695
|103>    H       -5.77829       -11.31538         6.35473
|104>    H       -3.98298       -13.78091         6.11175
|105>    H       -4.69479       -13.05791         7.63262
|106>    H       -6.11661       -14.38601         4.85718
|107>    H       -4.62144       -14.94182         4.10506
|108>    H       -6.10788       -14.91690         3.16600
|109>    H       -5.15487       -13.56591         1.43406
|110>    H       -4.66684       -12.97758        -0.64601
|111>    H       -4.20896       -10.39527        -2.23855
|112>    H       -2.11242       -16.39479        -5.10252
|113>    H       -0.14611       -19.35384        -5.79694
|114>    H       -2.36974       -18.33446        -3.96400
|115>    H       -1.05774       -19.54586        -3.55850
|116>    H       -1.29232       -20.33314        -7.82649
|117>    H        0.23657       -19.49383        -8.08438
|118>    H       -0.92468       -19.62585        -9.40498
|119>    H       -1.84329       -17.56311        -9.89123
|120>    H       -3.27114       -14.06119       -11.13253
|121>    H       -3.49134       -17.11586       -11.18198
|122>    H       -3.57263       -15.95689       -12.59548
|123> *
|124>
|125>                          ****END OF INPUT****

CARTESIAN COORDINATES (ANGSTROEM)
---------------------------------
  C     -4.142610    0.490640    6.413760
  S     -4.953070   -0.996350    6.525130
  C     -4.060500   -1.684550    5.189600
  C     -3.117410   -0.753040    4.711740
  C     -3.184720    0.493880    5.414420
  C     -2.323670    1.551380    5.063200
  C     -1.395330    1.391600    4.064370
  C     -0.514670    2.497330    3.688130
  C     -0.038850    3.402310    4.532260
  C     -1.291490    0.135200    3.394090
  C     -0.241860   -0.066270    2.345190
  C     -2.129640   -0.899880    3.722150
  C     -4.403890   -2.995100    4.811190
  C     -4.031580   -3.632530    3.661290
  C     -4.319170   -4.965040    3.288530
  C     -5.026330   -5.939170    4.042860
  C     -5.220460   -7.294560    3.568250
  N     -6.046590   -8.102420    4.232410
  C     -6.594730   -7.711670    5.363640
  C     -6.265880   -6.439670    5.915950
  N     -5.523010   -5.595010    5.237010
  C     -6.739690   -6.063610    7.195630
  N     -7.142190   -5.786870    8.232570
  C     -7.462250   -8.600920    6.038720
  N     -8.128860   -9.324570    6.627480
  C     -4.621100   -7.779130    2.367130
  C     -4.008370   -6.769570    1.574590
  C     -3.853000   -5.415120    2.025280
  N     -3.218040   -4.664590    1.126620
  S     -2.863740   -5.561240   -0.162190
  N     -3.486660   -6.951650    0.366480
  C     -4.651500   -9.106970    1.896000
  S     -4.376120   -9.361000    0.197660
  C     -4.634130  -11.077770    0.307390
  C     -4.869550  -11.453580    1.654240
  C     -4.852020  -10.354400    2.555010
  C     -4.941560  -10.628740    3.921030
  C     -5.123540  -11.917000    4.393480
  C     -5.204210  -12.082190    5.848090
  C     -4.605450  -13.025760    6.560140
  C     -5.245330  -12.992980    3.481620
  C     -5.544950  -14.389000    3.932860
  C     -5.095920  -12.746030    2.134180
  C     -4.544380  -11.915350   -0.799070
  C     -4.297530  -11.461470   -2.073930
  C     -4.126800  -12.260000   -3.213120
  C     -3.913410  -11.642900   -4.479710
  C     -3.667600  -12.409060   -5.672140
  N     -3.511650  -11.778060   -6.838930
  C     -3.578300  -10.466390   -6.895750
  C     -3.800720   -9.709510   -5.707340
  N     -3.960040  -10.309970   -4.546590
  C     -3.851280   -8.295870   -5.759710
  N     -3.878150   -7.152310   -5.832230
  C     -3.421770   -9.821270   -8.145480
  N     -3.289880   -9.267000   -9.139950
  C     -3.550050  -13.827140   -5.670310
  C     -3.855210  -14.444940   -4.427550
  C     -4.147180  -13.681820   -3.233690
  N     -4.441870  -14.469850   -2.205250
  S     -4.391580  -16.010720   -2.679920
  N     -3.977420  -15.751480   -4.212000
  C     -3.217200  -14.504860   -6.865500
  S     -3.498040  -13.713960   -8.387350
  C     -3.065510  -15.115130   -9.303250
  C     -2.575070  -16.127780   -8.468840
  C     -2.662440  -15.788210   -7.083330
  C     -2.115940  -16.665740   -6.142910
  C     -1.544710  -17.862910   -6.524710
  C     -0.999010  -18.755760   -5.505960
  C     -1.495690  -18.878510   -4.281130
  C     -1.461360  -18.201390   -7.903590
  C     -0.825220  -19.488780   -8.331130
  C     -1.958840  -17.336440   -8.843110
  C     -3.237710  -15.064020  -10.723830
  C     -3.430650  -16.103210  -11.539090
  H     -4.392610    1.294400    7.077870
  H     -2.415390    2.493210    5.582000
  H     -0.244730    2.552750    2.642230
  H     -0.250010    3.367970    5.588080
  H      0.598260    4.204000    4.200360
  H     -0.454690    0.545410    1.468170
  H     -0.208360   -1.106660    2.032060
  H      0.739040    0.218530    2.722920
  H     -2.005340   -1.846520    3.222850
  H     -5.051030   -3.523370    5.497390
  H     -3.473250   -3.096480    2.908820
  H     -4.849050   -9.830860    4.636950
  H     -5.778290  -11.315380    6.354730
  H     -3.982980  -13.780910    6.111750
  H     -4.694790  -13.057910    7.632620
  H     -6.116610  -14.386010    4.857180
  H     -4.621440  -14.941820    4.105060
  H     -6.107880  -14.916900    3.166000
  H     -5.154870  -13.565910    1.434060
  H     -4.666840  -12.977580   -0.646010
  H     -4.208960  -10.395270   -2.238550
  H     -2.112420  -16.394790   -5.102520
  H     -0.146110  -19.353840   -5.796940
  H     -2.369740  -18.334460   -3.964000
  H     -1.057740  -19.545860   -3.558500
  H     -1.292320  -20.333140   -7.826490
  H      0.236570  -19.493830   -8.084380
  H     -0.924680  -19.625850   -9.404980
  H     -1.843290  -17.563110   -9.891230
  H     -3.271140  -14.061190  -11.132530
  H     -3.491340  -17.115860  -11.181980
  H     -3.572630  -15.956890  -12.595480

 Total Charge           Charge          ....    0
 Multiplicity           Mult            ....    1
 Number of Electrons    NEL             ....  550
 Basis Dimension        Dim             .... 1244

ORBITAL ENERGIES
----------------

  NO   OCC          E(Eh)            E(eV)
   0   2.0000     -89.038637     -2422.8645
   1   2.0000     -89.033432     -2422.7228
   2   2.0000     -88.967670     -2420.9334
   3   2.0000     -88.964072     -2420.8355
   4   2.0000     -88.960598     -2420.7409
   5   2.0000     -14.457901      -393.4195
   6   2.0000     -14.455465      -393.3532
   7   2.0000     -14.450892      -393.2288
   8   2.0000     -14.450775      -393.2256
   9   2.0000     -14.449933      -393.2027
  10   2.0000     -14.449699      -393.1963
  11   2.0000     -14.445662      -393.0864
  12   2.0000     -14.444606      -393.0577
  13   2.0000     -14.425732      -392.5441
  14   2.0000     -14.423618      -392.4866
  15   2.0000     -14.422364      -392.4525
  16   2.0000     -14.422199      -392.4480
  17   2.0000     -10.375930      -282.3434
  18   2.0000     -10.373318      -282.2723
  19   2.0000     -10.370129      -282.1856
  20   2.0000     -10.367670      -282.1186
  21   2.0000     -10.342126      -281.4236
  22   2.0000     -10.341584      -281.4088
  23   2.0000     -10.341493      -281.4063
  24   2.0000     -10.341343      -281.4023
  25   2.0000     -10.339009      -281.3387
  26   2.0000     -10.337186      -281.2891
  27   2.0000     -10.333713      -281.1946
  28   2.0000     -10.331493      -281.1342
  29   2.0000     -10.319838      -280.8171
  30   2.0000     -10.317923      -280.7650
  31   2.0000     -10.317179      -280.7447
  32   2.0000     -10.316648      -280.7303
  33   2.0000     -10.316314      -280.7212
  34   2.0000     -10.315559      -280.7006
  35   2.0000     -10.309898      -280.5466
  36   2.0000     -10.309545      -280.5370
  37   2.0000     -10.305095      -280.4159
  38   2.0000     -10.304749      -280.4065
  39   2.0000     -10.302589      -280.3477
  40   2.0000     -10.302310      -280.3401
  41   2.0000     -10.301984      -280.3312
  42   2.0000     -10.301195      -280.3098
  43   2.0000     -10.286808      -279.9183
  44   2.0000     -10.285072      -279.8710
  45   2.0000     -10.284845      -279.8649
  46   2.0000     -10.283074      -279.8167
  47   2.0000     -10.282631      -279.8046
  48   2.0000     -10.282136      -279.7911
  49   2.0000     -10.281643      -279.7777
  50   2.0000     -10.281600      -279.7766
  51   2.0000     -10.281322      -279.7690
  52   2.0000     -10.280900      -279.7575
  53   2.0000     -10.279731      -279.7257
  54   2.0000     -10.279388      -279.7164
  55   2.0000     -10.278937      -279.7041
  56   2.0000     -10.278071      -279.6805
  57   2.0000     -10.278030      -279.6794
  58   2.0000     -10.275858      -279.6203
  59   2.0000     -10.275552      -279.6120
  60   2.0000     -10.274979      -279.5964
  61   2.0000     -10.274898      -279.5942
  62   2.0000     -10.273491      -279.5559
  63   2.0000     -10.273071      -279.5445
  64   2.0000     -10.270191      -279.4661
  65   2.0000     -10.269319      -279.4424
  66   2.0000     -10.269273      -279.4411
  67   2.0000     -10.269021      -279.4343
  68   2.0000     -10.268510      -279.4204
  69   2.0000     -10.267721      -279.3989
  70   2.0000     -10.267579      -279.3950
  71   2.0000     -10.266397      -279.3629
  72   2.0000     -10.265454      -279.3372
  73   2.0000     -10.265259      -279.3319
  74   2.0000     -10.260536      -279.2034
  75   2.0000     -10.259248      -279.1683
  76   2.0000      -8.129863      -221.2248
  77   2.0000      -8.124688      -221.0840
  78   2.0000      -8.063195      -219.4107
  79   2.0000      -8.057680      -219.2606
  80   2.0000      -8.054503      -219.1742
  81   2.0000      -6.101092      -166.0192
  82   2.0000      -6.095908      -165.8781
  83   2.0000      -6.093340      -165.8082
  84   2.0000      -6.092326      -165.7806
  85   2.0000      -6.088189      -165.6681
  86   2.0000      -6.087108      -165.6386
  87   2.0000      -6.032015      -164.1395
  88   2.0000      -6.027779      -164.0242
  89   2.0000      -6.026904      -164.0004
  90   2.0000      -6.026376      -163.9860
  91   2.0000      -6.023667      -163.9123
  92   2.0000      -6.022274      -163.8744
  93   2.0000      -6.020499      -163.8261
  94   2.0000      -6.019279      -163.7929
  95   2.0000      -6.017113      -163.7340
  96   2.0000      -1.137075       -30.9414
  97   2.0000      -1.132472       -30.8161
  98   2.0000      -1.116270       -30.3753
  99   2.0000      -1.110407       -30.2157
 100   2.0000      -1.043395       -28.3922
 101   2.0000      -1.036479       -28.2040
 102   2.0000      -1.009963       -27.4825
 103   2.0000      -1.006854       -27.3979
 104   2.0000      -1.001651       -27.2563
 105   2.0000      -1.000911       -27.2362
 106   2.0000      -0.996992       -27.1295
 107   2.0000      -0.995762       -27.0961
 108   2.0000      -0.994670       -27.0663
 109   2.0000      -0.990129       -26.9428
 110   2.0000      -0.985053       -26.8047
 111   2.0000      -0.969486       -26.3811
 112   2.0000      -0.965733       -26.2789
 113   2.0000      -0.942871       -25.6568
 114   2.0000      -0.942563       -25.6484
 115   2.0000      -0.939980       -25.5782
 116   2.0000      -0.913297       -24.8521
 117   2.0000      -0.904229       -24.6053
 118   2.0000      -0.903346       -24.5813
 119   2.0000      -0.899789       -24.4845
 120   2.0000      -0.890328       -24.2271
 121   2.0000      -0.880310       -23.9544
 122   2.0000      -0.876246       -23.8439
 123   2.0000      -0.875086       -23.8123
 124   2.0000      -0.869365       -23.6566
 125   2.0000      -0.865618       -23.5547
 126   2.0000      -0.855522       -23.2799
 127   2.0000      -0.852724       -23.2038
 128   2.0000      -0.847458       -23.0605
 129   2.0000      -0.835363       -22.7314
 130   2.0000      -0.828071       -22.5330
 131   2.0000      -0.822513       -22.3817
 132   2.0000      -0.820076       -22.3154
 133   2.0000      -0.818039       -22.2600
 134   2.0000      -0.800697       -21.7881
 135   2.0000      -0.798924       -21.7398
 136   2.0000      -0.796110       -21.6633
 137   2.0000      -0.785858       -21.3843
 138   2.0000      -0.778609       -21.1870
 139   2.0000      -0.771837       -21.0028
 140   2.0000      -0.769646       -20.9431
 141   2.0000      -0.754525       -20.5317
 142   2.0000      -0.743846       -20.2411
 143   2.0000      -0.732411       -19.9299
 144   2.0000      -0.723508       -19.6877
 145   2.0000      -0.719175       -19.5698
 146   2.0000      -0.718251       -19.5446
 147   2.0000      -0.710660       -19.3381
 148   2.0000      -0.701058       -19.0768
 149   2.0000      -0.700259       -19.0550
 150   2.0000      -0.695511       -18.9258
 151   2.0000      -0.692051       -18.8317
 152   2.0000      -0.689883       -18.7727
 153   2.0000      -0.681238       -18.5374
 154   2.0000      -0.677677       -18.4405
 155   2.0000      -0.672901       -18.3106
 156   2.0000      -0.669787       -18.2258
 157   2.0000      -0.657932       -17.9032
 158   2.0000      -0.654827       -17.8188
 159   2.0000      -0.648656       -17.6508
 160   2.0000      -0.641319       -17.4512
 161   2.0000      -0.636494       -17.3199
 162   2.0000      -0.635123       -17.2826
 163   2.0000      -0.628299       -17.0969
 164   2.0000      -0.623809       -16.9747
 165   2.0000      -0.622710       -16.9448
 166   2.0000      -0.616821       -16.7846
 167   2.0000      -0.614347       -16.7172
 168   2.0000      -0.610186       -16.6040
 169   2.0000      -0.600710       -16.3462
 170   2.0000      -0.596762       -16.2387
 171   2.0000      -0.587717       -15.9926
 172   2.0000      -0.585757       -15.9393
 173   2.0000      -0.577448       -15.7132
 174   2.0000      -0.575395       -15.6573
 175   2.0000      -0.571577       -15.5534
 176   2.0000      -0.566889       -15.4258
 177   2.0000      -0.559719       -15.2307
 178   2.0000      -0.558935       -15.2094
 179   2.0000      -0.553635       -15.0652
 180   2.0000      -0.552510       -15.0346
 181   2.0000      -0.551247       -15.0002
 182   2.0000      -0.550188       -14.9714
 183   2.0000      -0.548718       -14.9314
 184   2.0000      -0.546623       -14.8744
 185   2.0000      -0.544910       -14.8278
 186   2.0000      -0.534216       -14.5368
 187   2.0000      -0.530239       -14.4285
 188   2.0000      -0.528553       -14.3827
 189   2.0000      -0.525151       -14.2901
 190   2.0000      -0.522740       -14.2245
 191   2.0000      -0.515326       -14.0227
 192   2.0000      -0.511449       -13.9172
 193   2.0000      -0.510019       -13.8783
 194   2.0000      -0.508455       -13.8358
 195   2.0000      -0.506387       -13.7795
 196   2.0000      -0.502653       -13.6779
 197   2.0000      -0.501557       -13.6481
 198   2.0000      -0.500315       -13.6143
 199   2.0000      -0.497883       -13.5481
 200   2.0000      -0.495810       -13.4917
 201   2.0000      -0.490076       -13.3356
 202   2.0000      -0.489901       -13.3309
 203   2.0000      -0.488746       -13.2995
 204   2.0000      -0.487339       -13.2612
 205   2.0000      -0.487078       -13.2541
 206   2.0000      -0.481599       -13.1050
 207   2.0000      -0.480681       -13.0800
 208   2.0000      -0.478789       -13.0285
 209   2.0000      -0.475939       -12.9510
 210   2.0000      -0.474106       -12.9011
 211   2.0000      -0.473542       -12.8857
 212   2.0000      -0.471331       -12.8256
 213   2.0000      -0.469866       -12.7857
 214   2.0000      -0.469250       -12.7689
 215   2.0000      -0.466801       -12.7023
 216   2.0000      -0.461830       -12.5670
 217   2.0000      -0.461753       -12.5649
 218   2.0000      -0.459573       -12.5056
 219   2.0000      -0.453701       -12.3458
 220   2.0000      -0.452917       -12.3245
 221   2.0000      -0.451219       -12.2783
 222   2.0000      -0.449448       -12.2301
 223   2.0000      -0.449331       -12.2269
 224   2.0000      -0.448254       -12.1976
 225   2.0000      -0.447340       -12.1727
 226   2.0000      -0.447180       -12.1684
 227   2.0000      -0.443328       -12.0636
 228   2.0000      -0.440204       -11.9785
 229   2.0000      -0.439096       -11.9484
 230   2.0000      -0.438496       -11.9321
 231   2.0000      -0.435135       -11.8406
 232   2.0000      -0.431418       -11.7395
 233   2.0000      -0.424919       -11.5626
 234   2.0000      -0.424416       -11.5489
 235   2.0000      -0.424033       -11.5385
 236   2.0000      -0.422441       -11.4952
 237   2.0000      -0.420498       -11.4423
 238   2.0000      -0.417972       -11.3736
 239   2.0000      -0.416814       -11.3421
 240   2.0000      -0.416780       -11.3412
 241   2.0000      -0.413689       -11.2570
 242   2.0000      -0.412463       -11.2237
 243   2.0000      -0.411316       -11.1925
 244   2.0000      -0.410318       -11.1653
 245   2.0000      -0.409385       -11.1399
 246   2.0000      -0.407316       -11.0836
 247   2.0000      -0.404194       -10.9987
 248   2.0000      -0.402043       -10.9401
 249   2.0000      -0.399310       -10.8658
 250   2.0000      -0.391643       -10.6571
 251   2.0000      -0.390893       -10.6367
 252   2.0000      -0.383502       -10.4356
 253   2.0000      -0.380303       -10.3486
 254   2.0000      -0.375172       -10.2090
 255   2.0000      -0.374238       -10.1835
 256   2.0000      -0.363736        -9.8978
 257   2.0000      -0.363354        -9.8874
 258   2.0000      -0.358348        -9.7511
 259   2.0000      -0.355270        -9.6674
 260   2.0000      -0.348611        -9.4862
 261   2.0000      -0.346442        -9.4272
 262   2.0000      -0.345796        -9.4096
 263   2.0000      -0.341094        -9.2816
 264   2.0000      -0.337926        -9.1954
 265   2.0000      -0.330795        -9.0014
 266   2.0000      -0.323337        -8.7985
 267   2.0000      -0.302597        -8.2341
 268   2.0000      -0.300183        -8.1684
 269   2.0000      -0.295147        -8.0314
 270   2.0000      -0.294399        -8.0110
 271   2.0000      -0.291135        -7.9222
 272   2.0000      -0.261563        -7.1175
 273   2.0000      -0.238885        -6.5004
 274   2.0000      -0.201196        -5.4748
 275   0.0000      -0.132170        -3.5965
 276   0.0000      -0.105926        -2.8824
 277   0.0000      -0.057891        -1.5753
 278   0.0000      -0.051644        -1.4053
 279   0.0000      -0.049006        -1.3335

MULLIKEN ATOMIC CHARGES
-----------------------
   0 C :   -0.112731
   1 S :    0.176925
   2 C :   -0.152421
   3 C :    0.163114
   4 C :    0.088482
   5 C :   -0.071599
   6 C :    0.077126
   7 C :   -0.033688
   8 C :   -0.012679
   9 C :   -0.075664
  10 C :    0.097677
  11 C :   -0.096553
  12 C :    0.081643
  13 C :   -0.126693
  14 C :    0.112200
  15 C :   -0.054067
  16 C :   -0.082396
  17 N :    0.026189
  18 C :   -0.147223
  19 C :   -0.118280
  20 N :    0.035744
  21 C :   -0.224363
  22 N :    0.233686
  23 C :   -0.196346
  24 N :    0.217425
  25 C :    0.155805
  26 C :   -0.003724
  27 C :    0.002352
  28 N :   -0.286167
  29 S :    0.538159
  30 N :   -0.326337
  31 C :   -0.198979
  32 S :    0.176386
  33 C :   -0.032585
  34 C :    0.116555
  35 C :    0.174584
  36 C :   -0.062783
  37 C :    0.063057
  38 C :   -0.054224
  39 C :   -0.015834
  40 C :   -0.070015
  41 C :    0.085748
  42 C :   -0.096425
  43 C :   -0.009806
  44 C :   -0.100504
  45 C :    0.099485
  46 C :   -0.050889
  47 C :   -0.056001
  48 N :   -0.006388
  49 C :   -0.097304
  50 C :   -0.143081
  51 N :    0.054566
  52 C :   -0.219336
  53 N :    0.228191
  54 C :   -0.235227
  55 N :    0.237073
  56 C :    0.164652
  57 C :   -0.023419
  58 C :    0.023438
  59 N :   -0.293204
  60 S :    0.522575
  61 N :   -0.283255
  62 C :   -0.234436
  63 S :    0.199671
  64 C :   -0.109036
  65 C :    0.106317
  66 C :    0.163809
  67 C :   -0.082525
  68 C :    0.072942
  69 C :   -0.034152
  70 C :   -0.007476
  71 C :   -0.078538
  72 C :    0.098756
  73 C :   -0.101445
  74 C :    0.015030
  75 C :   -0.021076
  76 H :    0.023664
  77 H :   -0.034753
  78 H :   -0.001228
  79 H :    0.019898
  80 H :    0.023786
  81 H :    0.032079
  82 H :    0.012530
  83 H :    0.031872
  84 H :   -0.037434
  85 H :    0.004211
  86 H :   -0.001721
  87 H :   -0.044790
  88 H :    0.016236
  89 H :    0.015335
  90 H :    0.028233
  91 H :    0.035092
  92 H :    0.030566
  93 H :    0.013342
  94 H :   -0.041398
  95 H :    0.010868
  96 H :    0.002029
  97 H :   -0.031433
  98 H :   -0.004357
  99 H :    0.006721
 100 H :    0.022198
 101 H :    0.029977
 102 H :    0.031590
 103 H :    0.008962
 104 H :   -0.042009
 105 H :    0.006658
 106 H :    0.029880
 107 H :    0.032908
Sum of atomic charges:   -0.0000000

LOEWDIN ATOMIC CHARGES
----------------------
   0 C :   -0.179514
   1 S :    0.501264
   2 C :   -0.183038
   3 C :   -0.033571
   4 C :   -0.055187
   5 C :    0.000291
   6 C :   -0.030222
   7 C :   -0.020907
   8 C :   -0.037093
   9 C :   -0.007358
  10 C :   -0.044419
  11 C :   -0.027573
  12 C :   -0.009628
  13 C :   -0.041302
  14 C :   -0.028536
  15 C :   -0.011446
  16 C :   -0.006222
  17 N :    0.005733
  18 C :   -0.043702
  19 C :   -0.034266
  20 N :    0.002122
  21 C :   -0.038002
  22 N :   -0.014954
  23 C :   -0.034951
  24 N :   -0.019937
  25 C :   -0.062526
  26 C :   -0.047317
  27 C :   -0.042777
  28 N :   -0.280614
  29 S :    0.660044
  30 N :   -0.303221
  31 C :   -0.144475
  32 S :    0.519794
  33 C :   -0.156288
  34 C :   -0.036411
  35 C :   -0.034455
  36 C :    0.005148
  37 C :   -0.022641
  38 C :   -0.019221
  39 C :   -0.037609
  40 C :   -0.008575
  41 C :   -0.046951
  42 C :   -0.021303
  43 C :   -0.026538
  44 C :   -0.012701
  45 C :   -0.046694
  46 C :   -0.001810
  47 C :   -0.016918
  48 N :   -0.024297
  49 C :   -0.029845
  50 C :   -0.035880
  51 N :    0.001422
  52 C :   -0.035783
  53 N :   -0.016012
  54 C :   -0.037681
  55 N :   -0.011529
  56 C :   -0.047897
  57 C :   -0.042500
  58 C :   -0.034392
  59 N :   -0.280913
  60 S :    0.648209
  61 N :   -0.265926
  62 C :   -0.173743
  63 S :    0.525876
  64 C :   -0.159325
  65 C :   -0.048834
  66 C :   -0.029185
  67 C :    0.005487
  68 C :   -0.023601
  69 C :   -0.019338
  70 C :   -0.036976
  71 C :   -0.018995
  72 C :   -0.045390
  73 C :   -0.023270
  74 C :   -0.042950
  75 C :   -0.030156
  76 H :    0.026216
  77 H :    0.028549
  78 H :    0.028973
  79 H :    0.021699
  80 H :    0.025513
  81 H :    0.036185
  82 H :    0.031387
  83 H :    0.035946
  84 H :    0.027221
  85 H :    0.026730
  86 H :    0.030530
  87 H :    0.022571
  88 H :    0.034317
  89 H :    0.020650
  90 H :    0.027295
  91 H :    0.035438
  92 H :    0.035157
  93 H :    0.030384
  94 H :    0.026738
  95 H :    0.030626
  96 H :    0.025141
  97 H :    0.021835
  98 H :    0.028240
  99 H :    0.015655
 100 H :    0.024652
 101 H :    0.035421
 102 H :    0.034716
 103 H :    0.030071
 104 H :    0.025217
 105 H :    0.033784
 106 H :    0.023926
 107 H :    0.029120

  Mayer bond orders larger than 0.100000
B(  0-C ,  1-S ) :   1.2307 B(  0-C ,  4-C ) :   1.3695 B(  0-C , 76-H ) :   0.9699
B(  1-S ,  2-C ) :   1.1561 B(  2-C ,  3-C ) :   1.2887 B(  2-C , 12-C ) :   1.1948
B(  3-C ,  4-C ) :   1.2162 B(  3-C , 11-C ) :   1.2008 B(  4-C ,  5-C ) :   1.1682
B(  5-C ,  6-C ) :   1.5209 B(  5-C , 77-H ) :   1.0038 B(  6-C ,  7-C ) :   1.0271
B(  6-C ,  9-C ) :   1.2029 B(  7-C ,  8-C ) :   1.9829 B(  7-C , 78-H ) :   0.9501
B(  8-C , 79-H ) :   0.9581 B(  8-C , 80-H ) :   0.9505 B(  9-C , 10-C ) :   1.0886
B(  9-C , 11-C ) :   1.5434 B( 10-C , 81-H ) :   0.9391 B( 10-C , 82-H ) :   0.9539
B( 10-C , 83-H ) :   0.9432 B( 11-C , 84-H ) :   0.9910 B( 12-C , 13-C ) :   1.5188
B( 12-C , 85-H ) :   0.9313 B( 13-C , 14-C ) :   1.2804 B( 13-C , 86-H ) :   0.9594
B( 14-C , 15-C ) :   1.1939 B( 14-C , 25-C ) :   0.1007 B( 14-C , 27-C ) :   1.1531
B( 15-C , 16-C ) :   1.0858 B( 15-C , 20-N ) :   1.4458 B( 16-C , 17-N ) :   1.4922
B( 16-C , 25-C ) :   1.2058 B( 17-N , 18-C ) :   1.6687 B( 18-C , 19-C ) :   1.2258
B( 18-C , 23-C ) :   1.1732 B( 19-C , 20-N ) :   1.7085 B( 19-C , 21-C ) :   1.1497
B( 21-C , 22-N ) :   3.0490 B( 23-C , 24-N ) :   2.9978 B( 25-C , 26-C ) :   1.1661
B( 25-C , 31-C ) :   1.2706 B( 26-C , 27-C ) :   1.1224 B( 26-C , 30-N ) :   1.4965
B( 27-C , 28-N ) :   1.5421 B( 28-N , 29-S ) :   1.2687 B( 28-N , 30-N ) :   0.1429
B( 29-S , 30-N ) :   1.2462 B( 31-C , 32-S ) :   1.1649 B( 31-C , 35-C ) :   1.2107
B( 32-S , 33-C ) :   1.0953 B( 33-C , 34-C ) :   1.2087 B( 33-C , 43-C ) :   1.2877
B( 34-C , 35-C ) :   1.2380 B( 34-C , 42-C ) :   1.2436 B( 35-C , 36-C ) :   1.2434
B( 36-C , 37-C ) :   1.4641 B( 36-C , 87-H ) :   0.9816 B( 37-C , 38-C ) :   1.0135
B( 37-C , 40-C ) :   1.2632 B( 38-C , 39-C ) :   1.9765 B( 38-C , 88-H ) :   0.9598
B( 39-C , 89-H ) :   0.9623 B( 39-C , 90-H ) :   0.9506 B( 40-C , 41-C ) :   1.0737
B( 40-C , 42-C ) :   1.4865 B( 41-C , 91-H ) :   0.9449 B( 41-C , 92-H ) :   0.9477
B( 41-C , 93-H ) :   0.9529 B( 42-C , 94-H ) :   0.9945 B( 43-C , 44-C ) :   1.4340
B( 43-C , 95-H ) :   0.9551 B( 44-C , 45-C ) :   1.3030 B( 44-C , 96-H ) :   0.9555
B( 45-C , 46-C ) :   1.1887 B( 45-C , 56-C ) :   0.1044 B( 45-C , 58-C ) :   1.1367
B( 46-C , 47-C ) :   1.1170 B( 46-C , 51-N ) :   1.4847 B( 47-C , 48-N ) :   1.4172
B( 47-C , 56-C ) :   1.2210 B( 48-N , 49-C ) :   1.6695 B( 49-C , 50-C ) :   1.2383
B( 49-C , 54-C ) :   1.1595 B( 50-C , 51-N ) :   1.6996 B( 50-C , 52-C ) :   1.1623
B( 52-C , 53-N ) :   3.0457 B( 54-C , 55-N ) :   3.0399 B( 56-C , 57-C ) :   1.1653
B( 56-C , 62-C ) :   1.2421 B( 57-C , 58-C ) :   1.0974 B( 57-C , 61-N ) :   1.5406
B( 58-C , 59-N ) :   1.5363 B( 59-N , 60-S ) :   1.2476 B( 59-N , 61-N ) :   0.1404
B( 60-S , 61-N ) :   1.2578 B( 62-C , 63-S ) :   1.1500 B( 62-C , 66-C ) :   1.2548
B( 63-S , 64-C ) :   1.1488 B( 64-C , 65-C ) :   1.3213 B( 64-C , 74-C ) :   1.1084
B( 65-C , 66-C ) :   1.2145 B( 65-C , 73-C ) :   1.1924 B( 66-C , 67-C ) :   1.2397
B( 67-C , 68-C ) :   1.4866 B( 67-C , 97-H ) :   0.9786 B( 68-C , 69-C ) :   1.0311
B( 68-C , 71-C ) :   1.2191 B( 69-C , 70-C ) :   1.9724 B( 69-C , 98-H ) :   0.9537
B( 70-C , 99-H ) :   0.9527 B( 70-C ,100-H ) :   0.9499 B( 71-C , 72-C ) :   1.0866
B( 71-C , 73-C ) :   1.5307 B( 72-C ,101-H ) :   0.9435 B( 72-C ,102-H ) :   0.9414
B( 72-C ,103-H ) :   0.9543 B( 73-C ,104-H ) :   0.9906 B( 74-C , 75-C ) :   1.9135
B( 74-C ,105-H ) :   0.9473 B( 75-C ,106-H ) :   0.9588 B( 75-C ,107-H ) :   0.9490

-----------------------------------------------------------------------------
         ABSORPTION SPECTRUM VIA TRANSITION ELECTRIC DIPOLE MOMENTS
-----------------------------------------------------------------------------
State   Energy  Wavelength   fosc         T2         TX        TY        TZ
        (cm-1)    (nm)                  (au**2)     (au)      (au)      (au)
-----------------------------------------------------------------------------
   0    1332.0   7507.3   0.066896003  16.53328  -0.25623   2.89600   2.84268
   1    6730.6   1485.7   0.050985742   2.49385   0.55780   1.32078  -0.66200
   2   10598.5    943.5   0.029526108   0.91714   0.66948   0.54814  -0.41047
   3   14512.0    689.1   0.075570164   1.71434   0.37434   1.11506  -0.57519
   4   16309.9    613.1   0.539008079  10.87978   0.35845  -1.67490  -2.81887
   5   17927.0    557.8   0.046723945   0.85804   0.35502   0.84830   0.11127
   6   19226.7    520.1   0.065029528   1.11347   0.59210  -0.67230  -0.55758
   7   19567.7    511.0   0.340273706   5.72485  -0.67108  -2.18667  -0.70213
   8   19814.7    504.7   0.100430113   1.66860   0.23145  -1.23071   0.31682
   9   20569.3    486.2   0.018635303   0.29826   0.25140   0.46338  -0.14259
  10   20772.2    481.4   0.094604094   1.49935  -0.11771  -1.00685   0.68684
  11   21529.5    464.5   0.017590037   0.26897   0.09889  -0.34081  -0.37821
  12   21879.4    457.1   0.104027248   1.56526  -0.29662  -0.01676   1.21532
  13   22544.2    443.6   0.013850856   0.20226   0.13243   0.33139   0.27369
  14   22686.3    440.8   0.027230697   0.39516  -0.00671  -0.13999   0.61279
  15   23379.6    427.7   0.087452275   1.23143  -0.28853  -0.96034   0.47533
  16   24450.4    409.0   0.033899392   0.45644  -0.17527  -0.53488  -0.37366
  17   24771.1    403.7   0.052256955   0.69450   0.31135  -0.54558  -0.54764
  18   25215.4    396.6   0.033399188   0.43606   0.07542  -0.11186  -0.64642
  19   25602.2    390.6   0.007607573   0.09782   0.16306   0.11814  -0.23933
  20   25828.0    387.2   0.005478088   0.06983  -0.02832   0.23690   0.11358
  21   26305.4    380.1   0.016136970   0.20195  -0.03787   0.35901  -0.26764
  22   27182.7    367.9   0.022636845   0.27416   0.08768   0.13534   0.49815
  23   27429.0    364.6   0.009367741   0.11243  -0.02907   0.25055   0.22094
  24   27874.2    358.8   0.102757265   1.21363   0.13837   1.04188   0.33011
  25   28040.1    356.6   0.046811996   0.54961   0.00801  -0.46776   0.57510
  26   28672.4    348.8   0.015094824   0.17332  -0.04920   0.37988   0.16304
  27   29547.1    338.4   0.001109845   0.01237   0.07754  -0.02376  -0.07608
  28   29701.6    336.7   0.007885632   0.08740  -0.08707  -0.27366   0.07023
  29   29872.4    334.8   0.079032649   0.87099  -0.16435  -0.16975   0.90286
  30   30365.9    329.3   0.010226586   0.11087   0.30970   0.00312  -0.12225
  31   30506.2    327.8   0.288293974   3.11117  -0.69510  -0.96324   1.30391
  32   30592.7    326.9   0.076310004   0.82118  -0.68985  -0.29183   0.51002
  33   30927.9    323.3   0.012630565   0.13445   0.00632  -0.30284   0.20662
  34   31280.9    319.7   0.154861395   1.62982   0.38663  -0.86010  -0.86056
  35   31393.4    318.5   0.175168674   1.83694  -0.25536  -0.67185   1.14906
  36   31689.2    315.6   0.127470374   1.32426   0.28215   1.09560   0.21052
  37   31985.4    312.6   0.096989681   0.99827   0.03706  -0.89085   0.45087
  38   32161.8    310.9   0.087736586   0.89808  -0.33694  -0.26918   0.84386
  39   32407.4    308.6   0.064439648   0.65461   0.39581   0.66849   0.22600
  40   32662.2    306.2   0.010270455   0.10352   0.22159   0.23326  -0.00233
  41   32911.9    303.8   0.156053157   1.56097   0.01367  -0.27972   1.21760
  42   33501.2    298.5   0.237524188   2.33412   0.78421   0.39784  -1.24934
  43   33778.9    296.0   0.031427022   0.30629   0.10530   0.27198  -0.47035
  44   34434.1    290.4   0.152323524   1.45631  -0.05301   1.03400  -0.61996
  45   34668.3    288.4   0.015606016   0.14820   0.00492  -0.36055   0.13481
  46   35004.1    285.7   0.006145761   0.05780   0.22085  -0.02884  -0.09053
  47   35191.9    284.2   0.069047351   0.64592  -0.00577  -0.72764   0.34121
  48   35663.6    280.4   0.010246364   0.09458   0.26868   0.12755   0.07826
  49   35835.1    279.1   0.003058580   0.02810  -0.11197  -0.05749   0.11071
  50   35892.5    278.6   0.014106790   0.12939  -0.02988  -0.34763  -0.08748
  51   36235.9    276.0   0.006336310   0.05757   0.07455  -0.05138  -0.22219
  52   36484.6    274.1   0.199259524   1.79798   0.65533   0.82914  -0.82526
  53   36885.4    271.1   0.017791048   0.15879   0.02497  -0.36610   0.15535
  54   36979.5    270.4   0.023773298   0.21164   0.14138  -0.27481   0.34078
  55   37112.1    269.5   0.176903708   1.56927   0.00469   0.84792  -0.92211
  56   37165.9    269.1   0.121555493   1.07673  -0.78967   0.33650   0.58303
  57   37313.2    268.0   0.021399907   0.18881   0.10105  -0.14086   0.39844
  58   37344.4    267.8   0.028331824   0.24976  -0.38056   0.21537  -0.24197
  59   37598.1    266.0   0.016647574   0.14577   0.17713  -0.05715  -0.33336
  60   37944.3    263.5   0.012230532   0.10611   0.28177   0.15214  -0.05976
  61   38188.5    261.9   0.142610741   1.22941   0.91144  -0.49904  -0.38683
  62   38227.4    261.6   0.118811031   1.02319   0.29335  -0.89562   0.36744
  63   38395.5    260.4   0.106423293   0.91250   0.29128   0.23779  -0.87813
  64   38488.5    259.8   0.000844413   0.00722  -0.05201  -0.03376  -0.05812
  65   38531.7    259.5   0.184817876   1.57907  -0.17585  -0.70892   1.02254
  66   38754.8    258.0   0.012050875   0.10237  -0.25438  -0.11697   0.15485
  67   38822.3    257.6   0.227549585   1.92961  -0.22069  -1.15114   0.74551
  68   38999.6    256.4   0.253764698   2.14213  -0.27027   1.02816  -1.00597
  69   39088.0    255.8   0.003980702   0.03353  -0.07943  -0.00232  -0.16496
  70   39237.8    254.9   0.002251904   0.01889   0.06503   0.12100  -0.00498
  71   39343.3    254.2   0.029543958   0.24721   0.26326   0.03089  -0.42066
  72   39514.8    253.1   0.025593174   0.21323  -0.20398   0.37007   0.18618
  73   39532.7    253.0   0.062823475   0.52317  -0.07762  -0.62664   0.35280
  74   39575.0    252.7   0.005106339   0.04248  -0.10155   0.01167  -0.17897
  75   39857.5    250.9   0.059950917   0.49518  -0.13693  -0.68159   0.10892
  76   39941.4    250.4   0.017795037   0.14667  -0.09175  -0.32588  -0.17904
  77   40222.2    248.6   0.110427825   0.90383  -0.28051   0.54240  -0.72866

FINAL SINGLE POINT ENERGY     -4910.958213237697

DIPOLE MOMENT
-------------
                                X             Y             Z
Electronic contribution:    -31.33054      19.54577      -5.79642
Nuclear contribution   :     33.51407     -21.12687       5.17329
                        -----------------------------------------
Total Dipole Moment    :      2.18354      -1.58111      -0.62312
                        -----------------------------------------
Magnitude (a.u.)       :      2.76695
Magnitude (Debye)      :      7.03303

Rotational constants in cm-1:     0.001286     0.000291     0.000248
Rotational constants in MHz :    38.551714     8.718159     7.422144

                             ****ORCA TERMINATED NORMALLY****
TOTAL RUN TIME: 0 days 0 hours 11 minutes 46 seconds 418 msec
