                         Program Version 4.2.0 -  RELEASE  -
|  1> # ORCA input file
|  2> # SCF done       -170.532726524943          0.000555923916
|  3> ! CAM-B3LYP def2-SVP def2/J RIJCOSX Grid4 TightSCF
|  4> %maxcore 5000
|  5> %tddft
|  6>     Mode sTDDFT
|  7>     Ethresh 5.0
|  8>     maxcore 5000
|  9> end
| 10>
| 11> %pal
| 12>   nprocs 6
| 13>   end
| 14> * xyz 0 1
| 15>    C        0.64395         1.26469        -0.36117
| 16>    S       -0.52172         0.05811        -0.07101
| 17>    C        0.67798        -1.19703         0.07601
| 18>    C        1.95895        -0.65255        -0.06593
| 19>    C        1.92611         0.75785        -0.33247
| 20>    C        3.13113         1.46712        -0.52058
| 21>    C        4.33900         0.82845        -0.42306
| 22>    C        5.58339         1.57234        -0.61645
| 23>    C        5.73251         2.57539        -1.47088
| 24>    C        4.37885        -0.56561        -0.09833
| 25>    C        5.70000        -1.25963         0.04402
| 26>    C        3.22007        -1.27052         0.06970
| 27>    C        0.19722        -2.51777         0.27519
| 28>    C        0.87852        -3.67514         0.09781
| 29>    C        0.33161        -4.97251         0.28846
| 30>    C       -0.92284        -5.35257         0.72050
| 31>    C       -1.06839        -6.74238         0.74041
| 32>    C        0.08671        -7.43997         0.32285
| 33>    S        1.35977        -6.35601        -0.09010
| 34>    C       -0.22180        -8.79839         0.38118
| 35>    C       -1.55627        -8.89118         0.82680
| 36>    N       -2.05747        -7.63723         1.05515
| 37>    C       -3.37532        -7.33612         1.53830
| 38>    C       -2.03210       -10.20222         0.92270
| 39>    C       -1.06635       -11.12200         0.58356
| 40>    S        0.45366       -10.36053         0.10548
| 41>    C       -1.15611       -12.54711         0.52575
| 42>    S       -0.02255       -13.37636        -0.51731
| 43>    C       -0.79272       -14.89888        -0.22209
| 44>    O       -0.33547       -16.02249        -0.78423
| 45>    C        0.80655       -15.91603        -1.60485
| 46>    C       -1.86855       -14.78869         0.63685
| 47>    C       -2.70411       -15.90955         1.08650
| 48>    O       -3.56215       -15.78738         1.93825
| 49>    C       -2.45635       -17.24524         0.43216
| 50>    C       -2.05692       -13.43035         1.08514
| 51>    C       -3.08010       -13.07697         2.04172
| 52>    C       -2.90472       -12.20300         3.04935
| 53>    C       -3.90597       -11.84392         3.99851
| 54>    C       -5.15544       -12.38652         4.20242
| 55>    C       -5.84303       -11.73364         5.22989
| 56>    C       -5.11551       -10.67620         5.81836
| 57>    S       -3.56491       -10.49794         5.08644
| 58>    C       -5.92457       -10.14142         6.81915
| 59>    C       -7.12336       -10.88510         6.81409
| 60>    N       -7.06890       -11.84141         5.83454
| 61>    C       -8.07030       -12.83082         5.55331
| 62>    C       -8.04081       -10.47104         7.78053
| 63>    C       -7.56495        -9.41460         8.53595
| 64>    S       -5.94677        -8.91925         8.03605
| 65>    C       -8.26240        -8.78793         9.59804
| 66>    S       -9.85093        -9.36429         9.99444
| 67>    C      -10.03587        -8.27000        11.32637
| 68>    C       -8.91521        -7.44892        11.43376
| 69>    C       -7.90281        -7.74495        10.46288
| 70>    C       -6.71399        -6.99622        10.47022
| 71>    C       -6.51601        -5.98095        11.37451
| 72>    C       -5.26586        -5.22547        11.36184
| 73>    C       -4.08795        -5.72012        11.00259
| 74>    C       -7.55052        -5.64681        12.30294
| 75>    C       -7.36157        -4.51428        13.26697
| 76>    C       -8.70934        -6.36809        12.31945
| 77>    C      -11.23990        -8.36927        12.10003
| 78>    C      -11.41306        -7.99848        13.36889
| 79>    H        0.33813         2.27569        -0.54197
| 80>    H        3.08444         2.52803        -0.71490
| 81>    H        6.42599         1.25867        -0.01506
| 82>    H        4.93293         2.90025        -2.11572
| 83>    H        6.66743         3.10019        -1.57033
| 84>    H        6.31083        -1.10978        -0.84525
| 85>    H        5.55628        -2.32723         0.19137
| 86>    H        6.24974        -0.86924         0.90090
| 87>    H        3.27458        -2.31363         0.33632
| 88>    H       -0.84855        -2.57495         0.54881
| 89>    H        1.89938        -3.65611        -0.25015
| 90>    H       -1.68762        -4.65166         0.99911
| 91>    H       -3.65976        -8.06149         2.30179
| 92>    H       -4.11073        -7.36935         0.72844
| 93>    H       -3.37896        -6.34034         1.97786
| 94>    H       -3.03076       -10.47545         1.20588
| 95>    H        1.01781       -16.92275        -1.95923
| 96>    H        1.66170       -15.53232        -1.04006
| 97>    H        0.61836       -15.25315        -2.45506
| 98>    H       -1.45700       -17.59601         0.67784
| 99>    H       -2.52472       -17.16105        -0.64912
|100>    H       -3.19160       -17.95841         0.79685
|101>    H       -4.00742       -13.62154         1.95650
|102>    H       -1.95065       -11.70681         3.16918
|103>    H       -5.52377       -13.23016         3.64939
|104>    H       -9.05421       -12.42855         5.79225
|105>    H       -7.90695       -13.73871         6.14253
|106>    H       -8.03792       -13.08969         4.49537
|107>    H       -9.00852       -10.90865         7.94816
|108>    H       -5.95249        -7.20219         9.73705
|109>    H       -5.32830        -4.19414        11.68142
|110>    H       -3.96229        -6.74757        10.70500
|111>    H       -3.19877        -5.11287        11.00192
|112>    H       -6.45136        -4.65279        13.84888
|113>    H       -8.20491        -4.45179        13.95054
|114>    H       -7.28298        -3.56526        12.73626
|115>    H       -9.49840        -6.09626        13.00229
|116>    H      -12.06291        -8.84484        11.57859
|117>    H      -10.62112        -7.58795        13.96833
|118>    H      -12.36449        -8.12676        13.85471
|119> *
|120>
|121>                          ****END OF INPUT****

CARTESIAN COORDINATES (ANGSTROEM)
---------------------------------
  C      0.643950    1.264690   -0.361170
  S     -0.521720    0.058110   -0.071010
  C      0.677980   -1.197030    0.076010
  C      1.958950   -0.652550   -0.065930
  C      1.926110    0.757850   -0.332470
  C      3.131130    1.467120   -0.520580
  C      4.339000    0.828450   -0.423060
  C      5.583390    1.572340   -0.616450
  C      5.732510    2.575390   -1.470880
  C      4.378850   -0.565610   -0.098330
  C      5.700000   -1.259630    0.044020
  C      3.220070   -1.270520    0.069700
  C      0.197220   -2.517770    0.275190
  C      0.878520   -3.675140    0.097810
  C      0.331610   -4.972510    0.288460
  C     -0.922840   -5.352570    0.720500
  C     -1.068390   -6.742380    0.740410
  C      0.086710   -7.439970    0.322850
  S      1.359770   -6.356010   -0.090100
  C     -0.221800   -8.798390    0.381180
  C     -1.556270   -8.891180    0.826800
  N     -2.057470   -7.637230    1.055150
  C     -3.375320   -7.336120    1.538300
  C     -2.032100  -10.202220    0.922700
  C     -1.066350  -11.122000    0.583560
  S      0.453660  -10.360530    0.105480
  C     -1.156110  -12.547110    0.525750
  S     -0.022550  -13.376360   -0.517310
  C     -0.792720  -14.898880   -0.222090
  O     -0.335470  -16.022490   -0.784230
  C      0.806550  -15.916030   -1.604850
  C     -1.868550  -14.788690    0.636850
  C     -2.704110  -15.909550    1.086500
  O     -3.562150  -15.787380    1.938250
  C     -2.456350  -17.245240    0.432160
  C     -2.056920  -13.430350    1.085140
  C     -3.080100  -13.076970    2.041720
  C     -2.904720  -12.203000    3.049350
  C     -3.905970  -11.843920    3.998510
  C     -5.155440  -12.386520    4.202420
  C     -5.843030  -11.733640    5.229890
  C     -5.115510  -10.676200    5.818360
  S     -3.564910  -10.497940    5.086440
  C     -5.924570  -10.141420    6.819150
  C     -7.123360  -10.885100    6.814090
  N     -7.068900  -11.841410    5.834540
  C     -8.070300  -12.830820    5.553310
  C     -8.040810  -10.471040    7.780530
  C     -7.564950   -9.414600    8.535950
  S     -5.946770   -8.919250    8.036050
  C     -8.262400   -8.787930    9.598040
  S     -9.850930   -9.364290    9.994440
  C    -10.035870   -8.270000   11.326370
  C     -8.915210   -7.448920   11.433760
  C     -7.902810   -7.744950   10.462880
  C     -6.713990   -6.996220   10.470220
  C     -6.516010   -5.980950   11.374510
  C     -5.265860   -5.225470   11.361840
  C     -4.087950   -5.720120   11.002590
  C     -7.550520   -5.646810   12.302940
  C     -7.361570   -4.514280   13.266970
  C     -8.709340   -6.368090   12.319450
  C    -11.239900   -8.369270   12.100030
  C    -11.413060   -7.998480   13.368890
  H      0.338130    2.275690   -0.541970
  H      3.084440    2.528030   -0.714900
  H      6.425990    1.258670   -0.015060
  H      4.932930    2.900250   -2.115720
  H      6.667430    3.100190   -1.570330
  H      6.310830   -1.109780   -0.845250
  H      5.556280   -2.327230    0.191370
  H      6.249740   -0.869240    0.900900
  H      3.274580   -2.313630    0.336320
  H     -0.848550   -2.574950    0.548810
  H      1.899380   -3.656110   -0.250150
  H     -1.687620   -4.651660    0.999110
  H     -3.659760   -8.061490    2.301790
  H     -4.110730   -7.369350    0.728440
  H     -3.378960   -6.340340    1.977860
  H     -3.030760  -10.475450    1.205880
  H      1.017810  -16.922750   -1.959230
  H      1.661700  -15.532320   -1.040060
  H      0.618360  -15.253150   -2.455060
  H     -1.457000  -17.596010    0.677840
  H     -2.524720  -17.161050   -0.649120
  H     -3.191600  -17.958410    0.796850
  H     -4.007420  -13.621540    1.956500
  H     -1.950650  -11.706810    3.169180
  H     -5.523770  -13.230160    3.649390
  H     -9.054210  -12.428550    5.792250
  H     -7.906950  -13.738710    6.142530
  H     -8.037920  -13.089690    4.495370
  H     -9.008520  -10.908650    7.948160
  H     -5.952490   -7.202190    9.737050
  H     -5.328300   -4.194140   11.681420
  H     -3.962290   -6.747570   10.705000
  H     -3.198770   -5.112870   11.001920
  H     -6.451360   -4.652790   13.848880
  H     -8.204910   -4.451790   13.950540
  H     -7.282980   -3.565260   12.736260
  H     -9.498400   -6.096260   13.002290
  H    -12.062910   -8.844840   11.578590
  H    -10.621120   -7.587950   13.968330
  H    -12.364490   -8.126760   13.854710

 Total Charge           Charge          ....    0
 Multiplicity           Mult            ....    1
 Number of Electrons    NEL             ....  500
 Basis Dimension        Dim             .... 1124

ORBITAL ENERGIES
----------------

  NO   OCC          E(Eh)            E(eV)
   0   2.0000     -88.960191     -2420.7299
   1   2.0000     -88.951979     -2420.5064
   2   2.0000     -88.950854     -2420.4758
   3   2.0000     -88.946713     -2420.3631
   4   2.0000     -88.943221     -2420.2681
   5   2.0000     -88.942555     -2420.2500
   6   2.0000     -88.938755     -2420.1466
   7   2.0000     -19.276106      -524.5295
   8   2.0000     -19.185047      -522.0517
   9   2.0000     -14.454254      -393.3203
  10   2.0000     -14.451290      -393.2396
  11   2.0000     -10.366797      -282.0949
  12   2.0000     -10.344635      -281.4918
  13   2.0000     -10.340356      -281.3754
  14   2.0000     -10.312212      -280.6096
  15   2.0000     -10.307581      -280.4835
  16   2.0000     -10.299054      -280.2515
  17   2.0000     -10.297394      -280.2063
  18   2.0000     -10.297237      -280.2021
  19   2.0000     -10.296297      -280.1765
  20   2.0000     -10.294971      -280.1404
  21   2.0000     -10.293998      -280.1139
  22   2.0000     -10.292291      -280.0675
  23   2.0000     -10.290818      -280.0274
  24   2.0000     -10.288173      -279.9554
  25   2.0000     -10.287984      -279.9503
  26   2.0000     -10.287820      -279.9458
  27   2.0000     -10.286559      -279.9115
  28   2.0000     -10.281330      -279.7692
  29   2.0000     -10.280037      -279.7340
  30   2.0000     -10.279671      -279.7241
  31   2.0000     -10.279337      -279.7150
  32   2.0000     -10.277855      -279.6746
  33   2.0000     -10.277298      -279.6595
  34   2.0000     -10.272965      -279.5416
  35   2.0000     -10.270645      -279.4785
  36   2.0000     -10.269308      -279.4421
  37   2.0000     -10.268134      -279.4101
  38   2.0000     -10.267835      -279.4020
  39   2.0000     -10.267136      -279.3830
  40   2.0000     -10.266989      -279.3790
  41   2.0000     -10.266982      -279.3788
  42   2.0000     -10.266623      -279.3690
  43   2.0000     -10.265560      -279.3401
  44   2.0000     -10.265373      -279.3350
  45   2.0000     -10.265261      -279.3319
  46   2.0000     -10.264902      -279.3222
  47   2.0000     -10.264627      -279.3147
  48   2.0000     -10.264400      -279.3085
  49   2.0000     -10.264011      -279.2979
  50   2.0000     -10.263997      -279.2975
  51   2.0000     -10.263898      -279.2949
  52   2.0000     -10.262045      -279.2444
  53   2.0000     -10.261496      -279.2295
  54   2.0000     -10.259812      -279.1837
  55   2.0000     -10.256897      -279.1044
  56   2.0000     -10.256840      -279.1028
  57   2.0000     -10.256178      -279.0848
  58   2.0000     -10.255831      -279.0754
  59   2.0000     -10.255825      -279.0752
  60   2.0000     -10.255767      -279.0736
  61   2.0000     -10.255578      -279.0685
  62   2.0000     -10.253776      -279.0194
  63   2.0000     -10.249287      -278.8973
  64   2.0000      -8.056439      -219.2269
  65   2.0000      -8.047477      -218.9830
  66   2.0000      -8.046050      -218.9442
  67   2.0000      -8.040482      -218.7926
  68   2.0000      -8.038003      -218.7252
  69   2.0000      -8.037186      -218.7030
  70   2.0000      -8.033774      -218.6101
  71   2.0000      -6.025897      -163.9730
  72   2.0000      -6.021620      -163.8566
  73   2.0000      -6.018167      -163.7627
  74   2.0000      -6.016340      -163.7129
  75   2.0000      -6.015060      -163.6781
  76   2.0000      -6.012203      -163.6004
  77   2.0000      -6.011034      -163.5686
  78   2.0000      -6.010591      -163.5565
  79   2.0000      -6.010295      -163.5484
  80   2.0000      -6.008769      -163.5069
  81   2.0000      -6.007753      -163.4793
  82   2.0000      -6.006787      -163.4530
  83   2.0000      -6.006165      -163.4361
  84   2.0000      -6.003667      -163.3681
  85   2.0000      -6.003420      -163.3614
  86   2.0000      -6.002782      -163.3440
  87   2.0000      -6.001866      -163.3191
  88   2.0000      -5.999421      -163.2525
  89   2.0000      -5.999327      -163.2500
  90   2.0000      -5.998758      -163.2345
  91   2.0000      -5.995174      -163.1370
  92   2.0000      -1.184618       -32.2351
  93   2.0000      -1.103680       -30.0327
  94   2.0000      -1.080914       -29.4132
  95   2.0000      -1.078069       -29.3357
  96   2.0000      -0.986162       -26.8348
  97   2.0000      -0.984943       -26.8017
  98   2.0000      -0.979737       -26.6600
  99   2.0000      -0.960012       -26.1232
 100   2.0000      -0.957965       -26.0676
 101   2.0000      -0.957173       -26.0460
 102   2.0000      -0.952690       -25.9240
 103   2.0000      -0.929449       -25.2916
 104   2.0000      -0.929342       -25.2887
 105   2.0000      -0.892757       -24.2932
 106   2.0000      -0.889728       -24.2107
 107   2.0000      -0.880012       -23.9463
 108   2.0000      -0.873359       -23.7653
 109   2.0000      -0.864391       -23.5213
 110   2.0000      -0.863600       -23.4997
 111   2.0000      -0.861501       -23.4426
 112   2.0000      -0.857436       -23.3320
 113   2.0000      -0.844595       -22.9826
 114   2.0000      -0.842489       -22.9253
 115   2.0000      -0.830199       -22.5909
 116   2.0000      -0.824440       -22.4341
 117   2.0000      -0.824103       -22.4250
 118   2.0000      -0.821221       -22.3466
 119   2.0000      -0.820485       -22.3265
 120   2.0000      -0.815624       -22.1942
 121   2.0000      -0.812403       -22.1066
 122   2.0000      -0.805108       -21.9081
 123   2.0000      -0.798114       -21.7178
 124   2.0000      -0.787681       -21.4339
 125   2.0000      -0.784946       -21.3595
 126   2.0000      -0.766030       -20.8447
 127   2.0000      -0.761526       -20.7222
 128   2.0000      -0.758453       -20.6386
 129   2.0000      -0.750378       -20.4188
 130   2.0000      -0.743004       -20.2182
 131   2.0000      -0.735468       -20.0131
 132   2.0000      -0.713620       -19.4186
 133   2.0000      -0.707370       -19.2485
 134   2.0000      -0.704846       -19.1798
 135   2.0000      -0.694122       -18.8880
 136   2.0000      -0.688830       -18.7440
 137   2.0000      -0.681954       -18.5569
 138   2.0000      -0.669230       -18.2107
 139   2.0000      -0.666828       -18.1453
 140   2.0000      -0.657769       -17.8988
 141   2.0000      -0.639505       -17.4018
 142   2.0000      -0.636967       -17.3328
 143   2.0000      -0.636447       -17.3186
 144   2.0000      -0.633472       -17.2377
 145   2.0000      -0.630646       -17.1608
 146   2.0000      -0.625354       -17.0167
 147   2.0000      -0.622533       -16.9400
 148   2.0000      -0.619137       -16.8476
 149   2.0000      -0.615634       -16.7523
 150   2.0000      -0.609737       -16.5918
 151   2.0000      -0.603467       -16.4212
 152   2.0000      -0.595546       -16.2056
 153   2.0000      -0.590346       -16.0641
 154   2.0000      -0.584679       -15.9099
 155   2.0000      -0.578874       -15.7520
 156   2.0000      -0.578196       -15.7335
 157   2.0000      -0.574771       -15.6403
 158   2.0000      -0.572225       -15.5710
 159   2.0000      -0.567495       -15.4423
 160   2.0000      -0.556364       -15.1394
 161   2.0000      -0.554513       -15.0891
 162   2.0000      -0.553559       -15.0631
 163   2.0000      -0.551153       -14.9976
 164   2.0000      -0.544431       -14.8147
 165   2.0000      -0.542132       -14.7522
 166   2.0000      -0.540098       -14.6968
 167   2.0000      -0.537678       -14.6309
 168   2.0000      -0.533951       -14.5296
 169   2.0000      -0.529712       -14.4142
 170   2.0000      -0.522093       -14.2069
 171   2.0000      -0.521493       -14.1905
 172   2.0000      -0.520391       -14.1605
 173   2.0000      -0.517784       -14.0896
 174   2.0000      -0.517021       -14.0689
 175   2.0000      -0.512692       -13.9511
 176   2.0000      -0.509110       -13.8536
 177   2.0000      -0.499874       -13.6023
 178   2.0000      -0.499535       -13.5930
 179   2.0000      -0.497566       -13.5395
 180   2.0000      -0.493407       -13.4263
 181   2.0000      -0.491761       -13.3815
 182   2.0000      -0.491374       -13.3710
 183   2.0000      -0.488022       -13.2797
 184   2.0000      -0.487594       -13.2681
 185   2.0000      -0.485518       -13.2116
 186   2.0000      -0.484435       -13.1822
 187   2.0000      -0.480315       -13.0700
 188   2.0000      -0.479803       -13.0561
 189   2.0000      -0.478498       -13.0206
 190   2.0000      -0.475460       -12.9379
 191   2.0000      -0.472787       -12.8652
 192   2.0000      -0.472586       -12.8597
 193   2.0000      -0.470455       -12.8017
 194   2.0000      -0.466712       -12.6999
 195   2.0000      -0.466266       -12.6877
 196   2.0000      -0.461241       -12.5510
 197   2.0000      -0.459856       -12.5133
 198   2.0000      -0.455323       -12.3900
 199   2.0000      -0.453587       -12.3427
 200   2.0000      -0.453012       -12.3271
 201   2.0000      -0.451281       -12.2800
 202   2.0000      -0.450547       -12.2600
 203   2.0000      -0.449572       -12.2335
 204   2.0000      -0.447842       -12.1864
 205   2.0000      -0.444667       -12.1000
 206   2.0000      -0.437611       -11.9080
 207   2.0000      -0.434450       -11.8220
 208   2.0000      -0.433414       -11.7938
 209   2.0000      -0.430582       -11.7167
 210   2.0000      -0.429723       -11.6934
 211   2.0000      -0.424825       -11.5601
 212   2.0000      -0.417370       -11.3572
 213   2.0000      -0.416899       -11.3444
 214   2.0000      -0.413465       -11.2510
 215   2.0000      -0.411416       -11.1952
 216   2.0000      -0.410521       -11.1708
 217   2.0000      -0.409665       -11.1476
 218   2.0000      -0.407621       -11.0919
 219   2.0000      -0.404673       -11.0117
 220   2.0000      -0.403670       -10.9844
 221   2.0000      -0.400591       -10.9006
 222   2.0000      -0.399948       -10.8831
 223   2.0000      -0.398003       -10.8302
 224   2.0000      -0.395503       -10.7622
 225   2.0000      -0.394096       -10.7239
 226   2.0000      -0.391178       -10.6445
 227   2.0000      -0.386633       -10.5208
 228   2.0000      -0.374127       -10.1805
 229   2.0000      -0.373372       -10.1600
 230   2.0000      -0.364777        -9.9261
 231   2.0000      -0.353956        -9.6316
 232   2.0000      -0.352016        -9.5788
 233   2.0000      -0.343748        -9.3539
 234   2.0000      -0.334073        -9.0906
 235   2.0000      -0.319923        -8.7056
 236   2.0000      -0.317752        -8.6465
 237   2.0000      -0.315228        -8.5778
 238   2.0000      -0.313845        -8.5402
 239   2.0000      -0.307747        -8.3742
 240   2.0000      -0.301113        -8.1937
 241   2.0000      -0.287840        -7.8325
 242   2.0000      -0.283918        -7.7258
 243   2.0000      -0.281030        -7.6472
 244   2.0000      -0.262882        -7.1534
 245   2.0000      -0.259933        -7.0731
 246   2.0000      -0.255684        -6.9575
 247   2.0000      -0.240586        -6.5467
 248   2.0000      -0.208796        -5.6816
 249   2.0000      -0.198479        -5.4009
 250   0.0000      -0.050451        -1.3728
 251   0.0000      -0.040646        -1.1060
 252   0.0000      -0.018771        -0.5108
 253   0.0000       0.001472         0.0400
 254   0.0000       0.007531         0.2049

MULLIKEN ATOMIC CHARGES
-----------------------
   0 C :   -0.134398
   1 S :    0.139681
   2 C :   -0.157716
   3 C :    0.145965
   4 C :    0.100500
   5 C :   -0.079838
   6 C :    0.079957
   7 C :   -0.034757
   8 C :   -0.015034
   9 C :   -0.074585
  10 C :    0.096829
  11 C :   -0.095225
  12 C :    0.043632
  13 C :    0.036584
  14 C :   -0.085443
  15 C :   -0.079043
  16 C :    0.145073
  17 C :   -0.126423
  18 S :    0.118346
  19 C :   -0.118186
  20 C :    0.148239
  21 N :   -0.172625
  22 C :    0.125619
  23 C :   -0.094411
  24 C :   -0.080446
  25 S :    0.108688
  26 C :   -0.109098
  27 S :    0.076041
  28 C :    0.004726
  29 O :   -0.283869
  30 C :    0.170747
  31 C :    0.041428
  32 C :   -0.043225
  33 O :   -0.203594
  34 C :    0.084848
  35 C :    0.082147
  36 C :   -0.040677
  37 C :    0.042571
  38 C :   -0.105455
  39 C :   -0.073795
  40 C :    0.144329
  41 C :   -0.119247
  42 S :    0.122826
  43 C :   -0.107373
  44 C :    0.169423
  45 N :   -0.167746
  46 C :    0.129904
  47 C :   -0.133232
  48 C :   -0.052454
  49 S :    0.095035
  50 C :   -0.095560
  51 S :    0.126054
  52 C :   -0.143527
  53 C :    0.127481
  54 C :    0.105281
  55 C :   -0.125427
  56 C :    0.085683
  57 C :   -0.038142
  58 C :   -0.013975
  59 C :   -0.075649
  60 C :    0.097344
  61 C :   -0.106740
  62 C :    0.022433
  63 C :   -0.034098
  64 H :    0.011664
  65 H :   -0.039312
  66 H :   -0.004746
  67 H :    0.018298
  68 H :    0.018915
  69 H :    0.028521
  70 H :    0.008369
  71 H :    0.027746
  72 H :   -0.046522
  73 H :   -0.027382
  74 H :   -0.023114
  75 H :   -0.031950
  76 H :    0.041257
  77 H :    0.038196
  78 H :    0.035323
  79 H :   -0.009079
  80 H :    0.050525
  81 H :    0.039610
  82 H :    0.039832
  83 H :    0.030867
  84 H :    0.026945
  85 H :    0.016887
  86 H :    0.011908
  87 H :    0.002187
  88 H :   -0.017792
  89 H :    0.035204
  90 H :    0.041359
  91 H :    0.038594
  92 H :   -0.022052
  93 H :   -0.020296
  94 H :   -0.008429
  95 H :    0.021490
  96 H :    0.019336
  97 H :    0.028711
  98 H :    0.006407
  99 H :    0.028580
 100 H :   -0.046415
 101 H :   -0.009084
 102 H :    0.022503
 103 H :    0.020535
Sum of atomic charges:   -0.0000000

LOEWDIN ATOMIC CHARGES
----------------------
   0 C :   -0.205172
   1 S :    0.472873
   2 C :   -0.182257
   3 C :   -0.047001
   4 C :   -0.053034
   5 C :   -0.004774
   6 C :   -0.032931
   7 C :   -0.019905
   8 C :   -0.042291
   9 C :   -0.017989
  10 C :   -0.045533
  11 C :   -0.030522
  12 C :   -0.047088
  13 C :   -0.052021
  14 C :   -0.158866
  15 C :   -0.081524
  16 C :   -0.016938
  17 C :   -0.227417
  18 S :    0.401123
  19 C :   -0.227121
  20 C :   -0.020186
  21 N :    0.026344
  22 C :    0.038391
  23 C :   -0.073331
  24 C :   -0.182486
  25 S :    0.388890
  26 C :   -0.198631
  27 S :    0.412895
  28 C :   -0.075401
  29 O :   -0.076718
  30 C :    0.069423
  31 C :   -0.147095
  32 C :    0.084621
  33 O :   -0.163383
  34 C :   -0.077184
  35 C :   -0.028661
  36 C :   -0.020651
  37 C :   -0.037226
  38 C :   -0.161901
  39 C :   -0.073517
  40 C :   -0.017511
  41 C :   -0.227782
  42 S :    0.400827
  43 C :   -0.226485
  44 C :   -0.018687
  45 N :    0.025219
  46 C :    0.040025
  47 C :   -0.089075
  48 C :   -0.174642
  49 S :    0.419416
  50 C :   -0.186774
  51 S :    0.466808
  52 C :   -0.188305
  53 C :   -0.040319
  54 C :   -0.052979
  55 C :   -0.014124
  56 C :   -0.029313
  57 C :   -0.022312
  58 C :   -0.039155
  59 C :   -0.017844
  60 C :   -0.045599
  61 C :   -0.028943
  62 C :   -0.043239
  63 C :   -0.055389
  64 H :    0.020896
  65 H :    0.026518
  66 H :    0.027393
  67 H :    0.021007
  68 H :    0.023281
  69 H :    0.034212
  70 H :    0.029422
  71 H :    0.033082
  72 H :    0.022641
  73 H :    0.023182
  74 H :    0.024193
  75 H :    0.025542
  76 H :    0.032256
  77 H :    0.027332
  78 H :    0.033792
  79 H :    0.033772
  80 H :    0.034027
  81 H :    0.018934
  82 H :    0.018506
  83 H :    0.039230
  84 H :    0.036011
  85 H :    0.031697
  86 H :    0.028273
  87 H :    0.029392
  88 H :    0.032726
  89 H :    0.032745
  90 H :    0.028715
  91 H :    0.034039
  92 H :    0.021033
  93 H :    0.010891
  94 H :    0.026882
  95 H :    0.022086
  96 H :    0.023736
  97 H :    0.034532
  98 H :    0.029039
  99 H :    0.033237
 100 H :    0.023879
 101 H :    0.027378
 102 H :    0.020707
 103 H :    0.024159

  Mayer bond orders larger than 0.100000
B(  0-C ,  1-S ) :   1.1945 B(  0-C ,  2-C ) :   0.1080 B(  0-C ,  4-C ) :   1.4026
B(  0-C , 64-H ) :   0.9701 B(  1-S ,  2-C ) :   1.1656 B(  2-C ,  3-C ) :   1.3498
B(  2-C , 12-C ) :   1.1465 B(  3-C ,  4-C ) :   1.2052 B(  3-C , 11-C ) :   1.1757
B(  4-C ,  5-C ) :   1.1553 B(  5-C ,  6-C ) :   1.5386 B(  5-C , 65-H ) :   1.0036
B(  6-C ,  7-C ) :   1.0264 B(  6-C ,  9-C ) :   1.1835 B(  7-C ,  8-C ) :   1.9823
B(  7-C , 66-H ) :   0.9502 B(  8-C , 67-H ) :   0.9576 B(  8-C , 68-H ) :   0.9503
B(  9-C , 10-C ) :   1.0871 B(  9-C , 11-C ) :   1.5741 B( 10-C , 69-H ) :   0.9435
B( 10-C , 70-H ) :   0.9544 B( 10-C , 71-H ) :   0.9411 B( 11-C , 72-H ) :   0.9883
B( 12-C , 13-C ) :   1.6910 B( 12-C , 73-H ) :   0.9451 B( 13-C , 14-C ) :   1.1350
B( 13-C , 74-H ) :   0.9550 B( 14-C , 15-C ) :   1.4895 B( 14-C , 18-S ) :   1.0883
B( 15-C , 16-C ) :   1.2284 B( 15-C , 75-H ) :   1.0017 B( 16-C , 17-C ) :   1.3970
B( 16-C , 21-N ) :   1.1447 B( 17-C , 18-S ) :   1.0284 B( 17-C , 19-C ) :   1.3904
B( 19-C , 20-C ) :   1.4010 B( 19-C , 25-S ) :   1.0262 B( 20-C , 21-N ) :   1.1488
B( 20-C , 23-C ) :   1.2114 B( 21-N , 22-C ) :   0.9709 B( 22-C , 76-H ) :   0.9676
B( 22-C , 77-H ) :   0.9728 B( 22-C , 78-H ) :   0.9724 B( 23-C , 24-C ) :   1.5291
B( 23-C , 79-H ) :   1.0042 B( 24-C , 25-S ) :   1.0846 B( 24-C , 26-C ) :   1.0963
B( 26-C , 27-S ) :   1.0514 B( 26-C , 35-C ) :   1.5685 B( 27-S , 28-C ) :   1.1344
B( 28-C , 29-O ) :   1.1663 B( 28-C , 31-C ) :   1.4370 B( 29-O , 30-C ) :   0.9375
B( 30-C , 80-H ) :   0.9806 B( 30-C , 81-H ) :   0.9665 B( 30-C , 82-H ) :   0.9658
B( 31-C , 32-C ) :   0.9483 B( 31-C , 35-C ) :   1.1893 B( 32-C , 33-O ) :   2.1239
B( 32-C , 34-C ) :   1.0934 B( 34-C , 83-H ) :   0.9357 B( 34-C , 84-H ) :   0.9465
B( 34-C , 85-H ) :   0.9409 B( 35-C , 36-C ) :   1.0821 B( 36-C , 37-C ) :   1.7540
B( 36-C , 86-H ) :   0.9342 B( 37-C , 38-C ) :   1.1141 B( 37-C , 87-H ) :   0.9575
B( 38-C , 39-C ) :   1.5049 B( 38-C , 42-S ) :   1.0885 B( 39-C , 40-C ) :   1.2107
B( 39-C , 88-H ) :   1.0105 B( 40-C , 41-C ) :   1.3962 B( 40-C , 45-N ) :   1.1429
B( 41-C , 42-S ) :   1.0246 B( 41-C , 43-C ) :   1.3779 B( 43-C , 44-C ) :   1.3948
B( 43-C , 49-S ) :   1.0265 B( 44-C , 45-N ) :   1.1475 B( 44-C , 47-C ) :   1.2391
B( 45-N , 46-C ) :   0.9733 B( 46-C , 89-H ) :   0.9721 B( 46-C , 90-H ) :   0.9734
B( 46-C , 91-H ) :   0.9717 B( 47-C , 48-C ) :   1.4580 B( 47-C , 92-H ) :   1.0007
B( 48-C , 49-S ) :   1.0922 B( 48-C , 50-C ) :   1.1849 B( 50-C , 51-S ) :   1.1656
B( 50-C , 52-C ) :   0.1111 B( 50-C , 54-C ) :   1.3491 B( 51-S , 52-C ) :   1.1277
B( 52-C , 53-C ) :   1.3926 B( 52-C , 62-C ) :   1.0989 B( 53-C , 54-C ) :   1.1916
B( 53-C , 61-C ) :   1.1697 B( 54-C , 55-C ) :   1.1808 B( 55-C , 56-C ) :   1.5412
B( 55-C , 93-H ) :   0.9765 B( 56-C , 57-C ) :   1.0352 B( 56-C , 59-C ) :   1.1897
B( 57-C , 58-C ) :   1.9723 B( 57-C , 94-H ) :   0.9511 B( 58-C , 95-H ) :   0.9554
B( 58-C , 96-H ) :   0.9497 B( 59-C , 60-C ) :   1.0850 B( 59-C , 61-C ) :   1.5707
B( 60-C , 97-H ) :   0.9440 B( 60-C , 98-H ) :   0.9545 B( 60-C , 99-H ) :   0.9412
B( 61-C ,100-H ) :   0.9898 B( 62-C , 63-C ) :   1.9274 B( 62-C ,101-H ) :   0.9476
B( 63-C ,102-H ) :   0.9583 B( 63-C ,103-H ) :   0.9473

-----------------------------------------------------------------------------
         ABSORPTION SPECTRUM VIA TRANSITION ELECTRIC DIPOLE MOMENTS
-----------------------------------------------------------------------------
State   Energy  Wavelength   fosc         T2         TX        TY        TZ
        (cm-1)    (nm)                  (au**2)     (au)      (au)      (au)
-----------------------------------------------------------------------------
   0   17998.1    555.6   1.240390388  22.68856  -2.90184  -0.99647   3.64348
   1   20703.4    483.0   1.696478656  26.97632  -0.07707   5.00315   1.39242
   2   23321.6    428.8   0.047192846   0.66618   0.42881   0.56059  -0.40994
   3   24376.7    410.2   0.178832944   2.41517   0.21856  -1.44163  -0.53769
   4   26983.0    370.6   0.114575122   1.39790  -0.44476  -1.05814   0.28362
   5   28519.7    350.6   0.205904063   2.37682   0.21036  -1.32815  -0.75404
   6   28864.4    346.4   0.033935748   0.38705  -0.06184   0.54024   0.30227
   7   29602.5    337.8   0.119817439   1.33250  -0.34276   0.68251   0.86556
   8   29875.3    334.7   0.055166763   0.60791   0.71217   0.30726  -0.07948
   9   29968.6    333.7   0.002415260   0.02653  -0.08280   0.00043   0.14027
  10   30706.1    325.7   0.095544433   1.02437  -0.88333  -0.43520   0.23388
  11   31082.8    321.7   0.101901338   1.07928   0.83683  -0.36548  -0.49540
  12   31326.9    319.2   0.008100959   0.08513  -0.00386   0.26588  -0.12009
  13   32722.5    305.6   0.049024445   0.49322   0.30265  -0.39279  -0.49733
  14   33557.4    298.0   0.061046948   0.59890   0.33938  -0.59159  -0.36570
  15   34279.5    291.7   0.085659632   0.82265  -0.40591   0.69501   0.41815
  16   34513.3    289.7   0.003268201   0.03117   0.14012  -0.08468  -0.06612
  17   34779.8    287.5   0.006451271   0.06107   0.03248  -0.19264  -0.15133
  18   34948.4    286.1   0.127158612   1.19783  -0.35731   0.69259   0.76842
  19   35581.4    281.0   0.189085049   1.74948   0.96290   0.88367   0.20354
  20   35766.5    279.6   0.420901969   3.87419  -1.54265  -1.21877   0.09500
  21   36254.7    275.8   0.132742074   1.20537  -0.81385  -0.65543  -0.33680
  22   36976.5    270.4   0.025239098   0.22471   0.34284  -0.30984   0.10568
  23   37109.8    269.5   0.074265590   0.65883   0.15169   0.79565   0.05253
  24   37693.7    265.3   0.391062013   3.41549  -1.82286  -0.04395   0.30120
  25   38218.0    261.7   0.070221214   0.60489   0.58293  -0.15300  -0.49161
  26   38587.6    259.2   0.042440646   0.36208   0.59926   0.05368   0.00945
  27   39323.1    254.3   0.034781158   0.29119  -0.49476   0.21514  -0.01086
  28   40133.3    249.2   0.098237267   0.80584  -0.41345  -0.64242  -0.47137

FINAL SINGLE POINT ENERGY     -5087.110549662364

DIPOLE MOMENT
-------------
                                X             Y             Z
Electronic contribution:     -4.29208     -24.95720     -18.21724
Nuclear contribution   :      4.09234      24.48953      17.17742
                        -----------------------------------------
Total Dipole Moment    :     -0.19974      -0.46767      -1.03982
                        -----------------------------------------
Magnitude (a.u.)       :      1.15751
Magnitude (Debye)      :      2.94216

Rotational constants in cm-1:     0.000733     0.000414     0.000275
Rotational constants in MHz :    21.984049    12.407325     8.237179

                             ****ORCA TERMINATED NORMALLY****
TOTAL RUN TIME: 0 days 0 hours 17 minutes 54 seconds 581 msec
