                         Program Version 4.2.0 -  RELEASE  -
|  1> # ORCA input file
|  2> # SCF done       -152.650881157799          0.000534833724
|  3> ! CAM-B3LYP def2-SVP def2/J RIJCOSX Grid4 TightSCF
|  4> %maxcore 5000
|  5> %tddft
|  6>     Mode sTDDFT
|  7>     Ethresh 5.0
|  8>     maxcore 5000
|  9> end
| 10>
| 11> %pal
| 12>   nprocs 6
| 13>   end
| 14> * xyz 0 1
| 15>    C        0.87878         1.67451        -2.04419
| 16>    S        1.83525         0.27256        -2.30269
| 17>    C        3.03573         1.21782        -3.15013
| 18>    C        2.67204         2.54145        -3.20246
| 19>    C        1.44246         2.79519        -2.57101
| 20>    C        4.17681         0.62200        -3.66775
| 21>    C        5.16231         0.07178        -4.11467
| 22>    C        6.30709        -0.52103        -4.63880
| 23>    C        6.53161        -1.85136        -4.55702
| 24>    C        7.66220        -2.57156        -5.06381
| 25>    C        8.93418        -2.09326        -5.23269
| 26>    O        9.93574        -2.83925        -5.83627
| 27>    C        9.59147        -4.10873        -6.18604
| 28>    C        8.29021        -4.63388        -5.93556
| 29>    C        8.15471        -5.92008        -6.34122
| 30>    S        9.61728        -6.51361        -7.03812
| 31>    C       10.41651        -5.00666        -6.77740
| 32>    O        7.31095        -3.88178        -5.36439
| 33>    C        9.38957        -0.82959        -4.74369
| 34>    C       10.59205        -0.30336        -5.07581
| 35>    C       11.11623         0.91745        -4.57286
| 36>    S       12.68695         1.44748        -5.11152
| 37>    C       12.58931         2.88245        -4.12542
| 38>    C       11.39768         2.92211        -3.43118
| 39>    C       10.57628         1.82414        -3.68078
| 40>    C       13.62927         3.79708        -4.10976
| 41>    C       14.57314         4.56046        -4.12835
| 42>    C       15.67345         5.41477        -4.16488
| 43>    C       15.71434         6.58969        -3.50354
| 44>    C       16.77437         7.54856        -3.44575
| 45>    N       17.84335         7.67554        -4.28322
| 46>    C       18.20886         6.93866        -5.46316
| 47>    C       19.15110         5.78167        -5.13290
| 48>    N       18.62861         8.68472        -3.92459
| 49>    C       18.09567         9.23543        -2.84312
| 50>    C       16.90812         8.57149        -2.49720
| 51>    C       16.01897         8.85123        -1.33379
| 52>    C       16.33952         7.92970        -0.15479
| 53>    C       18.74338        10.38884        -2.15279
| 54>    C       19.81169        11.04258        -3.03524
| 55>    C       20.57711        12.08310        -2.29469
| 56>    C       20.64251        13.36508        -2.66099
| 57>    C       21.38438        14.39105        -1.97600
| 58>    S       20.99139        16.05103        -2.26712
| 59>    C       22.17793        16.61544        -1.13191
| 60>    C       22.86168        15.55096        -0.57026
| 61>    C       22.42038        14.29040        -1.06869
| 62>    O       23.00174        13.09058        -0.71290
| 63>    C       23.80501        12.51137        -1.73500
| 64>    C       24.29597        11.16039        -1.24328
| 65>    O       23.83931        15.78238         0.34068
| 66>    C       24.13934        14.80294         1.32800
| 67>    C       25.54525        14.24910         1.13393
| 68>    C       22.31586        18.03063        -0.92625
| 69>    C       23.24771        18.62603        -0.18486
| 70>    H       -0.04843         1.58414        -1.51378
| 71>    H        3.27561         3.29218        -3.68021
| 72>    H        0.99358         3.77058        -2.50958
| 73>    H        6.99607         0.13984        -5.14711
| 74>    H        5.75560        -2.48624        -4.14902
| 75>    H        7.29073        -6.54682        -6.27142
| 76>    H       11.43652        -4.87316        -7.07058
| 77>    H        8.74614        -0.32601        -4.04112
| 78>    H       11.21243        -0.83228        -5.78579
| 79>    H       11.14540         3.72890        -2.76574
| 80>    H        9.61194         1.69281        -3.22352
| 81>    H       16.50303         5.04810        -4.75103
| 82>    H       14.85416         6.85398        -2.90060
| 83>    H       18.72469         7.64403        -6.12026
| 84>    H       17.30408         6.58894        -5.96532
| 85>    H       20.06434         6.17190        -4.69113
| 86>    H       19.40387         5.23663        -6.03847
| 87>    H       18.69709         5.09369        -4.42293
| 88>    H       14.97326         8.71629        -1.62280
| 89>    H       16.15000         9.89022        -1.02456
| 90>    H       16.19287         6.88885        -0.43589
| 91>    H       15.69437         8.15591         0.69120
| 92>    H       17.37434         8.05865         0.15449
| 93>    H       19.20312        10.03596        -1.22367
| 94>    H       17.98428        11.12717        -1.88059
| 95>    H       19.33786        11.47174        -3.91892
| 96>    H       20.49226        10.25552        -3.37062
| 97>    H       21.09012        11.75034        -1.40325
| 98>    H       20.08413        13.70720        -3.52361
| 99>    H       24.65362        13.17614        -1.95534
|100>    H       23.21686        12.39405        -2.65420
|101>    H       24.94201        10.71085        -1.99201
|102>    H       23.45149        10.50145        -1.06081
|103>    H       24.84984        11.27624        -0.31521
|104>    H       23.40247        13.99778         1.31609
|105>    H       24.07832        15.32419         2.29189
|106>    H       26.26612        15.06307         1.12494
|107>    H       25.61563        13.71254         0.19229
|108>    H       25.78622        13.56917         1.94677
|109>    H       21.57421        18.62580        -1.44501
|110>    H       24.00378        18.06332         0.33039
|111>    H       23.26962        19.69681        -0.07897
|112> *
|113>
|114>                          ****END OF INPUT****

CARTESIAN COORDINATES (ANGSTROEM)
---------------------------------
  C      0.878780    1.674510   -2.044190
  S      1.835250    0.272560   -2.302690
  C      3.035730    1.217820   -3.150130
  C      2.672040    2.541450   -3.202460
  C      1.442460    2.795190   -2.571010
  C      4.176810    0.622000   -3.667750
  C      5.162310    0.071780   -4.114670
  C      6.307090   -0.521030   -4.638800
  C      6.531610   -1.851360   -4.557020
  C      7.662200   -2.571560   -5.063810
  C      8.934180   -2.093260   -5.232690
  O      9.935740   -2.839250   -5.836270
  C      9.591470   -4.108730   -6.186040
  C      8.290210   -4.633880   -5.935560
  C      8.154710   -5.920080   -6.341220
  S      9.617280   -6.513610   -7.038120
  C     10.416510   -5.006660   -6.777400
  O      7.310950   -3.881780   -5.364390
  C      9.389570   -0.829590   -4.743690
  C     10.592050   -0.303360   -5.075810
  C     11.116230    0.917450   -4.572860
  S     12.686950    1.447480   -5.111520
  C     12.589310    2.882450   -4.125420
  C     11.397680    2.922110   -3.431180
  C     10.576280    1.824140   -3.680780
  C     13.629270    3.797080   -4.109760
  C     14.573140    4.560460   -4.128350
  C     15.673450    5.414770   -4.164880
  C     15.714340    6.589690   -3.503540
  C     16.774370    7.548560   -3.445750
  N     17.843350    7.675540   -4.283220
  C     18.208860    6.938660   -5.463160
  C     19.151100    5.781670   -5.132900
  N     18.628610    8.684720   -3.924590
  C     18.095670    9.235430   -2.843120
  C     16.908120    8.571490   -2.497200
  C     16.018970    8.851230   -1.333790
  C     16.339520    7.929700   -0.154790
  C     18.743380   10.388840   -2.152790
  C     19.811690   11.042580   -3.035240
  C     20.577110   12.083100   -2.294690
  C     20.642510   13.365080   -2.660990
  C     21.384380   14.391050   -1.976000
  S     20.991390   16.051030   -2.267120
  C     22.177930   16.615440   -1.131910
  C     22.861680   15.550960   -0.570260
  C     22.420380   14.290400   -1.068690
  O     23.001740   13.090580   -0.712900
  C     23.805010   12.511370   -1.735000
  C     24.295970   11.160390   -1.243280
  O     23.839310   15.782380    0.340680
  C     24.139340   14.802940    1.328000
  C     25.545250   14.249100    1.133930
  C     22.315860   18.030630   -0.926250
  C     23.247710   18.626030   -0.184860
  H     -0.048430    1.584140   -1.513780
  H      3.275610    3.292180   -3.680210
  H      0.993580    3.770580   -2.509580
  H      6.996070    0.139840   -5.147110
  H      5.755600   -2.486240   -4.149020
  H      7.290730   -6.546820   -6.271420
  H     11.436520   -4.873160   -7.070580
  H      8.746140   -0.326010   -4.041120
  H     11.212430   -0.832280   -5.785790
  H     11.145400    3.728900   -2.765740
  H      9.611940    1.692810   -3.223520
  H     16.503030    5.048100   -4.751030
  H     14.854160    6.853980   -2.900600
  H     18.724690    7.644030   -6.120260
  H     17.304080    6.588940   -5.965320
  H     20.064340    6.171900   -4.691130
  H     19.403870    5.236630   -6.038470
  H     18.697090    5.093690   -4.422930
  H     14.973260    8.716290   -1.622800
  H     16.150000    9.890220   -1.024560
  H     16.192870    6.888850   -0.435890
  H     15.694370    8.155910    0.691200
  H     17.374340    8.058650    0.154490
  H     19.203120   10.035960   -1.223670
  H     17.984280   11.127170   -1.880590
  H     19.337860   11.471740   -3.918920
  H     20.492260   10.255520   -3.370620
  H     21.090120   11.750340   -1.403250
  H     20.084130   13.707200   -3.523610
  H     24.653620   13.176140   -1.955340
  H     23.216860   12.394050   -2.654200
  H     24.942010   10.710850   -1.992010
  H     23.451490   10.501450   -1.060810
  H     24.849840   11.276240   -0.315210
  H     23.402470   13.997780    1.316090
  H     24.078320   15.324190    2.291890
  H     26.266120   15.063070    1.124940
  H     25.615630   13.712540    0.192290
  H     25.786220   13.569170    1.946770
  H     21.574210   18.625800   -1.445010
  H     24.003780   18.063320    0.330390
  H     23.269620   19.696810   -0.078970

 Total Charge           Charge          ....    0
 Multiplicity           Mult            ....    1
 Number of Electrons    NEL             ....  422
 Basis Dimension        Dim             ....  996

ORBITAL ENERGIES
----------------

  NO   OCC          E(Eh)            E(eV)
   0   2.0000     -88.954698     -2420.5804
   1   2.0000     -88.952885     -2420.5310
   2   2.0000     -88.952656     -2420.5248
   3   2.0000     -88.935875     -2420.0682
   4   2.0000     -19.269679      -524.3546
   5   2.0000     -19.267759      -524.3024
   6   2.0000     -19.229105      -523.2505
   7   2.0000     -19.228557      -523.2356
   8   2.0000     -14.473551      -393.8454
   9   2.0000     -14.406394      -392.0179
  10   2.0000     -10.342423      -281.4316
  11   2.0000     -10.341157      -281.3972
  12   2.0000     -10.335575      -281.2453
  13   2.0000     -10.334961      -281.2286
  14   2.0000     -10.316569      -280.7281
  15   2.0000     -10.311906      -280.6012
  16   2.0000     -10.311113      -280.5797
  17   2.0000     -10.308864      -280.5184
  18   2.0000     -10.308816      -280.5171
  19   2.0000     -10.307193      -280.4730
  20   2.0000     -10.306405      -280.4515
  21   2.0000     -10.299616      -280.2668
  22   2.0000     -10.296227      -280.1746
  23   2.0000     -10.294925      -280.1392
  24   2.0000     -10.293240      -280.0933
  25   2.0000     -10.289230      -279.9842
  26   2.0000     -10.289010      -279.9782
  27   2.0000     -10.288982      -279.9774
  28   2.0000     -10.288129      -279.9542
  29   2.0000     -10.287504      -279.9372
  30   2.0000     -10.282620      -279.8043
  31   2.0000     -10.281302      -279.7684
  32   2.0000     -10.279396      -279.7166
  33   2.0000     -10.275092      -279.5995
  34   2.0000     -10.274938      -279.5953
  35   2.0000     -10.274488      -279.5830
  36   2.0000     -10.273415      -279.5538
  37   2.0000     -10.272483      -279.5285
  38   2.0000     -10.271631      -279.5053
  39   2.0000     -10.271255      -279.4951
  40   2.0000     -10.271084      -279.4904
  41   2.0000     -10.270787      -279.4823
  42   2.0000     -10.268579      -279.4223
  43   2.0000     -10.263875      -279.2943
  44   2.0000     -10.263155      -279.2746
  45   2.0000     -10.262350      -279.2527
  46   2.0000     -10.260510      -279.2027
  47   2.0000     -10.259507      -279.1754
  48   2.0000     -10.256292      -279.0879
  49   2.0000     -10.255591      -279.0688
  50   2.0000     -10.251815      -278.9661
  51   2.0000     -10.251582      -278.9597
  52   2.0000     -10.250775      -278.9378
  53   2.0000     -10.250736      -278.9367
  54   2.0000     -10.238624      -278.6071
  55   2.0000      -8.050611      -219.0683
  56   2.0000      -8.048610      -219.0138
  57   2.0000      -8.048391      -219.0078
  58   2.0000      -8.031728      -218.5544
  59   2.0000      -6.019903      -163.8099
  60   2.0000      -6.017917      -163.7558
  61   2.0000      -6.017839      -163.7537
  62   2.0000      -6.015580      -163.6922
  63   2.0000      -6.013791      -163.6436
  64   2.0000      -6.013753      -163.6425
  65   2.0000      -6.012858      -163.6182
  66   2.0000      -6.010733      -163.5604
  67   2.0000      -6.010054      -163.5419
  68   2.0000      -6.000860      -163.2917
  69   2.0000      -5.997285      -163.1944
  70   2.0000      -5.993595      -163.0940
  71   2.0000      -1.194289       -32.4983
  72   2.0000      -1.157226       -31.4897
  73   2.0000      -1.138609       -30.9831
  74   2.0000      -1.133933       -30.8559
  75   2.0000      -1.120651       -30.4945
  76   2.0000      -0.982163       -26.7260
  77   2.0000      -0.979907       -26.6646
  78   2.0000      -0.979045       -26.6412
  79   2.0000      -0.962220       -26.1833
  80   2.0000      -0.938512       -25.5382
  81   2.0000      -0.925317       -25.1791
  82   2.0000      -0.915199       -24.9038
  83   2.0000      -0.899706       -24.4823
  84   2.0000      -0.890431       -24.2299
  85   2.0000      -0.879562       -23.9341
  86   2.0000      -0.870178       -23.6788
  87   2.0000      -0.865549       -23.5528
  88   2.0000      -0.855642       -23.2832
  89   2.0000      -0.851426       -23.1685
  90   2.0000      -0.845945       -23.0193
  91   2.0000      -0.838251       -22.8100
  92   2.0000      -0.835690       -22.7403
  93   2.0000      -0.831564       -22.6280
  94   2.0000      -0.826550       -22.4916
  95   2.0000      -0.825921       -22.4744
  96   2.0000      -0.817067       -22.2335
  97   2.0000      -0.806856       -21.9557
  98   2.0000      -0.802897       -21.8479
  99   2.0000      -0.791573       -21.5398
 100   2.0000      -0.785851       -21.3841
 101   2.0000      -0.778389       -21.1810
 102   2.0000      -0.767304       -20.8794
 103   2.0000      -0.748762       -20.3748
 104   2.0000      -0.735786       -20.0217
 105   2.0000      -0.722544       -19.6614
 106   2.0000      -0.718426       -19.5494
 107   2.0000      -0.706462       -19.2238
 108   2.0000      -0.703796       -19.1513
 109   2.0000      -0.693941       -18.8831
 110   2.0000      -0.687479       -18.7072
 111   2.0000      -0.685884       -18.6638
 112   2.0000      -0.681278       -18.5385
 113   2.0000      -0.667980       -18.1767
 114   2.0000      -0.665825       -18.1180
 115   2.0000      -0.662121       -18.0172
 116   2.0000      -0.656318       -17.8593
 117   2.0000      -0.649991       -17.6871
 118   2.0000      -0.643993       -17.5239
 119   2.0000      -0.639764       -17.4089
 120   2.0000      -0.635025       -17.2799
 121   2.0000      -0.615844       -16.7580
 122   2.0000      -0.608457       -16.5569
 123   2.0000      -0.605784       -16.4842
 124   2.0000      -0.601294       -16.3621
 125   2.0000      -0.596453       -16.2303
 126   2.0000      -0.595649       -16.2084
 127   2.0000      -0.588908       -16.0250
 128   2.0000      -0.587707       -15.9923
 129   2.0000      -0.582303       -15.8453
 130   2.0000      -0.577085       -15.7033
 131   2.0000      -0.568306       -15.4644
 132   2.0000      -0.558088       -15.1863
 133   2.0000      -0.557381       -15.1671
 134   2.0000      -0.547095       -14.8872
 135   2.0000      -0.541792       -14.7429
 136   2.0000      -0.540785       -14.7155
 137   2.0000      -0.539867       -14.6905
 138   2.0000      -0.534348       -14.5403
 139   2.0000      -0.527347       -14.3499
 140   2.0000      -0.526243       -14.3198
 141   2.0000      -0.524259       -14.2658
 142   2.0000      -0.521488       -14.1904
 143   2.0000      -0.516170       -14.0457
 144   2.0000      -0.511469       -13.9178
 145   2.0000      -0.509823       -13.8730
 146   2.0000      -0.507710       -13.8155
 147   2.0000      -0.506803       -13.7908
 148   2.0000      -0.503325       -13.6962
 149   2.0000      -0.500881       -13.6297
 150   2.0000      -0.495881       -13.4936
 151   2.0000      -0.494925       -13.4676
 152   2.0000      -0.492920       -13.4130
 153   2.0000      -0.488129       -13.2827
 154   2.0000      -0.481662       -13.1067
 155   2.0000      -0.480945       -13.0872
 156   2.0000      -0.477375       -12.9900
 157   2.0000      -0.476565       -12.9680
 158   2.0000      -0.475093       -12.9279
 159   2.0000      -0.471251       -12.8234
 160   2.0000      -0.467975       -12.7342
 161   2.0000      -0.466135       -12.6842
 162   2.0000      -0.464808       -12.6481
 163   2.0000      -0.463378       -12.6091
 164   2.0000      -0.460935       -12.5427
 165   2.0000      -0.458227       -12.4690
 166   2.0000      -0.455947       -12.4069
 167   2.0000      -0.455189       -12.3863
 168   2.0000      -0.451869       -12.2960
 169   2.0000      -0.448435       -12.2025
 170   2.0000      -0.443510       -12.0685
 171   2.0000      -0.442197       -12.0328
 172   2.0000      -0.439943       -11.9715
 173   2.0000      -0.436980       -11.8908
 174   2.0000      -0.435051       -11.8383
 175   2.0000      -0.431417       -11.7394
 176   2.0000      -0.428120       -11.6497
 177   2.0000      -0.424870       -11.5613
 178   2.0000      -0.423695       -11.5293
 179   2.0000      -0.420467       -11.4415
 180   2.0000      -0.419908       -11.4263
 181   2.0000      -0.418734       -11.3943
 182   2.0000      -0.417687       -11.3659
 183   2.0000      -0.416277       -11.3275
 184   2.0000      -0.410485       -11.1699
 185   2.0000      -0.410087       -11.1590
 186   2.0000      -0.407709       -11.0943
 187   2.0000      -0.403355       -10.9759
 188   2.0000      -0.398578       -10.8458
 189   2.0000      -0.394185       -10.7263
 190   2.0000      -0.393998       -10.7212
 191   2.0000      -0.385044       -10.4776
 192   2.0000      -0.369349       -10.0505
 193   2.0000      -0.362985        -9.8773
 194   2.0000      -0.353693        -9.6245
 195   2.0000      -0.347733        -9.4623
 196   2.0000      -0.341346        -9.2885
 197   2.0000      -0.339196        -9.2300
 198   2.0000      -0.337033        -9.1711
 199   2.0000      -0.326152        -8.8750
 200   2.0000      -0.321361        -8.7447
 201   2.0000      -0.320917        -8.7326
 202   2.0000      -0.316548        -8.6137
 203   2.0000      -0.303330        -8.2540
 204   2.0000      -0.295409        -8.0385
 205   2.0000      -0.288554        -7.8520
 206   2.0000      -0.276687        -7.5290
 207   2.0000      -0.275686        -7.5018
 208   2.0000      -0.255045        -6.9401
 209   2.0000      -0.236150        -6.4260
 210   2.0000      -0.225903        -6.1471
 211   0.0000      -0.059013        -1.6058
 212   0.0000      -0.027503        -0.7484
 213   0.0000      -0.001230        -0.0335
 214   0.0000       0.003021         0.0822
 215   0.0000       0.029179         0.7940

MULLIKEN ATOMIC CHARGES
-----------------------
   0 C :   -0.070887
   1 S :    0.148768
   2 C :   -0.191407
   3 C :    0.059247
   4 C :    0.035947
   5 C :    0.042198
   6 C :   -0.014249
   7 C :   -0.091584
   8 C :   -0.000671
   9 C :    0.147638
  10 C :    0.164879
  11 O :   -0.261944
  12 C :    0.219379
  13 C :    0.220254
  14 C :   -0.176852
  15 S :    0.105100
  16 C :   -0.175845
  17 O :   -0.254772
  18 C :   -0.084091
  19 C :    0.079852
  20 C :   -0.076316
  21 S :    0.152921
  22 C :   -0.158191
  23 C :    0.059057
  24 C :   -0.002184
  25 C :    0.044085
  26 C :   -0.018103
  27 C :   -0.102896
  28 C :   -0.008097
  29 C :    0.107979
  30 N :   -0.147419
  31 C :    0.118456
  32 C :    0.005336
  33 N :   -0.110909
  34 C :   -0.141121
  35 C :   -0.144033
  36 C :    0.089371
  37 C :    0.023808
  38 C :    0.094365
  39 C :    0.102275
  40 C :   -0.067608
  41 C :    0.029550
  42 C :   -0.140190
  43 S :    0.115254
  44 C :   -0.182085
  45 C :    0.195964
  46 C :    0.097838
  47 O :   -0.367579
  48 C :    0.165366
  49 C :    0.016346
  50 O :   -0.323049
  51 C :    0.182868
  52 C :   -0.002242
  53 C :    0.032982
  54 C :   -0.022593
  55 H :    0.031352
  56 H :   -0.008659
  57 H :   -0.005732
  58 H :    0.042024
  59 H :    0.020320
  60 H :    0.024300
  61 H :    0.022878
  62 H :    0.010660
  63 H :   -0.001704
  64 H :   -0.013568
  65 H :   -0.015292
  66 H :    0.015192
  67 H :   -0.000557
  68 H :    0.030182
  69 H :    0.026414
  70 H :    0.027102
  71 H :    0.020213
  72 H :    0.021888
  73 H :    0.002810
  74 H :   -0.004546
  75 H :    0.011546
  76 H :    0.011921
  77 H :    0.009549
  78 H :    0.008050
  79 H :    0.009486
  80 H :   -0.002674
  81 H :    0.017243
  82 H :    0.009010
  83 H :   -0.025169
  84 H :    0.009265
  85 H :    0.023988
  86 H :    0.018293
  87 H :    0.018768
  88 H :    0.018247
  89 H :    0.031413
  90 H :    0.010079
  91 H :    0.022941
  92 H :    0.008256
  93 H :    0.013419
  94 H :   -0.024554
  95 H :    0.025230
  96 H :    0.010250
Sum of atomic charges:   -0.0000000

LOEWDIN ATOMIC CHARGES
----------------------
   0 C :   -0.179068
   1 S :    0.447344
   2 C :   -0.193638
   3 C :   -0.037736
   4 C :   -0.066250
   5 C :   -0.051768
   6 C :   -0.033791
   7 C :   -0.037934
   8 C :   -0.008680
   9 C :    0.016159
  10 C :    0.030680
  11 O :   -0.057191
  12 C :   -0.008046
  13 C :   -0.008443
  14 C :   -0.211210
  15 S :    0.431080
  16 C :   -0.211745
  17 O :   -0.060158
  18 C :   -0.038700
  19 C :   -0.034066
  20 C :   -0.167168
  21 S :    0.446869
  22 C :   -0.189249
  23 C :   -0.035543
  24 C :   -0.057564
  25 C :   -0.063236
  26 C :   -0.029057
  27 C :   -0.058295
  28 C :   -0.003577
  29 C :   -0.023655
  30 N :    0.093095
  31 C :    0.033664
  32 C :   -0.061728
  33 N :   -0.098363
  34 C :   -0.052034
  35 C :   -0.077682
  36 C :   -0.030879
  37 C :   -0.049982
  38 C :   -0.030023
  39 C :   -0.025072
  40 C :   -0.015214
  41 C :   -0.063205
  42 C :   -0.196773
  43 S :    0.432133
  44 C :   -0.212945
  45 C :    0.007452
  46 C :   -0.024068
  47 O :   -0.135126
  48 C :    0.083387
  49 C :   -0.062675
  50 O :   -0.100238
  51 C :    0.086296
  52 C :   -0.067619
  53 C :   -0.045728
  54 C :   -0.054187
  55 H :    0.024498
  56 H :    0.033750
  57 H :    0.031500
  58 H :    0.045343
  59 H :    0.043204
  60 H :    0.028746
  61 H :    0.028273
  62 H :    0.034412
  63 H :    0.030526
  64 H :    0.034004
  65 H :    0.029220
  66 H :    0.039079
  67 H :    0.040490
  68 H :    0.034783
  69 H :    0.025949
  70 H :    0.031648
  71 H :    0.029337
  72 H :    0.023430
  73 H :    0.025852
  74 H :    0.028432
  75 H :    0.022599
  76 H :    0.021848
  77 H :    0.023129
  78 H :    0.030546
  79 H :    0.030085
  80 H :    0.026571
  81 H :    0.032635
  82 H :    0.022076
  83 H :    0.023928
  84 H :    0.009075
  85 H :    0.013911
  86 H :    0.031536
  87 H :    0.026933
  88 H :    0.025891
  89 H :    0.017649
  90 H :    0.016266
  91 H :    0.027962
  92 H :    0.023135
  93 H :    0.029003
  94 H :    0.023906
  95 H :    0.020540
  96 H :    0.019448

  Mayer bond orders larger than 0.100000
B(  0-C ,  1-S ) :   1.1733 B(  0-C ,  4-C ) :   1.5627 B(  0-C , 55-H ) :   0.9724
B(  1-S ,  2-C ) :   1.1227 B(  2-C ,  3-C ) :   1.5253 B(  2-C ,  5-C ) :   0.9989
B(  3-C ,  4-C ) :   1.2607 B(  3-C , 56-H ) :   1.0012 B(  4-C , 57-H ) :   0.9940
B(  5-C ,  6-C ) :   2.2988 B(  6-C ,  7-C ) :   1.0178 B(  7-C ,  8-C ) :   1.7053
B(  7-C , 58-H ) :   0.9521 B(  8-C ,  9-C ) :   1.1217 B(  8-C , 59-H ) :   0.9548
B(  9-C , 10-C ) :   1.5045 B(  9-C , 17-O ) :   1.0313 B( 10-C , 11-O ) :   1.0591
B( 10-C , 18-C ) :   1.1675 B( 11-O , 12-C ) :   1.0528 B( 12-C , 13-C ) :   1.1978
B( 12-C , 16-C ) :   1.5744 B( 13-C , 14-C ) :   1.5747 B( 13-C , 17-O ) :   1.0630
B( 14-C , 15-S ) :   1.1404 B( 14-C , 60-H ) :   0.9715 B( 15-S , 16-C ) :   1.1391
B( 16-C , 61-H ) :   0.9722 B( 18-C , 19-C ) :   1.6896 B( 18-C , 62-H ) :   0.9543
B( 19-C , 20-C ) :   1.0967 B( 19-C , 63-H ) :   0.9633 B( 20-C , 21-S ) :   1.1230
B( 20-C , 22-C ) :   0.1034 B( 20-C , 24-C ) :   1.4926 B( 21-S , 22-C ) :   1.1131
B( 22-C , 23-C ) :   1.4928 B( 22-C , 25-C ) :   0.9768 B( 23-C , 24-C ) :   1.2809
B( 23-C , 64-H ) :   1.0010 B( 24-C , 65-H ) :   0.9900 B( 25-C , 26-C ) :   2.2913
B( 26-C , 27-C ) :   0.9959 B( 27-C , 28-C ) :   1.7084 B( 27-C , 66-H ) :   0.9541
B( 28-C , 29-C ) :   1.1153 B( 28-C , 67-H ) :   0.9457 B( 29-C , 30-N ) :   1.1788
B( 29-C , 35-C ) :   1.3854 B( 30-N , 31-C ) :   0.9510 B( 30-N , 33-N ) :   1.1501
B( 31-C , 32-C ) :   1.1138 B( 31-C , 68-H ) :   0.9401 B( 31-C , 69-H ) :   0.9454
B( 32-C , 70-H ) :   0.9612 B( 32-C , 71-H ) :   0.9678 B( 32-C , 72-H ) :   0.9645
B( 33-N , 34-C ) :   1.5704 B( 34-C , 35-C ) :   1.3549 B( 34-C , 38-C ) :   1.0476
B( 35-C , 36-C ) :   1.0909 B( 36-C , 37-C ) :   1.1040 B( 36-C , 73-H ) :   0.9156
B( 36-C , 74-H ) :   0.9187 B( 37-C , 75-H ) :   0.9716 B( 37-C , 76-H ) :   0.9670
B( 37-C , 77-H ) :   0.9681 B( 38-C , 39-C ) :   1.0918 B( 38-C , 78-H ) :   0.9123
B( 38-C , 79-H ) :   0.9180 B( 39-C , 40-C ) :   1.0287 B( 39-C , 80-H ) :   0.9464
B( 39-C , 81-H ) :   0.9106 B( 40-C , 41-C ) :   1.8370 B( 40-C , 82-H ) :   0.9565
B( 41-C , 42-C ) :   1.0663 B( 41-C , 83-H ) :   0.9542 B( 42-C , 43-S ) :   1.1213
B( 42-C , 44-C ) :   0.1146 B( 42-C , 46-C ) :   1.5067 B( 43-S , 44-C ) :   1.1020
B( 44-C , 45-C ) :   1.4946 B( 44-C , 53-C ) :   1.1058 B( 45-C , 46-C ) :   1.2196
B( 45-C , 50-O ) :   1.1597 B( 46-C , 47-O ) :   1.0768 B( 47-O , 48-C ) :   0.9114
B( 48-C , 49-C ) :   1.1108 B( 48-C , 84-H ) :   0.9425 B( 48-C , 85-H ) :   0.9469
B( 49-C , 86-H ) :   0.9607 B( 49-C , 87-H ) :   0.9668 B( 49-C , 88-H ) :   0.9677
B( 50-O , 51-C ) :   0.9139 B( 51-C , 52-C ) :   1.1209 B( 51-C , 89-H ) :   0.9444
B( 51-C , 90-H ) :   0.9548 B( 52-C , 91-H ) :   0.9652 B( 52-C , 92-H ) :   0.9646
B( 52-C , 93-H ) :   0.9613 B( 53-C , 54-C ) :   1.9481 B( 53-C , 94-H ) :   0.9454
B( 54-C , 95-H ) :   0.9434 B( 54-C , 96-H ) :   0.9437

-----------------------------------------------------------------------------
         ABSORPTION SPECTRUM VIA TRANSITION ELECTRIC DIPOLE MOMENTS
-----------------------------------------------------------------------------
State   Energy  Wavelength   fosc         T2         TX        TY        TZ
        (cm-1)    (nm)                  (au**2)     (au)      (au)      (au)
-----------------------------------------------------------------------------
   0   20781.1    481.2   1.357625734  21.50732  -4.17126  -2.02679   0.00115
   1   27555.4    362.9   0.182041743   2.17490  -0.37424  -1.36287  -0.42124
   2   28252.2    354.0   0.811637643   9.45770   0.86244   2.84957   0.77061
   3   30999.6    322.6   0.597877605   6.34938   1.06747  -2.10963  -0.87142
   4   32104.3    311.5   0.000719055   0.00737   0.06703  -0.03120  -0.04367
   5   34150.4    292.8   0.022323122   0.21520  -0.42630   0.07115   0.16852
   6   34999.2    285.7   0.426710985   4.01376   1.51501   1.30818   0.08472
   7   35404.9    282.4   0.618129395   5.74767   0.27921  -2.28149  -0.68155
   8   36654.3    272.8   0.043735826   0.39282   0.59278   0.19933  -0.04110
   9   38196.3    261.8   0.031334784   0.27007   0.38114   0.30238  -0.18266
  10   38402.3    260.4   0.045649489   0.39134  -0.35833  -0.51128   0.03919
  11   38927.0    256.9   0.182301197   1.54175  -0.23513   0.95472   0.75827
  12   39780.8    251.4   0.016122602   0.13342  -0.24233   0.27313   0.00991

FINAL SINGLE POINT ENERGY     -3739.764615138359

DIPOLE MOMENT
-------------
                                X             Y             Z
Electronic contribution:   -112.31269    -100.96306     -35.31802
Nuclear contribution   :    111.80959      99.96840      35.39105
                        -----------------------------------------
Total Dipole Moment    :     -0.50310      -0.99466       0.07303
                        -----------------------------------------
Magnitude (a.u.)       :      1.11705
Magnitude (Debye)      :      2.83931

Rotational constants in cm-1:     0.002137     0.000217     0.000200
Rotational constants in MHz :    64.060694     6.507653     6.009969

                             ****ORCA TERMINATED NORMALLY****
TOTAL RUN TIME: 0 days 0 hours 5 minutes 30 seconds 658 msec
