                         Program Version 4.2.0 -  RELEASE  -
|  1> # ORCA input file
|  2> # SCF done       -171.619985175542          0.000380163636
|  3> ! CAM-B3LYP def2-SVP def2/J RIJCOSX Grid4 TightSCF
|  4> %maxcore 5000
|  5> %tddft
|  6>     Mode sTDDFT
|  7>     Ethresh 5.0
|  8>     maxcore 5000
|  9> end
| 10>
| 11> %pal
| 12>   nprocs 6
| 13>   end
| 14> * xyz 0 1
| 15>    C      -10.19707        -0.79490        -4.57206
| 16>    S       -9.37135        -1.04678        -3.06342
| 17>    C       -8.07382        -1.79079        -3.88492
| 18>    C       -8.28102        -1.83695        -5.27024
| 19>    C       -9.50788        -1.25962        -5.64855
| 20>    C       -7.14632        -2.47677        -5.91626
| 21>    S       -6.93355        -2.75675        -7.51157
| 22>    C       -6.24247        -2.80897        -4.82025
| 23>    C       -6.80847        -2.39111        -3.62262
| 24>    O       -6.00466        -2.67894        -2.58127
| 25>    C       -4.91314        -3.29148        -3.12185
| 26>    C       -5.00523        -3.40405        -4.49178
| 27>    N       -3.97366        -3.74126        -2.22673
| 28>    C       -2.60223        -3.76869        -2.48482
| 29>    C       -1.94907        -3.20643        -3.53792
| 30>    S       -0.25291        -3.46997        -3.46135
| 31>    C       -0.41047        -4.35217        -1.99240
| 32>    C       -1.70903        -4.44646        -1.58522
| 33>    N       -2.18408        -5.09050        -0.46131
| 34>    C       -1.42512        -5.53789         0.58589
| 35>    C       -1.90633        -6.33479         1.55348
| 36>    C       -1.19287        -6.79523         2.72203
| 37>    C       -1.81041        -7.74574         3.55048
| 38>    C       -1.16865        -8.19689         4.67638
| 39>    C        0.10532        -7.71055         5.01659
| 40>    C        0.72863        -6.77169         4.20653
| 41>    C        0.07955        -6.32523         3.07380
| 42>    C        0.52621        -8.34059         6.24663
| 43>    C       -0.48569        -9.22358         6.66798
| 44>    C       -1.64426        -9.20423         5.69719
| 45>    C       -1.86411       -10.58854         5.05946
| 46>    C       -0.61712       -11.12394         4.36629
| 47>    C       -2.94306        -8.74039         6.38169
| 48>    C       -2.80984        -7.36867         7.03189
| 49>    C       -0.34815        -9.95747         7.81688
| 50>    C        0.81931        -9.82665         8.59250
| 51>    C        1.81708        -8.93688         8.15706
| 52>    C        1.68403        -8.19964         7.00027
| 53>    C        1.03144       -10.55931         9.80625
| 54>    C        0.19254       -11.47507        10.36111
| 55>    C        0.46496       -12.15611        11.55978
| 56>    C       -0.37068       -13.08783        12.12345
| 57>    C       -0.16820       -13.80994        13.32339
| 58>    C       -1.17324       -14.67614        13.63552
| 59>    C       -2.22918       -14.69142        12.69975
| 60>    S       -1.90525       -13.55979        11.40437
| 61>    C       -3.37837       -15.45990        12.72367
| 62>    C       -3.76995       -16.40991        13.69152
| 63>    C       -4.96095       -17.01228        13.42105
| 64>    C       -5.58509       -16.57902        12.22414
| 65>    S       -4.58307       -15.35445        11.45956
| 66>    C       -6.77471       -17.04993        11.73133
| 67>    C       -7.44648       -16.67400        10.54896
| 68>    C       -7.11682       -15.71376         9.59277
| 69>    C       -8.11276       -15.72096         8.58128
| 70>    C       -8.25417       -14.97675         7.43426
| 71>    C       -9.37330       -15.23254         6.62012
| 72>    C       -9.78932       -14.66949         5.42685
| 73>    C      -11.00808       -15.30197         5.01004
| 74>    C      -11.33957       -16.25462         5.95150
| 75>    C      -10.34573       -16.25072         6.98262
| 76>    C      -10.21171       -16.99089         8.12325
| 77>    C       -9.08884       -16.73533         8.94407
| 78>    C       -8.67736       -17.29791        10.13203
| 79>    C      -11.76828       -15.00930         3.81945
| 80>    C      -11.45600       -14.09406         2.90569
| 81>    H      -11.15251        -0.31062        -4.55334
| 82>    H       -9.85924        -1.19233        -6.66182
| 83>    H       -4.29775        -3.86689        -5.14605
| 84>    H       -4.22957        -3.57494        -1.26149
| 85>    H       -2.35995        -2.63381        -4.34287
| 86>    H        0.46457        -4.76401        -1.53458
| 87>    H       -3.14788        -5.39234        -0.49097
| 88>    H       -0.41142        -5.17141         0.58819
| 89>    H       -2.92882        -6.68363         1.46536
| 90>    H       -2.79212        -8.11625         3.28945
| 91>    H        1.70677        -6.38980         4.45989
| 92>    H        0.56286        -5.58630         2.45330
| 93>    H       -2.67757       -10.51405         4.33427
| 94>    H       -2.17410       -11.28823         5.83869
| 95>    H       -0.29735       -10.44793         3.57623
| 96>    H       -0.82159       -12.09742         3.92618
| 97>    H        0.19969       -11.23174         5.07649
| 98>    H       -3.22167        -9.47535         7.13993
| 99>    H       -3.74047        -8.71181         5.63569
|100>    H       -2.03313        -7.37966         7.79332
|101>    H       -3.74868        -7.08319         7.50130
|102>    H       -2.55146        -6.61613         6.29001
|103>    H       -1.13148       -10.63071         8.12885
|104>    H        2.71335        -8.83452         8.75302
|105>    H        2.46616        -7.52363         6.68741
|106>    H        1.96233       -10.35283        10.32162
|107>    H       -0.74462       -11.71969         9.87953
|108>    H        1.38985       -11.93920        12.07860
|109>    H        0.71655       -13.66568        13.91851
|110>    H       -1.18134       -15.30268        14.50958
|111>    H       -3.16602       -16.62402        14.55508
|112>    H       -5.41602       -17.76209        14.04467
|113>    H       -7.25608       -17.81757        12.32594
|114>    H       -6.26288       -15.06471         9.60088
|115>    H       -7.53415       -14.21945         7.15835
|116>    H       -9.28423       -13.88488         4.89396
|117>    H      -12.19852       -16.90035         5.92657
|118>    H      -10.93014       -17.74973         8.40137
|119>    H       -9.17596       -18.08091        10.67611
|120>    H      -12.66328       -15.60636         3.69291
|121>    H      -10.57822       -13.47638         2.98773
|122>    H      -12.07336       -13.92908         2.03961
|123> *
|124>
|125>                          ****END OF INPUT****

CARTESIAN COORDINATES (ANGSTROEM)
---------------------------------
  C    -10.197070   -0.794900   -4.572060
  S     -9.371350   -1.046780   -3.063420
  C     -8.073820   -1.790790   -3.884920
  C     -8.281020   -1.836950   -5.270240
  C     -9.507880   -1.259620   -5.648550
  C     -7.146320   -2.476770   -5.916260
  S     -6.933550   -2.756750   -7.511570
  C     -6.242470   -2.808970   -4.820250
  C     -6.808470   -2.391110   -3.622620
  O     -6.004660   -2.678940   -2.581270
  C     -4.913140   -3.291480   -3.121850
  C     -5.005230   -3.404050   -4.491780
  N     -3.973660   -3.741260   -2.226730
  C     -2.602230   -3.768690   -2.484820
  C     -1.949070   -3.206430   -3.537920
  S     -0.252910   -3.469970   -3.461350
  C     -0.410470   -4.352170   -1.992400
  C     -1.709030   -4.446460   -1.585220
  N     -2.184080   -5.090500   -0.461310
  C     -1.425120   -5.537890    0.585890
  C     -1.906330   -6.334790    1.553480
  C     -1.192870   -6.795230    2.722030
  C     -1.810410   -7.745740    3.550480
  C     -1.168650   -8.196890    4.676380
  C      0.105320   -7.710550    5.016590
  C      0.728630   -6.771690    4.206530
  C      0.079550   -6.325230    3.073800
  C      0.526210   -8.340590    6.246630
  C     -0.485690   -9.223580    6.667980
  C     -1.644260   -9.204230    5.697190
  C     -1.864110  -10.588540    5.059460
  C     -0.617120  -11.123940    4.366290
  C     -2.943060   -8.740390    6.381690
  C     -2.809840   -7.368670    7.031890
  C     -0.348150   -9.957470    7.816880
  C      0.819310   -9.826650    8.592500
  C      1.817080   -8.936880    8.157060
  C      1.684030   -8.199640    7.000270
  C      1.031440  -10.559310    9.806250
  C      0.192540  -11.475070   10.361110
  C      0.464960  -12.156110   11.559780
  C     -0.370680  -13.087830   12.123450
  C     -0.168200  -13.809940   13.323390
  C     -1.173240  -14.676140   13.635520
  C     -2.229180  -14.691420   12.699750
  S     -1.905250  -13.559790   11.404370
  C     -3.378370  -15.459900   12.723670
  C     -3.769950  -16.409910   13.691520
  C     -4.960950  -17.012280   13.421050
  C     -5.585090  -16.579020   12.224140
  S     -4.583070  -15.354450   11.459560
  C     -6.774710  -17.049930   11.731330
  C     -7.446480  -16.674000   10.548960
  C     -7.116820  -15.713760    9.592770
  C     -8.112760  -15.720960    8.581280
  C     -8.254170  -14.976750    7.434260
  C     -9.373300  -15.232540    6.620120
  C     -9.789320  -14.669490    5.426850
  C    -11.008080  -15.301970    5.010040
  C    -11.339570  -16.254620    5.951500
  C    -10.345730  -16.250720    6.982620
  C    -10.211710  -16.990890    8.123250
  C     -9.088840  -16.735330    8.944070
  C     -8.677360  -17.297910   10.132030
  C    -11.768280  -15.009300    3.819450
  C    -11.456000  -14.094060    2.905690
  H    -11.152510   -0.310620   -4.553340
  H     -9.859240   -1.192330   -6.661820
  H     -4.297750   -3.866890   -5.146050
  H     -4.229570   -3.574940   -1.261490
  H     -2.359950   -2.633810   -4.342870
  H      0.464570   -4.764010   -1.534580
  H     -3.147880   -5.392340   -0.490970
  H     -0.411420   -5.171410    0.588190
  H     -2.928820   -6.683630    1.465360
  H     -2.792120   -8.116250    3.289450
  H      1.706770   -6.389800    4.459890
  H      0.562860   -5.586300    2.453300
  H     -2.677570  -10.514050    4.334270
  H     -2.174100  -11.288230    5.838690
  H     -0.297350  -10.447930    3.576230
  H     -0.821590  -12.097420    3.926180
  H      0.199690  -11.231740    5.076490
  H     -3.221670   -9.475350    7.139930
  H     -3.740470   -8.711810    5.635690
  H     -2.033130   -7.379660    7.793320
  H     -3.748680   -7.083190    7.501300
  H     -2.551460   -6.616130    6.290010
  H     -1.131480  -10.630710    8.128850
  H      2.713350   -8.834520    8.753020
  H      2.466160   -7.523630    6.687410
  H      1.962330  -10.352830   10.321620
  H     -0.744620  -11.719690    9.879530
  H      1.389850  -11.939200   12.078600
  H      0.716550  -13.665680   13.918510
  H     -1.181340  -15.302680   14.509580
  H     -3.166020  -16.624020   14.555080
  H     -5.416020  -17.762090   14.044670
  H     -7.256080  -17.817570   12.325940
  H     -6.262880  -15.064710    9.600880
  H     -7.534150  -14.219450    7.158350
  H     -9.284230  -13.884880    4.893960
  H    -12.198520  -16.900350    5.926570
  H    -10.930140  -17.749730    8.401370
  H     -9.175960  -18.080910   10.676110
  H    -12.663280  -15.606360    3.692910
  H    -10.578220  -13.476380    2.987730
  H    -12.073360  -13.929080    2.039610

 Total Charge           Charge          ....    0
 Multiplicity           Mult            ....    1
 Number of Electrons    NEL             ....  492
 Basis Dimension        Dim             .... 1154

ORBITAL ENERGIES
----------------

  NO   OCC          E(Eh)            E(eV)
   0   2.0000     -88.968491     -2420.9557
   1   2.0000     -88.947838     -2420.3937
   2   2.0000     -88.935500     -2420.0580
   3   2.0000     -88.933763     -2420.0107
   4   2.0000     -88.903814     -2419.1958
   5   2.0000     -19.309063      -525.4263
   6   2.0000     -14.454980      -393.3400
   7   2.0000     -14.446315      -393.1042
   8   2.0000     -10.372308      -282.2448
   9   2.0000     -10.333575      -281.1909
  10   2.0000     -10.332881      -281.1720
  11   2.0000     -10.318011      -280.7673
  12   2.0000     -10.316603      -280.7290
  13   2.0000     -10.311348      -280.5860
  14   2.0000     -10.310061      -280.5510
  15   2.0000     -10.300301      -280.2854
  16   2.0000     -10.298716      -280.2423
  17   2.0000     -10.295626      -280.1582
  18   2.0000     -10.293530      -280.1012
  19   2.0000     -10.290938      -280.0307
  20   2.0000     -10.290348      -280.0146
  21   2.0000     -10.288329      -279.9597
  22   2.0000     -10.285748      -279.8894
  23   2.0000     -10.282865      -279.8110
  24   2.0000     -10.278435      -279.6904
  25   2.0000     -10.277858      -279.6747
  26   2.0000     -10.276581      -279.6400
  27   2.0000     -10.275692      -279.6158
  28   2.0000     -10.275691      -279.6158
  29   2.0000     -10.275111      -279.6000
  30   2.0000     -10.273873      -279.5663
  31   2.0000     -10.271916      -279.5130
  32   2.0000     -10.270774      -279.4820
  33   2.0000     -10.270235      -279.4673
  34   2.0000     -10.270182      -279.4659
  35   2.0000     -10.269184      -279.4387
  36   2.0000     -10.269003      -279.4338
  37   2.0000     -10.268103      -279.4093
  38   2.0000     -10.267493      -279.3927
  39   2.0000     -10.265757      -279.3455
  40   2.0000     -10.264598      -279.3139
  41   2.0000     -10.264386      -279.3081
  42   2.0000     -10.263890      -279.2946
  43   2.0000     -10.262714      -279.2626
  44   2.0000     -10.262118      -279.2464
  45   2.0000     -10.261407      -279.2271
  46   2.0000     -10.260911      -279.2136
  47   2.0000     -10.260414      -279.2001
  48   2.0000     -10.260204      -279.1944
  49   2.0000     -10.259573      -279.1772
  50   2.0000     -10.259245      -279.1682
  51   2.0000     -10.258561      -279.1496
  52   2.0000     -10.258294      -279.1424
  53   2.0000     -10.258278      -279.1419
  54   2.0000     -10.257627      -279.1242
  55   2.0000     -10.257520      -279.1213
  56   2.0000     -10.257471      -279.1200
  57   2.0000     -10.257360      -279.1169
  58   2.0000     -10.256732      -279.0999
  59   2.0000     -10.256509      -279.0938
  60   2.0000     -10.256359      -279.0897
  61   2.0000     -10.255057      -279.0543
  62   2.0000     -10.254834      -279.0482
  63   2.0000     -10.252852      -278.9943
  64   2.0000     -10.238325      -278.5990
  65   2.0000     -10.237869      -278.5866
  66   2.0000      -8.063227      -219.4116
  67   2.0000      -8.043713      -218.8805
  68   2.0000      -8.031198      -218.5400
  69   2.0000      -8.029987      -218.5071
  70   2.0000      -7.999515      -217.6779
  71   2.0000      -6.032509      -164.1529
  72   2.0000      -6.028085      -164.0325
  73   2.0000      -6.025832      -163.9712
  74   2.0000      -6.013259      -163.6291
  75   2.0000      -6.008930      -163.5113
  76   2.0000      -6.005531      -163.4188
  77   2.0000      -6.000935      -163.2937
  78   2.0000      -5.999721      -163.2607
  79   2.0000      -5.996879      -163.1834
  80   2.0000      -5.995777      -163.1534
  81   2.0000      -5.992248      -163.0574
  82   2.0000      -5.990853      -163.0194
  83   2.0000      -5.969162      -162.4291
  84   2.0000      -5.967721      -162.3899
  85   2.0000      -5.958322      -162.1342
  86   2.0000      -1.224595       -33.3229
  87   2.0000      -1.064846       -28.9759
  88   2.0000      -1.036306       -28.1993
  89   2.0000      -1.002197       -27.2712
  90   2.0000      -0.984498       -26.7896
  91   2.0000      -0.978318       -26.6214
  92   2.0000      -0.976884       -26.5824
  93   2.0000      -0.963773       -26.2256
  94   2.0000      -0.962679       -26.1958
  95   2.0000      -0.951433       -25.8898
  96   2.0000      -0.939912       -25.5763
  97   2.0000      -0.935585       -25.4586
  98   2.0000      -0.911782       -24.8108
  99   2.0000      -0.895260       -24.3613
 100   2.0000      -0.889261       -24.1980
 101   2.0000      -0.878196       -23.8969
 102   2.0000      -0.874283       -23.7904
 103   2.0000      -0.866412       -23.5763
 104   2.0000      -0.863636       -23.5007
 105   2.0000      -0.855021       -23.2663
 106   2.0000      -0.852702       -23.2032
 107   2.0000      -0.842916       -22.9369
 108   2.0000      -0.832390       -22.6505
 109   2.0000      -0.829831       -22.5809
 110   2.0000      -0.828860       -22.5544
 111   2.0000      -0.823018       -22.3955
 112   2.0000      -0.822318       -22.3764
 113   2.0000      -0.821515       -22.3546
 114   2.0000      -0.818303       -22.2672
 115   2.0000      -0.810969       -22.0676
 116   2.0000      -0.804748       -21.8983
 117   2.0000      -0.789866       -21.4934
 118   2.0000      -0.786574       -21.4038
 119   2.0000      -0.775258       -21.0958
 120   2.0000      -0.769981       -20.9523
 121   2.0000      -0.752750       -20.4834
 122   2.0000      -0.750381       -20.4189
 123   2.0000      -0.739314       -20.1177
 124   2.0000      -0.734054       -19.9746
 125   2.0000      -0.728855       -19.8332
 126   2.0000      -0.715861       -19.4796
 127   2.0000      -0.713328       -19.4106
 128   2.0000      -0.701206       -19.0808
 129   2.0000      -0.693249       -18.8643
 130   2.0000      -0.678843       -18.4723
 131   2.0000      -0.671513       -18.2728
 132   2.0000      -0.669961       -18.2306
 133   2.0000      -0.665961       -18.1217
 134   2.0000      -0.662890       -18.0382
 135   2.0000      -0.661380       -17.9971
 136   2.0000      -0.660943       -17.9852
 137   2.0000      -0.649582       -17.6760
 138   2.0000      -0.646034       -17.5795
 139   2.0000      -0.643502       -17.5106
 140   2.0000      -0.639046       -17.3893
 141   2.0000      -0.633583       -17.2407
 142   2.0000      -0.630793       -17.1647
 143   2.0000      -0.627609       -17.0781
 144   2.0000      -0.620693       -16.8899
 145   2.0000      -0.617875       -16.8132
 146   2.0000      -0.615831       -16.7576
 147   2.0000      -0.610413       -16.6102
 148   2.0000      -0.602791       -16.4028
 149   2.0000      -0.601793       -16.3756
 150   2.0000      -0.597340       -16.2544
 151   2.0000      -0.591261       -16.0890
 152   2.0000      -0.584605       -15.9079
 153   2.0000      -0.578072       -15.7301
 154   2.0000      -0.572240       -15.5714
 155   2.0000      -0.569735       -15.5033
 156   2.0000      -0.565743       -15.3946
 157   2.0000      -0.559574       -15.2268
 158   2.0000      -0.550977       -14.9929
 159   2.0000      -0.550418       -14.9776
 160   2.0000      -0.543778       -14.7969
 161   2.0000      -0.538194       -14.6450
 162   2.0000      -0.533998       -14.5308
 163   2.0000      -0.533185       -14.5087
 164   2.0000      -0.526657       -14.3311
 165   2.0000      -0.525828       -14.3085
 166   2.0000      -0.522423       -14.2159
 167   2.0000      -0.519893       -14.1470
 168   2.0000      -0.512348       -13.9417
 169   2.0000      -0.509075       -13.8526
 170   2.0000      -0.508330       -13.8324
 171   2.0000      -0.507232       -13.8025
 172   2.0000      -0.504455       -13.7269
 173   2.0000      -0.501413       -13.6442
 174   2.0000      -0.498838       -13.5741
 175   2.0000      -0.497546       -13.5389
 176   2.0000      -0.496125       -13.5002
 177   2.0000      -0.490806       -13.3555
 178   2.0000      -0.490004       -13.3337
 179   2.0000      -0.488861       -13.3026
 180   2.0000      -0.487200       -13.2574
 181   2.0000      -0.484227       -13.1765
 182   2.0000      -0.483490       -13.1564
 183   2.0000      -0.480789       -13.0829
 184   2.0000      -0.480707       -13.0807
 185   2.0000      -0.477027       -12.9806
 186   2.0000      -0.475896       -12.9498
 187   2.0000      -0.471106       -12.8194
 188   2.0000      -0.469100       -12.7649
 189   2.0000      -0.463526       -12.6132
 190   2.0000      -0.462405       -12.5827
 191   2.0000      -0.460365       -12.5272
 192   2.0000      -0.459359       -12.4998
 193   2.0000      -0.457629       -12.4527
 194   2.0000      -0.455208       -12.3868
 195   2.0000      -0.451265       -12.2796
 196   2.0000      -0.450588       -12.2611
 197   2.0000      -0.448927       -12.2159
 198   2.0000      -0.446761       -12.1570
 199   2.0000      -0.444708       -12.1011
 200   2.0000      -0.443039       -12.0557
 201   2.0000      -0.440653       -11.9908
 202   2.0000      -0.437521       -11.9056
 203   2.0000      -0.433950       -11.8084
 204   2.0000      -0.431645       -11.7457
 205   2.0000      -0.429071       -11.6756
 206   2.0000      -0.426656       -11.6099
 207   2.0000      -0.423738       -11.5305
 208   2.0000      -0.421698       -11.4750
 209   2.0000      -0.419705       -11.4208
 210   2.0000      -0.419290       -11.4095
 211   2.0000      -0.416515       -11.3340
 212   2.0000      -0.416495       -11.3334
 213   2.0000      -0.414381       -11.2759
 214   2.0000      -0.411637       -11.2012
 215   2.0000      -0.409549       -11.1444
 216   2.0000      -0.408425       -11.1138
 217   2.0000      -0.404345       -11.0028
 218   2.0000      -0.398489       -10.8434
 219   2.0000      -0.396800       -10.7975
 220   2.0000      -0.389307       -10.5936
 221   2.0000      -0.384271       -10.4566
 222   2.0000      -0.382115       -10.3979
 223   2.0000      -0.377051       -10.2601
 224   2.0000      -0.372539       -10.1373
 225   2.0000      -0.370305       -10.0765
 226   2.0000      -0.358701        -9.7607
 227   2.0000      -0.353889        -9.6298
 228   2.0000      -0.348159        -9.4739
 229   2.0000      -0.342365        -9.3162
 230   2.0000      -0.333196        -9.0667
 231   2.0000      -0.328068        -8.9272
 232   2.0000      -0.313744        -8.5374
 233   2.0000      -0.311743        -8.4829
 234   2.0000      -0.310510        -8.4494
 235   2.0000      -0.310236        -8.4419
 236   2.0000      -0.304925        -8.2974
 237   2.0000      -0.294044        -8.0013
 238   2.0000      -0.290948        -7.9171
 239   2.0000      -0.287254        -7.8166
 240   2.0000      -0.270055        -7.3486
 241   2.0000      -0.261309        -7.1106
 242   2.0000      -0.244309        -6.6480
 243   2.0000      -0.235439        -6.4066
 244   2.0000      -0.226812        -6.1719
 245   2.0000      -0.192591        -5.2407
 246   0.0000      -0.089718        -2.4414
 247   0.0000      -0.078366        -2.1324
 248   0.0000      -0.063812        -1.7364
 249   0.0000      -0.019456        -0.5294
 250   0.0000       0.002167         0.0590

MULLIKEN ATOMIC CHARGES
-----------------------
   0 C :   -0.095683
   1 S :    0.173202
   2 C :   -0.093908
   3 C :    0.006981
   4 C :    0.049242
   5 C :   -0.001165
   6 S :   -0.097485
   7 C :    0.045900
   8 C :    0.067746
   9 O :   -0.195577
  10 C :    0.192618
  11 C :   -0.147811
  12 N :   -0.069179
  13 C :    0.134332
  14 C :   -0.196584
  15 S :    0.111515
  16 C :   -0.216281
  17 C :    0.128705
  18 N :   -0.065747
  19 C :    0.076101
  20 C :   -0.033617
  21 C :    0.132400
  22 C :   -0.119806
  23 C :    0.021053
  24 C :    0.100389
  25 C :   -0.040984
  26 C :   -0.029793
  27 C :    0.111816
  28 C :    0.007928
  29 C :   -0.139981
  30 C :    0.070190
  31 C :    0.025610
  32 C :    0.066064
  33 C :    0.027652
  34 C :   -0.087504
  35 C :    0.127792
  36 C :   -0.017817
  37 C :   -0.051348
  38 C :   -0.016661
  39 C :    0.015172
  40 C :   -0.007616
  41 C :   -0.023596
  42 C :    0.038409
  43 C :    0.021212
  44 C :   -0.041136
  45 S :    0.056844
  46 C :   -0.038063
  47 C :    0.025471
  48 C :    0.030171
  49 C :   -0.016548
  50 S :    0.053072
  51 C :   -0.020976
  52 C :    0.064851
  53 C :   -0.048981
  54 C :    0.056302
  55 C :   -0.008766
  56 C :    0.056794
  57 C :   -0.033066
  58 C :    0.068140
  59 C :   -0.034953
  60 C :    0.061576
  61 C :   -0.009814
  62 C :    0.065927
  63 C :   -0.042791
  64 C :    0.010482
  65 C :   -0.026641
  66 H :    0.025350
  67 H :   -0.007848
  68 H :   -0.011158
  69 H :    0.137536
  70 H :    0.020880
  71 H :    0.012771
  72 H :    0.113220
  73 H :    0.004728
  74 H :   -0.042451
  75 H :   -0.050638
  76 H :   -0.042020
  77 H :   -0.043761
  78 H :   -0.005273
  79 H :   -0.003698
  80 H :    0.021955
  81 H :    0.005556
  82 H :    0.022807
  83 H :   -0.003062
  84 H :   -0.005897
  85 H :    0.023329
  86 H :    0.005261
  87 H :    0.020148
  88 H :   -0.047949
  89 H :   -0.033364
  90 H :   -0.040240
  91 H :   -0.030983
  92 H :   -0.000671
  93 H :   -0.022135
  94 H :   -0.016781
  95 H :   -0.016681
  96 H :   -0.019544
  97 H :   -0.017274
  98 H :   -0.029331
  99 H :   -0.015179
 100 H :   -0.028380
 101 H :   -0.027426
 102 H :   -0.031075
 103 H :   -0.029085
 104 H :   -0.026628
 105 H :   -0.021426
 106 H :    0.006446
 107 H :    0.018195
Sum of atomic charges:   -0.0000000

LOEWDIN ATOMIC CHARGES
----------------------
   0 C :   -0.195818
   1 S :    0.461805
   2 C :   -0.184726
   3 C :   -0.103163
   4 C :   -0.028610
   5 C :   -0.121685
   6 S :    0.095978
   7 C :   -0.082422
   8 C :    0.005151
   9 O :    0.005769
  10 C :    0.076318
  11 C :   -0.089719
  12 N :   -0.011085
  13 C :   -0.033172
  14 C :   -0.222007
  15 S :    0.432052
  16 C :   -0.238456
  17 C :   -0.027010
  18 N :    0.015303
  19 C :    0.039451
  20 C :   -0.095570
  21 C :   -0.012466
  22 C :   -0.033994
  23 C :    0.005587
  24 C :   -0.030042
  25 C :   -0.015714
  26 C :   -0.031002
  27 C :   -0.014787
  28 C :    0.002605
  29 C :   -0.035385
  30 C :   -0.011908
  31 C :   -0.057817
  32 C :   -0.012311
  33 C :   -0.057869
  34 C :   -0.017143
  35 C :   -0.029206
  36 C :   -0.018202
  37 C :   -0.024539
  38 C :   -0.014152
  39 C :   -0.035809
  40 C :   -0.052894
  41 C :   -0.148555
  42 C :   -0.035669
  43 C :   -0.035463
  44 C :   -0.178781
  45 S :    0.360660
  46 C :   -0.181881
  47 C :   -0.042999
  48 C :   -0.033256
  49 C :   -0.149581
  50 S :    0.380771
  51 C :   -0.054483
  52 C :   -0.062959
  53 C :   -0.015109
  54 C :   -0.049958
  55 C :    0.059407
  56 C :   -0.057765
  57 C :    0.036711
  58 C :   -0.056807
  59 C :    0.004701
  60 C :   -0.055288
  61 C :    0.063280
  62 C :   -0.062927
  63 C :    0.039226
  64 C :   -0.020157
  65 C :   -0.057532
  66 H :    0.022038
  67 H :    0.037161
  68 H :    0.034863
  69 H :    0.085211
  70 H :    0.023630
  71 H :    0.019811
  72 H :    0.078025
  73 H :    0.026240
  74 H :    0.019952
  75 H :    0.020145
  76 H :    0.024893
  77 H :    0.020219
  78 H :    0.018517
  79 H :    0.019221
  80 H :    0.025714
  81 H :    0.022688
  82 H :    0.025990
  83 H :    0.019426
  84 H :    0.018199
  85 H :    0.026200
  86 H :    0.022417
  87 H :    0.025237
  88 H :    0.022590
  89 H :    0.024198
  90 H :    0.025099
  91 H :    0.025357
  92 H :    0.018695
  93 H :    0.030798
  94 H :    0.031913
  95 H :    0.030558
  96 H :    0.029502
  97 H :    0.031275
  98 H :    0.031181
  99 H :    0.011137
 100 H :    0.033341
 101 H :    0.023351
 102 H :    0.022440
 103 H :    0.033128
 104 H :    0.023684
 105 H :    0.028561
 106 H :    0.017086
 107 H :    0.023381

  Mayer bond orders larger than 0.100000
B(  0-C ,  1-S ) :   1.1284 B(  0-C ,  4-C ) :   1.5515 B(  0-C , 66-H ) :   0.9671
B(  1-S ,  2-C ) :   1.1187 B(  2-C ,  3-C ) :   1.4537 B(  2-C ,  8-C ) :   1.1537
B(  3-C ,  4-C ) :   1.2836 B(  3-C ,  5-C ) :   1.0300 B(  4-C , 67-H ) :   0.9990
B(  5-C ,  6-S ) :   1.7521 B(  5-C ,  7-C ) :   1.0125 B(  7-C ,  8-C ) :   1.5114
B(  7-C , 11-C ) :   1.1722 B(  8-C ,  9-O ) :   1.1488 B(  9-O , 10-C ) :   1.1222
B( 10-C , 11-C ) :   1.4977 B( 10-C , 12-N ) :   1.1237 B( 11-C , 68-H ) :   1.0291
B( 12-N , 13-C ) :   1.0625 B( 12-N , 69-H ) :   0.8974 B( 13-C , 14-C ) :   1.5346
B( 13-C , 17-C ) :   1.2560 B( 14-C , 15-S ) :   1.1499 B( 14-C , 70-H ) :   0.9752
B( 15-S , 16-C ) :   1.1349 B( 16-C , 17-C ) :   1.5228 B( 16-C , 71-H ) :   0.9768
B( 17-C , 18-N ) :   1.1196 B( 18-N , 19-C ) :   1.1440 B( 18-N , 72-H ) :   0.9163
B( 19-C , 20-C ) :   1.6773 B( 19-C , 73-H ) :   0.9617 B( 20-C , 21-C ) :   1.0943
B( 20-C , 74-H ) :   0.9732 B( 21-C , 22-C ) :   1.2922 B( 21-C , 26-C ) :   1.3442
B( 22-C , 23-C ) :   1.3816 B( 22-C , 75-H ) :   1.0109 B( 23-C , 24-C ) :   1.3697
B( 23-C , 29-C ) :   0.9147 B( 24-C , 25-C ) :   1.3291 B( 24-C , 27-C ) :   0.9996
B( 25-C , 26-C ) :   1.4034 B( 25-C , 76-H ) :   0.9882 B( 26-C , 77-H ) :   0.9814
B( 27-C , 28-C ) :   1.3489 B( 27-C , 37-C ) :   1.3396 B( 28-C , 29-C ) :   0.9173
B( 28-C , 34-C ) :   1.4242 B( 29-C , 30-C ) :   1.0381 B( 29-C , 32-C ) :   1.0373
B( 30-C , 31-C ) :   1.1019 B( 30-C , 78-H ) :   0.9386 B( 30-C , 79-H ) :   0.9387
B( 31-C , 80-H ) :   0.9645 B( 31-C , 81-H ) :   0.9636 B( 31-C , 82-H ) :   0.9641
B( 32-C , 33-C ) :   1.1031 B( 32-C , 83-H ) :   0.9391 B( 32-C , 84-H ) :   0.9387
B( 33-C , 85-H ) :   0.9641 B( 33-C , 86-H ) :   0.9637 B( 33-C , 87-H ) :   0.9636
B( 34-C , 35-C ) :   1.2835 B( 34-C , 88-H ) :   0.9986 B( 35-C , 36-C ) :   1.3299
B( 35-C , 38-C ) :   1.0739 B( 36-C , 37-C ) :   1.3760 B( 36-C , 89-H ) :   0.9923
B( 37-C , 90-H ) :   0.9906 B( 38-C , 39-C ) :   1.6413 B( 38-C , 91-H ) :   0.9891
B( 39-C , 40-C ) :   1.1523 B( 39-C , 92-H ) :   0.9626 B( 40-C , 41-C ) :   1.5584
B( 40-C , 93-H ) :   0.9853 B( 41-C , 42-C ) :   1.1435 B( 41-C , 45-S ) :   1.0276
B( 42-C , 43-C ) :   1.5838 B( 42-C , 94-H ) :   0.9989 B( 43-C , 44-C ) :   1.1948
B( 43-C , 95-H ) :   0.9937 B( 44-C , 45-S ) :   1.0432 B( 44-C , 46-C ) :   1.5005
B( 46-C , 47-C ) :   1.1921 B( 46-C , 50-S ) :   1.0394 B( 47-C , 48-C ) :   1.5828
B( 47-C , 96-H ) :   0.9930 B( 48-C , 49-C ) :   1.1460 B( 48-C , 97-H ) :   0.9991
B( 49-C , 50-S ) :   1.0318 B( 49-C , 51-C ) :   1.5698 B( 51-C , 52-C ) :   1.1367
B( 51-C , 98-H ) :   0.9683 B( 52-C , 53-C ) :   1.4576 B( 52-C , 63-C ) :   1.1099
B( 53-C , 54-C ) :   1.1250 B( 53-C , 99-H ) :   0.9956 B( 54-C , 55-C ) :   1.4541
B( 54-C , 62-C ) :   1.1230 B( 55-C , 56-C ) :   1.1219 B( 55-C ,100-H ) :   1.0044
B( 56-C , 57-C ) :   1.4538 B( 56-C , 60-C ) :   1.1218 B( 57-C , 58-C ) :   1.1322
B( 57-C ,101-H ) :   1.0081 B( 58-C , 59-C ) :   1.5199 B( 58-C , 64-C ) :   1.0860
B( 59-C , 60-C ) :   1.0777 B( 59-C ,102-H ) :   1.0170 B( 60-C , 61-C ) :   1.4843
B( 61-C , 62-C ) :   1.1083 B( 61-C ,103-H ) :   1.0055 B( 62-C , 63-C ) :   1.4544
B( 63-C ,104-H ) :   1.0160 B( 64-C , 65-C ) :   1.9313 B( 64-C ,105-H ) :   0.9664
B( 65-C ,106-H ) :   0.9524 B( 65-C ,107-H ) :   0.9493

-----------------------------------------------------------------------------
         ABSORPTION SPECTRUM VIA TRANSITION ELECTRIC DIPOLE MOMENTS
-----------------------------------------------------------------------------
State   Energy  Wavelength   fosc         T2         TX        TY        TZ
        (cm-1)    (nm)                  (au**2)     (au)      (au)      (au)
-----------------------------------------------------------------------------
   0    6939.4   1441.1   0.058762035   2.78774  -1.46328  -0.62600  -0.50466
   1   12479.2    801.3   0.028883840   0.76198  -0.71075   0.46245  -0.20726
   2   14039.2    712.3   0.955234949  22.39977   3.82973   2.76338  -0.31094
   3   15128.2    661.0   0.264276852   5.75104  -1.79832  -1.52417   0.44046
   4   18292.8    546.7   0.000009131   0.00016   0.00093   0.01180  -0.00491
   5   19147.2    522.3   0.000368003   0.00633  -0.05812   0.01867  -0.05100
   6   21649.7    461.9   0.220655792   3.35537   0.48245  -0.80528   1.57294
   7   22577.1    442.9   0.045724323   0.66674  -0.63056  -0.11966  -0.50479
   8   22642.5    441.6   0.006224375   0.09050   0.24825  -0.06937   0.15512
   9   23532.4    424.9   0.029529603   0.41311   0.54197   0.13533   0.31791
  10   24871.6    402.1   2.204759546  29.18326  -1.98141   1.91072  -4.64827
  11   25430.0    393.2   0.234503417   3.03583  -0.56948   0.67976  -1.49981
  12   27113.7    368.8   0.390663990   4.74340  -0.26015   1.13810  -1.83860
  13   27556.3    362.9   0.003213407   0.03839  -0.17932  -0.02186  -0.07586
  14   28677.6    348.7   0.024396539   0.28007  -0.49115   0.19587   0.02162
  15   28832.5    346.8   0.001740049   0.01987  -0.00099   0.02611  -0.13851
  16   29403.1    340.1   0.008650999   0.09686   0.28676  -0.10392  -0.06189
  17   29811.7    335.4   0.083100783   0.91769   0.38519  -0.33224   0.81174
  18   31023.6    322.3   0.006339487   0.06727  -0.18320   0.03115  -0.18094
  19   31458.9    317.9   0.015830021   0.16566   0.27126   0.29403  -0.07499
  20   32074.5    311.8   0.006695177   0.06872  -0.04120  -0.16527   0.19927
  21   32953.0    303.5   0.554706993   5.54172   0.22284  -1.15173   2.04098
  22   33087.9    302.2   0.006307990   0.06276  -0.13670   0.08276  -0.19294
  23   33119.0    301.9   0.008243488   0.08194  -0.06247   0.15540  -0.23214
  24   33443.4    299.0   0.000724000   0.00713   0.07886  -0.02453   0.01752
  25   33674.1    297.0   0.018593189   0.18177  -0.04554   0.17094  -0.38792
  26   34358.4    291.0   0.000263447   0.00252   0.04595  -0.01289   0.01572
  27   34611.3    288.9   0.014124131   0.13434   0.21939  -0.06486   0.28636
  28   35387.7    282.6   0.078328185   0.72869  -0.23249   0.81111   0.12937
  29   35410.1    282.4   0.211346709   1.96491   0.56018   0.13383  -1.27797
  30   35811.9    279.2   0.170883000   1.57090   0.48670   0.31772  -1.11044
  31   35922.2    278.4   0.088462094   0.81072   0.17845  -0.14736   0.87015
  32   36606.9    273.2   0.028535999   0.25663   0.48708  -0.13304  -0.04096
  33   36820.5    271.6   0.661711851   5.91637   1.86437  -0.84252   1.31555
  34   37394.3    267.4   0.007002405   0.06165  -0.04598  -0.17079  -0.17425
  35   37496.0    266.7   0.038599340   0.33890  -0.48335   0.28228   0.15997
  36   37646.6    265.6   0.046688839   0.40828  -0.43970   0.20274  -0.41695
  37   37722.0    265.1   0.000445662   0.00389  -0.05324   0.02443  -0.02141
  38   37838.9    264.3   0.063525255   0.55269   0.36149  -0.42535   0.49101
  39   38197.6    261.8   0.152261513   1.31229   1.08121  -0.14814  -0.34831
  40   38331.8    260.9   0.189085723   1.62396   1.26256   0.15936  -0.06713
  41   38454.9    260.0   0.002255258   0.01931   0.06659  -0.00115  -0.12195
  42   38591.2    259.1   0.001492991   0.01274   0.05675  -0.08871   0.04056
  43   38684.6    258.5   0.012053351   0.10258  -0.17844   0.19079  -0.18529
  44   39184.3    255.2   0.191797154   1.61141  -0.84761   0.54524  -0.77181
  45   39603.6    252.5   0.111690991   0.92845   0.28462   0.23162  -0.89095
  46   39905.4    250.6   0.014987149   0.12364  -0.28061   0.21110   0.01834
  47   40215.1    248.7   0.077765762   0.63661   0.23286  -0.54405   0.53516

FINAL SINGLE POINT ENERGY     -4407.257443644602

DIPOLE MOMENT
-------------
                                X             Y             Z
Electronic contribution:    -18.88803      35.37735     -45.07377
Nuclear contribution   :     18.70117     -35.35490      46.21817
                        -----------------------------------------
Total Dipole Moment    :     -0.18686       0.02245       1.14440
                        -----------------------------------------
Magnitude (a.u.)       :      1.15977
Magnitude (Debye)      :      2.94790

Rotational constants in cm-1:     0.000941     0.000264     0.000213
Rotational constants in MHz :    28.212020     7.912015     6.391243

                             ****ORCA TERMINATED NORMALLY****
TOTAL RUN TIME: 0 days 0 hours 10 minutes 33 seconds 955 msec
