                         Program Version 4.2.0 -  RELEASE  -
|  1> # ORCA input file
|  2> # SCF done       -152.378695812588          0.000555582732
|  3> ! CAM-B3LYP def2-SVP def2/J RIJCOSX Grid4 TightSCF
|  4> %maxcore 5000
|  5> %tddft
|  6>     Mode sTDDFT
|  7>     Ethresh 5.0
|  8>     maxcore 5000
|  9> end
| 10>
| 11> %pal
| 12>   nprocs 6
| 13>   end
| 14> * xyz 0 1
| 15>    C       -5.48345         6.90018         6.72503
| 16>    C       -5.14242         7.83647         5.79239
| 17>    C       -5.88064         8.92641         5.25366
| 18>    C       -5.32856         9.68070         4.27331
| 19>    C       -4.03085         9.39092         3.75610
| 20>    C       -3.27478         8.37657         4.24709
| 21>    C       -3.78159         7.57957         5.30739
| 22>    C       -3.29638         6.48278         5.98440
| 23>    C       -4.36670         5.99483         6.88616
| 24>    C       -4.30886         4.93474         7.70125
| 25>    N       -2.08479         5.84319         5.95699
| 26>    C       -0.83874         6.31797         5.75623
| 27>    S       -0.47241         8.00407         5.60210
| 28>    C        1.22556         7.61681         5.55798
| 29>    N        2.11588         8.67274         5.40118
| 30>    O        3.30888         8.41667         5.35909
| 31>    O        1.63081         9.79326         5.31676
| 32>    C        1.48386         6.27531         5.66914
| 33>    C        0.31627         5.50500         5.78184
| 34>    C        0.24956         4.08096         5.92333
| 35>    C        1.29122         3.26497         6.19046
| 36>    C        1.19125         1.86254         6.39918
| 37>    S        2.66540         0.92915         6.37243
| 38>    C        1.80968        -0.54547         6.65960
| 39>    C        0.44779        -0.30900         6.79507
| 40>    C        0.09586         1.04911         6.65733
| 41>    S       -1.53454         1.69361         6.87263
| 42>    C       -2.38580         0.33621         7.76080
| 43>    C       -2.69821        -0.68931         6.70623
| 44>    O       -3.76603        -0.77765         6.16214
| 45>    C       -1.51545        -1.56235         6.31246
| 46>    O       -0.36423        -1.36845         7.10221
| 47>    C        2.41289        -1.82473         6.72682
| 48>    S        1.40603        -3.22842         6.96452
| 49>    C        2.77640        -4.28379         6.86436
| 50>    C        3.94846        -3.57094         6.66956
| 51>    C        3.74492        -2.17740         6.57537
| 52>    S        4.98696        -0.96192         6.29631
| 53>    C        6.34649        -1.97726         5.59946
| 54>    C        6.99717        -2.65484         6.77404
| 55>    O        8.01990        -2.27651         7.27830
| 56>    C        6.21118        -3.83093         7.33925
| 57>    O        5.12778        -4.25403         6.54139
| 58>    C        2.69459        -5.69645         6.97974
| 59>    S        4.14983        -6.65127         6.92986
| 60>    C        3.25414        -8.09242         7.16064
| 61>    C        1.91093        -7.87594         7.25424
| 62>    C        1.57751        -6.49515         7.13955
| 63>    S       -0.04338        -5.81138         7.16282
| 64>    C       -1.05766        -7.28015         6.73080
| 65>    C       -1.18189        -8.06508         8.00749
| 66>    O       -2.15494        -8.03703         8.71256
| 67>    C        0.06883        -8.84283         8.39386
| 68>    O        1.04965        -8.93308         7.38556
| 69>    H       -6.41642         6.80707         7.24541
| 70>    H       -6.87138         9.12583         5.63378
| 71>    H       -5.87189        10.51305         3.85088
| 72>    H       -3.65668         9.99912         2.94652
| 73>    H       -2.31221         8.15684         3.81432
| 74>    H       -3.45093         4.28439         7.77021
| 75>    H       -5.14298         4.68498         8.33453
| 76>    H       -2.11577         4.88636         6.29374
| 77>    H        2.48343         5.88290         5.64924
| 78>    H       -0.72395         3.63023         5.79426
| 79>    H        2.29326         3.66296         6.25456
| 80>    H       -3.29687         0.77595         8.16267
| 81>    H       -1.73829        -0.03548         8.55189
| 82>    H       -1.30441        -1.41270         5.24439
| 83>    H       -1.79767        -2.61036         6.45438
| 84>    H        7.02664        -1.26962         5.12912
| 85>    H        5.93324        -2.67526         4.87447
| 86>    H        5.88543        -3.57322         8.35671
| 87>    H        6.88296        -4.69176         7.41135
| 88>    H        3.74490        -9.04303         7.20384
| 89>    H       -0.56484        -7.83066         5.93246
| 90>    H       -2.02303        -6.89225         6.41173
| 91>    H       -0.22663        -9.87236         8.61945
| 92>    H        0.47680        -8.40322         9.31534
| 93> *
| 94>
| 95>                          ****END OF INPUT****

CARTESIAN COORDINATES (ANGSTROEM)
---------------------------------
  C     -5.483450    6.900180    6.725030
  C     -5.142420    7.836470    5.792390
  C     -5.880640    8.926410    5.253660
  C     -5.328560    9.680700    4.273310
  C     -4.030850    9.390920    3.756100
  C     -3.274780    8.376570    4.247090
  C     -3.781590    7.579570    5.307390
  C     -3.296380    6.482780    5.984400
  C     -4.366700    5.994830    6.886160
  C     -4.308860    4.934740    7.701250
  N     -2.084790    5.843190    5.956990
  C     -0.838740    6.317970    5.756230
  S     -0.472410    8.004070    5.602100
  C      1.225560    7.616810    5.557980
  N      2.115880    8.672740    5.401180
  O      3.308880    8.416670    5.359090
  O      1.630810    9.793260    5.316760
  C      1.483860    6.275310    5.669140
  C      0.316270    5.505000    5.781840
  C      0.249560    4.080960    5.923330
  C      1.291220    3.264970    6.190460
  C      1.191250    1.862540    6.399180
  S      2.665400    0.929150    6.372430
  C      1.809680   -0.545470    6.659600
  C      0.447790   -0.309000    6.795070
  C      0.095860    1.049110    6.657330
  S     -1.534540    1.693610    6.872630
  C     -2.385800    0.336210    7.760800
  C     -2.698210   -0.689310    6.706230
  O     -3.766030   -0.777650    6.162140
  C     -1.515450   -1.562350    6.312460
  O     -0.364230   -1.368450    7.102210
  C      2.412890   -1.824730    6.726820
  S      1.406030   -3.228420    6.964520
  C      2.776400   -4.283790    6.864360
  C      3.948460   -3.570940    6.669560
  C      3.744920   -2.177400    6.575370
  S      4.986960   -0.961920    6.296310
  C      6.346490   -1.977260    5.599460
  C      6.997170   -2.654840    6.774040
  O      8.019900   -2.276510    7.278300
  C      6.211180   -3.830930    7.339250
  O      5.127780   -4.254030    6.541390
  C      2.694590   -5.696450    6.979740
  S      4.149830   -6.651270    6.929860
  C      3.254140   -8.092420    7.160640
  C      1.910930   -7.875940    7.254240
  C      1.577510   -6.495150    7.139550
  S     -0.043380   -5.811380    7.162820
  C     -1.057660   -7.280150    6.730800
  C     -1.181890   -8.065080    8.007490
  O     -2.154940   -8.037030    8.712560
  C      0.068830   -8.842830    8.393860
  O      1.049650   -8.933080    7.385560
  H     -6.416420    6.807070    7.245410
  H     -6.871380    9.125830    5.633780
  H     -5.871890   10.513050    3.850880
  H     -3.656680    9.999120    2.946520
  H     -2.312210    8.156840    3.814320
  H     -3.450930    4.284390    7.770210
  H     -5.142980    4.684980    8.334530
  H     -2.115770    4.886360    6.293740
  H      2.483430    5.882900    5.649240
  H     -0.723950    3.630230    5.794260
  H      2.293260    3.662960    6.254560
  H     -3.296870    0.775950    8.162670
  H     -1.738290   -0.035480    8.551890
  H     -1.304410   -1.412700    5.244390
  H     -1.797670   -2.610360    6.454380
  H      7.026640   -1.269620    5.129120
  H      5.933240   -2.675260    4.874470
  H      5.885430   -3.573220    8.356710
  H      6.882960   -4.691760    7.411350
  H      3.744900   -9.043030    7.203840
  H     -0.564840   -7.830660    5.932460
  H     -2.023030   -6.892250    6.411730
  H     -0.226630   -9.872360    8.619450
  H      0.476800   -8.403220    9.315340

 Total Charge           Charge          ....    0
 Multiplicity           Mult            ....    1
 Number of Electrons    NEL             ....  436
 Basis Dimension        Dim             ....  904

ORBITAL ENERGIES
----------------

  NO   OCC          E(Eh)            E(eV)
   0   2.0000     -88.974319     -2421.1143
   1   2.0000     -88.969360     -2420.9794
   2   2.0000     -88.966101     -2420.8907
   3   2.0000     -88.963892     -2420.8306
   4   2.0000     -88.959708     -2420.7167
   5   2.0000     -88.954181     -2420.5663
   6   2.0000     -88.951266     -2420.4870
   7   2.0000     -19.275115      -524.5025
   8   2.0000     -19.269441      -524.3482
   9   2.0000     -19.254915      -523.9529
  10   2.0000     -19.226884      -523.1901
  11   2.0000     -19.222056      -523.0587
  12   2.0000     -19.221928      -523.0552
  13   2.0000     -19.221455      -523.0424
  14   2.0000     -19.218049      -522.9497
  15   2.0000     -14.633761      -398.2049
  16   2.0000     -14.478714      -393.9858
  17   2.0000     -10.379727      -282.4467
  18   2.0000     -10.374462      -282.3035
  19   2.0000     -10.369912      -282.1796
  20   2.0000     -10.362785      -281.9857
  21   2.0000     -10.350013      -281.6382
  22   2.0000     -10.348938      -281.6089
  23   2.0000     -10.344663      -281.4926
  24   2.0000     -10.344263      -281.4817
  25   2.0000     -10.338805      -281.3332
  26   2.0000     -10.337344      -281.2934
  27   2.0000     -10.327850      -281.0351
  28   2.0000     -10.321211      -280.8544
  29   2.0000     -10.321178      -280.8535
  30   2.0000     -10.320607      -280.8380
  31   2.0000     -10.318455      -280.7794
  32   2.0000     -10.318146      -280.7710
  33   2.0000     -10.316507      -280.7264
  34   2.0000     -10.315574      -280.7010
  35   2.0000     -10.315167      -280.6900
  36   2.0000     -10.315048      -280.6867
  37   2.0000     -10.311717      -280.5961
  38   2.0000     -10.310991      -280.5763
  39   2.0000     -10.309661      -280.5401
  40   2.0000     -10.305406      -280.4243
  41   2.0000     -10.299667      -280.2682
  42   2.0000     -10.296142      -280.1723
  43   2.0000     -10.292526      -280.0739
  44   2.0000     -10.291063      -280.0341
  45   2.0000     -10.289980      -280.0046
  46   2.0000     -10.288449      -279.9629
  47   2.0000     -10.276044      -279.6254
  48   2.0000     -10.274766      -279.5906
  49   2.0000     -10.271737      -279.5082
  50   2.0000     -10.271690      -279.5069
  51   2.0000     -10.269502      -279.4474
  52   2.0000     -10.269445      -279.4458
  53   2.0000     -10.257695      -279.1261
  54   2.0000      -8.069358      -219.5784
  55   2.0000      -8.064259      -219.4396
  56   2.0000      -8.059623      -219.3135
  57   2.0000      -8.057622      -219.2590
  58   2.0000      -8.054288      -219.1683
  59   2.0000      -8.048631      -219.0144
  60   2.0000      -8.045756      -218.9362
  61   2.0000      -6.039117      -164.3327
  62   2.0000      -6.034582      -164.2093
  63   2.0000      -6.033738      -164.1864
  64   2.0000      -6.030700      -164.1037
  65   2.0000      -6.029658      -164.0753
  66   2.0000      -6.029268      -164.0647
  67   2.0000      -6.028173      -164.0349
  68   2.0000      -6.025914      -163.9735
  69   2.0000      -6.024985      -163.9482
  70   2.0000      -6.024072      -163.9233
  71   2.0000      -6.023759      -163.9148
  72   2.0000      -6.021215      -163.8456
  73   2.0000      -6.019434      -163.7971
  74   2.0000      -6.019159      -163.7896
  75   2.0000      -6.017300      -163.7390
  76   2.0000      -6.016308      -163.7121
  77   2.0000      -6.016247      -163.7104
  78   2.0000      -6.015111      -163.6795
  79   2.0000      -6.012241      -163.6014
  80   2.0000      -6.008070      -163.4879
  81   2.0000      -6.005169      -163.4089
  82   2.0000      -1.301011       -35.4023
  83   2.0000      -1.181599       -32.1530
  84   2.0000      -1.175742       -31.9936
  85   2.0000      -1.161849       -31.6155
  86   2.0000      -1.145864       -31.1805
  87   2.0000      -1.140949       -31.0468
  88   2.0000      -1.136218       -30.9181
  89   2.0000      -1.119772       -30.4705
  90   2.0000      -1.084655       -29.5150
  91   2.0000      -1.011857       -27.5340
  92   2.0000      -0.999228       -27.1904
  93   2.0000      -0.996441       -27.1145
  94   2.0000      -0.982739       -26.7417
  95   2.0000      -0.971592       -26.4384
  96   2.0000      -0.935043       -25.4438
  97   2.0000      -0.927471       -25.2378
  98   2.0000      -0.922150       -25.0930
  99   2.0000      -0.919553       -25.0223
 100   2.0000      -0.914890       -24.8954
 101   2.0000      -0.887632       -24.1537
 102   2.0000      -0.876147       -23.8412
 103   2.0000      -0.873735       -23.7755
 104   2.0000      -0.866745       -23.5853
 105   2.0000      -0.860908       -23.4265
 106   2.0000      -0.854778       -23.2597
 107   2.0000      -0.849414       -23.1137
 108   2.0000      -0.846766       -23.0417
 109   2.0000      -0.828776       -22.5521
 110   2.0000      -0.819304       -22.2944
 111   2.0000      -0.806037       -21.9334
 112   2.0000      -0.801947       -21.8221
 113   2.0000      -0.794212       -21.6116
 114   2.0000      -0.787121       -21.4186
 115   2.0000      -0.770584       -20.9687
 116   2.0000      -0.763432       -20.7740
 117   2.0000      -0.759531       -20.6679
 118   2.0000      -0.756144       -20.5757
 119   2.0000      -0.740882       -20.1604
 120   2.0000      -0.721683       -19.6380
 121   2.0000      -0.701143       -19.0791
 122   2.0000      -0.691674       -18.8214
 123   2.0000      -0.685569       -18.6553
 124   2.0000      -0.679569       -18.4920
 125   2.0000      -0.677563       -18.4374
 126   2.0000      -0.663365       -18.0511
 127   2.0000      -0.661851       -18.0099
 128   2.0000      -0.654743       -17.8165
 129   2.0000      -0.646656       -17.5964
 130   2.0000      -0.642323       -17.4785
 131   2.0000      -0.632641       -17.2150
 132   2.0000      -0.628561       -17.1040
 133   2.0000      -0.625296       -17.0152
 134   2.0000      -0.619913       -16.8687
 135   2.0000      -0.617442       -16.8014
 136   2.0000      -0.615007       -16.7352
 137   2.0000      -0.612513       -16.6673
 138   2.0000      -0.603464       -16.4211
 139   2.0000      -0.597611       -16.2618
 140   2.0000      -0.594563       -16.1789
 141   2.0000      -0.591761       -16.1026
 142   2.0000      -0.585741       -15.9388
 143   2.0000      -0.582523       -15.8512
 144   2.0000      -0.579570       -15.7709
 145   2.0000      -0.575793       -15.6681
 146   2.0000      -0.567538       -15.4435
 147   2.0000      -0.563277       -15.3275
 148   2.0000      -0.560275       -15.2459
 149   2.0000      -0.556854       -15.1528
 150   2.0000      -0.553454       -15.0603
 151   2.0000      -0.552438       -15.0326
 152   2.0000      -0.543497       -14.7893
 153   2.0000      -0.541676       -14.7397
 154   2.0000      -0.534622       -14.5478
 155   2.0000      -0.530353       -14.4316
 156   2.0000      -0.529757       -14.4154
 157   2.0000      -0.527121       -14.3437
 158   2.0000      -0.525548       -14.3009
 159   2.0000      -0.524945       -14.2845
 160   2.0000      -0.521600       -14.1935
 161   2.0000      -0.515188       -14.0190
 162   2.0000      -0.514131       -13.9902
 163   2.0000      -0.511282       -13.9127
 164   2.0000      -0.508020       -13.8239
 165   2.0000      -0.507109       -13.7991
 166   2.0000      -0.503021       -13.6879
 167   2.0000      -0.501563       -13.6482
 168   2.0000      -0.493726       -13.4350
 169   2.0000      -0.488250       -13.2859
 170   2.0000      -0.487449       -13.2642
 171   2.0000      -0.485299       -13.2057
 172   2.0000      -0.479822       -13.0566
 173   2.0000      -0.477834       -13.0025
 174   2.0000      -0.475237       -12.9318
 175   2.0000      -0.473073       -12.8730
 176   2.0000      -0.472026       -12.8445
 177   2.0000      -0.465486       -12.6665
 178   2.0000      -0.462648       -12.5893
 179   2.0000      -0.459997       -12.5172
 180   2.0000      -0.451974       -12.2988
 181   2.0000      -0.449691       -12.2367
 182   2.0000      -0.444838       -12.1047
 183   2.0000      -0.441794       -12.0218
 184   2.0000      -0.437559       -11.9066
 185   2.0000      -0.435085       -11.8393
 186   2.0000      -0.430968       -11.7272
 187   2.0000      -0.429032       -11.6745
 188   2.0000      -0.422535       -11.4977
 189   2.0000      -0.422301       -11.4914
 190   2.0000      -0.415770       -11.3137
 191   2.0000      -0.411052       -11.1853
 192   2.0000      -0.406484       -11.0610
 193   2.0000      -0.405769       -11.0415
 194   2.0000      -0.404461       -11.0059
 195   2.0000      -0.398141       -10.8340
 196   2.0000      -0.394611       -10.7379
 197   2.0000      -0.390308       -10.6208
 198   2.0000      -0.380317       -10.3489
 199   2.0000      -0.375334       -10.2134
 200   2.0000      -0.371090       -10.0979
 201   2.0000      -0.363423        -9.8892
 202   2.0000      -0.361453        -9.8356
 203   2.0000      -0.352865        -9.6019
 204   2.0000      -0.350822        -9.5463
 205   2.0000      -0.350000        -9.5240
 206   2.0000      -0.343233        -9.3398
 207   2.0000      -0.338311        -9.2059
 208   2.0000      -0.333451        -9.0737
 209   2.0000      -0.329494        -8.9660
 210   2.0000      -0.324908        -8.8412
 211   2.0000      -0.307425        -8.3655
 212   2.0000      -0.298261        -8.1161
 213   2.0000      -0.290526        -7.9056
 214   2.0000      -0.283079        -7.7030
 215   2.0000      -0.276313        -7.5188
 216   2.0000      -0.242567        -6.6006
 217   2.0000      -0.222954        -6.0669
 218   0.0000      -0.078561        -2.1377
 219   0.0000      -0.054311        -1.4779
 220   0.0000      -0.035583        -0.9683
 221   0.0000      -0.013899        -0.3782
 222   0.0000      -0.005497        -0.1496

MULLIKEN ATOMIC CHARGES
-----------------------
   0 C :   -0.076928
   1 C :    0.076450
   2 C :    0.014127
   3 C :    0.026774
   4 C :    0.009849
   5 C :   -0.011054
   6 C :    0.000767
   7 C :    0.006355
   8 C :    0.059001
   9 C :   -0.049841
  10 N :    0.014214
  11 C :   -0.097024
  12 S :    0.169559
  13 C :   -0.026292
  14 N :    0.281765
  15 O :   -0.264145
  16 O :   -0.277556
  17 C :    0.012461
  18 C :    0.113116
  19 C :   -0.076966
  20 C :    0.048995
  21 C :   -0.135875
  22 S :    0.149730
  23 C :   -0.111244
  24 C :    0.120040
  25 C :   -0.007650
  26 S :   -0.030310
  27 C :   -0.019140
  28 C :   -0.013577
  29 O :   -0.164665
  30 C :    0.252861
  31 O :   -0.352054
  32 C :   -0.093407
  33 S :    0.143015
  34 C :   -0.088920
  35 C :    0.123329
  36 C :   -0.051701
  37 S :    0.013867
  38 C :   -0.033048
  39 C :   -0.007338
  40 O :   -0.163807
  41 C :    0.248281
  42 O :   -0.348549
  43 C :   -0.126309
  44 S :    0.150814
  45 C :   -0.112472
  46 C :    0.183653
  47 C :   -0.064383
  48 S :   -0.001841
  49 C :   -0.033288
  50 C :   -0.010559
  51 O :   -0.169866
  52 C :    0.244790
  53 O :   -0.327294
  54 H :   -0.036830
  55 H :   -0.028769
  56 H :   -0.010612
  57 H :   -0.009839
  58 H :   -0.017008
  59 H :    0.016966
  60 H :    0.035996
  61 H :    0.138918
  62 H :    0.006197
  63 H :   -0.000171
  64 H :   -0.015292
  65 H :    0.064475
  66 H :    0.090056
  67 H :    0.054530
  68 H :    0.058866
  69 H :    0.070921
  70 H :    0.087154
  71 H :    0.054337
  72 H :    0.055383
  73 H :    0.014116
  74 H :    0.086984
  75 H :    0.064983
  76 H :    0.053101
  77 H :    0.048829
Sum of atomic charges:    0.0000000

LOEWDIN ATOMIC CHARGES
----------------------
   0 C :   -0.063769
   1 C :   -0.000998
   2 C :   -0.016400
   3 C :   -0.017623
   4 C :   -0.024268
   5 C :   -0.028762
   6 C :   -0.055802
   7 C :   -0.005235
   8 C :   -0.013576
   9 C :    0.019509
  10 N :    0.050949
  11 C :   -0.096366
  12 S :    0.483040
  13 C :   -0.219284
  14 N :    0.274122
  15 O :   -0.230292
  16 O :   -0.243441
  17 C :    0.003547
  18 C :   -0.112749
  19 C :   -0.037187
  20 C :   -0.050007
  21 C :   -0.187465
  22 S :    0.455450
  23 C :   -0.210835
  24 C :   -0.022784
  25 C :   -0.217246
  26 S :    0.329724
  27 C :   -0.150570
  28 C :    0.040113
  29 O :   -0.127231
  30 C :    0.055081
  31 O :   -0.113404
  32 C :   -0.206000
  33 S :    0.471065
  34 C :   -0.215239
  35 C :   -0.023805
  36 C :   -0.222487
  37 S :    0.326592
  38 C :   -0.148399
  39 C :    0.040585
  40 O :   -0.126315
  41 C :    0.054849
  42 O :   -0.115517
  43 C :   -0.204219
  44 S :    0.463353
  45 C :   -0.212875
  46 C :   -0.019179
  47 C :   -0.228822
  48 S :    0.318034
  49 C :   -0.149021
  50 C :    0.038763
  51 O :   -0.131865
  52 C :    0.053240
  53 O :   -0.116818
  54 H :    0.020801
  55 H :    0.029461
  56 H :    0.029595
  57 H :    0.030236
  58 H :    0.016068
  59 H :    0.018914
  60 H :    0.037741
  61 H :    0.091262
  62 H :    0.042602
  63 H :    0.006126
  64 H :    0.028386
  65 H :    0.041083
  66 H :    0.041219
  67 H :    0.041760
  68 H :    0.047773
  69 H :    0.043001
  70 H :    0.040478
  71 H :    0.041737
  72 H :    0.046318
  73 H :    0.027153
  74 H :    0.040133
  75 H :    0.040096
  76 H :    0.046786
  77 H :    0.039110

  Mayer bond orders larger than 0.100000
B(  0-C ,  1-C ) :   1.5609 B(  0-C ,  8-C ) :   1.0463 B(  0-C , 54-H ) :   1.0170
B(  1-C ,  2-C ) :   1.1136 B(  1-C ,  6-C ) :   1.0855 B(  2-C ,  3-C ) :   1.6367
B(  2-C , 55-H ) :   0.9972 B(  3-C ,  4-C ) :   1.1248 B(  3-C , 56-H ) :   0.9858
B(  4-C ,  5-C ) :   1.6515 B(  4-C , 57-H ) :   0.9826 B(  5-C ,  6-C ) :   1.1065
B(  5-C , 58-H ) :   0.9836 B(  6-C ,  7-C ) :   1.5183 B(  7-C ,  8-C ) :   1.0443
B(  7-C , 10-N ) :   1.1291 B(  8-C ,  9-C ) :   1.8624 B(  9-C , 59-H ) :   0.9373
B(  9-C , 60-H ) :   0.9314 B( 10-N , 11-C ) :   1.2518 B( 10-N , 61-H ) :   0.8841
B( 11-C , 12-S ) :   1.1322 B( 11-C , 18-C ) :   1.3169 B( 12-S , 13-C ) :   1.0615
B( 13-C , 14-N ) :   0.9933 B( 13-C , 17-C ) :   1.4701 B( 14-N , 15-O ) :   1.5180
B( 14-N , 16-O ) :   1.4969 B( 15-O , 16-O ) :   0.2488 B( 17-C , 18-C ) :   1.2548
B( 17-C , 62-H ) :   0.9994 B( 18-C , 19-C ) :   1.0930 B( 19-C , 20-C ) :   1.7003
B( 19-C , 63-H ) :   0.9452 B( 20-C , 21-C ) :   1.1389 B( 20-C , 64-H ) :   0.9531
B( 21-C , 22-S ) :   1.1035 B( 21-C , 23-C ) :   0.1086 B( 21-C , 25-C ) :   1.5126
B( 22-S , 23-C ) :   1.1143 B( 23-C , 24-C ) :   1.5057 B( 23-C , 32-C ) :   1.1765
B( 24-C , 25-C ) :   1.2705 B( 24-C , 31-O ) :   1.0697 B( 25-C , 26-S ) :   0.9771
B( 26-S , 27-C ) :   0.9873 B( 27-C , 28-C ) :   0.9655 B( 27-C , 65-H ) :   0.9386
B( 27-C , 66-H ) :   0.9338 B( 28-C , 29-O ) :   2.2102 B( 28-C , 30-C ) :   0.9389
B( 30-C , 31-O ) :   0.9406 B( 30-C , 67-H ) :   0.9269 B( 30-C , 68-H ) :   0.9319
B( 32-C , 33-S ) :   1.1130 B( 32-C , 34-C ) :   0.1112 B( 32-C , 36-C ) :   1.5226
B( 33-S , 34-C ) :   1.0816 B( 34-C , 35-C ) :   1.5199 B( 34-C , 43-C ) :   1.1689
B( 35-C , 36-C ) :   1.2655 B( 35-C , 42-O ) :   1.0798 B( 36-C , 37-S ) :   0.9926
B( 37-S , 38-C ) :   0.9894 B( 38-C , 39-C ) :   0.9658 B( 38-C , 69-H ) :   0.9391
B( 38-C , 70-H ) :   0.9345 B( 39-C , 40-O ) :   2.2103 B( 39-C , 41-C ) :   0.9374
B( 41-C , 42-O ) :   0.9442 B( 41-C , 71-H ) :   0.9262 B( 41-C , 72-H ) :   0.9341
B( 43-C , 44-S ) :   1.1536 B( 43-C , 47-C ) :   1.5225 B( 44-S , 45-C ) :   1.1126
B( 45-C , 46-C ) :   1.6008 B( 45-C , 73-H ) :   0.9692 B( 46-C , 47-C ) :   1.2137
B( 46-C , 53-O ) :   1.0771 B( 47-C , 48-S ) :   1.0003 B( 48-S , 49-C ) :   0.9863
B( 49-C , 50-C ) :   0.9662 B( 49-C , 74-H ) :   0.9346 B( 49-C , 75-H ) :   0.9405
B( 50-C , 51-O ) :   2.2034 B( 50-C , 52-C ) :   0.9304 B( 52-C , 53-O ) :   0.9758
B( 52-C , 76-H ) :   0.9365 B( 52-C , 77-H ) :   0.9258

-----------------------------------------------------------------------------
         ABSORPTION SPECTRUM VIA TRANSITION ELECTRIC DIPOLE MOMENTS
-----------------------------------------------------------------------------
State   Energy  Wavelength   fosc         T2         TX        TY        TZ
        (cm-1)    (nm)                  (au**2)     (au)      (au)      (au)
-----------------------------------------------------------------------------
   0   13257.4    754.3   0.205991666   5.11527   2.07879  -0.88020  -0.13837
   1   21687.4    461.1   1.027351707  15.59504  -0.83372   3.82543  -0.51577
   2   22105.1    452.4   0.292813814   4.36089  -0.08774  -2.08113   0.14858
   3   24277.8    411.9   0.331742398   4.49850  -1.93423   0.85752  -0.14806
   4   26552.4    376.6   0.348110477   4.31608   0.18867   2.06575  -0.11482
   5   28652.1    349.0   0.056108140   0.64468  -0.73706   0.23573  -0.21413
   6   30228.8    330.8   0.024117358   0.26265   0.32229   0.39246   0.06897
   7   31012.0    322.5   0.000435145   0.00462   0.05201  -0.03647   0.02418
   8   31476.3    317.7   0.013214441   0.13821  -0.15390  -0.33836  -0.00630
   9   31643.8    316.0   0.172519052   1.79484  -1.29992  -0.30558   0.10803
  10   32282.3    309.8   0.107794782   1.09928   1.01953   0.22325  -0.10002
  11   32584.2    306.9   0.056068314   0.56648   0.74546  -0.09112  -0.04975
  12   33784.8    296.0   0.031379012   0.30577   0.01112   0.53231  -0.14932
  13   33851.2    295.4   0.032005508   0.31126   0.05083   0.54186  -0.12273
  14   34417.9    290.5   0.059720400   0.57123  -0.21747  -0.71527   0.11102
  15   35173.9    284.3   0.051744788   0.48431  -0.60443   0.34492   0.00153
  16   35716.8    280.0   0.013416375   0.12366   0.33945   0.02830   0.08740
  17   36086.6    277.1   0.072399504   0.66049   0.34682  -0.73497  -0.00457
  18   36509.1    273.9   0.022394845   0.20194  -0.42792  -0.10352  -0.09005
  19   36817.8    271.6   0.005047485   0.04513  -0.09585  -0.18691  -0.03178
  20   37165.3    269.1   0.022782830   0.20181  -0.06771  -0.22032   0.38560
  21   38541.3    259.5   0.037179335   0.31758  -0.51489   0.20242  -0.10721
  22   38834.8    257.5   0.015275388   0.12949   0.07351  -0.01504   0.35194
  23   39003.4    256.4   0.048436400   0.40883  -0.51836   0.24062  -0.28676
  24   39349.0    254.1   0.050504050   0.42254  -0.46051   0.37184  -0.26871
  25   39641.8    252.3   0.149179826   1.23889   0.31436   0.97903  -0.42612
  26   39758.0    251.5   0.014205028   0.11762  -0.20008  -0.26271  -0.09259
  27   40087.8    249.5   0.296522531   2.43512  -0.55985  -1.26448   0.72304

FINAL SINGLE POINT ENERGY     -4919.328749630189

DIPOLE MOMENT
-------------
                                X             Y             Z
Electronic contribution:     24.04824      -6.77711       0.24942
Nuclear contribution   :    -25.25718       4.24182      -0.12258
                        -----------------------------------------
Total Dipole Moment    :     -1.20894      -2.53528       0.12683
                        -----------------------------------------
Magnitude (a.u.)       :      2.81163
Magnitude (Debye)      :      7.14660

Rotational constants in cm-1:     0.002370     0.000543     0.000448
Rotational constants in MHz :    71.046473    16.281544    13.439066

                             ****ORCA TERMINATED NORMALLY****
TOTAL RUN TIME: 0 days 0 hours 6 minutes 39 seconds 837 msec
