                         Program Version 4.2.0 -  RELEASE  -
|  1> # ORCA input file
|  2> # SCF done       -145.870425252043          0.000405049242
|  3> ! CAM-B3LYP def2-SVP def2/J RIJCOSX Grid4 TightSCF
|  4> %maxcore 5000
|  5> %tddft
|  6>     Mode sTDDFT
|  7>     Ethresh 5.0
|  8>     maxcore 5000
|  9> end
| 10>
| 11> %pal
| 12>   nprocs 6
| 13>   end
| 14> * xyz 0 1
| 15>    C        4.78102         6.23933         0.82710
| 16>    C        5.62674         7.01708         1.56604
| 17>    C        6.70383         7.85602         1.17053
| 18>    C        7.45862         8.45995         2.12169
| 19>    C        7.19967         8.26082         3.50854
| 20>    C        6.17127         7.48572         3.94206
| 21>    C        5.32875         6.85206         2.99179
| 22>    C        4.27253         5.97392         3.09916
| 23>    C        3.88378         5.55840         1.73395
| 24>    C        2.87851         4.74092         1.39722
| 25>    N        3.65046         5.44754         4.20157
| 26>    C        3.48769         5.99345         5.43095
| 27>    S        3.48496         7.71421         5.67707
| 28>    C        3.14306         7.45200         7.36092
| 29>    N        3.03330         8.56832         8.18547
| 30>    O        2.80349         8.38007         9.36981
| 31>    O        3.17661         9.66135         7.65758
| 32>    C        3.03393         6.12750         7.69921
| 33>    C        3.22904         5.26743         6.60729
| 34>    C        3.24066         3.82729         6.65795
| 35>    C        3.21303         3.09582         7.78462
| 36>    N        3.30018         1.72324         7.86853
| 37>    C        3.51392         0.76371         6.91227
| 38>    S        2.49982        -0.65256         7.08481
| 39>    C        3.29894        -1.40710         5.75062
| 40>    N        2.87364        -2.66737         5.32869
| 41>    O        3.44741        -3.16589         4.37534
| 42>    O        1.94521        -3.17323         5.93667
| 43>    C        4.27918        -0.61856         5.22025
| 44>    C        4.43202         0.63113         5.86201
| 45>    C        5.39079         1.54692         5.30114
| 46>    C        5.76578         2.75934         5.74941
| 47>    N        6.45371         3.68865         5.00650
| 48>    C        6.69557         3.82251         3.66757
| 49>    S        8.04587         4.88707         3.34160
| 50>    C        7.80855         4.69647         1.64012
| 51>    N        8.64007         5.40718         0.77667
| 52>    O        8.43466         5.30921        -0.42073
| 53>    O        9.52183         6.07841         1.29045
| 54>    C        6.77825         3.84938         1.35081
| 55>    C        6.10570         3.33421         2.48597
| 56>    C        5.02813         2.41130         2.24678
| 57>    C        3.96653         2.11378         3.03686
| 58>    C        3.04884         1.04437         2.88020
| 59>    C        1.84591         0.89771         3.56438
| 60>    C        1.15010         1.74263         4.46041
| 61>    C       -0.00289         1.30816         5.03623
| 62>    C       -0.55004         0.02601         4.74615
| 63>    C        0.04741        -0.80589         3.85796
| 64>    C        1.25811        -0.39619         3.23425
| 65>    C        2.06507        -1.02996         2.33352
| 66>    C        3.23980        -0.20543         2.11393
| 67>    C        4.33622        -0.66036         1.49324
| 68>    H        4.76190         6.13481        -0.23952
| 69>    H        6.90915         7.98264         0.11834
| 70>    H        8.28977         9.08842         1.84224
| 71>    H        7.85329         8.73773         4.22279
| 72>    H        6.01321         7.33151         4.99828
| 73>    H        2.22259         4.27406         2.11343
| 74>    H        2.67136         4.52704         0.36284
| 75>    H        3.15922         4.57973         4.02568
| 76>    H        2.81901         5.81841         8.70484
| 77>    H        3.30995         3.30092         5.72223
| 78>    H        3.12031         3.56562         8.75204
| 79>    H        2.88044         1.34442         8.70816
| 80>    H        4.88259        -0.93986         4.39089
| 81>    H        5.81474         1.20917         4.36919
| 82>    H        5.54327         3.09950         6.74755
| 83>    H        6.95734         4.37372         5.55526
| 84>    H        6.49654         3.61719         0.33960
| 85>    H        5.08763         1.93522         1.27902
| 86>    H        3.79325         2.73394         3.90266
| 87>    H        1.52297         2.73055         4.68755
| 88>    H       -0.53144         1.94551         5.73025
| 89>    H       -1.46186        -0.26632         5.24425
| 90>    H       -0.36417        -1.77498         3.62152
| 91>    H        1.93430        -2.00942         1.91643
| 92>    H        4.32808        -1.63393         1.03115
| 93>    H        5.26381        -0.11686         1.45173
| 94> *
| 95>
| 96>                          ****END OF INPUT****

CARTESIAN COORDINATES (ANGSTROEM)
---------------------------------
  C      4.781020    6.239330    0.827100
  C      5.626740    7.017080    1.566040
  C      6.703830    7.856020    1.170530
  C      7.458620    8.459950    2.121690
  C      7.199670    8.260820    3.508540
  C      6.171270    7.485720    3.942060
  C      5.328750    6.852060    2.991790
  C      4.272530    5.973920    3.099160
  C      3.883780    5.558400    1.733950
  C      2.878510    4.740920    1.397220
  N      3.650460    5.447540    4.201570
  C      3.487690    5.993450    5.430950
  S      3.484960    7.714210    5.677070
  C      3.143060    7.452000    7.360920
  N      3.033300    8.568320    8.185470
  O      2.803490    8.380070    9.369810
  O      3.176610    9.661350    7.657580
  C      3.033930    6.127500    7.699210
  C      3.229040    5.267430    6.607290
  C      3.240660    3.827290    6.657950
  C      3.213030    3.095820    7.784620
  N      3.300180    1.723240    7.868530
  C      3.513920    0.763710    6.912270
  S      2.499820   -0.652560    7.084810
  C      3.298940   -1.407100    5.750620
  N      2.873640   -2.667370    5.328690
  O      3.447410   -3.165890    4.375340
  O      1.945210   -3.173230    5.936670
  C      4.279180   -0.618560    5.220250
  C      4.432020    0.631130    5.862010
  C      5.390790    1.546920    5.301140
  C      5.765780    2.759340    5.749410
  N      6.453710    3.688650    5.006500
  C      6.695570    3.822510    3.667570
  S      8.045870    4.887070    3.341600
  C      7.808550    4.696470    1.640120
  N      8.640070    5.407180    0.776670
  O      8.434660    5.309210   -0.420730
  O      9.521830    6.078410    1.290450
  C      6.778250    3.849380    1.350810
  C      6.105700    3.334210    2.485970
  C      5.028130    2.411300    2.246780
  C      3.966530    2.113780    3.036860
  C      3.048840    1.044370    2.880200
  C      1.845910    0.897710    3.564380
  C      1.150100    1.742630    4.460410
  C     -0.002890    1.308160    5.036230
  C     -0.550040    0.026010    4.746150
  C      0.047410   -0.805890    3.857960
  C      1.258110   -0.396190    3.234250
  C      2.065070   -1.029960    2.333520
  C      3.239800   -0.205430    2.113930
  C      4.336220   -0.660360    1.493240
  H      4.761900    6.134810   -0.239520
  H      6.909150    7.982640    0.118340
  H      8.289770    9.088420    1.842240
  H      7.853290    8.737730    4.222790
  H      6.013210    7.331510    4.998280
  H      2.222590    4.274060    2.113430
  H      2.671360    4.527040    0.362840
  H      3.159220    4.579730    4.025680
  H      2.819010    5.818410    8.704840
  H      3.309950    3.300920    5.722230
  H      3.120310    3.565620    8.752040
  H      2.880440    1.344420    8.708160
  H      4.882590   -0.939860    4.390890
  H      5.814740    1.209170    4.369190
  H      5.543270    3.099500    6.747550
  H      6.957340    4.373720    5.555260
  H      6.496540    3.617190    0.339600
  H      5.087630    1.935220    1.279020
  H      3.793250    2.733940    3.902660
  H      1.522970    2.730550    4.687550
  H     -0.531440    1.945510    5.730250
  H     -1.461860   -0.266320    5.244250
  H     -0.364170   -1.774980    3.621520
  H      1.934300   -2.009420    1.916430
  H      4.328080   -1.633930    1.031150
  H      5.263810   -0.116860    1.451730

 Total Charge           Charge          ....    0
 Multiplicity           Mult            ....    1
 Number of Electrons    NEL             ....  392
 Basis Dimension        Dim             ....  884

ORBITAL ENERGIES
----------------

  NO   OCC          E(Eh)            E(eV)
   0   2.0000     -88.979472     -2421.2545
   1   2.0000     -88.978548     -2421.2294
   2   2.0000     -88.972456     -2421.0636
   3   2.0000     -19.239796      -523.5415
   4   2.0000     -19.237898      -523.4898
   5   2.0000     -19.230294      -523.2829
   6   2.0000     -19.229588      -523.2637
   7   2.0000     -19.229012      -523.2480
   8   2.0000     -19.228883      -523.2445
   9   2.0000     -14.649832      -398.6422
  10   2.0000     -14.641674      -398.4202
  11   2.0000     -14.640057      -398.3762
  12   2.0000     -14.483681      -394.1210
  13   2.0000     -14.482972      -394.1017
  14   2.0000     -14.476882      -393.9360
  15   2.0000     -10.367450      -282.1127
  16   2.0000     -10.367016      -282.1009
  17   2.0000     -10.363385      -282.0020
  18   2.0000     -10.340281      -281.3733
  19   2.0000     -10.336444      -281.2690
  20   2.0000     -10.336172      -281.2615
  21   2.0000     -10.330546      -281.1085
  22   2.0000     -10.326904      -281.0093
  23   2.0000     -10.320278      -280.8290
  24   2.0000     -10.307833      -280.4904
  25   2.0000     -10.306109      -280.4435
  26   2.0000     -10.305695      -280.4322
  27   2.0000     -10.304679      -280.4046
  28   2.0000     -10.301983      -280.3312
  29   2.0000     -10.300684      -280.2959
  30   2.0000     -10.300619      -280.2941
  31   2.0000     -10.298793      -280.2444
  32   2.0000     -10.296317      -280.1770
  33   2.0000     -10.292561      -280.0748
  34   2.0000     -10.291127      -280.0358
  35   2.0000     -10.289222      -279.9840
  36   2.0000     -10.284481      -279.8550
  37   2.0000     -10.284037      -279.8429
  38   2.0000     -10.283949      -279.8405
  39   2.0000     -10.283643      -279.8322
  40   2.0000     -10.282741      -279.8076
  41   2.0000     -10.279379      -279.7161
  42   2.0000     -10.279325      -279.7147
  43   2.0000     -10.278392      -279.6893
  44   2.0000     -10.277584      -279.6673
  45   2.0000     -10.273959      -279.5686
  46   2.0000     -10.272426      -279.5269
  47   2.0000     -10.271803      -279.5100
  48   2.0000     -10.270381      -279.4713
  49   2.0000     -10.268256      -279.4134
  50   2.0000     -10.267116      -279.3824
  51   2.0000     -10.264692      -279.3165
  52   2.0000     -10.252670      -278.9893
  53   2.0000      -8.075357      -219.7416
  54   2.0000      -8.073495      -219.6910
  55   2.0000      -8.067712      -219.5336
  56   2.0000      -6.045059      -164.4944
  57   2.0000      -6.043153      -164.4426
  58   2.0000      -6.040669      -164.3750
  59   2.0000      -6.038777      -164.3235
  60   2.0000      -6.037560      -164.2904
  61   2.0000      -6.036653      -164.2657
  62   2.0000      -6.034928      -164.2187
  63   2.0000      -6.033080      -164.1685
  64   2.0000      -6.028906      -164.0549
  65   2.0000      -1.318548       -35.8795
  66   2.0000      -1.309370       -35.6298
  67   2.0000      -1.308420       -35.6039
  68   2.0000      -1.137358       -30.9491
  69   2.0000      -1.128309       -30.7028
  70   2.0000      -1.127459       -30.6797
  71   2.0000      -1.085531       -29.5388
  72   2.0000      -1.082533       -29.4572
  73   2.0000      -1.080777       -29.4094
  74   2.0000      -1.003300       -27.3012
  75   2.0000      -1.000812       -27.2335
  76   2.0000      -0.995087       -27.0777
  77   2.0000      -0.987435       -26.8695
  78   2.0000      -0.969397       -26.3786
  79   2.0000      -0.930157       -25.3108
  80   2.0000      -0.919505       -25.0210
  81   2.0000      -0.915929       -24.9237
  82   2.0000      -0.914392       -24.8819
  83   2.0000      -0.908078       -24.7101
  84   2.0000      -0.888979       -24.1903
  85   2.0000      -0.878582       -23.9074
  86   2.0000      -0.870516       -23.6879
  87   2.0000      -0.864534       -23.5252
  88   2.0000      -0.855039       -23.2668
  89   2.0000      -0.850506       -23.1435
  90   2.0000      -0.845080       -22.9958
  91   2.0000      -0.841844       -22.9078
  92   2.0000      -0.836285       -22.7565
  93   2.0000      -0.829198       -22.5636
  94   2.0000      -0.802037       -21.8245
  95   2.0000      -0.790787       -21.5184
  96   2.0000      -0.781489       -21.2654
  97   2.0000      -0.769190       -20.9307
  98   2.0000      -0.762134       -20.7387
  99   2.0000      -0.755907       -20.5693
 100   2.0000      -0.751008       -20.4360
 101   2.0000      -0.735108       -20.0033
 102   2.0000      -0.726601       -19.7718
 103   2.0000      -0.710404       -19.3311
 104   2.0000      -0.696379       -18.9494
 105   2.0000      -0.683289       -18.5932
 106   2.0000      -0.677107       -18.4250
 107   2.0000      -0.672184       -18.2911
 108   2.0000      -0.663781       -18.0624
 109   2.0000      -0.663307       -18.0495
 110   2.0000      -0.657664       -17.8959
 111   2.0000      -0.649986       -17.6870
 112   2.0000      -0.642693       -17.4886
 113   2.0000      -0.638152       -17.3650
 114   2.0000      -0.636462       -17.3190
 115   2.0000      -0.634390       -17.2626
 116   2.0000      -0.630712       -17.1626
 117   2.0000      -0.624200       -16.9854
 118   2.0000      -0.623036       -16.9537
 119   2.0000      -0.622577       -16.9412
 120   2.0000      -0.619910       -16.8686
 121   2.0000      -0.614578       -16.7235
 122   2.0000      -0.611056       -16.6277
 123   2.0000      -0.609632       -16.5889
 124   2.0000      -0.602232       -16.3876
 125   2.0000      -0.596248       -16.2247
 126   2.0000      -0.587259       -15.9801
 127   2.0000      -0.584832       -15.9141
 128   2.0000      -0.580437       -15.7945
 129   2.0000      -0.572292       -15.5728
 130   2.0000      -0.568581       -15.4719
 131   2.0000      -0.568030       -15.4569
 132   2.0000      -0.562779       -15.3140
 133   2.0000      -0.558114       -15.1870
 134   2.0000      -0.555078       -15.1044
 135   2.0000      -0.551783       -15.0148
 136   2.0000      -0.547867       -14.9082
 137   2.0000      -0.541873       -14.7451
 138   2.0000      -0.536684       -14.6039
 139   2.0000      -0.533075       -14.5057
 140   2.0000      -0.525357       -14.2957
 141   2.0000      -0.524535       -14.2733
 142   2.0000      -0.520327       -14.1588
 143   2.0000      -0.515297       -14.0219
 144   2.0000      -0.511222       -13.9111
 145   2.0000      -0.507322       -13.8049
 146   2.0000      -0.504795       -13.7362
 147   2.0000      -0.502469       -13.6729
 148   2.0000      -0.498791       -13.5728
 149   2.0000      -0.493492       -13.4286
 150   2.0000      -0.491110       -13.3638
 151   2.0000      -0.490535       -13.3481
 152   2.0000      -0.483415       -13.1544
 153   2.0000      -0.480428       -13.0731
 154   2.0000      -0.477969       -13.0062
 155   2.0000      -0.473663       -12.8890
 156   2.0000      -0.471288       -12.8244
 157   2.0000      -0.469478       -12.7751
 158   2.0000      -0.462014       -12.5720
 159   2.0000      -0.457225       -12.4417
 160   2.0000      -0.455370       -12.3912
 161   2.0000      -0.448840       -12.2136
 162   2.0000      -0.447697       -12.1824
 163   2.0000      -0.440978       -11.9996
 164   2.0000      -0.438268       -11.9259
 165   2.0000      -0.434780       -11.8310
 166   2.0000      -0.425150       -11.5689
 167   2.0000      -0.420926       -11.4540
 168   2.0000      -0.416569       -11.3354
 169   2.0000      -0.413258       -11.2453
 170   2.0000      -0.408958       -11.1283
 171   2.0000      -0.405359       -11.0304
 172   2.0000      -0.393917       -10.7190
 173   2.0000      -0.387054       -10.5323
 174   2.0000      -0.385911       -10.5012
 175   2.0000      -0.379537       -10.3277
 176   2.0000      -0.378799       -10.3076
 177   2.0000      -0.377446       -10.2708
 178   2.0000      -0.371449       -10.1076
 179   2.0000      -0.369554       -10.0561
 180   2.0000      -0.368427       -10.0254
 181   2.0000      -0.366373        -9.9695
 182   2.0000      -0.359544        -9.7837
 183   2.0000      -0.358851        -9.7648
 184   2.0000      -0.357579        -9.7302
 185   2.0000      -0.355461        -9.6726
 186   2.0000      -0.336779        -9.1642
 187   2.0000      -0.329014        -8.9529
 188   2.0000      -0.326716        -8.8904
 189   2.0000      -0.317613        -8.6427
 190   2.0000      -0.308751        -8.4016
 191   2.0000      -0.306131        -8.3302
 192   2.0000      -0.275520        -7.4973
 193   2.0000      -0.262155        -7.1336
 194   2.0000      -0.236615        -6.4386
 195   2.0000      -0.225439        -6.1345
 196   0.0000      -0.088370        -2.4047
 197   0.0000      -0.076054        -2.0695
 198   0.0000      -0.058272        -1.5856
 199   0.0000      -0.049554        -1.3484
 200   0.0000      -0.042962        -1.1691

MULLIKEN ATOMIC CHARGES
-----------------------
   0 C :   -0.085382
   1 C :    0.074881
   2 C :   -0.002031
   3 C :    0.031918
   4 C :    0.024872
   5 C :   -0.032848
   6 C :    0.008387
   7 C :    0.011424
   8 C :    0.043747
   9 C :   -0.012158
  10 N :   -0.011704
  11 C :   -0.125584
  12 S :    0.189482
  13 C :   -0.026004
  14 N :    0.280853
  15 O :   -0.264005
  16 O :   -0.268985
  17 C :   -0.015552
  18 C :    0.121934
  19 C :    0.001034
  20 C :    0.033622
  21 N :   -0.030001
  22 C :   -0.148245
  23 S :    0.156043
  24 C :   -0.005378
  25 N :    0.280906
  26 O :   -0.256147
  27 O :   -0.264468
  28 C :    0.017959
  29 C :    0.134313
  30 C :   -0.050687
  31 C :    0.032567
  32 N :   -0.006777
  33 C :   -0.137229
  34 S :    0.145749
  35 C :    0.003477
  36 N :    0.281556
  37 O :   -0.261922
  38 O :   -0.268505
  39 C :   -0.001453
  40 C :    0.159244
  41 C :   -0.092896
  42 C :    0.011337
  43 C :    0.078225
  44 C :    0.052919
  45 C :   -0.010787
  46 C :    0.020926
  47 C :    0.023472
  48 C :    0.018544
  49 C :    0.068342
  50 C :   -0.045694
  51 C :   -0.011599
  52 C :    0.000183
  53 H :   -0.036897
  54 H :   -0.019086
  55 H :   -0.005986
  56 H :   -0.014572
  57 H :   -0.035670
  58 H :    0.021643
  59 H :    0.031579
  60 H :    0.140395
  61 H :   -0.000621
  62 H :   -0.082456
  63 H :    0.004505
  64 H :    0.141169
  65 H :   -0.000829
  66 H :    0.002487
  67 H :    0.024210
  68 H :    0.138643
  69 H :   -0.000844
  70 H :   -0.016786
  71 H :   -0.106621
  72 H :   -0.066096
  73 H :   -0.013280
  74 H :   -0.009976
  75 H :   -0.018682
  76 H :   -0.022447
  77 H :    0.041897
  78 H :    0.032446
Sum of atomic charges:    0.0000000

LOEWDIN ATOMIC CHARGES
----------------------
   0 C :   -0.067682
   1 C :   -0.007165
   2 C :   -0.020942
   3 C :   -0.014524
   4 C :   -0.024797
   5 C :   -0.042544
   6 C :   -0.068036
   7 C :   -0.003123
   8 C :   -0.021847
   9 C :    0.033782
  10 N :    0.038001
  11 C :   -0.113770
  12 S :    0.483300
  13 C :   -0.215913
  14 N :    0.273624
  15 O :   -0.230029
  16 O :   -0.235513
  17 C :   -0.010498
  18 C :   -0.102515
  19 C :   -0.082033
  20 C :    0.012783
  21 N :    0.016926
  22 C :   -0.111705
  23 S :    0.445730
  24 C :   -0.211363
  25 N :    0.278818
  26 O :   -0.223308
  27 O :   -0.229426
  28 C :    0.009044
  29 C :   -0.086036
  30 C :   -0.074934
  31 C :    0.007003
  32 N :    0.035217
  33 C :   -0.095204
  34 S :    0.462479
  35 C :   -0.215501
  36 N :    0.279230
  37 O :   -0.225847
  38 O :   -0.235210
  39 C :    0.009202
  40 C :   -0.102976
  41 C :   -0.048995
  42 C :   -0.024393
  43 C :   -0.060204
  44 C :   -0.008436
  45 C :   -0.037054
  46 C :   -0.013443
  47 C :   -0.029229
  48 C :   -0.002962
  49 C :   -0.028419
  50 C :   -0.011671
  51 C :   -0.012443
  52 C :    0.050638
  53 H :    0.020301
  54 H :    0.032121
  55 H :    0.032094
  56 H :    0.028600
  57 H :    0.010145
  58 H :    0.023655
  59 H :    0.037266
  60 H :    0.081655
  61 H :    0.038775
  62 H :    0.017429
  63 H :    0.027500
  64 H :    0.089519
  65 H :    0.041040
  66 H :    0.035579
  67 H :    0.029750
  68 H :    0.088168
  69 H :    0.040862
  70 H :    0.025952
  71 H :    0.012407
  72 H :    0.015766
  73 H :    0.029308
  74 H :    0.030195
  75 H :    0.033628
  76 H :    0.026462
  77 H :    0.037980
  78 H :    0.027757

  Mayer bond orders larger than 0.100000
B(  0-C ,  1-C ) :   1.5354 B(  0-C ,  8-C ) :   1.0412 B(  0-C , 53-H ) :   1.0254
B(  1-C ,  2-C ) :   1.1181 B(  1-C ,  6-C ) :   1.1054 B(  2-C ,  3-C ) :   1.6069
B(  2-C , 54-H ) :   1.0031 B(  3-C ,  4-C ) :   1.1413 B(  3-C , 55-H ) :   0.9866
B(  4-C ,  5-C ) :   1.6108 B(  4-C , 56-H ) :   0.9846 B(  5-C ,  6-C ) :   1.1056
B(  5-C , 57-H ) :   0.9930 B(  6-C ,  7-C ) :   1.4974 B(  7-C ,  8-C ) :   1.0425
B(  7-C , 10-N ) :   1.1334 B(  8-C ,  9-C ) :   1.8583 B(  9-C , 58-H ) :   0.9325
B(  9-C , 59-H ) :   0.9296 B( 10-N , 11-C ) :   1.2132 B( 10-N , 60-H ) :   0.8857
B( 11-C , 12-S ) :   1.1260 B( 11-C , 18-C ) :   1.3559 B( 12-S , 13-C ) :   1.0797
B( 13-C , 14-N ) :   0.9855 B( 13-C , 17-C ) :   1.4687 B( 14-N , 15-O ) :   1.5176
B( 14-N , 16-O ) :   1.5052 B( 15-O , 16-O ) :   0.2526 B( 17-C , 18-C ) :   1.2469
B( 17-C , 61-H ) :   0.9976 B( 18-C , 19-C ) :   1.1061 B( 19-C , 20-C ) :   1.7367
B( 19-C , 62-H ) :   0.9494 B( 20-C , 21-N ) :   1.1314 B( 20-C , 63-H ) :   0.9567
B( 21-N , 22-C ) :   1.1555 B( 21-N , 64-H ) :   0.9110 B( 22-C , 23-S ) :   1.1359
B( 22-C , 29-C ) :   1.3843 B( 23-S , 24-C ) :   1.0828 B( 24-C , 25-N ) :   0.9752
B( 24-C , 28-C ) :   1.4981 B( 25-N , 26-O ) :   1.5280 B( 25-N , 27-O ) :   1.5079
B( 26-O , 27-O ) :   0.2515 B( 28-C , 29-C ) :   1.2048 B( 28-C , 65-H ) :   0.9938
B( 29-C , 30-C ) :   1.1486 B( 30-C , 31-C ) :   1.6725 B( 30-C , 66-H ) :   0.9346
B( 31-C , 32-N ) :   1.1387 B( 31-C , 67-H ) :   0.9539 B( 32-N , 33-C ) :   1.1976
B( 32-N , 68-H ) :   0.9007 B( 33-C , 34-S ) :   1.1520 B( 33-C , 40-C ) :   1.3348
B( 34-S , 35-C ) :   1.0744 B( 35-C , 36-N ) :   0.9837 B( 35-C , 39-C ) :   1.4832
B( 36-N , 37-O ) :   1.5218 B( 36-N , 38-O ) :   1.5032 B( 37-O , 38-O ) :   0.2478
B( 39-C , 40-C ) :   1.1987 B( 39-C , 69-H ) :   1.0002 B( 40-C , 41-C ) :   1.0940
B( 41-C , 42-C ) :   1.6231 B( 41-C , 70-H ) :   0.9770 B( 42-C , 43-C ) :   1.1900
B( 42-C , 71-H ) :   0.9320 B( 43-C , 44-C ) :   1.4214 B( 43-C , 51-C ) :   1.0201
B( 44-C , 45-C ) :   1.1421 B( 44-C , 49-C ) :   1.1087 B( 45-C , 46-C ) :   1.6160
B( 45-C , 72-H ) :   0.9845 B( 46-C , 47-C ) :   1.1335 B( 46-C , 73-H ) :   0.9840
B( 47-C , 48-C ) :   1.6183 B( 47-C , 74-H ) :   0.9876 B( 48-C , 49-C ) :   1.1077
B( 48-C , 75-H ) :   1.0006 B( 49-C , 50-C ) :   1.5208 B( 50-C , 51-C ) :   1.0443
B( 50-C , 76-H ) :   1.0154 B( 51-C , 52-C ) :   1.8523 B( 52-C , 77-H ) :   0.9343
B( 52-C , 78-H ) :   0.9385

-----------------------------------------------------------------------------
         ABSORPTION SPECTRUM VIA TRANSITION ELECTRIC DIPOLE MOMENTS
-----------------------------------------------------------------------------
State   Energy  Wavelength   fosc         T2         TX        TY        TZ
        (cm-1)    (nm)                  (au**2)     (au)      (au)      (au)
-----------------------------------------------------------------------------
   0   13291.9    752.3   0.107717704   2.66793  -0.38076  -0.70179  -1.42493
   1   13372.0    747.8   0.131087836   3.22732  -1.25290  -0.83516   0.97984
   2   15186.3    658.5   0.009990826   0.21658   0.20838   0.32580  -0.25887
   3   17999.5    555.6   0.032052764   0.58625  -0.17655  -0.74392   0.04071
   4   18741.1    533.6   0.055718642   0.97877   0.43245  -0.88833   0.05117
   5   19496.5    512.9   0.011168899   0.18859   0.40430  -0.15503  -0.03324
   6   20119.8    497.0   0.008987839   0.14706  -0.04589   0.36441  -0.11029
   7   22142.1    451.6   0.218858768   3.25403  -0.49471   1.23451   1.21871
   8   22861.7    437.4   0.112384258   1.61835  -0.23095  -1.23034   0.22644
   9   22952.1    435.7   0.006336769   0.09089  -0.08487  -0.26867  -0.10727
  10   23926.7    417.9   0.006300299   0.08669  -0.20887  -0.15064   0.14271
  11   24625.4    406.1   0.105755954   1.41383  -0.33237  -0.35159   1.08616
  12   25865.9    386.6   0.015053657   0.19160  -0.27379  -0.17886   0.29094
  13   27257.0    366.9   0.174300124   2.10521   0.48599  -0.69540  -1.17705
  14   28033.5    356.7   0.008378857   0.09840   0.10173  -0.01168  -0.29650
  15   28483.1    351.1   0.240350651   2.77801   0.84062   1.30359  -0.60993
  16   28619.2    349.4   0.084577104   0.97291   0.57014   0.35357  -0.72308
  17   30032.3    333.0   0.118157074   1.29523  -0.25234   1.10224   0.12897
  18   30198.8    331.1   0.239545016   2.61140  -0.64116  -1.43007   0.39395
  19   30740.0    325.3   0.030242064   0.32388   0.15088  -0.43068  -0.34005
  20   31255.9    319.9   0.256739937   2.70419   1.04949   1.05775  -0.69564
  21   31477.5    317.7   0.056760265   0.59364   0.55906  -0.20503   0.48892
  22   31609.6    316.4   0.005543369   0.05773   0.08273   0.08915   0.20722
  23   31961.0    312.9   0.037741690   0.38876  -0.43401   0.38879   0.22189
  24   32617.3    306.6   0.094824361   0.95708   0.80209   0.42835  -0.36091
  25   32893.4    304.0   0.163410758   1.63549  -0.88449  -0.92188  -0.05748
  26   33379.9    299.6   0.034245160   0.33775  -0.10309   0.56268  -0.10252
  27   33468.2    298.8   0.078531842   0.77248  -0.41547  -0.75807   0.15871
  28   33973.8    294.3   0.004544627   0.04404  -0.10841  -0.17528   0.03954
  29   34278.1    291.7   0.016153178   0.15514   0.27364  -0.15342  -0.23816
  30   34578.7    289.2   0.077342730   0.73635  -0.14933  -0.71551   0.44956
  31   34974.7    285.9   0.073880606   0.69543  -0.63392  -0.15290   0.51981
  32   35204.2    284.1   0.019420536   0.18161   0.01277   0.29339   0.30882
  33   35651.8    280.5   0.020720141   0.19133   0.23669   0.18975   0.31513
  34   36243.1    275.9   0.029583300   0.26872   0.14874  -0.39820  -0.29669
  35   36357.9    275.0   0.021403918   0.19381  -0.06353  -0.27857   0.33492
  36   36476.8    274.1   0.052109695   0.47030   0.15256  -0.66308  -0.08575
  37   36711.8    272.4   0.020016677   0.17950   0.32522   0.08451  -0.25805
  38   36977.2    270.4   0.021599874   0.19231   0.37304   0.19070  -0.12952
  39   37019.4    270.1   0.060079946   0.53429   0.52405  -0.01913  -0.50921
  40   37671.3    265.5   0.032059742   0.28017   0.19573   0.49098  -0.02833
  41   37949.6    263.5   0.064539476   0.55988  -0.57914   0.38601  -0.27471
  42   38078.2    262.6   0.149721518   1.29445  -0.86202  -0.73388   0.11314
  43   38222.6    261.6   0.019832562   0.17082  -0.02628   0.40822   0.05901
  44   38372.9    260.6   0.297219147   2.54993   1.36664   0.82577   0.01835
  45   38522.0    259.6   0.106333067   0.90873   0.77571   0.28313  -0.47627
  46   38685.6    258.5   0.230619526   1.96256   1.15319  -0.08245  -0.79115
  47   38881.4    257.2   0.157094289   1.33013  -0.97243  -0.61760  -0.05541
  48   39009.5    256.3   0.013559271   0.11443   0.29575  -0.15170  -0.06284
  49   39259.9    254.7   0.074952837   0.62851   0.40723   0.17575  -0.65711
  50   39589.8    252.6   0.023123074   0.19228  -0.26848  -0.02625   0.34570
  51   39930.2    250.4   0.007978498   0.06578  -0.01429   0.21511  -0.13893
  52   40088.1    249.5   0.039970465   0.32825   0.45785   0.15555  -0.30728
  53   40266.0    248.3   0.154655327   1.26445  -0.47033  -0.99191   0.24365

FINAL SINGLE POINT ENERGY     -3434.489120592069

DIPOLE MOMENT
-------------
                                X             Y             Z
Electronic contribution:      6.90694       7.06907      12.27111
Nuclear contribution   :     -7.68097      -8.93239     -11.73335
                        -----------------------------------------
Total Dipole Moment    :     -0.77403      -1.86331       0.53776
                        -----------------------------------------
Magnitude (a.u.)       :      2.08812
Magnitude (Debye)      :      5.30759

Rotational constants in cm-1:     0.002462     0.001402     0.001069
Rotational constants in MHz :    73.808858    42.042084    32.033508

                             ****ORCA TERMINATED NORMALLY****
TOTAL RUN TIME: 0 days 0 hours 8 minutes 43 seconds 205 msec
