                         Program Version 4.2.0 -  RELEASE  -
|  1> # ORCA input file
|  2> # SCF done       -118.852687021007          0.000506864743
|  3> ! CAM-B3LYP def2-SVP def2/J RIJCOSX Grid4 TightSCF
|  4> %maxcore 5000
|  5> %tddft
|  6>     Mode sTDDFT
|  7>     Ethresh 5.0
|  8>     maxcore 5000
|  9> end
| 10>
| 11> %pal
| 12>   nprocs 6
| 13>   end
| 14> * xyz 0 1
| 15>    C        6.75289        -1.42266        -4.66279
| 16>    N        6.04130        -1.28046        -3.51592
| 17>    C        6.46131        -1.79066        -2.23516
| 18>    C        5.91367        -3.19811        -2.00211
| 19>    C        4.78667        -0.83124        -3.84018
| 20>    C        4.72433        -0.68288        -5.20996
| 21>    C        5.97699        -1.04546        -5.72664
| 22>    C        3.73174        -0.57228        -2.87143
| 23>    C        3.85005         0.27726        -1.81816
| 24>    O        2.83565         0.46300        -0.88260
| 25>    C        1.67098        -0.18039        -1.17547
| 26>    C        1.53410        -1.02562        -2.31672
| 27>    C        0.29653        -1.56803        -2.42528
| 28>    S       -0.72705        -1.05624        -1.13558
| 29>    C        0.53301        -0.10022        -0.44441
| 30>    O        2.57037        -1.25661        -3.17310
| 31>    C        5.01418         1.08289        -1.60080
| 32>    C        5.17045         1.89207        -0.52954
| 33>    C        6.32970         2.69108        -0.30545
| 34>    N        6.45601         3.60835         0.69560
| 35>    C        5.47407         3.88076         1.71589
| 36>    C        5.82867         3.18081         3.02620
| 37>    C        7.72185         4.13193         0.66927
| 38>    C        8.40860         3.52945        -0.39645
| 39>    C        7.53867         2.65553        -1.01376
| 40>    C        8.29223         5.10141         1.54088
| 41>    N        9.66583         5.09099         1.68882
| 42>    C       10.15485         6.08716         2.54356
| 43>    O       11.32355         6.21453         2.81769
| 44>    C        8.94832         6.80044         2.92473
| 45>    C        7.82148         6.16630         2.30073
| 46>    C        6.64855         6.95695         2.61938
| 47>    O        5.47507         6.85228         2.30323
| 48>    N        7.13945         7.97772         3.42492
| 49>    C        8.49761         7.90664         3.60528
| 50>    C        9.20697         8.89483         4.38106
| 51>    N        8.48433         9.89594         4.89858
| 52>    C        9.15138        10.79669         5.59844
| 53>    C       10.52007        10.72863         5.79926
| 54>    C       11.18941         9.63962         5.22312
| 55>    N       10.51435         8.73727         4.51979
| 56>    C       12.62168         9.38754         5.32249
| 57>    C       13.49696        10.12386         5.99492
| 58>    H        7.76494        -1.77760        -4.64095
| 59>    H        6.11728        -1.12228        -1.44189
| 60>    H        7.55424        -1.80857        -2.22218
| 61>    H        4.82654        -3.18543        -2.01782
| 62>    H        6.24494        -3.57434        -1.03815
| 63>    H        6.25957        -3.87325        -2.78137
| 64>    H        3.87629        -0.32877        -5.76105
| 65>    H        6.27160        -1.02923        -6.75678
| 66>    H       -0.06729        -2.23179        -3.18112
| 67>    H        0.36248         0.45779         0.45214
| 68>    H        5.76073         1.04252        -2.37756
| 69>    H        4.37741         1.91553         0.20237
| 70>    H        4.50155         3.53772         1.36305
| 71>    H        5.40391         4.95948         1.87028
| 72>    H        5.86966         2.10146         2.88888
| 73>    H        5.07658         3.41068         3.77519
| 74>    H        6.79391         3.52222         3.39277
| 75>    H        9.40971         3.75523        -0.70813
| 76>    H        7.74746         2.04762        -1.87089
| 77>    H       10.26362         4.39257         1.27664
| 78>    H        6.57835         8.71832         3.81691
| 79>    H        8.55737        11.60339         6.01076
| 80>    H       11.03617        11.48092         6.37107
| 81>    H       12.92865         8.50491         4.77872
| 82>    H       13.21777        11.00573         6.54791
| 83>    H       14.54181         9.86587         6.01786
| 84> *
| 85>
| 86>                          ****END OF INPUT****

CARTESIAN COORDINATES (ANGSTROEM)
---------------------------------
  C      6.752890   -1.422660   -4.662790
  N      6.041300   -1.280460   -3.515920
  C      6.461310   -1.790660   -2.235160
  C      5.913670   -3.198110   -2.002110
  C      4.786670   -0.831240   -3.840180
  C      4.724330   -0.682880   -5.209960
  C      5.976990   -1.045460   -5.726640
  C      3.731740   -0.572280   -2.871430
  C      3.850050    0.277260   -1.818160
  O      2.835650    0.463000   -0.882600
  C      1.670980   -0.180390   -1.175470
  C      1.534100   -1.025620   -2.316720
  C      0.296530   -1.568030   -2.425280
  S     -0.727050   -1.056240   -1.135580
  C      0.533010   -0.100220   -0.444410
  O      2.570370   -1.256610   -3.173100
  C      5.014180    1.082890   -1.600800
  C      5.170450    1.892070   -0.529540
  C      6.329700    2.691080   -0.305450
  N      6.456010    3.608350    0.695600
  C      5.474070    3.880760    1.715890
  C      5.828670    3.180810    3.026200
  C      7.721850    4.131930    0.669270
  C      8.408600    3.529450   -0.396450
  C      7.538670    2.655530   -1.013760
  C      8.292230    5.101410    1.540880
  N      9.665830    5.090990    1.688820
  C     10.154850    6.087160    2.543560
  O     11.323550    6.214530    2.817690
  C      8.948320    6.800440    2.924730
  C      7.821480    6.166300    2.300730
  C      6.648550    6.956950    2.619380
  O      5.475070    6.852280    2.303230
  N      7.139450    7.977720    3.424920
  C      8.497610    7.906640    3.605280
  C      9.206970    8.894830    4.381060
  N      8.484330    9.895940    4.898580
  C      9.151380   10.796690    5.598440
  C     10.520070   10.728630    5.799260
  C     11.189410    9.639620    5.223120
  N     10.514350    8.737270    4.519790
  C     12.621680    9.387540    5.322490
  C     13.496960   10.123860    5.994920
  H      7.764940   -1.777600   -4.640950
  H      6.117280   -1.122280   -1.441890
  H      7.554240   -1.808570   -2.222180
  H      4.826540   -3.185430   -2.017820
  H      6.244940   -3.574340   -1.038150
  H      6.259570   -3.873250   -2.781370
  H      3.876290   -0.328770   -5.761050
  H      6.271600   -1.029230   -6.756780
  H     -0.067290   -2.231790   -3.181120
  H      0.362480    0.457790    0.452140
  H      5.760730    1.042520   -2.377560
  H      4.377410    1.915530    0.202370
  H      4.501550    3.537720    1.363050
  H      5.403910    4.959480    1.870280
  H      5.869660    2.101460    2.888880
  H      5.076580    3.410680    3.775190
  H      6.793910    3.522220    3.392770
  H      9.409710    3.755230   -0.708130
  H      7.747460    2.047620   -1.870890
  H     10.263620    4.392570    1.276640
  H      6.578350    8.718320    3.816910
  H      8.557370   11.603390    6.010760
  H     11.036170   11.480920    6.371070
  H     12.928650    8.504910    4.778720
  H     13.217770   11.005730    6.547910
  H     14.541810    9.865870    6.017860

 Total Charge           Charge          ....    0
 Multiplicity           Mult            ....    1
 Number of Electrons    NEL             ....  308
 Basis Dimension        Dim             ....  736

ORBITAL ENERGIES
----------------

  NO   OCC          E(Eh)            E(eV)
   0   2.0000     -88.951656     -2420.4976
   1   2.0000     -19.267963      -524.3079
   2   2.0000     -19.265644      -524.2448
   3   2.0000     -19.176860      -521.8289
   4   2.0000     -19.170406      -521.6533
   5   2.0000     -14.465556      -393.6278
   6   2.0000     -14.455213      -393.3463
   7   2.0000     -14.440946      -392.9581
   8   2.0000     -14.434885      -392.7932
   9   2.0000     -14.412228      -392.1767
  10   2.0000     -14.404315      -391.9613
  11   2.0000     -10.365887      -282.0701
  12   2.0000     -10.362124      -281.9677
  13   2.0000     -10.344961      -281.5007
  14   2.0000     -10.343043      -281.4485
  15   2.0000     -10.339707      -281.3577
  16   2.0000     -10.334535      -281.2170
  17   2.0000     -10.334240      -281.2090
  18   2.0000     -10.333435      -281.1871
  19   2.0000     -10.325606      -280.9740
  20   2.0000     -10.321080      -280.8509
  21   2.0000     -10.316694      -280.7315
  22   2.0000     -10.309802      -280.5440
  23   2.0000     -10.303758      -280.3795
  24   2.0000     -10.303004      -280.3590
  25   2.0000     -10.289620      -279.9948
  26   2.0000     -10.288370      -279.9608
  27   2.0000     -10.287738      -279.9436
  28   2.0000     -10.287616      -279.9403
  29   2.0000     -10.284676      -279.8603
  30   2.0000     -10.281237      -279.7667
  31   2.0000     -10.278731      -279.6985
  32   2.0000     -10.276478      -279.6372
  33   2.0000     -10.274852      -279.5929
  34   2.0000     -10.271489      -279.5014
  35   2.0000     -10.266726      -279.3718
  36   2.0000     -10.262179      -279.2481
  37   2.0000     -10.257228      -279.1134
  38   2.0000     -10.256839      -279.1028
  39   2.0000     -10.254419      -279.0369
  40   2.0000     -10.254016      -279.0260
  41   2.0000     -10.245995      -278.8077
  42   2.0000     -10.243015      -278.7266
  43   2.0000      -8.047477      -218.9830
  44   2.0000      -6.017000      -163.7309
  45   2.0000      -6.012830      -163.6174
  46   2.0000      -6.009120      -163.5165
  47   2.0000      -1.191542       -32.4235
  48   2.0000      -1.154550       -31.4169
  49   2.0000      -1.118470       -30.4351
  50   2.0000      -1.109216       -30.1833
  51   2.0000      -1.088549       -29.6209
  52   2.0000      -1.083835       -29.4926
  53   2.0000      -1.079274       -29.3685
  54   2.0000      -1.046191       -28.4683
  55   2.0000      -1.031571       -28.0705
  56   2.0000      -0.980442       -26.6792
  57   2.0000      -0.979177       -26.6447
  58   2.0000      -0.915029       -24.8992
  59   2.0000      -0.905473       -24.6392
  60   2.0000      -0.903916       -24.5968
  61   2.0000      -0.902239       -24.5512
  62   2.0000      -0.878988       -23.9185
  63   2.0000      -0.876974       -23.8637
  64   2.0000      -0.852438       -23.1960
  65   2.0000      -0.849168       -23.1070
  66   2.0000      -0.824417       -22.4335
  67   2.0000      -0.816621       -22.2214
  68   2.0000      -0.815079       -22.1794
  69   2.0000      -0.810598       -22.0575
  70   2.0000      -0.804130       -21.8815
  71   2.0000      -0.792389       -21.5620
  72   2.0000      -0.762947       -20.7608
  73   2.0000      -0.752536       -20.4776
  74   2.0000      -0.742292       -20.1988
  75   2.0000      -0.731533       -19.9060
  76   2.0000      -0.721792       -19.6410
  77   2.0000      -0.720624       -19.6092
  78   2.0000      -0.717347       -19.5200
  79   2.0000      -0.695819       -18.9342
  80   2.0000      -0.681533       -18.5455
  81   2.0000      -0.675848       -18.3908
  82   2.0000      -0.664087       -18.0707
  83   2.0000      -0.658003       -17.9052
  84   2.0000      -0.655039       -17.8245
  85   2.0000      -0.648460       -17.6455
  86   2.0000      -0.626707       -17.0536
  87   2.0000      -0.616509       -16.7761
  88   2.0000      -0.611641       -16.6436
  89   2.0000      -0.609664       -16.5898
  90   2.0000      -0.606312       -16.4986
  91   2.0000      -0.602681       -16.3998
  92   2.0000      -0.594275       -16.1710
  93   2.0000      -0.580681       -15.8011
  94   2.0000      -0.567234       -15.4352
  95   2.0000      -0.559112       -15.2142
  96   2.0000      -0.558860       -15.2073
  97   2.0000      -0.553299       -15.0560
  98   2.0000      -0.550108       -14.9692
  99   2.0000      -0.546187       -14.8625
 100   2.0000      -0.543294       -14.7838
 101   2.0000      -0.540946       -14.7199
 102   2.0000      -0.533003       -14.5037
 103   2.0000      -0.531586       -14.4652
 104   2.0000      -0.526562       -14.3285
 105   2.0000      -0.520086       -14.1523
 106   2.0000      -0.519653       -14.1405
 107   2.0000      -0.514645       -14.0042
 108   2.0000      -0.510820       -13.9001
 109   2.0000      -0.503557       -13.7025
 110   2.0000      -0.502387       -13.6706
 111   2.0000      -0.501514       -13.6469
 112   2.0000      -0.498696       -13.5702
 113   2.0000      -0.496748       -13.5172
 114   2.0000      -0.493067       -13.4170
 115   2.0000      -0.490181       -13.3385
 116   2.0000      -0.489424       -13.3179
 117   2.0000      -0.483380       -13.1534
 118   2.0000      -0.480708       -13.0807
 119   2.0000      -0.473423       -12.8825
 120   2.0000      -0.472175       -12.8485
 121   2.0000      -0.466563       -12.6958
 122   2.0000      -0.459705       -12.5092
 123   2.0000      -0.456860       -12.4318
 124   2.0000      -0.455963       -12.4074
 125   2.0000      -0.447761       -12.1842
 126   2.0000      -0.444782       -12.1031
 127   2.0000      -0.443715       -12.0741
 128   2.0000      -0.437705       -11.9105
 129   2.0000      -0.435258       -11.8440
 130   2.0000      -0.434943       -11.8354
 131   2.0000      -0.428666       -11.6646
 132   2.0000      -0.426497       -11.6056
 133   2.0000      -0.422532       -11.4977
 134   2.0000      -0.417872       -11.3709
 135   2.0000      -0.411146       -11.1878
 136   2.0000      -0.409257       -11.1365
 137   2.0000      -0.399912       -10.8822
 138   2.0000      -0.382826       -10.4172
 139   2.0000      -0.381876       -10.3914
 140   2.0000      -0.360042        -9.7972
 141   2.0000      -0.337271        -9.1776
 142   2.0000      -0.333348        -9.0708
 143   2.0000      -0.327188        -8.9032
 144   2.0000      -0.322080        -8.7643
 145   2.0000      -0.320395        -8.7184
 146   2.0000      -0.316808        -8.6208
 147   2.0000      -0.308553        -8.3962
 148   2.0000      -0.305619        -8.3163
 149   2.0000      -0.302197        -8.2232
 150   2.0000      -0.281838        -7.6692
 151   2.0000      -0.281239        -7.6529
 152   2.0000      -0.250115        -6.8060
 153   2.0000      -0.224661        -6.1133
 154   0.0000      -0.064244        -1.7482
 155   0.0000      -0.023084        -0.6281
 156   0.0000      -0.013384        -0.3642
 157   0.0000       0.016366         0.4453
 158   0.0000       0.030209         0.8220

MULLIKEN ATOMIC CHARGES
-----------------------
   0 C :    0.053096
   1 N :   -0.164594
   2 C :    0.076359
   3 C :    0.009873
   4 C :    0.012323
   5 C :   -0.020432
   6 C :    0.000439
   7 C :    0.099527
   8 C :    0.183487
   9 O :   -0.270309
  10 C :    0.224817
  11 C :    0.223039
  12 C :   -0.176834
  13 S :    0.104508
  14 C :   -0.179968
  15 O :   -0.241640
  16 C :   -0.088599
  17 C :   -0.006359
  18 C :    0.137319
  19 N :   -0.141083
  20 C :    0.076103
  21 C :    0.005801
  22 C :    0.048699
  23 C :   -0.041153
  24 C :   -0.050707
  25 C :    0.100403
  26 N :   -0.135020
  27 C :    0.136275
  28 O :   -0.145860
  29 C :   -0.103815
  30 C :   -0.096371
  31 C :    0.146169
  32 O :   -0.212811
  33 N :   -0.084057
  34 C :    0.138228
  35 C :   -0.161306
  36 N :   -0.092311
  37 C :    0.079921
  38 C :   -0.048875
  39 C :    0.029462
  40 N :    0.005244
  41 C :    0.034775
  42 C :   -0.004921
  43 H :   -0.012080
  44 H :    0.040301
  45 H :    0.022032
  46 H :    0.034639
  47 H :    0.019185
  48 H :    0.021158
  49 H :   -0.031080
  50 H :   -0.024075
  51 H :    0.024531
  52 H :    0.021611
  53 H :    0.028172
  54 H :   -0.002638
  55 H :    0.019713
  56 H :    0.050314
  57 H :    0.011978
  58 H :    0.026960
  59 H :    0.026952
  60 H :   -0.027855
  61 H :   -0.028689
  62 H :    0.122088
  63 H :    0.127293
  64 H :    0.005289
  65 H :   -0.008048
  66 H :    0.019677
  67 H :    0.017046
  68 H :    0.036684
Sum of atomic charges:   -0.0000000

LOEWDIN ATOMIC CHARGES
----------------------
   0 C :   -0.018534
   1 N :    0.067260
   2 C :    0.036677
   3 C :   -0.058309
   4 C :   -0.047695
   5 C :   -0.051997
   6 C :   -0.080334
   7 C :    0.015470
   8 C :    0.010452
   9 O :   -0.066928
  10 C :   -0.005877
  11 C :   -0.009433
  12 C :   -0.210459
  13 S :    0.430627
  14 C :   -0.213440
  15 O :   -0.050180
  16 C :   -0.028387
  17 C :   -0.037006
  18 C :    0.005760
  19 N :    0.090325
  20 C :    0.031910
  21 C :   -0.059597
  22 C :   -0.043605
  23 C :   -0.045028
  24 C :   -0.065213
  25 C :    0.087337
  26 N :    0.023971
  27 C :    0.077267
  28 O :   -0.173323
  29 C :   -0.096412
  30 C :   -0.149724
  31 C :    0.071462
  32 O :   -0.216952
  33 N :    0.044233
  34 C :    0.039745
  35 C :    0.014603
  36 N :   -0.101985
  37 C :    0.047710
  38 C :   -0.057700
  39 C :    0.039576
  40 N :   -0.056365
  41 C :   -0.023712
  42 C :   -0.017158
  43 H :    0.017117
  44 H :    0.030049
  45 H :    0.028815
  46 H :    0.030430
  47 H :    0.028736
  48 H :    0.027429
  49 H :    0.025096
  50 H :    0.023023
  51 H :    0.029026
  52 H :    0.027780
  53 H :    0.037302
  54 H :    0.030411
  55 H :    0.028465
  56 H :    0.030458
  57 H :    0.022142
  58 H :    0.033009
  59 H :    0.025740
  60 H :    0.023411
  61 H :    0.023969
  62 H :    0.084363
  63 H :    0.087385
  64 H :    0.026653
  65 H :    0.032268
  66 H :    0.044705
  67 H :    0.021247
  68 H :    0.031938

  Mayer bond orders larger than 0.100000
B(  0-C ,  1-N ) :   1.2062 B(  0-C ,  4-C ) :   0.1037 B(  0-C ,  6-C ) :   1.4715
B(  0-C , 43-H ) :   0.9903 B(  1-N ,  2-C ) :   0.9672 B(  1-N ,  4-C ) :   1.2078
B(  2-C ,  3-C ) :   1.1071 B(  2-C , 44-H ) :   0.9406 B(  2-C , 45-H ) :   0.9484
B(  3-C , 46-H ) :   0.9693 B(  3-C , 47-H ) :   0.9662 B(  3-C , 48-H ) :   0.9655
B(  4-C ,  5-C ) :   1.5037 B(  4-C ,  7-C ) :   0.9967 B(  5-C ,  6-C ) :   1.2971
B(  5-C , 49-H ) :   1.0225 B(  6-C , 50-H ) :   1.0058 B(  7-C ,  8-C ) :   1.5566
B(  7-C , 15-O ) :   1.0791 B(  8-C ,  9-O ) :   1.0378 B(  8-C , 16-C ) :   1.1464
B(  9-O , 10-C ) :   1.0554 B( 10-C , 11-C ) :   1.1966 B( 10-C , 14-C ) :   1.5734
B( 11-C , 12-C ) :   1.5744 B( 11-C , 15-O ) :   1.0538 B( 12-C , 13-S ) :   1.1408
B( 12-C , 51-H ) :   0.9712 B( 13-S , 14-C ) :   1.1372 B( 14-C , 52-H ) :   0.9728
B( 16-C , 17-C ) :   1.6794 B( 16-C , 53-H ) :   0.9566 B( 17-C , 18-C ) :   1.0532
B( 17-C , 54-H ) :   0.9702 B( 18-C , 19-N ) :   1.2228 B( 18-C , 22-C ) :   0.1044
B( 18-C , 24-C ) :   1.3671 B( 19-N , 20-C ) :   0.9426 B( 19-N , 22-C ) :   1.2152
B( 20-C , 21-C ) :   1.1059 B( 20-C , 55-H ) :   0.9377 B( 20-C , 56-H ) :   0.8999
B( 21-C , 57-H ) :   0.9637 B( 21-C , 58-H ) :   0.9672 B( 21-C , 59-H ) :   0.9676
B( 22-C , 23-C ) :   1.3455 B( 22-C , 25-C ) :   1.0527 B( 23-C , 24-C ) :   1.3819
B( 23-C , 60-H ) :   1.0100 B( 24-C , 61-H ) :   1.0044 B( 25-C , 26-N ) :   1.2487
B( 25-C , 30-C ) :   1.3454 B( 26-N , 27-C ) :   1.0389 B( 26-N , 62-H ) :   0.9162
B( 27-C , 28-O ) :   2.2528 B( 27-C , 29-C ) :   0.9314 B( 29-C , 30-C ) :   1.1782
B( 29-C , 34-C ) :   1.4599 B( 30-C , 31-C ) :   0.9770 B( 31-C , 32-O ) :   2.0451
B( 31-C , 33-N ) :   1.1047 B( 32-O , 56-H ) :   0.1502 B( 33-N , 34-C ) :   1.2422
B( 33-N , 63-H ) :   0.9079 B( 34-C , 35-C ) :   0.9646 B( 34-C , 40-N ) :  -0.1189
B( 35-C , 36-N ) :   1.5380 B( 35-C , 40-N ) :   1.6643 B( 36-N , 37-C ) :   1.5247
B( 37-C , 38-C ) :   1.4043 B( 37-C , 64-H ) :   0.9781 B( 38-C , 39-C ) :   1.3355
B( 38-C , 65-H ) :   0.9679 B( 39-C , 40-N ) :   1.5037 B( 39-C , 41-C ) :   1.0697
B( 41-C , 42-C ) :   1.9306 B( 41-C , 66-H ) :   0.9609 B( 42-C , 67-H ) :   0.9495
B( 42-C , 68-H ) :   0.9518

-----------------------------------------------------------------------------
         ABSORPTION SPECTRUM VIA TRANSITION ELECTRIC DIPOLE MOMENTS
-----------------------------------------------------------------------------
State   Energy  Wavelength   fosc         T2         TX        TY        TZ
        (cm-1)    (nm)                  (au**2)     (au)      (au)      (au)
-----------------------------------------------------------------------------
   0   19473.6    513.5   1.247067457  21.08234   1.02973   3.55660   2.71525
   1   25779.4    387.9   0.138993304   1.77499   1.16491   0.30903   0.56788
   2   28530.1    350.5   0.014930762   0.17229   0.09595   0.33579   0.22434
   3   28834.3    346.8   0.003431214   0.03918   0.13753   0.13998   0.02584
   4   29904.8    334.4   0.093730754   1.03185  -0.35466  -0.70680  -0.63757
   5   31931.8    313.2   0.012814829   0.13212   0.32978   0.14993   0.02973
   6   32176.9    310.8   0.048310263   0.49428   0.61930   0.31377   0.11090
   7   32390.9    308.7   0.193317599   1.96482  -1.05488  -0.72179  -0.57539
   8   33674.4    297.0   0.023241227   0.22721  -0.32146  -0.29148  -0.19726
   9   34211.1    292.3   0.066992057   0.64466  -0.68524  -0.05628   0.41467
  10   35020.8    285.5   0.168343391   1.58251   0.61605   0.72164   0.82597
  11   36431.2    274.5   0.062266314   0.56267   0.74708  -0.01671   0.06536
  12   36655.6    272.8   0.008214685   0.07378  -0.00312   0.12876  -0.23914
  13   37886.4    263.9   0.026272706   0.22830   0.41725  -0.06449  -0.22370
  14   38407.8    260.4   0.081281234   0.69670   0.77098  -0.11664  -0.29780
  15   38852.0    257.4   0.044018176   0.37299  -0.57847  -0.00923   0.19564
  16   39556.2    252.8   0.083158001   0.69209   0.42320   0.60604   0.38173
  17   39778.3    251.4   0.095821462   0.79303  -0.83576  -0.21912   0.21571

FINAL SINGLE POINT ENERGY     -2260.191107066033

DIPOLE MOMENT
-------------
                                X             Y             Z
Electronic contribution:    -14.17177      14.24022       1.33378
Nuclear contribution   :     14.80447     -14.72618      -0.66300
                        -----------------------------------------
Total Dipole Moment    :      0.63269      -0.48597       0.67078
                        -----------------------------------------
Magnitude (a.u.)       :      1.04231
Magnitude (Debye)      :      2.64934

Rotational constants in cm-1:     0.005803     0.000797     0.000723
Rotational constants in MHz :   173.957466    23.879958    21.687428

                             ****ORCA TERMINATED NORMALLY****
TOTAL RUN TIME: 0 days 0 hours 8 minutes 8 seconds 568 msec
