                         Program Version 4.2.0 -  RELEASE  -
|  1> # ORCA input file
|  2> # SCF done       -120.133765420773          0.000281686688
|  3> ! CAM-B3LYP def2-SVP def2/J RIJCOSX Grid4 TightSCF
|  4> %maxcore 5000
|  5> %tddft
|  6>     Mode sTDDFT
|  7>     Ethresh 5.0
|  8>     maxcore 5000
|  9> end
| 10>
| 11> %pal
| 12>   nprocs 6
| 13>   end
| 14> * xyz 0 1
| 15>    C        8.68334        -0.63655         3.23664
| 16>    N        7.65020        -0.90694         2.39926
| 17>    C        7.79616        -1.56715         1.12658
| 18>    C        8.63384        -0.75289         0.14377
| 19>    C        6.48507        -0.53163         3.01299
| 20>    C        6.79962        -0.02482         4.25560
| 21>    C        8.19597        -0.08154         4.38970
| 22>    C        5.15691        -0.77432         2.45720
| 23>    C        4.67942        -0.27456         1.29551
| 24>    O        3.45145        -0.66327         0.75929
| 25>    C        2.71781        -1.49639         1.54817
| 26>    C        3.19867        -1.96699         2.80662
| 27>    C        2.31512        -2.77765         3.43757
| 28>    S        0.87625        -2.98231         2.50679
| 29>    C        1.47991        -1.96008         1.25298
| 30>    O        4.43176        -1.63158         3.27773
| 31>    C        5.31929         0.70573         0.45478
| 32>    C        6.22204         1.61973         0.85738
| 33>    C        6.83339         2.57321        -0.01563
| 34>    N        7.53746         3.66160         0.44171
| 35>    C        7.49360         4.14955         1.79753
| 36>    C        6.12884         4.75677         2.11870
| 37>    C        8.01430         4.35956        -0.63294
| 38>    C        7.62366         3.70487        -1.78756
| 39>    C        6.89313         2.58248        -1.40340
| 40>    C        8.78179         5.59383        -0.55906
| 41>    C        9.95276         5.75685         0.10552
| 42>    O       10.63788         6.96661         0.12445
| 43>    C       10.10759         7.94057        -0.66581
| 44>    C        8.90180         7.74866        -1.40359
| 45>    C        8.54792         8.83922        -2.12612
| 46>    S        9.68184        10.12355        -1.91906
| 47>    C       10.64209         9.17239        -0.84517
| 48>    O        8.20136         6.58296        -1.34615
| 49>    C       10.62444         4.69191         0.80446
| 50>    C       11.83620         4.86028         1.37275
| 51>    C       12.68681         3.92703         2.04178
| 52>    N       12.37928         2.69245         2.56375
| 53>    C       11.07620         2.11935         2.78071
| 54>    C       10.30523         2.88959         3.84997
| 55>    C       13.50719         2.15085         3.08732
| 56>    C       14.56240         3.00548         2.89093
| 57>    C       14.04752         4.13077         2.24351
| 58>    H        9.69065        -0.87952         2.96190
| 59>    H        6.79998        -1.73357         0.71275
| 60>    H        8.27097        -2.54222         1.28909
| 61>    H        8.17536         0.21553        -0.03545
| 62>    H        8.70544        -1.28396        -0.80118
| 63>    H        9.63882        -0.59879         0.52833
| 64>    H        6.09724         0.35019         4.97310
| 65>    H        8.76823         0.22966         5.24127
| 66>    H        2.42510        -3.26220         4.38477
| 67>    H        0.89277        -1.76501         0.38044
| 68>    H        4.94518         0.72254        -0.55853
| 69>    H        6.51002         1.64459         1.89844
| 70>    H        8.26951         4.90785         1.91411
| 71>    H        7.70885         3.32719         2.48498
| 72>    H        5.91844         5.58164         1.44195
| 73>    H        6.11973         5.12965         3.13926
| 74>    H        5.34450         4.01178         2.00916
| 75>    H        7.86802         4.00758        -2.78593
| 76>    H        6.47181         1.84480        -2.05635
| 77>    H        7.69523         8.96192        -2.76009
| 78>    H       11.53329         9.57499        -0.41179
| 79>    H       10.11776         3.74248         0.77975
| 80>    H       12.28571         5.84067         1.28013
| 81>    H       11.22279         1.08898         3.11427
| 82>    H       10.51082         2.09139         1.84616
| 83>    H       10.87290         2.90331         4.77762
| 84>    H        9.34837         2.40909         4.03472
| 85>    H       10.13927         3.91561         3.53297
| 86>    H       13.48493         1.19008         3.56513
| 87>    H       15.58004         2.83761         3.18263
| 88>    H       14.59652         4.99694         1.93003
| 89> *
| 90>
| 91>                          ****END OF INPUT****

CARTESIAN COORDINATES (ANGSTROEM)
---------------------------------
  C      8.683340   -0.636550    3.236640
  N      7.650200   -0.906940    2.399260
  C      7.796160   -1.567150    1.126580
  C      8.633840   -0.752890    0.143770
  C      6.485070   -0.531630    3.012990
  C      6.799620   -0.024820    4.255600
  C      8.195970   -0.081540    4.389700
  C      5.156910   -0.774320    2.457200
  C      4.679420   -0.274560    1.295510
  O      3.451450   -0.663270    0.759290
  C      2.717810   -1.496390    1.548170
  C      3.198670   -1.966990    2.806620
  C      2.315120   -2.777650    3.437570
  S      0.876250   -2.982310    2.506790
  C      1.479910   -1.960080    1.252980
  O      4.431760   -1.631580    3.277730
  C      5.319290    0.705730    0.454780
  C      6.222040    1.619730    0.857380
  C      6.833390    2.573210   -0.015630
  N      7.537460    3.661600    0.441710
  C      7.493600    4.149550    1.797530
  C      6.128840    4.756770    2.118700
  C      8.014300    4.359560   -0.632940
  C      7.623660    3.704870   -1.787560
  C      6.893130    2.582480   -1.403400
  C      8.781790    5.593830   -0.559060
  C      9.952760    5.756850    0.105520
  O     10.637880    6.966610    0.124450
  C     10.107590    7.940570   -0.665810
  C      8.901800    7.748660   -1.403590
  C      8.547920    8.839220   -2.126120
  S      9.681840   10.123550   -1.919060
  C     10.642090    9.172390   -0.845170
  O      8.201360    6.582960   -1.346150
  C     10.624440    4.691910    0.804460
  C     11.836200    4.860280    1.372750
  C     12.686810    3.927030    2.041780
  N     12.379280    2.692450    2.563750
  C     11.076200    2.119350    2.780710
  C     10.305230    2.889590    3.849970
  C     13.507190    2.150850    3.087320
  C     14.562400    3.005480    2.890930
  C     14.047520    4.130770    2.243510
  H      9.690650   -0.879520    2.961900
  H      6.799980   -1.733570    0.712750
  H      8.270970   -2.542220    1.289090
  H      8.175360    0.215530   -0.035450
  H      8.705440   -1.283960   -0.801180
  H      9.638820   -0.598790    0.528330
  H      6.097240    0.350190    4.973100
  H      8.768230    0.229660    5.241270
  H      2.425100   -3.262200    4.384770
  H      0.892770   -1.765010    0.380440
  H      4.945180    0.722540   -0.558530
  H      6.510020    1.644590    1.898440
  H      8.269510    4.907850    1.914110
  H      7.708850    3.327190    2.484980
  H      5.918440    5.581640    1.441950
  H      6.119730    5.129650    3.139260
  H      5.344500    4.011780    2.009160
  H      7.868020    4.007580   -2.785930
  H      6.471810    1.844800   -2.056350
  H      7.695230    8.961920   -2.760090
  H     11.533290    9.574990   -0.411790
  H     10.117760    3.742480    0.779750
  H     12.285710    5.840670    1.280130
  H     11.222790    1.088980    3.114270
  H     10.510820    2.091390    1.846160
  H     10.872900    2.903310    4.777620
  H      9.348370    2.409090    4.034720
  H     10.139270    3.915610    3.532970
  H     13.484930    1.190080    3.565130
  H     15.580040    2.837610    3.182630
  H     14.596520    4.996940    1.930030

 Total Charge           Charge          ....    0
 Multiplicity           Mult            ....    1
 Number of Electrons    NEL             ....  320
 Basis Dimension        Dim             ....  765

ORBITAL ENERGIES
----------------

  NO   OCC          E(Eh)            E(eV)
   0   2.0000     -88.947864     -2420.3944
   1   2.0000     -88.947706     -2420.3901
   2   2.0000     -19.261787      -524.1399
   3   2.0000     -19.260401      -524.1021
   4   2.0000     -19.260391      -524.1019
   5   2.0000     -19.259811      -524.0861
   6   2.0000     -14.457117      -393.3981
   7   2.0000     -14.455526      -393.3549
   8   2.0000     -14.449512      -393.1912
   9   2.0000     -10.333020      -281.1758
  10   2.0000     -10.331966      -281.1471
  11   2.0000     -10.331478      -281.1338
  12   2.0000     -10.330780      -281.1148
  13   2.0000     -10.330276      -281.1011
  14   2.0000     -10.329807      -281.0883
  15   2.0000     -10.328995      -281.0663
  16   2.0000     -10.328793      -281.0608
  17   2.0000     -10.308988      -280.5218
  18   2.0000     -10.307468      -280.4805
  19   2.0000     -10.306978      -280.4671
  20   2.0000     -10.292641      -280.0770
  21   2.0000     -10.290097      -280.0078
  22   2.0000     -10.289084      -279.9802
  23   2.0000     -10.284052      -279.8433
  24   2.0000     -10.283987      -279.8415
  25   2.0000     -10.283919      -279.8397
  26   2.0000     -10.283815      -279.8368
  27   2.0000     -10.283149      -279.8187
  28   2.0000     -10.280888      -279.7572
  29   2.0000     -10.278843      -279.7015
  30   2.0000     -10.277300      -279.6596
  31   2.0000     -10.272281      -279.5230
  32   2.0000     -10.270673      -279.4792
  33   2.0000     -10.266029      -279.3528
  34   2.0000     -10.259912      -279.1864
  35   2.0000     -10.259766      -279.1824
  36   2.0000     -10.257701      -279.1262
  37   2.0000     -10.248770      -278.8832
  38   2.0000     -10.248214      -278.8681
  39   2.0000     -10.247753      -278.8555
  40   2.0000     -10.246967      -278.8341
  41   2.0000     -10.241490      -278.6851
  42   2.0000     -10.239017      -278.6178
  43   2.0000      -8.043555      -218.8762
  44   2.0000      -8.043489      -218.8745
  45   2.0000      -6.013084      -163.6243
  46   2.0000      -6.013010      -163.6223
  47   2.0000      -6.008938      -163.5115
  48   2.0000      -6.008875      -163.5098
  49   2.0000      -6.005231      -163.4106
  50   2.0000      -6.005122      -163.4077
  51   2.0000      -1.185878       -32.2694
  52   2.0000      -1.184819       -32.2406
  53   2.0000      -1.148869       -31.2623
  54   2.0000      -1.147537       -31.2261
  55   2.0000      -1.081133       -29.4191
  56   2.0000      -1.079490       -29.3744
  57   2.0000      -1.072957       -29.1966
  58   2.0000      -0.974867       -26.5275
  59   2.0000      -0.974676       -26.5223
  60   2.0000      -0.913134       -24.8476
  61   2.0000      -0.904981       -24.6258
  62   2.0000      -0.903127       -24.5753
  63   2.0000      -0.901464       -24.5301
  64   2.0000      -0.898474       -24.4487
  65   2.0000      -0.872786       -23.7497
  66   2.0000      -0.855685       -23.2844
  67   2.0000      -0.834949       -22.7201
  68   2.0000      -0.826571       -22.4921
  69   2.0000      -0.816752       -22.2249
  70   2.0000      -0.815361       -22.1871
  71   2.0000      -0.811395       -22.0792
  72   2.0000      -0.806238       -21.9388
  73   2.0000      -0.804077       -21.8801
  74   2.0000      -0.797656       -21.7053
  75   2.0000      -0.785424       -21.3725
  76   2.0000      -0.768749       -20.9187
  77   2.0000      -0.737374       -20.0650
  78   2.0000      -0.722803       -19.6685
  79   2.0000      -0.720907       -19.6169
  80   2.0000      -0.717748       -19.5309
  81   2.0000      -0.714073       -19.4309
  82   2.0000      -0.693414       -18.8687
  83   2.0000      -0.685866       -18.6634
  84   2.0000      -0.675795       -18.3893
  85   2.0000      -0.670635       -18.2489
  86   2.0000      -0.668118       -18.1804
  87   2.0000      -0.658782       -17.9264
  88   2.0000      -0.653020       -17.7696
  89   2.0000      -0.647925       -17.6309
  90   2.0000      -0.642082       -17.4719
  91   2.0000      -0.625150       -17.0112
  92   2.0000      -0.613494       -16.6940
  93   2.0000      -0.612290       -16.6613
  94   2.0000      -0.609650       -16.5894
  95   2.0000      -0.599294       -16.3076
  96   2.0000      -0.583958       -15.8903
  97   2.0000      -0.578338       -15.7374
  98   2.0000      -0.570833       -15.5331
  99   2.0000      -0.557009       -15.1570
 100   2.0000      -0.556347       -15.1390
 101   2.0000      -0.554207       -15.0808
 102   2.0000      -0.552314       -15.0292
 103   2.0000      -0.545368       -14.8402
 104   2.0000      -0.543325       -14.7846
 105   2.0000      -0.537234       -14.6189
 106   2.0000      -0.536301       -14.5935
 107   2.0000      -0.529348       -14.4043
 108   2.0000      -0.524591       -14.2748
 109   2.0000      -0.520462       -14.1625
 110   2.0000      -0.517350       -14.0778
 111   2.0000      -0.508703       -13.8425
 112   2.0000      -0.507276       -13.8037
 113   2.0000      -0.502044       -13.6613
 114   2.0000      -0.499951       -13.6043
 115   2.0000      -0.496998       -13.5240
 116   2.0000      -0.492477       -13.4010
 117   2.0000      -0.491579       -13.3765
 118   2.0000      -0.488026       -13.2799
 119   2.0000      -0.484706       -13.1895
 120   2.0000      -0.483739       -13.1632
 121   2.0000      -0.476274       -12.9601
 122   2.0000      -0.471595       -12.8327
 123   2.0000      -0.470211       -12.7951
 124   2.0000      -0.466823       -12.7029
 125   2.0000      -0.465073       -12.6553
 126   2.0000      -0.460817       -12.5395
 127   2.0000      -0.458217       -12.4687
 128   2.0000      -0.456513       -12.4223
 129   2.0000      -0.453433       -12.3385
 130   2.0000      -0.453226       -12.3329
 131   2.0000      -0.448113       -12.1938
 132   2.0000      -0.445108       -12.1120
 133   2.0000      -0.442797       -12.0491
 134   2.0000      -0.442484       -12.0406
 135   2.0000      -0.440151       -11.9771
 136   2.0000      -0.439791       -11.9673
 137   2.0000      -0.437163       -11.8958
 138   2.0000      -0.431684       -11.7467
 139   2.0000      -0.426261       -11.5992
 140   2.0000      -0.423338       -11.5196
 141   2.0000      -0.422891       -11.5075
 142   2.0000      -0.422613       -11.4999
 143   2.0000      -0.417391       -11.3578
 144   2.0000      -0.406326       -11.0567
 145   2.0000      -0.404942       -11.0190
 146   2.0000      -0.383274       -10.4294
 147   2.0000      -0.376758       -10.2521
 148   2.0000      -0.336471        -9.1559
 149   2.0000      -0.324364        -8.8264
 150   2.0000      -0.309725        -8.4280
 151   2.0000      -0.307196        -8.3592
 152   2.0000      -0.301834        -8.2133
 153   2.0000      -0.298401        -8.1199
 154   2.0000      -0.295786        -8.0487
 155   2.0000      -0.281775        -7.6675
 156   2.0000      -0.272464        -7.4141
 157   2.0000      -0.267608        -7.2820
 158   2.0000      -0.239778        -6.5247
 159   2.0000      -0.221489        -6.0270
 160   0.0000      -0.021856        -0.5947
 161   0.0000      -0.000585        -0.0159
 162   0.0000       0.033970         0.9244
 163   0.0000       0.034174         0.9299
 164   0.0000       0.056679         1.5423

MULLIKEN ATOMIC CHARGES
-----------------------
   0 C :    0.037449
   1 N :   -0.156253
   2 C :    0.109956
   3 C :   -0.011554
   4 C :    0.016493
   5 C :   -0.040407
   6 C :    0.004171
   7 C :    0.053877
   8 C :    0.190331
   9 O :   -0.263468
  10 C :    0.212598
  11 C :    0.225825
  12 C :   -0.180230
  13 S :    0.097694
  14 C :   -0.177207
  15 O :   -0.247299
  16 C :   -0.063682
  17 C :    0.021927
  18 C :    0.090756
  19 N :   -0.174229
  20 C :    0.051007
  21 C :    0.021671
  22 C :    0.040794
  23 C :   -0.007166
  24 C :   -0.040338
  25 C :    0.061628
  26 C :    0.199766
  27 O :   -0.269127
  28 C :    0.219679
  29 C :    0.227711
  30 C :   -0.181143
  31 S :    0.099770
  32 C :   -0.178980
  33 O :   -0.248007
  34 C :   -0.109171
  35 C :    0.030061
  36 C :    0.091627
  37 N :   -0.161050
  38 C :    0.098383
  39 C :   -0.009463
  40 C :    0.052201
  41 C :    0.005422
  42 C :   -0.044052
  43 H :   -0.008019
  44 H :    0.038551
  45 H :    0.022704
  46 H :    0.041643
  47 H :    0.018446
  48 H :    0.013409
  49 H :   -0.033842
  50 H :   -0.020849
  51 H :    0.021659
  52 H :    0.020993
  53 H :   -0.005101
  54 H :    0.010258
  55 H :    0.046231
  56 H :    0.032906
  57 H :    0.028465
  58 H :    0.019932
  59 H :    0.027951
  60 H :   -0.032903
  61 H :   -0.031301
  62 H :    0.022528
  63 H :    0.020582
  64 H :   -0.001262
  65 H :    0.000786
  66 H :    0.008770
  67 H :    0.029319
  68 H :    0.014896
  69 H :    0.038640
  70 H :    0.026892
  71 H :   -0.011640
  72 H :   -0.026955
  73 H :   -0.031656
Sum of atomic charges:   -0.0000000

LOEWDIN ATOMIC CHARGES
----------------------
   0 C :   -0.025414
   1 N :    0.071978
   2 C :    0.041263
   3 C :   -0.061833
   4 C :   -0.036639
   5 C :   -0.069448
   6 C :   -0.082456
   7 C :    0.003135
   8 C :    0.014632
   9 O :   -0.068679
  10 C :   -0.008317
  11 C :   -0.009245
  12 C :   -0.213259
  13 S :    0.424509
  14 C :   -0.214144
  15 O :   -0.058528
  16 C :   -0.044926
  17 C :   -0.020089
  18 C :   -0.028916
  19 N :    0.069745
  20 C :    0.033152
  21 C :   -0.056465
  22 C :   -0.028225
  23 C :   -0.051554
  24 C :   -0.062580
  25 C :   -0.002690
  26 C :    0.024047
  27 O :   -0.062273
  28 C :   -0.006622
  29 C :   -0.008691
  30 C :   -0.213950
  31 S :    0.426178
  32 C :   -0.214347
  33 O :   -0.058231
  34 C :   -0.075736
  35 C :   -0.011003
  36 C :   -0.034932
  37 N :    0.065262
  38 C :    0.044548
  39 C :   -0.063344
  40 C :   -0.013634
  41 C :   -0.084011
  42 C :   -0.057631
  43 H :    0.013720
  44 H :    0.032009
  45 H :    0.026202
  46 H :    0.032568
  47 H :    0.030980
  48 H :    0.020402
  49 H :    0.024105
  50 H :    0.021282
  51 H :    0.027750
  52 H :    0.027288
  53 H :    0.033136
  54 H :    0.034444
  55 H :    0.032671
  56 H :    0.026459
  57 H :    0.031200
  58 H :    0.029813
  59 H :    0.028318
  60 H :    0.026365
  61 H :    0.021747
  62 H :    0.027867
  63 H :    0.027146
  64 H :    0.026639
  65 H :    0.038168
  66 H :    0.025938
  67 H :    0.023404
  68 H :    0.028060
  69 H :    0.026953
  70 H :    0.025276
  71 H :    0.015905
  72 H :    0.022116
  73 H :    0.021432

  Mayer bond orders larger than 0.100000
B(  0-C ,  1-N ) :   1.2119 B(  0-C ,  4-C ) :   0.1004 B(  0-C ,  6-C ) :   1.4637
B(  0-C , 43-H ) :   0.9888 B(  1-N ,  2-C ) :   0.9504 B(  1-N ,  4-C ) :   1.2363
B(  2-C ,  3-C ) :   1.1045 B(  2-C , 44-H ) :   0.9440 B(  2-C , 45-H ) :   0.9508
B(  3-C , 46-H ) :   0.9691 B(  3-C , 47-H ) :   0.9591 B(  3-C , 48-H ) :   0.9642
B(  4-C ,  5-C ) :   1.4858 B(  4-C ,  7-C ) :   0.9955 B(  5-C ,  6-C ) :   1.2883
B(  5-C , 49-H ) :   1.0275 B(  6-C , 50-H ) :   0.9983 B(  7-C ,  8-C ) :   1.6047
B(  7-C , 15-O ) :   1.0706 B(  8-C ,  9-O ) :   1.0258 B(  8-C , 16-C ) :   1.0899
B(  9-O , 10-C ) :   1.0655 B( 10-C , 11-C ) :   1.1938 B( 10-C , 14-C ) :   1.5776
B( 11-C , 12-C ) :   1.5734 B( 11-C , 15-O ) :   1.0650 B( 12-C , 13-S ) :   1.1358
B( 12-C , 51-H ) :   0.9713 B( 13-S , 14-C ) :   1.1353 B( 14-C , 52-H ) :   0.9715
B( 16-C , 17-C ) :   1.7179 B( 16-C , 53-H ) :   0.9620 B( 17-C , 18-C ) :   1.0692
B( 17-C , 54-H ) :   0.9486 B( 18-C , 19-N ) :   1.1669 B( 18-C , 22-C ) :   0.1116
B( 18-C , 24-C ) :   1.4315 B( 19-N , 20-C ) :   0.9603 B( 19-N , 22-C ) :   1.2158
B( 20-C , 21-C ) :   1.1128 B( 20-C , 55-H ) :   0.9341 B( 20-C , 56-H ) :   0.9401
B( 21-C , 57-H ) :   0.9648 B( 21-C , 58-H ) :   0.9652 B( 21-C , 59-H ) :   0.9627
B( 22-C , 23-C ) :   1.4643 B( 22-C , 25-C ) :   0.9890 B( 23-C , 24-C ) :   1.3027
B( 23-C , 60-H ) :   1.0222 B( 24-C , 61-H ) :   1.0020 B( 25-C , 26-C ) :   1.5637
B( 25-C , 33-O ) :   1.0706 B( 26-C , 27-O ) :   1.0400 B( 26-C , 34-C ) :   1.1482
B( 27-O , 28-C ) :   1.0552 B( 28-C , 29-C ) :   1.1965 B( 28-C , 32-C ) :   1.5741
B( 29-C , 30-C ) :   1.5743 B( 29-C , 33-O ) :   1.0636 B( 30-C , 31-S ) :   1.1363
B( 30-C , 62-H ) :   0.9704 B( 31-S , 32-C ) :   1.1364 B( 32-C , 63-H ) :   0.9724
B( 34-C , 35-C ) :   1.6587 B( 34-C , 64-H ) :   0.9519 B( 35-C , 36-C ) :   1.0991
B( 35-C , 65-H ) :   0.9579 B( 36-C , 37-N ) :   1.1865 B( 36-C , 42-C ) :   1.4230
B( 37-N , 38-C ) :   0.9668 B( 37-N , 40-C ) :   1.2163 B( 38-C , 39-C ) :   1.1088
B( 38-C , 66-H ) :   0.9426 B( 38-C , 67-H ) :   0.9459 B( 39-C , 68-H ) :   0.9547
B( 39-C , 69-H ) :   0.9538 B( 39-C , 70-H ) :   0.9603 B( 40-C , 41-C ) :   1.4573
B( 40-C , 71-H ) :   0.9877 B( 41-C , 42-C ) :   1.3171 B( 41-C , 72-H ) :   1.0064
B( 42-C , 73-H ) :   1.0143

-----------------------------------------------------------------------------
         ABSORPTION SPECTRUM VIA TRANSITION ELECTRIC DIPOLE MOMENTS
-----------------------------------------------------------------------------
State   Energy  Wavelength   fosc         T2         TX        TY        TZ
        (cm-1)    (nm)                  (au**2)     (au)      (au)      (au)
-----------------------------------------------------------------------------
   0   26248.7    381.0   0.548333999   6.87721  -2.08512  -1.53535   0.41498
   1   30141.2    331.8   0.287100782   3.13581  -0.92211   0.90362  -1.21202
   2   31463.3    317.8   0.404554657   4.23301   1.25493  -0.83505   1.40030
   3   35439.9    282.2   0.347341319   3.22656   0.26180  -1.50515   0.94475
   4   36307.0    275.4   0.031942159   0.28963  -0.21945  -0.48219  -0.09470
   5   36984.5    270.4   0.432691655   3.85154  -0.25146   1.67259  -0.99536
   6   37638.0    265.7   0.206230410   1.80386   1.31721   0.24022   0.10539
   7   37917.8    263.7   0.086775492   0.75341  -0.82181  -0.08475  -0.26617

FINAL SINGLE POINT ENERGY     -2573.232709446058

DIPOLE MOMENT
-------------
                                X             Y             Z
Electronic contribution:    -23.53584       9.24377     -14.26551
Nuclear contribution   :     23.66333      -9.74779      14.48845
                        -----------------------------------------
Total Dipole Moment    :      0.12749      -0.50402       0.22294
                        -----------------------------------------
Magnitude (a.u.)       :      0.56568
Magnitude (Debye)      :      1.43783

Rotational constants in cm-1:     0.003816     0.001207     0.000979
Rotational constants in MHz :   114.392552    36.188293    29.352370

                             ****ORCA TERMINATED NORMALLY****
TOTAL RUN TIME: 0 days 0 hours 4 minutes 53 seconds 393 msec
