                         Program Version 4.2.0 -  RELEASE  -
|  1> # ORCA input file
|  2> # SCF done       -150.328547637936          0.000611424626
|  3> ! CAM-B3LYP def2-SVP def2/J RIJCOSX Grid4 TightSCF
|  4> %maxcore 5000
|  5> %tddft
|  6>     Mode sTDDFT
|  7>     Ethresh 5.0
|  8>     maxcore 5000
|  9> end
| 10>
| 11> %pal
| 12>   nprocs 6
| 13>   end
| 14> * xyz 0 1
| 15>    C        0.99967         0.94919        -2.71705
| 16>    N        2.14560         1.66608        -2.71870
| 17>    C        3.46042         1.07688        -2.75289
| 18>    C        3.90049         0.59932        -1.37052
| 19>    C        1.82759         3.00017        -2.71832
| 20>    C        0.43939         3.10241        -2.69098
| 21>    C       -0.07501         1.80637        -2.68782
| 22>    C        2.76387         4.07660        -2.65882
| 23>    S        4.13666         4.05065        -1.60576
| 24>    C        4.55187         5.70640        -1.93942
| 25>    C        3.63969         6.26437        -2.84662
| 26>    C        2.64381         5.32631        -3.27730
| 27>    C        1.73675         5.69786        -4.30476
| 28>    C        0.89988         4.76894        -4.96356
| 29>    N        0.24741         4.08472        -5.61320
| 30>    C        1.73670         6.99687        -4.77862
| 31>    C        2.63874         7.93929        -4.28558
| 32>    C        3.60326         7.58841        -3.35645
| 33>    C        4.51616         8.59602        -2.97818
| 34>    N        5.21570         9.47390        -2.73598
| 35>    C        5.66648         6.30819        -1.33269
| 36>    C        6.44598         5.71627        -0.38532
| 37>    C        7.53447         6.37566         0.21778
| 38>    S        8.04593         7.94329        -0.34378
| 39>    C        9.26447         8.08915         0.90359
| 40>    C        9.28280         6.95022         1.70342
| 41>    C        8.31802         5.98441         1.30710
| 42>    N        8.17619         4.76621         2.00814
| 43>    O        7.39231         3.93114         1.58498
| 44>    O        8.85305         4.61477         3.00880
| 45>    C       10.17649         6.78600         2.77715
| 46>    N       10.94018         6.73440         3.63269
| 47>    C        9.93237         9.33223         0.97576
| 48>    C       10.73277         9.78935         1.97161
| 49>    C       11.23378        11.12347         2.08406
| 50>    C       10.68880        12.28322         1.57725
| 51>    O       11.37464        13.48240         1.60025
| 52>    C       12.57023        13.48372         2.25284
| 53>    C       13.07450        12.31176         2.88661
| 54>    C       14.25956        12.52006         3.51051
| 55>    S       14.77959        14.15589         3.33119
| 56>    C       13.38183        14.55889         2.40579
| 57>    O       12.41292        11.12682         2.82168
| 58>    C        9.39501        12.47555         0.98801
| 59>    C        8.28521        11.73845         1.23385
| 60>    C        7.03981        11.87458         0.58024
| 61>    O        6.78173        12.89846        -0.27624
| 62>    C        5.55497        12.69329        -0.79324
| 63>    C        4.99255        11.54845        -0.30224
| 64>    O        3.77347        11.00709        -0.55487
| 65>    C        3.01004        11.66909        -1.53596
| 66>    C        5.95172        10.99514         0.60080
| 67>    N        5.88468         9.83410         1.31219
| 68>    C        4.93546         8.84978         1.19055
| 69>    C        4.97671         7.71587         1.88382
| 70>    H        1.01997        -0.12258        -2.74645
| 71>    H        4.16954         1.81184        -3.14076
| 72>    H        3.43609         0.22846        -3.44370
| 73>    H        3.93290         1.42843        -0.66845
| 74>    H        4.89140         0.15885        -1.43023
| 75>    H        3.20787        -0.14765        -0.99076
| 76>    H       -0.12146         4.01425        -2.63819
| 77>    H       -1.10959         1.53041        -2.66811
| 78>    H        1.04177         7.27768        -5.55542
| 79>    H        2.61061         8.95128        -4.66132
| 80>    H        5.89354         7.32162        -1.63312
| 81>    H        6.22449         4.71655        -0.03984
| 82>    H        9.67943        10.00762         0.16946
| 83>    H       11.10924         9.11303         2.72630
| 84>    H       14.84976        11.81609         4.05821
| 85>    H       13.23997        15.55181         2.03402
| 86>    H        9.31902        13.34767         0.35419
| 87>    H        8.34048        10.93161         1.95006
| 88>    H        5.20240        13.42139        -1.49497
| 89>    H        2.08740        11.09969        -1.63351
| 90>    H        3.53896        11.68530        -2.49328
| 91>    H        2.77723        12.69395        -1.23082
| 92>    H        6.64184         9.65581         1.95782
| 93>    H        4.15527         9.06671         0.47897
| 94>    H        5.75657         7.51433         2.59921
| 95>    H        4.22234         6.96272         1.76628
| 96> *
| 97>
| 98>                          ****END OF INPUT****

CARTESIAN COORDINATES (ANGSTROEM)
---------------------------------
  C      0.999670    0.949190   -2.717050
  N      2.145600    1.666080   -2.718700
  C      3.460420    1.076880   -2.752890
  C      3.900490    0.599320   -1.370520
  C      1.827590    3.000170   -2.718320
  C      0.439390    3.102410   -2.690980
  C     -0.075010    1.806370   -2.687820
  C      2.763870    4.076600   -2.658820
  S      4.136660    4.050650   -1.605760
  C      4.551870    5.706400   -1.939420
  C      3.639690    6.264370   -2.846620
  C      2.643810    5.326310   -3.277300
  C      1.736750    5.697860   -4.304760
  C      0.899880    4.768940   -4.963560
  N      0.247410    4.084720   -5.613200
  C      1.736700    6.996870   -4.778620
  C      2.638740    7.939290   -4.285580
  C      3.603260    7.588410   -3.356450
  C      4.516160    8.596020   -2.978180
  N      5.215700    9.473900   -2.735980
  C      5.666480    6.308190   -1.332690
  C      6.445980    5.716270   -0.385320
  C      7.534470    6.375660    0.217780
  S      8.045930    7.943290   -0.343780
  C      9.264470    8.089150    0.903590
  C      9.282800    6.950220    1.703420
  C      8.318020    5.984410    1.307100
  N      8.176190    4.766210    2.008140
  O      7.392310    3.931140    1.584980
  O      8.853050    4.614770    3.008800
  C     10.176490    6.786000    2.777150
  N     10.940180    6.734400    3.632690
  C      9.932370    9.332230    0.975760
  C     10.732770    9.789350    1.971610
  C     11.233780   11.123470    2.084060
  C     10.688800   12.283220    1.577250
  O     11.374640   13.482400    1.600250
  C     12.570230   13.483720    2.252840
  C     13.074500   12.311760    2.886610
  C     14.259560   12.520060    3.510510
  S     14.779590   14.155890    3.331190
  C     13.381830   14.558890    2.405790
  O     12.412920   11.126820    2.821680
  C      9.395010   12.475550    0.988010
  C      8.285210   11.738450    1.233850
  C      7.039810   11.874580    0.580240
  O      6.781730   12.898460   -0.276240
  C      5.554970   12.693290   -0.793240
  C      4.992550   11.548450   -0.302240
  O      3.773470   11.007090   -0.554870
  C      3.010040   11.669090   -1.535960
  C      5.951720   10.995140    0.600800
  N      5.884680    9.834100    1.312190
  C      4.935460    8.849780    1.190550
  C      4.976710    7.715870    1.883820
  H      1.019970   -0.122580   -2.746450
  H      4.169540    1.811840   -3.140760
  H      3.436090    0.228460   -3.443700
  H      3.932900    1.428430   -0.668450
  H      4.891400    0.158850   -1.430230
  H      3.207870   -0.147650   -0.990760
  H     -0.121460    4.014250   -2.638190
  H     -1.109590    1.530410   -2.668110
  H      1.041770    7.277680   -5.555420
  H      2.610610    8.951280   -4.661320
  H      5.893540    7.321620   -1.633120
  H      6.224490    4.716550   -0.039840
  H      9.679430   10.007620    0.169460
  H     11.109240    9.113030    2.726300
  H     14.849760   11.816090    4.058210
  H     13.239970   15.551810    2.034020
  H      9.319020   13.347670    0.354190
  H      8.340480   10.931610    1.950060
  H      5.202400   13.421390   -1.494970
  H      2.087400   11.099690   -1.633510
  H      3.538960   11.685300   -2.493280
  H      2.777230   12.693950   -1.230820
  H      6.641840    9.655810    1.957820
  H      4.155270    9.066710    0.478970
  H      5.756570    7.514330    2.599210
  H      4.222340    6.962720    1.766280

 Total Charge           Charge          ....    0
 Multiplicity           Mult            ....    1
 Number of Electrons    NEL             ....  404
 Basis Dimension        Dim             ....  912

ORBITAL ENERGIES
----------------

  NO   OCC          E(Eh)            E(eV)
   0   2.0000     -88.990393     -2421.5517
   1   2.0000     -88.980002     -2421.2689
   2   2.0000     -88.948243     -2420.4047
   3   2.0000     -19.280280      -524.6431
   4   2.0000     -19.267302      -524.2899
   5   2.0000     -19.259441      -524.0760
   6   2.0000     -19.256589      -523.9984
   7   2.0000     -19.237336      -523.4745
   8   2.0000     -19.236171      -523.4428
   9   2.0000     -14.647433      -398.5769
  10   2.0000     -14.471126      -393.7794
  11   2.0000     -14.448477      -393.1630
  12   2.0000     -14.430473      -392.6731
  13   2.0000     -14.415092      -392.2546
  14   2.0000     -14.394979      -391.7073
  15   2.0000     -10.346040      -281.5301
  16   2.0000     -10.342226      -281.4263
  17   2.0000     -10.341627      -281.4100
  18   2.0000     -10.337711      -281.3034
  19   2.0000     -10.337396      -281.2948
  20   2.0000     -10.336727      -281.2766
  21   2.0000     -10.334601      -281.2188
  22   2.0000     -10.333609      -281.1918
  23   2.0000     -10.331732      -281.1407
  24   2.0000     -10.331167      -281.1253
  25   2.0000     -10.330483      -281.1067
  26   2.0000     -10.330095      -281.0962
  27   2.0000     -10.329665      -281.0845
  28   2.0000     -10.325674      -280.9759
  29   2.0000     -10.324231      -280.9366
  30   2.0000     -10.322185      -280.8809
  31   2.0000     -10.321993      -280.8757
  32   2.0000     -10.321700      -280.8677
  33   2.0000     -10.321545      -280.8635
  34   2.0000     -10.320720      -280.8411
  35   2.0000     -10.320017      -280.8219
  36   2.0000     -10.318072      -280.7690
  37   2.0000     -10.315547      -280.7003
  38   2.0000     -10.315235      -280.6918
  39   2.0000     -10.309738      -280.5422
  40   2.0000     -10.302318      -280.3403
  41   2.0000     -10.301704      -280.3236
  42   2.0000     -10.300170      -280.2819
  43   2.0000     -10.297690      -280.2144
  44   2.0000     -10.291473      -280.0452
  45   2.0000     -10.290741      -280.0253
  46   2.0000     -10.288507      -279.9645
  47   2.0000     -10.286584      -279.9122
  48   2.0000     -10.286157      -279.9006
  49   2.0000     -10.283767      -279.8355
  50   2.0000     -10.273989      -279.5694
  51   2.0000     -10.272776      -279.5364
  52   2.0000     -10.264742      -279.3178
  53   2.0000     -10.256917      -279.1049
  54   2.0000     -10.244394      -278.7641
  55   2.0000      -8.084828      -219.9993
  56   2.0000      -8.074730      -219.7246
  57   2.0000      -8.044082      -218.8906
  58   2.0000      -6.053781      -164.7318
  59   2.0000      -6.049628      -164.6187
  60   2.0000      -6.047758      -164.5679
  61   2.0000      -6.043971      -164.4648
  62   2.0000      -6.039945      -164.3553
  63   2.0000      -6.036863      -164.2714
  64   2.0000      -6.013612      -163.6387
  65   2.0000      -6.009443      -163.5252
  66   2.0000      -6.005706      -163.4236
  67   2.0000      -1.317421       -35.8488
  68   2.0000      -1.200458       -32.6661
  69   2.0000      -1.190661       -32.3995
  70   2.0000      -1.156997       -31.4835
  71   2.0000      -1.152478       -31.3605
  72   2.0000      -1.134593       -30.8738
  73   2.0000      -1.096823       -29.8461
  74   2.0000      -1.048066       -28.5193
  75   2.0000      -1.033124       -28.1127
  76   2.0000      -1.019766       -27.7493
  77   2.0000      -1.013621       -27.5820
  78   2.0000      -1.000147       -27.2154
  79   2.0000      -0.977727       -26.6053
  80   2.0000      -0.977257       -26.5925
  81   2.0000      -0.968812       -26.3627
  82   2.0000      -0.935240       -25.4492
  83   2.0000      -0.929023       -25.2800
  84   2.0000      -0.917335       -24.9620
  85   2.0000      -0.913069       -24.8459
  86   2.0000      -0.910035       -24.7633
  87   2.0000      -0.896281       -24.3890
  88   2.0000      -0.888391       -24.1743
  89   2.0000      -0.874705       -23.8019
  90   2.0000      -0.867395       -23.6030
  91   2.0000      -0.856258       -23.3000
  92   2.0000      -0.843030       -22.9400
  93   2.0000      -0.831888       -22.6368
  94   2.0000      -0.830333       -22.5945
  95   2.0000      -0.825609       -22.4660
  96   2.0000      -0.807896       -21.9840
  97   2.0000      -0.805878       -21.9291
  98   2.0000      -0.797255       -21.6944
  99   2.0000      -0.791736       -21.5442
 100   2.0000      -0.788727       -21.4624
 101   2.0000      -0.772713       -21.0266
 102   2.0000      -0.755027       -20.5453
 103   2.0000      -0.735853       -20.0236
 104   2.0000      -0.732378       -19.9290
 105   2.0000      -0.721721       -19.6390
 106   2.0000      -0.716240       -19.4899
 107   2.0000      -0.705682       -19.2026
 108   2.0000      -0.698621       -19.0105
 109   2.0000      -0.694370       -18.8948
 110   2.0000      -0.688829       -18.7440
 111   2.0000      -0.672935       -18.3115
 112   2.0000      -0.669911       -18.2292
 113   2.0000      -0.665780       -18.1168
 114   2.0000      -0.663643       -18.0586
 115   2.0000      -0.655438       -17.8354
 116   2.0000      -0.650107       -17.6903
 117   2.0000      -0.646008       -17.5788
 118   2.0000      -0.641845       -17.4655
 119   2.0000      -0.629094       -17.1185
 120   2.0000      -0.627684       -17.0802
 121   2.0000      -0.619676       -16.8622
 122   2.0000      -0.617664       -16.8075
 123   2.0000      -0.604331       -16.4447
 124   2.0000      -0.596862       -16.2415
 125   2.0000      -0.593123       -16.1397
 126   2.0000      -0.586971       -15.9723
 127   2.0000      -0.582474       -15.8499
 128   2.0000      -0.576515       -15.6878
 129   2.0000      -0.571366       -15.5477
 130   2.0000      -0.568498       -15.4696
 131   2.0000      -0.563997       -15.3471
 132   2.0000      -0.561635       -15.2829
 133   2.0000      -0.559275       -15.2187
 134   2.0000      -0.552442       -15.0327
 135   2.0000      -0.550774       -14.9873
 136   2.0000      -0.549084       -14.9413
 137   2.0000      -0.545064       -14.8319
 138   2.0000      -0.540469       -14.7069
 139   2.0000      -0.537409       -14.6236
 140   2.0000      -0.536589       -14.6013
 141   2.0000      -0.531096       -14.4519
 142   2.0000      -0.528291       -14.3755
 143   2.0000      -0.522578       -14.2201
 144   2.0000      -0.519107       -14.1256
 145   2.0000      -0.517204       -14.0738
 146   2.0000      -0.513975       -13.9860
 147   2.0000      -0.510931       -13.9031
 148   2.0000      -0.504419       -13.7259
 149   2.0000      -0.495471       -13.4825
 150   2.0000      -0.492843       -13.4110
 151   2.0000      -0.491647       -13.3784
 152   2.0000      -0.491258       -13.3678
 153   2.0000      -0.489851       -13.3295
 154   2.0000      -0.482454       -13.1282
 155   2.0000      -0.480666       -13.0796
 156   2.0000      -0.477944       -13.0055
 157   2.0000      -0.476931       -12.9780
 158   2.0000      -0.472256       -12.8507
 159   2.0000      -0.469976       -12.7887
 160   2.0000      -0.466308       -12.6889
 161   2.0000      -0.465834       -12.6760
 162   2.0000      -0.462991       -12.5986
 163   2.0000      -0.460596       -12.5334
 164   2.0000      -0.459342       -12.4993
 165   2.0000      -0.457434       -12.4474
 166   2.0000      -0.455700       -12.4002
 167   2.0000      -0.453289       -12.3346
 168   2.0000      -0.451356       -12.2820
 169   2.0000      -0.450736       -12.2651
 170   2.0000      -0.445213       -12.1149
 171   2.0000      -0.443592       -12.0708
 172   2.0000      -0.441917       -12.0252
 173   2.0000      -0.438992       -11.9456
 174   2.0000      -0.427804       -11.6411
 175   2.0000      -0.424590       -11.5537
 176   2.0000      -0.423593       -11.5265
 177   2.0000      -0.419451       -11.4138
 178   2.0000      -0.419033       -11.4025
 179   2.0000      -0.417559       -11.3624
 180   2.0000      -0.414589       -11.2815
 181   2.0000      -0.410956       -11.1827
 182   2.0000      -0.408817       -11.1245
 183   2.0000      -0.403179       -10.9710
 184   2.0000      -0.394213       -10.7271
 185   2.0000      -0.386771       -10.5246
 186   2.0000      -0.376536       -10.2461
 187   2.0000      -0.374266       -10.1843
 188   2.0000      -0.361507        -9.8371
 189   2.0000      -0.357492        -9.7279
 190   2.0000      -0.349198        -9.5021
 191   2.0000      -0.347093        -9.4449
 192   2.0000      -0.338268        -9.2047
 193   2.0000      -0.330317        -8.9884
 194   2.0000      -0.317988        -8.6529
 195   2.0000      -0.311714        -8.4822
 196   2.0000      -0.299624        -8.1532
 197   2.0000      -0.287869        -7.8333
 198   2.0000      -0.281029        -7.6472
 199   2.0000      -0.256158        -6.9704
 200   2.0000      -0.248929        -6.7737
 201   2.0000      -0.220463        -5.9991
 202   0.0000      -0.099164        -2.6984
 203   0.0000      -0.066816        -1.8182
 204   0.0000      -0.060245        -1.6394
 205   0.0000      -0.015122        -0.4115
 206   0.0000      -0.005960        -0.1622

MULLIKEN ATOMIC CHARGES
-----------------------
   0 C :    0.063777
   1 N :   -0.161660
   2 C :    0.069728
   3 C :    0.007720
   4 C :    0.045421
   5 C :   -0.019178
   6 C :    0.010293
   7 C :   -0.150142
   8 S :    0.169804
   9 C :   -0.134353
  10 C :    0.169766
  11 C :    0.163211
  12 C :   -0.083646
  13 C :   -0.206578
  14 N :    0.137503
  15 C :    0.007084
  16 C :    0.020941
  17 C :   -0.101784
  18 C :   -0.158333
  19 N :    0.094321
  20 C :   -0.001726
  21 C :   -0.019343
  22 C :   -0.155173
  23 S :    0.151141
  24 C :   -0.104750
  25 C :   -0.081083
  26 C :    0.233303
  27 N :    0.261106
  28 O :   -0.255968
  29 O :   -0.223310
  30 C :   -0.222572
  31 N :    0.154759
  32 C :    0.013097
  33 C :   -0.015964
  34 C :    0.119488
  35 C :    0.159561
  36 O :   -0.250325
  37 C :    0.210783
  38 C :    0.220103
  39 C :   -0.174104
  40 S :    0.102656
  41 C :   -0.171592
  42 O :   -0.255293
  43 C :   -0.048103
  44 C :   -0.061689
  45 C :    0.076115
  46 O :   -0.205006
  47 C :    0.002822
  48 C :    0.199628
  49 O :   -0.325040
  50 C :    0.182881
  51 C :    0.056145
  52 N :   -0.026493
  53 C :    0.026897
  54 C :   -0.053789
  55 H :    0.000255
  56 H :    0.035850
  57 H :    0.033104
  58 H :    0.031395
  59 H :    0.030604
  60 H :    0.024794
  61 H :   -0.016481
  62 H :   -0.015317
  63 H :    0.005482
  64 H :    0.000961
  65 H :    0.017416
  66 H :    0.023691
  67 H :    0.015399
  68 H :    0.029533
  69 H :    0.026673
  70 H :    0.022162
  71 H :    0.008845
  72 H :    0.012452
  73 H :   -0.002249
  74 H :    0.032483
  75 H :    0.025389
  76 H :    0.021975
  77 H :    0.119168
  78 H :    0.030477
  79 H :    0.005158
  80 H :    0.017722
Sum of atomic charges:   -0.0000000

LOEWDIN ATOMIC CHARGES
----------------------
   0 C :    0.002205
   1 N :    0.070576
   2 C :    0.033161
   3 C :   -0.061297
   4 C :   -0.061194
   5 C :   -0.036877
   6 C :   -0.068489
   7 C :   -0.155132
   8 S :    0.518917
   9 C :   -0.183615
  10 C :   -0.024723
  11 C :   -0.040110
  12 C :   -0.034861
  13 C :   -0.029677
  14 N :   -0.040580
  15 C :    0.001687
  16 C :    0.016655
  17 C :   -0.055177
  18 C :   -0.018546
  19 N :   -0.053521
  20 C :   -0.026521
  21 C :   -0.055409
  22 C :   -0.130308
  23 S :    0.492477
  24 C :   -0.130761
  25 C :   -0.110922
  26 C :   -0.060933
  27 N :    0.288041
  28 O :   -0.219019
  29 O :   -0.179935
  30 C :   -0.036449
  31 N :   -0.052516
  32 C :   -0.068711
  33 C :    0.005157
  34 C :   -0.002621
  35 C :    0.043187
  36 O :   -0.052692
  37 C :   -0.010380
  38 C :   -0.007122
  39 C :   -0.211078
  40 S :    0.429705
  41 C :   -0.210757
  42 O :   -0.062819
  43 C :   -0.062192
  44 C :   -0.014991
  45 C :   -0.024433
  46 O :    0.002709
  47 C :    0.002609
  48 C :   -0.007753
  49 O :   -0.100646
  50 C :    0.078895
  51 C :   -0.004872
  52 N :    0.032588
  53 C :    0.025155
  54 C :   -0.131240
  55 H :    0.021858
  56 H :    0.022648
  57 H :    0.032985
  58 H :    0.019646
  59 H :    0.034084
  60 H :    0.028295
  61 H :    0.025403
  62 H :    0.027925
  63 H :    0.045328
  64 H :    0.043279
  65 H :    0.029572
  66 H :    0.027230
  67 H :    0.034361
  68 H :    0.044943
  69 H :    0.029654
  70 H :    0.028102
  71 H :    0.037595
  72 H :    0.034133
  73 H :    0.022018
  74 H :    0.026448
  75 H :    0.013472
  76 H :    0.014584
  77 H :    0.082234
  78 H :    0.028747
  79 H :    0.015564
  80 H :    0.025046

  Mayer bond orders larger than 0.100000
B(  0-C ,  1-N ) :   1.2257 B(  0-C ,  6-C ) :   1.4375 B(  0-C , 55-H ) :   0.9917
B(  1-N ,  2-C ) :   0.9568 B(  1-N ,  4-C ) :   1.1935 B(  2-C ,  3-C ) :   1.1067
B(  2-C , 56-H ) :   0.9447 B(  2-C , 57-H ) :   0.9487 B(  3-C , 58-H ) :   0.9633
B(  3-C , 59-H ) :   0.9662 B(  3-C , 60-H ) :   0.9656 B(  4-C ,  5-C ) :   1.4478
B(  4-C ,  7-C ) :   1.0269 B(  5-C ,  6-C ) :   1.3452 B(  5-C , 61-H ) :   1.0063
B(  6-C , 62-H ) :   1.0070 B(  7-C ,  8-S ) :   1.1846 B(  7-C ,  9-C ) :   0.1152
B(  7-C , 11-C ) :   1.3875 B(  8-S ,  9-C ) :   1.1109 B(  9-C , 10-C ) :   1.3420
B(  9-C , 20-C ) :   1.2151 B( 10-C , 11-C ) :   1.1698 B( 10-C , 17-C ) :   1.2014
B( 11-C , 12-C ) :   1.2064 B( 12-C , 13-C ) :   1.0816 B( 12-C , 15-C ) :   1.5306
B( 13-C , 14-N ) :   3.0327 B( 15-C , 16-C ) :   1.2004 B( 15-C , 63-H ) :   0.9964
B( 16-C , 17-C ) :   1.5261 B( 16-C , 64-H ) :   0.9931 B( 17-C , 18-C ) :   1.0959
B( 18-C , 19-N ) :   2.9063 B( 20-C , 21-C ) :   1.5471 B( 20-C , 65-H ) :   0.9507
B( 21-C , 22-C ) :   1.1985 B( 21-C , 66-H ) :   0.9723 B( 22-C , 23-S ) :   1.1324
B( 22-C , 26-C ) :   1.4150 B( 23-S , 24-C ) :   1.1118 B( 24-C , 25-C ) :   1.4707
B( 24-C , 32-C ) :   1.1932 B( 25-C , 26-C ) :   1.2446 B( 25-C , 30-C ) :   1.1482
B( 26-C , 27-N ) :   0.9521 B( 27-N , 28-O ) :   1.4884 B( 27-N , 29-O ) :   1.5225
B( 28-O , 29-O ) :   0.2591 B( 30-C , 31-N ) :   2.9516 B( 32-C , 33-C ) :   1.6749
B( 32-C , 67-H ) :   0.9177 B( 33-C , 34-C ) :   1.1390 B( 33-C , 68-H ) :   0.9396
B( 34-C , 35-C ) :   1.5043 B( 34-C , 42-O ) :   1.0345 B( 35-C , 36-O ) :   1.0485
B( 35-C , 43-C ) :   1.1041 B( 36-O , 37-C ) :   1.0530 B( 37-C , 38-C ) :   1.1966
B( 37-C , 41-C ) :   1.5761 B( 38-C , 39-C ) :   1.5785 B( 38-C , 42-O ) :   1.0669
B( 39-C , 40-S ) :   1.1356 B( 39-C , 69-H ) :   0.9708 B( 40-S , 41-C ) :   1.1405
B( 41-C , 70-H ) :   0.9717 B( 43-C , 44-C ) :   1.6595 B( 43-C , 71-H ) :   0.9628
B( 44-C , 45-C ) :   1.2158 B( 44-C , 72-H ) :   0.9364 B( 45-C , 46-O ) :   1.1248
B( 45-C , 51-C ) :   1.3500 B( 46-O , 47-C ) :   1.1181 B( 47-C , 48-C ) :   1.4383
B( 47-C , 73-H ) :   1.0277 B( 48-C , 49-O ) :   1.0995 B( 48-C , 51-C ) :   1.2751
B( 49-O , 50-C ) :   0.9580 B( 50-C , 74-H ) :   0.9813 B( 50-C , 75-H ) :   0.9631
B( 50-C , 76-H ) :   0.9673 B( 51-C , 52-N ) :   1.1985 B( 52-N , 53-C ) :   1.1119
B( 52-N , 77-H ) :   0.9076 B( 53-C , 54-C ) :   1.8944 B( 53-C , 78-H ) :   0.9601
B( 54-C , 79-H ) :   0.9535 B( 54-C , 80-H ) :   0.9517

-----------------------------------------------------------------------------
         ABSORPTION SPECTRUM VIA TRANSITION ELECTRIC DIPOLE MOMENTS
-----------------------------------------------------------------------------
State   Energy  Wavelength   fosc         T2         TX        TY        TZ
        (cm-1)    (nm)                  (au**2)     (au)      (au)      (au)
-----------------------------------------------------------------------------
   0   11875.0    842.1   0.295380334   8.18887  -1.53497  -2.03429  -1.30169
   1   15973.2    626.0   0.219992979   4.53411  -2.01947   0.29604  -0.60681
   2   16375.2    610.7   0.199390833   4.00862   1.14184   1.52585   0.61368
   3   18998.2    526.4   0.222462657   3.85496  -1.63798  -0.06737  -1.08048
   4   19904.7    502.4   0.019207590   0.31768  -0.47359   0.17946  -0.24737
   5   22849.2    437.7   0.307720139   4.43364   1.73383   0.52919   1.07118
   6   23922.5    418.0   0.118287908   1.62783   0.08204  -1.12196   0.60191
   7   25650.1    389.9   0.076905486   0.98706  -0.28721   0.58857  -0.74710
   8   25716.3    388.9   0.025021208   0.32031   0.21372   0.52303  -0.03279
   9   26764.1    373.6   0.016376556   0.20144   0.30362   0.01108   0.33035
  10   26956.8    371.0   0.016909108   0.20650  -0.43770  -0.12215  -0.00045
  11   28456.5    351.4   0.708099282   8.19195  -2.26739  -1.70140  -0.39512
  12   29117.7    343.4   0.028051281   0.31715  -0.55145  -0.05904  -0.09781
  13   30144.9    331.7   0.133318889   1.45597  -0.98481   0.44108  -0.53997
  14   30456.9    328.3   0.054849588   0.59287   0.58941   0.48525   0.10003
  15   31735.0    315.1   0.048447098   0.50258   0.44020   0.55448  -0.03684
  16   32126.7    311.3   0.000273593   0.00280  -0.00845  -0.04449   0.02744
  17   32367.2    309.0   0.081837928   0.83239  -0.50499  -0.67661  -0.34579
  18   33200.2    301.2   0.001642595   0.01629  -0.11909   0.04586   0.00181
  19   33642.7    297.2   0.074949017   0.73342   0.56584   0.57829   0.28075
  20   33842.0    295.5   0.002435498   0.02369   0.12371   0.00866  -0.09118
  21   34355.5    291.1   0.126273356   1.21002  -0.88883  -0.61369  -0.20829
  22   34601.6    289.0   0.049145964   0.46759  -0.41122   0.30739  -0.45167
  23   35008.0    285.6   0.003084178   0.02900  -0.01832   0.13668  -0.09993
  24   35331.2    283.0   0.003328870   0.03102   0.09864  -0.09654   0.10940
  25   35682.7    280.2   0.185700820   1.71329  -0.07662  -1.14551   0.62866
  26   36075.3    277.2   0.052427618   0.47844   0.54957   0.26089   0.32917
  27   36551.2    273.6   0.144432611   1.30088   0.46267   1.00518  -0.27645
  28   37536.0    266.4   0.036912814   0.32375  -0.09475   0.41233  -0.38046
  29   37977.3    263.3   0.213305161   1.84907   0.16358   1.28631  -0.40952
  30   38078.2    262.6   0.018999279   0.16426  -0.33916   0.05812  -0.21414
  31   38200.2    261.8   0.106813603   0.92053   0.62966  -0.34820   0.63467
  32   38608.5    259.0   0.028120846   0.23978   0.17369  -0.35944   0.28358
  33   38998.3    256.4   0.004653269   0.03928  -0.05311   0.13464  -0.13540
  34   39412.3    253.7   0.002304709   0.01925  -0.11857  -0.07179  -0.00621
  35   39568.5    252.7   0.037692837   0.31361  -0.04204   0.38578  -0.40375
  36   40206.2    248.7   0.012673338   0.10377   0.26769  -0.07890   0.16089

FINAL SINGLE POINT ENERGY     -3510.799080151174

DIPOLE MOMENT
-------------
                                X             Y             Z
Electronic contribution:     32.66404      16.59763       8.98709
Nuclear contribution   :    -35.10089     -15.95423     -11.41739
                        -----------------------------------------
Total Dipole Moment    :     -2.43685       0.64340      -2.43031
                        -----------------------------------------
Magnitude (a.u.)       :      3.50123
Magnitude (Debye)      :      8.89941

Rotational constants in cm-1:     0.003086     0.000697     0.000596
Rotational constants in MHz :    92.516874    20.888524    17.860112

                             ****ORCA TERMINATED NORMALLY****
TOTAL RUN TIME: 0 days 0 hours 11 minutes 34 seconds 282 msec
