                         Program Version 4.2.0 -  RELEASE  -
|  1> # ORCA input file
|  2> # SCF done       -146.879009591606          0.000596114739
|  3> ! CAM-B3LYP def2-SVP def2/J RIJCOSX Grid4 TightSCF
|  4> %maxcore 5000
|  5> %tddft
|  6>     Mode sTDDFT
|  7>     Ethresh 5.0
|  8>     maxcore 5000
|  9> end
| 10>
| 11> %pal
| 12>   nprocs 6
| 13>   end
| 14> * xyz 0 1
| 15>    C       -2.91693        -0.24952        -0.90856
| 16>    C       -1.81653         0.48621        -0.77134
| 17>    C       -0.57047         0.19596        -1.46153
| 18>    C        0.59617         0.82659        -1.14588
| 19>    C        0.78897         1.62463         0.02532
| 20>    C        1.66380         2.64753         0.20213
| 21>    C        1.62810         3.10161         1.57006
| 22>    C        0.78319         2.33783         2.31066
| 23>    C        0.44137         2.46194         3.70934
| 24>    C       -0.62304         1.73657         4.26272
| 25>    C       -0.94187         1.87136         5.59550
| 26>    C       -0.22926         2.73701         6.42005
| 27>    C       -0.71834         2.98052         7.79733
| 28>    O       -0.87842         4.09423         8.25174
| 29>    C       -1.10992         1.75339         8.53354
| 30>    C       -2.28862         1.63298         9.20723
| 31>    S       -2.46694         0.09871         9.95099
| 32>    C       -0.90119        -0.37153         9.41619
| 33>    C       -0.29349         0.58764         8.66541
| 34>    C        1.08910         0.45147         8.12326
| 35>    O        1.32675         0.48691         6.93542
| 36>    C        2.14852         0.23838         9.13832
| 37>    C        1.93799         0.46279        10.49728
| 38>    C        2.97194         0.28545        11.39647
| 39>    C        4.22417        -0.10948        10.95409
| 40>    C        4.44420        -0.32532         9.60255
| 41>    C        3.41425        -0.14910         8.69973
| 42>    C        0.85407         3.45920         5.89068
| 43>    C        1.68363         4.28438         6.74019
| 44>    C        2.32024         5.44413         6.45208
| 45>    C        3.10790         5.87788         7.58040
| 46>    C        3.01062         4.98117         8.60110
| 47>    C        3.67424         5.03787         9.85303
| 48>    C        3.64693         4.06558        10.79423
| 49>    C        4.32556         4.09879        12.06130
| 50>    C        4.95763         5.18512        12.55081
| 51>    S        5.80235         5.33011        14.06883
| 52>    C        5.57312         3.68429        14.64687
| 53>    C        6.06066         3.20427        15.81874
| 54>    S        5.64588         1.55311        16.05719
| 55>    C        4.80284         1.51185        14.55656
| 56>    C        4.84080         2.70829        13.90944
| 57>    O        4.23354         2.88689        12.70774
| 58>    C        2.05836         3.90846         8.14212
| 59>    O        1.67327         2.94786         8.76333
| 60>    C        1.17193         3.30802         4.54567
| 61>    C        0.22956         1.29168         1.38856
| 62>    O       -0.41835         0.31435         1.66764
| 63>    S        2.06770         0.74197        -2.16191
| 64>    C        1.59972        -0.55651        -3.24506
| 65>    C        2.41536        -1.15359        -4.15089
| 66>    S        1.60170        -2.39207        -5.02804
| 67>    C        0.14542        -2.10398        -4.16146
| 68>    C        0.28579        -1.10321        -3.24826
| 69>    O       -0.75082        -0.69311        -2.47726
| 70>    H       -3.83153         0.01862        -0.41071
| 71>    H       -2.92995        -1.14012        -1.51241
| 72>    H       -1.81950         1.37310        -0.15823
| 73>    H        2.27958         3.09224        -0.55918
| 74>    H        2.19519         3.94860         1.91106
| 75>    H       -1.19254         1.06416         3.64226
| 76>    H       -1.77341         1.31618         6.00548
| 77>    H       -3.07210         2.36139         9.27569
| 78>    H       -0.52280        -1.34157         9.67253
| 79>    H        0.97601         0.80146        10.84879
| 80>    H        2.79974         0.47127        12.44562
| 81>    H        5.03098        -0.24093        11.66032
| 82>    H        5.42105        -0.62788         9.25499
| 83>    H        3.56523        -0.30680         7.64187
| 84>    H        2.24536         5.99836         5.53321
| 85>    H        3.69025         6.78229         7.58739
| 86>    H        4.25906         5.93534        10.01516
| 87>    H        3.09508         3.15551        10.60849
| 88>    H        4.97154         6.10475        11.99627
| 89>    H        6.63794         3.73063        16.55057
| 90>    H        4.32668         0.61006        14.23342
| 91>    H        2.03053         3.83516         4.15968
| 92>    H        3.44256        -0.93166        -4.35365
| 93>    H       -0.73457        -2.67809        -4.36446
| 94> *
| 95>
| 96>                          ****END OF INPUT****

CARTESIAN COORDINATES (ANGSTROEM)
---------------------------------
  C     -2.916930   -0.249520   -0.908560
  C     -1.816530    0.486210   -0.771340
  C     -0.570470    0.195960   -1.461530
  C      0.596170    0.826590   -1.145880
  C      0.788970    1.624630    0.025320
  C      1.663800    2.647530    0.202130
  C      1.628100    3.101610    1.570060
  C      0.783190    2.337830    2.310660
  C      0.441370    2.461940    3.709340
  C     -0.623040    1.736570    4.262720
  C     -0.941870    1.871360    5.595500
  C     -0.229260    2.737010    6.420050
  C     -0.718340    2.980520    7.797330
  O     -0.878420    4.094230    8.251740
  C     -1.109920    1.753390    8.533540
  C     -2.288620    1.632980    9.207230
  S     -2.466940    0.098710    9.950990
  C     -0.901190   -0.371530    9.416190
  C     -0.293490    0.587640    8.665410
  C      1.089100    0.451470    8.123260
  O      1.326750    0.486910    6.935420
  C      2.148520    0.238380    9.138320
  C      1.937990    0.462790   10.497280
  C      2.971940    0.285450   11.396470
  C      4.224170   -0.109480   10.954090
  C      4.444200   -0.325320    9.602550
  C      3.414250   -0.149100    8.699730
  C      0.854070    3.459200    5.890680
  C      1.683630    4.284380    6.740190
  C      2.320240    5.444130    6.452080
  C      3.107900    5.877880    7.580400
  C      3.010620    4.981170    8.601100
  C      3.674240    5.037870    9.853030
  C      3.646930    4.065580   10.794230
  C      4.325560    4.098790   12.061300
  C      4.957630    5.185120   12.550810
  S      5.802350    5.330110   14.068830
  C      5.573120    3.684290   14.646870
  C      6.060660    3.204270   15.818740
  S      5.645880    1.553110   16.057190
  C      4.802840    1.511850   14.556560
  C      4.840800    2.708290   13.909440
  O      4.233540    2.886890   12.707740
  C      2.058360    3.908460    8.142120
  O      1.673270    2.947860    8.763330
  C      1.171930    3.308020    4.545670
  C      0.229560    1.291680    1.388560
  O     -0.418350    0.314350    1.667640
  S      2.067700    0.741970   -2.161910
  C      1.599720   -0.556510   -3.245060
  C      2.415360   -1.153590   -4.150890
  S      1.601700   -2.392070   -5.028040
  C      0.145420   -2.103980   -4.161460
  C      0.285790   -1.103210   -3.248260
  O     -0.750820   -0.693110   -2.477260
  H     -3.831530    0.018620   -0.410710
  H     -2.929950   -1.140120   -1.512410
  H     -1.819500    1.373100   -0.158230
  H      2.279580    3.092240   -0.559180
  H      2.195190    3.948600    1.911060
  H     -1.192540    1.064160    3.642260
  H     -1.773410    1.316180    6.005480
  H     -3.072100    2.361390    9.275690
  H     -0.522800   -1.341570    9.672530
  H      0.976010    0.801460   10.848790
  H      2.799740    0.471270   12.445620
  H      5.030980   -0.240930   11.660320
  H      5.421050   -0.627880    9.254990
  H      3.565230   -0.306800    7.641870
  H      2.245360    5.998360    5.533210
  H      3.690250    6.782290    7.587390
  H      4.259060    5.935340   10.015160
  H      3.095080    3.155510   10.608490
  H      4.971540    6.104750   11.996270
  H      6.637940    3.730630   16.550570
  H      4.326680    0.610060   14.233420
  H      2.030530    3.835160    4.159680
  H      3.442560   -0.931660   -4.353650
  H     -0.734570   -2.678090   -4.364460

 Total Charge           Charge          ....    0
 Multiplicity           Mult            ....    1
 Number of Electrons    NEL             ....  416
 Basis Dimension        Dim             ....  910

ORBITAL ENERGIES
----------------

  NO   OCC          E(Eh)            E(eV)
   0   2.0000     -88.957191     -2420.6482
   1   2.0000     -88.954989     -2420.5883
   2   2.0000     -88.953439     -2420.5461
   3   2.0000     -88.941295     -2420.2157
   4   2.0000     -88.937234     -2420.1052
   5   2.0000     -19.271009      -524.3908
   6   2.0000     -19.264899      -524.2246
   7   2.0000     -19.233871      -523.3802
   8   2.0000     -19.230109      -523.2779
   9   2.0000     -19.192797      -522.2625
  10   2.0000     -19.191475      -522.2266
  11   2.0000     -10.367984      -282.1272
  12   2.0000     -10.367392      -282.1111
  13   2.0000     -10.349204      -281.6162
  14   2.0000     -10.348923      -281.6085
  15   2.0000     -10.344597      -281.4908
  16   2.0000     -10.339753      -281.3590
  17   2.0000     -10.337758      -281.3047
  18   2.0000     -10.337758      -281.3047
  19   2.0000     -10.303255      -280.3658
  20   2.0000     -10.301646      -280.3220
  21   2.0000     -10.301228      -280.3107
  22   2.0000     -10.295858      -280.1645
  23   2.0000     -10.294101      -280.1167
  24   2.0000     -10.293664      -280.1048
  25   2.0000     -10.293097      -280.0894
  26   2.0000     -10.291914      -280.0572
  27   2.0000     -10.288975      -279.9772
  28   2.0000     -10.288599      -279.9670
  29   2.0000     -10.287909      -279.9482
  30   2.0000     -10.287327      -279.9324
  31   2.0000     -10.285929      -279.8943
  32   2.0000     -10.285132      -279.8727
  33   2.0000     -10.284683      -279.8604
  34   2.0000     -10.279587      -279.7218
  35   2.0000     -10.278713      -279.6980
  36   2.0000     -10.278612      -279.6952
  37   2.0000     -10.278351      -279.6882
  38   2.0000     -10.277010      -279.6517
  39   2.0000     -10.276396      -279.6349
  40   2.0000     -10.275147      -279.6010
  41   2.0000     -10.273457      -279.5550
  42   2.0000     -10.272032      -279.5162
  43   2.0000     -10.269265      -279.4409
  44   2.0000     -10.267519      -279.3934
  45   2.0000     -10.266934      -279.3775
  46   2.0000     -10.266383      -279.3625
  47   2.0000     -10.264395      -279.3084
  48   2.0000     -10.263797      -279.2921
  49   2.0000     -10.262712      -279.2626
  50   2.0000     -10.262257      -279.2502
  51   2.0000     -10.262014      -279.2436
  52   2.0000     -10.261605      -279.2325
  53   2.0000     -10.258992      -279.1614
  54   2.0000     -10.258110      -279.1374
  55   2.0000      -8.053358      -219.1430
  56   2.0000      -8.051039      -219.0799
  57   2.0000      -8.049454      -219.0368
  58   2.0000      -8.037123      -218.7012
  59   2.0000      -8.032475      -218.5748
  60   2.0000      -6.022545      -163.8818
  61   2.0000      -6.020462      -163.8251
  62   2.0000      -6.018901      -163.7826
  63   2.0000      -6.018150      -163.7622
  64   2.0000      -6.016255      -163.7106
  65   2.0000      -6.015893      -163.7008
  66   2.0000      -6.014640      -163.6667
  67   2.0000      -6.012885      -163.6189
  68   2.0000      -6.011310      -163.5760
  69   2.0000      -6.007472      -163.4716
  70   2.0000      -6.003315      -163.3585
  71   2.0000      -6.002934      -163.3481
  72   2.0000      -5.998940      -163.2394
  73   2.0000      -5.996923      -163.1846
  74   2.0000      -5.991958      -163.0495
  75   2.0000      -1.182469       -32.1766
  76   2.0000      -1.174522       -31.9604
  77   2.0000      -1.146086       -31.1866
  78   2.0000      -1.141538       -31.0628
  79   2.0000      -1.110963       -30.2308
  80   2.0000      -1.107574       -30.1386
  81   2.0000      -0.985411       -26.8144
  82   2.0000      -0.984021       -26.7766
  83   2.0000      -0.980810       -26.6892
  84   2.0000      -0.973589       -26.4927
  85   2.0000      -0.967641       -26.3309
  86   2.0000      -0.946857       -25.7653
  87   2.0000      -0.941382       -25.6163
  88   2.0000      -0.925243       -25.1772
  89   2.0000      -0.923554       -25.1312
  90   2.0000      -0.894333       -24.3360
  91   2.0000      -0.885633       -24.0993
  92   2.0000      -0.873364       -23.7654
  93   2.0000      -0.862071       -23.4581
  94   2.0000      -0.855221       -23.2717
  95   2.0000      -0.841693       -22.9036
  96   2.0000      -0.836360       -22.7585
  97   2.0000      -0.827520       -22.5180
  98   2.0000      -0.825414       -22.4607
  99   2.0000      -0.819804       -22.3080
 100   2.0000      -0.816998       -22.2316
 101   2.0000      -0.815196       -22.1826
 102   2.0000      -0.793664       -21.5967
 103   2.0000      -0.789219       -21.4757
 104   2.0000      -0.773144       -21.0383
 105   2.0000      -0.765799       -20.8385
 106   2.0000      -0.757157       -20.6033
 107   2.0000      -0.749381       -20.3917
 108   2.0000      -0.729093       -19.8396
 109   2.0000      -0.722929       -19.6719
 110   2.0000      -0.717700       -19.5296
 111   2.0000      -0.710711       -19.3394
 112   2.0000      -0.698782       -19.0148
 113   2.0000      -0.683309       -18.5938
 114   2.0000      -0.681680       -18.5495
 115   2.0000      -0.674208       -18.3461
 116   2.0000      -0.669284       -18.2121
 117   2.0000      -0.662181       -18.0189
 118   2.0000      -0.660613       -17.9762
 119   2.0000      -0.654346       -17.8057
 120   2.0000      -0.643181       -17.5018
 121   2.0000      -0.642449       -17.4819
 122   2.0000      -0.635485       -17.2924
 123   2.0000      -0.627401       -17.0724
 124   2.0000      -0.618687       -16.8353
 125   2.0000      -0.610985       -16.6258
 126   2.0000      -0.605030       -16.4637
 127   2.0000      -0.593476       -16.1493
 128   2.0000      -0.590121       -16.0580
 129   2.0000      -0.586453       -15.9582
 130   2.0000      -0.579043       -15.7566
 131   2.0000      -0.569106       -15.4862
 132   2.0000      -0.567035       -15.4298
 133   2.0000      -0.562897       -15.3172
 134   2.0000      -0.559614       -15.2279
 135   2.0000      -0.553364       -15.0578
 136   2.0000      -0.548058       -14.9134
 137   2.0000      -0.543172       -14.7805
 138   2.0000      -0.540354       -14.7038
 139   2.0000      -0.538512       -14.6536
 140   2.0000      -0.534742       -14.5511
 141   2.0000      -0.532638       -14.4938
 142   2.0000      -0.529778       -14.4160
 143   2.0000      -0.525203       -14.2915
 144   2.0000      -0.519494       -14.1362
 145   2.0000      -0.518165       -14.1000
 146   2.0000      -0.511950       -13.9309
 147   2.0000      -0.509582       -13.8664
 148   2.0000      -0.506345       -13.7784
 149   2.0000      -0.504749       -13.7349
 150   2.0000      -0.501311       -13.6414
 151   2.0000      -0.499189       -13.5836
 152   2.0000      -0.495721       -13.4892
 153   2.0000      -0.494489       -13.4557
 154   2.0000      -0.493205       -13.4208
 155   2.0000      -0.490586       -13.3495
 156   2.0000      -0.488208       -13.2848
 157   2.0000      -0.485648       -13.2151
 158   2.0000      -0.483385       -13.1536
 159   2.0000      -0.481473       -13.1015
 160   2.0000      -0.475759       -12.9461
 161   2.0000      -0.473895       -12.8953
 162   2.0000      -0.471129       -12.8201
 163   2.0000      -0.464714       -12.6455
 164   2.0000      -0.463161       -12.6032
 165   2.0000      -0.460640       -12.5346
 166   2.0000      -0.460363       -12.5271
 167   2.0000      -0.459206       -12.4956
 168   2.0000      -0.457012       -12.4359
 169   2.0000      -0.453926       -12.3519
 170   2.0000      -0.451967       -12.2987
 171   2.0000      -0.446294       -12.1443
 172   2.0000      -0.443028       -12.0554
 173   2.0000      -0.436531       -11.8786
 174   2.0000      -0.431663       -11.7461
 175   2.0000      -0.428950       -11.6723
 176   2.0000      -0.426756       -11.6126
 177   2.0000      -0.425756       -11.5854
 178   2.0000      -0.424359       -11.5474
 179   2.0000      -0.422680       -11.5017
 180   2.0000      -0.419503       -11.4153
 181   2.0000      -0.417221       -11.3532
 182   2.0000      -0.410820       -11.1790
 183   2.0000      -0.407770       -11.0960
 184   2.0000      -0.405796       -11.0423
 185   2.0000      -0.399973       -10.8838
 186   2.0000      -0.398863       -10.8536
 187   2.0000      -0.393535       -10.7086
 188   2.0000      -0.380439       -10.3523
 189   2.0000      -0.366180        -9.9643
 190   2.0000      -0.353397        -9.6164
 191   2.0000      -0.345108        -9.3909
 192   2.0000      -0.340082        -9.2541
 193   2.0000      -0.334590        -9.1047
 194   2.0000      -0.323845        -8.8123
 195   2.0000      -0.320024        -8.7083
 196   2.0000      -0.316089        -8.6012
 197   2.0000      -0.313784        -8.5385
 198   2.0000      -0.312654        -8.5077
 199   2.0000      -0.306984        -8.3535
 200   2.0000      -0.305529        -8.3139
 201   2.0000      -0.302224        -8.2239
 202   2.0000      -0.298569        -8.1245
 203   2.0000      -0.295183        -8.0323
 204   2.0000      -0.271633        -7.3915
 205   2.0000      -0.264462        -7.1964
 206   2.0000      -0.236932        -6.4472
 207   2.0000      -0.230762        -6.2794
 208   0.0000      -0.079017        -2.1502
 209   0.0000      -0.077586        -2.1112
 210   0.0000      -0.014120        -0.3842
 211   0.0000      -0.004407        -0.1199
 212   0.0000       0.000497         0.0135

MULLIKEN ATOMIC CHARGES
-----------------------
   0 C :    0.015995
   1 C :   -0.037167
   2 C :    0.175068
   3 C :   -0.076156
   4 C :   -0.035180
   5 C :   -0.014049
   6 C :   -0.029513
   7 C :    0.022992
   8 C :    0.145382
   9 C :   -0.024945
  10 C :    0.025339
  11 C :    0.002311
  12 C :    0.077515
  13 O :   -0.183215
  14 C :    0.047397
  15 C :   -0.128287
  16 S :    0.125401
  17 C :   -0.138325
  18 C :    0.013117
  19 C :    0.149003
  20 O :   -0.171534
  21 C :    0.000734
  22 C :    0.027144
  23 C :    0.027102
  24 C :    0.036656
  25 C :    0.025800
  26 C :   -0.013749
  27 C :    0.150331
  28 C :   -0.002025
  29 C :   -0.017287
  30 C :   -0.027395
  31 C :    0.042199
  32 C :    0.012619
  33 C :    0.005503
  34 C :    0.217031
  35 C :   -0.159537
  36 S :    0.096850
  37 C :   -0.046028
  38 C :   -0.134584
  39 S :    0.115288
  40 C :   -0.174815
  41 C :    0.253672
  42 O :   -0.254922
  43 C :    0.170964
  44 O :   -0.142440
  45 C :   -0.114374
  46 C :    0.106504
  47 O :   -0.109156
  48 S :    0.080603
  49 C :   -0.017228
  50 C :   -0.137061
  51 S :    0.114824
  52 C :   -0.153155
  53 C :    0.232561
  54 O :   -0.240422
  55 H :    0.018906
  56 H :    0.025239
  57 H :    0.004552
  58 H :    0.001554
  59 H :   -0.010954
  60 H :   -0.006782
  61 H :   -0.015195
  62 H :    0.032063
  63 H :    0.027993
  64 H :    0.003853
  65 H :   -0.021880
  66 H :   -0.014953
  67 H :   -0.016132
  68 H :   -0.006344
  69 H :   -0.012867
  70 H :   -0.012125
  71 H :   -0.035528
  72 H :    0.025353
  73 H :    0.035539
  74 H :    0.025036
  75 H :    0.022774
  76 H :   -0.047573
  77 H :    0.022954
  78 H :    0.021159
Sum of atomic charges:   -0.0000000

LOEWDIN ATOMIC CHARGES
----------------------
   0 C :   -0.024897
   1 C :   -0.031966
   2 C :    0.054627
   3 C :   -0.197734
   4 C :   -0.082465
   5 C :   -0.004307
   6 C :    0.010328
   7 C :   -0.055338
   8 C :   -0.013716
   9 C :   -0.004734
  10 C :    0.006980
  11 C :   -0.041351
  12 C :    0.085280
  13 O :   -0.149759
  14 C :   -0.085325
  15 C :   -0.161393
  16 S :    0.451151
  17 C :   -0.176087
  18 C :   -0.077074
  19 C :    0.088828
  20 O :   -0.133740
  21 C :   -0.068331
  22 C :   -0.000315
  23 C :   -0.026280
  24 C :   -0.007907
  25 C :   -0.027118
  26 C :    0.009520
  27 C :   -0.000241
  28 C :   -0.047153
  29 C :    0.010709
  30 C :    0.001510
  31 C :   -0.056745
  32 C :   -0.017208
  33 C :   -0.014880
  34 C :    0.025300
  35 C :   -0.214847
  36 S :    0.354509
  37 C :   -0.215753
  38 C :   -0.205762
  39 S :    0.437957
  40 C :   -0.217452
  41 C :    0.003814
  42 O :   -0.051546
  43 C :    0.134982
  44 O :   -0.076588
  45 C :   -0.002060
  46 C :    0.110061
  47 O :   -0.078371
  48 S :    0.341449
  49 C :   -0.216961
  50 C :   -0.208792
  51 S :    0.439212
  52 C :   -0.210877
  53 C :   -0.001893
  54 O :   -0.032214
  55 H :    0.025967
  56 H :    0.024743
  57 H :    0.031430
  58 H :    0.027533
  59 H :    0.026982
  60 H :    0.029612
  61 H :    0.031761
  62 H :    0.029892
  63 H :    0.026071
  64 H :    0.032001
  65 H :    0.023099
  66 H :    0.026370
  67 H :    0.027741
  68 H :    0.032052
  69 H :    0.028146
  70 H :    0.027278
  71 H :    0.026121
  72 H :    0.042287
  73 H :    0.030062
  74 H :    0.025729
  75 H :    0.023600
  76 H :    0.021732
  77 H :    0.024823
  78 H :    0.027930

  Mayer bond orders larger than 0.100000
B(  0-C ,  1-C ) :   1.9449 B(  0-C , 55-H ) :   0.9440 B(  0-C , 56-H ) :   0.9514
B(  1-C ,  2-C ) :   1.1298 B(  1-C , 57-H ) :   0.9481 B(  2-C ,  3-C ) :   1.6066
B(  2-C , 54-O ) :   1.0892 B(  3-C ,  4-C ) :   1.1050 B(  3-C , 48-S ) :   0.9771
B(  4-C ,  5-C ) :   1.6842 B(  4-C , 46-C ) :   0.9369 B(  5-C ,  6-C ) :   1.0159
B(  5-C , 58-H ) :   1.0020 B(  6-C ,  7-C ) :   1.6963 B(  6-C , 59-H ) :   1.0020
B(  7-C ,  8-C ) :   1.0321 B(  7-C , 46-C ) :   0.9250 B(  8-C ,  9-C ) :   1.3413
B(  8-C , 45-C ) :   1.3170 B(  9-C , 10-C ) :   1.3754 B(  9-C , 60-H ) :   0.9877
B( 10-C , 11-C ) :   1.3725 B( 10-C , 61-H ) :   0.9851 B( 11-C , 12-C ) :   0.9161
B( 11-C , 27-C ) :   1.3577 B( 12-C , 13-O ) :   2.2156 B( 12-C , 14-C ) :   0.9052
B( 14-C , 15-C ) :   1.5527 B( 14-C , 18-C ) :   1.3021 B( 15-C , 16-S ) :   1.1848
B( 15-C , 62-H ) :   0.9695 B( 16-S , 17-C ) :   1.1682 B( 17-C , 18-C ) :   1.5714
B( 17-C , 63-H ) :   0.9718 B( 18-C , 19-C ) :   0.8901 B( 19-C , 20-O ) :   2.1807
B( 19-C , 21-C ) :   0.9487 B( 21-C , 22-C ) :   1.3763 B( 21-C , 26-C ) :   1.3890
B( 22-C , 23-C ) :   1.3987 B( 22-C , 64-H ) :   0.9771 B( 23-C , 24-C ) :   1.3772
B( 23-C , 65-H ) :   0.9817 B( 24-C , 25-C ) :   1.3786 B( 24-C , 66-H ) :   0.9906
B( 25-C , 26-C ) :   1.3715 B( 25-C , 67-H ) :   0.9930 B( 26-C , 68-H ) :   0.9974
B( 27-C , 28-C ) :   0.9808 B( 27-C , 45-C ) :   1.3828 B( 28-C , 29-C ) :   1.7217
B( 28-C , 43-C ) :   0.9532 B( 29-C , 30-C ) :   1.0014 B( 29-C , 69-H ) :   1.0076
B( 30-C , 31-C ) :   1.6318 B( 30-C , 70-H ) :   1.0101 B( 31-C , 32-C ) :   1.1579
B( 31-C , 43-C ) :   0.9261 B( 32-C , 33-C ) :   1.6703 B( 32-C , 71-H ) :   0.9575
B( 33-C , 34-C ) :   1.0760 B( 33-C , 72-H ) :   0.9737 B( 34-C , 35-C ) :   1.7596
B( 34-C , 42-O ) :   1.0413 B( 35-C , 36-S ) :   1.0169 B( 35-C , 73-H ) :   0.9169
B( 36-S , 37-C ) :   0.9711 B( 37-C , 38-C ) :   1.5919 B( 37-C , 41-C ) :   1.2354
B( 38-C , 39-S ) :   1.1728 B( 38-C , 74-H ) :   0.9714 B( 39-S , 40-C ) :   1.1430
B( 40-C , 41-C ) :   1.5878 B( 40-C , 75-H ) :   0.9659 B( 41-C , 42-O ) :   1.0676
B( 43-C , 44-O ) :   2.0798 B( 45-C , 76-H ) :   0.9962 B( 46-C , 47-O ) :   2.1911
B( 48-S , 49-C ) :   0.9635 B( 49-C , 50-C ) :   1.5812 B( 49-C , 53-C ) :   1.2356
B( 50-C , 51-S ) :   1.1679 B( 50-C , 77-H ) :   0.9702 B( 51-S , 52-C ) :   1.1486
B( 52-C , 53-C ) :   1.5908 B( 52-C , 78-H ) :   0.9678 B( 53-C , 54-O ) :   1.0601

-----------------------------------------------------------------------------
         ABSORPTION SPECTRUM VIA TRANSITION ELECTRIC DIPOLE MOMENTS
-----------------------------------------------------------------------------
State   Energy  Wavelength   fosc         T2         TX        TY        TZ
        (cm-1)    (nm)                  (au**2)     (au)      (au)      (au)
-----------------------------------------------------------------------------
   0   14272.4    700.7   0.248054771   5.72173  -0.64880  -0.87260  -2.13058
   1   15542.5    643.4   0.180511258   3.82349  -1.00791  -0.13818  -1.66988
   2   20554.8    486.5   0.032120199   0.51445   0.26269  -0.11800  -0.65690
   3   21516.9    464.8   0.043070900   0.65899  -0.13555  -0.05696   0.79836
   4   21884.5    456.9   0.020779431   0.31259  -0.13448  -0.27654  -0.46694
   5   23359.9    428.1   0.003686200   0.05195   0.02304  -0.15747   0.16317
   6   24667.2    405.4   0.007187053   0.09592   0.04560  -0.06712  -0.29889
   7   25569.7    391.1   0.002702783   0.03480   0.00037   0.01863  -0.18561
   8   27191.0    367.8   0.001098977   0.01331  -0.05824  -0.09613  -0.02592
   9   28196.4    354.7   0.000262047   0.00306  -0.03709  -0.03186  -0.02587
  10   28487.5    351.0   0.005202619   0.06012  -0.16403  -0.18225   0.00074
  11   29890.7    334.6   0.070908240   0.78097   0.51126   0.11272   0.71196
  12   30217.7    330.9   0.018659820   0.20329   0.06529  -0.36912  -0.25056
  13   30534.6    327.5   0.272652124   2.93962  -0.81757  -0.40986  -1.45025
  14   30697.2    325.8   0.007128247   0.07645  -0.26396  -0.07955  -0.02102
  15   31449.1    318.0   0.025645191   0.26846  -0.11998  -0.14387  -0.48308
  16   32187.6    310.7   0.020407452   0.20873  -0.07816   0.09718  -0.43951
  17   32572.8    307.0   0.005987676   0.06052   0.20501  -0.10266   0.08916
  18   32584.2    306.9   0.016090508   0.16257   0.30941   0.08734   0.24333
  19   33113.8    302.0   0.112474359   1.11820   0.31741  -0.29802   0.96366
  20   33650.1    297.2   0.085076023   0.83233  -0.70757  -0.06566  -0.57216
  21   33834.0    295.6   0.005672707   0.05520   0.22632   0.06157  -0.01366
  22   34046.7    293.7   0.073290195   0.70867   0.80294   0.24728  -0.05305
  23   34177.7    292.6   0.022064521   0.21253   0.22455   0.34330   0.21037
  24   34369.2    291.0   0.056073515   0.53711   0.23782   0.22624   0.65526
  25   34979.3    285.9   0.063407664   0.59677  -0.59684  -0.07452   0.48477
  26   35230.6    283.8   0.109566885   1.02385   0.19159   0.68100  -0.72345
  27   35755.7    279.7   0.128378121   1.18201  -0.26480   0.33872   0.99858
  28   36118.6    276.9   0.078099124   0.71185   0.17126  -0.69579   0.44542
  29   36159.4    276.6   0.129735996   1.18118  -0.34609  -0.08902   1.02639
  30   36442.4    274.4   0.022577957   0.20396   0.23512  -0.17161  -0.34530
  31   37231.6    268.6   0.126136936   1.11534   0.10338   0.78761   0.69593
  32   37671.3    265.5   0.027288785   0.23848   0.02522   0.01478   0.48747
  33   37790.7    264.6   0.083168879   0.72452   0.14813   0.28298   0.78899
  34   38149.1    262.1   0.005000423   0.04315  -0.02069   0.07936   0.19085
  35   38587.3    259.2   0.121763485   1.03884  -0.48879   0.04544  -0.89323
  36   38817.8    257.6   0.022394565   0.18993  -0.33245   0.27728   0.05017
  37   39343.0    254.2   0.000295777   0.00247  -0.03458   0.03551  -0.00425
  38   39536.8    252.9   0.015579354   0.12973   0.20459  -0.18022  -0.23534
  39   39673.4    252.1   0.275516087   2.28625  -0.36908  -0.37143  -1.41847
  40   39775.2    251.4   0.059925502   0.49599  -0.28307   0.09178  -0.63831
  41   40069.5    249.6   0.001549515   0.01273  -0.01276   0.10888   0.02670
  42   40114.4    249.3   0.016227846   0.13318   0.09482   0.25949  -0.23844

FINAL SINGLE POINT ENERGY     -4129.973737087977

DIPOLE MOMENT
-------------
                                X             Y             Z
Electronic contribution:      0.89719      -1.55991      -2.25043
Nuclear contribution   :      0.04106       2.10215       2.21609
                        -----------------------------------------
Total Dipole Moment    :      0.93825       0.54224      -0.03434
                        -----------------------------------------
Magnitude (a.u.)       :      1.08421
Magnitude (Debye)      :      2.75584

Rotational constants in cm-1:     0.002975     0.000473     0.000460
Rotational constants in MHz :    89.175571    14.184696    13.796535

                             ****ORCA TERMINATED NORMALLY****
TOTAL RUN TIME: 0 days 0 hours 7 minutes 14 seconds 713 msec
