                         Program Version 4.2.0 -  RELEASE  -
|  1> # ORCA input file
|  2> # SCF done       -182.583676771952          0.000872972431
|  3> ! CAM-B3LYP def2-SVP def2/J RIJCOSX Grid4 TightSCF
|  4> %maxcore 5000
|  5> %tddft
|  6>     Mode sTDDFT
|  7>     Ethresh 5.0
|  8>     maxcore 5000
|  9> end
| 10>
| 11> %pal
| 12>   nprocs 6
| 13>   end
| 14> * xyz 0 1
| 15>    C        4.47209        -8.73385        -8.79056
| 16>    S        2.80431        -8.45094        -8.55452
| 17>    C        3.09355        -7.04945        -7.57013
| 18>    C        4.45719        -6.82158        -7.42043
| 19>    C        5.24004        -7.79492        -8.14812
| 20>    C        6.65369        -7.74643        -8.08419
| 21>    C        7.25801        -6.79793        -7.31516
| 22>    N        8.69466        -6.90095        -7.11413
| 23>    O        9.37426        -7.10934        -8.08635
| 24>    O        9.07221        -6.85608        -5.96716
| 25>    C        6.48578        -5.84088        -6.59345
| 26>    N        7.12524        -4.74996        -5.89318
| 27>    O        8.18435        -4.36605        -6.33017
| 28>    O        6.52214        -4.26865        -4.96128
| 29>    C        5.11900        -5.85676        -6.63658
| 30>    N        2.02432        -6.35885        -7.05433
| 31>    C        1.85931        -5.00427        -7.01350
| 32>    S        2.92143        -3.91810        -7.84156
| 33>    C        1.91369        -2.58883        -7.35144
| 34>    N        2.30646        -1.30655        -7.75534
| 35>    O        1.61066        -0.36910        -7.41629
| 36>    O        3.31976        -1.23673        -8.42845
| 37>    C        0.82807        -2.96548        -6.61291
| 38>    C        0.77231        -4.35867        -6.39835
| 39>    C       -0.23257        -5.07589        -5.67919
| 40>    C       -1.40166        -4.57601        -5.20028
| 41>    C       -2.42539        -5.33074        -4.58039
| 42>    C       -2.54846        -6.69334        -4.47876
| 43>    C       -3.64095        -7.38937        -3.89168
| 44>    C       -3.56793        -8.74713        -3.96222
| 45>    C       -2.40305        -9.22135        -4.60459
| 46>    S       -1.41151        -7.87162        -5.11269
| 47>    C       -1.96941       -10.50398        -4.85732
| 48>    C       -2.56455       -11.75601        -4.58296
| 49>    C       -1.83363       -12.82927        -4.99385
| 50>    C       -0.60991       -12.48603        -5.62263
| 51>    S       -0.42646       -10.73158        -5.65735
| 52>    C        0.34065       -13.30615        -6.16014
| 53>    N        1.43644       -12.76275        -6.75993
| 54>    C        2.53907       -13.25307        -7.36172
| 55>    S        3.44409       -12.07162        -8.27144
| 56>    C        4.57482       -13.30140        -8.74107
| 57>    N        5.63638       -12.87673        -9.53215
| 58>    O        6.45264       -13.69486        -9.90952
| 59>    O        5.65948       -11.67447        -9.78473
| 60>    C        4.27419       -14.53269        -8.22695
| 61>    C        3.12122       -14.53765        -7.41366
| 62>    C        2.66270       -15.66836        -6.66375
| 63>    C        3.17423       -16.91916        -6.75429
| 64>    C        2.75078       -18.03580        -5.98294
| 65>    S        3.84140       -19.36357        -5.75018
| 66>    C        2.77263       -20.18571        -4.70646
| 67>    C        1.59102       -19.50254        -4.53563
| 68>    C        1.55605       -18.27195        -5.28995
| 69>    C        0.36276       -17.54007        -5.32736
| 70>    C       -0.70907       -17.92139        -4.55933
| 71>    N       -1.94343       -17.21760        -4.74458
| 72>    O       -1.86088       -16.05588        -5.10421
| 73>    O       -2.97521       -17.82810        -4.59115
| 74>    C       -0.62505       -19.06673        -3.71572
| 75>    N       -1.64880       -19.34006        -2.72619
| 76>    O       -2.09975       -18.37941        -2.14669
| 77>    O       -1.91059       -20.49686        -2.50644
| 78>    C        0.48465       -19.86038        -3.73030
| 79>    H        4.80717        -9.57636        -9.36403
| 80>    H        7.23908        -8.48298        -8.61278
| 81>    H        4.57421        -5.12413        -6.06235
| 82>    H        1.18249        -6.90184        -6.89831
| 83>    H        0.11778        -2.25432        -6.23413
| 84>    H       -0.01017        -6.11593        -5.50237
| 85>    H       -1.60043        -3.51861        -5.30179
| 86>    H       -3.25051        -4.76464        -4.16758
| 87>    H       -4.45572        -6.85278        -3.43827
| 88>    H       -4.31393        -9.41757        -3.57491
| 89>    H       -3.51940       -11.82595        -4.09396
| 90>    H       -2.12578       -13.85749        -4.88118
| 91>    H        0.20166       -14.37171        -6.14600
| 92>    H        1.37285       -11.74894        -6.82025
| 93>    H        4.89502       -15.38811        -8.41793
| 94>    H        1.90575       -15.46904        -5.92385
| 95>    H        4.00555       -17.11188        -7.41702
| 96>    H        3.05813       -21.12190        -4.27084
| 97>    H        0.23916       -16.71338        -6.00762
| 98>    H        0.52616       -20.73964        -3.10583
| 99> *
|100>
|101>                          ****END OF INPUT****

CARTESIAN COORDINATES (ANGSTROEM)
---------------------------------
  C      4.472090   -8.733850   -8.790560
  S      2.804310   -8.450940   -8.554520
  C      3.093550   -7.049450   -7.570130
  C      4.457190   -6.821580   -7.420430
  C      5.240040   -7.794920   -8.148120
  C      6.653690   -7.746430   -8.084190
  C      7.258010   -6.797930   -7.315160
  N      8.694660   -6.900950   -7.114130
  O      9.374260   -7.109340   -8.086350
  O      9.072210   -6.856080   -5.967160
  C      6.485780   -5.840880   -6.593450
  N      7.125240   -4.749960   -5.893180
  O      8.184350   -4.366050   -6.330170
  O      6.522140   -4.268650   -4.961280
  C      5.119000   -5.856760   -6.636580
  N      2.024320   -6.358850   -7.054330
  C      1.859310   -5.004270   -7.013500
  S      2.921430   -3.918100   -7.841560
  C      1.913690   -2.588830   -7.351440
  N      2.306460   -1.306550   -7.755340
  O      1.610660   -0.369100   -7.416290
  O      3.319760   -1.236730   -8.428450
  C      0.828070   -2.965480   -6.612910
  C      0.772310   -4.358670   -6.398350
  C     -0.232570   -5.075890   -5.679190
  C     -1.401660   -4.576010   -5.200280
  C     -2.425390   -5.330740   -4.580390
  C     -2.548460   -6.693340   -4.478760
  C     -3.640950   -7.389370   -3.891680
  C     -3.567930   -8.747130   -3.962220
  C     -2.403050   -9.221350   -4.604590
  S     -1.411510   -7.871620   -5.112690
  C     -1.969410  -10.503980   -4.857320
  C     -2.564550  -11.756010   -4.582960
  C     -1.833630  -12.829270   -4.993850
  C     -0.609910  -12.486030   -5.622630
  S     -0.426460  -10.731580   -5.657350
  C      0.340650  -13.306150   -6.160140
  N      1.436440  -12.762750   -6.759930
  C      2.539070  -13.253070   -7.361720
  S      3.444090  -12.071620   -8.271440
  C      4.574820  -13.301400   -8.741070
  N      5.636380  -12.876730   -9.532150
  O      6.452640  -13.694860   -9.909520
  O      5.659480  -11.674470   -9.784730
  C      4.274190  -14.532690   -8.226950
  C      3.121220  -14.537650   -7.413660
  C      2.662700  -15.668360   -6.663750
  C      3.174230  -16.919160   -6.754290
  C      2.750780  -18.035800   -5.982940
  S      3.841400  -19.363570   -5.750180
  C      2.772630  -20.185710   -4.706460
  C      1.591020  -19.502540   -4.535630
  C      1.556050  -18.271950   -5.289950
  C      0.362760  -17.540070   -5.327360
  C     -0.709070  -17.921390   -4.559330
  N     -1.943430  -17.217600   -4.744580
  O     -1.860880  -16.055880   -5.104210
  O     -2.975210  -17.828100   -4.591150
  C     -0.625050  -19.066730   -3.715720
  N     -1.648800  -19.340060   -2.726190
  O     -2.099750  -18.379410   -2.146690
  O     -1.910590  -20.496860   -2.506440
  C      0.484650  -19.860380   -3.730300
  H      4.807170   -9.576360   -9.364030
  H      7.239080   -8.482980   -8.612780
  H      4.574210   -5.124130   -6.062350
  H      1.182490   -6.901840   -6.898310
  H      0.117780   -2.254320   -6.234130
  H     -0.010170   -6.115930   -5.502370
  H     -1.600430   -3.518610   -5.301790
  H     -3.250510   -4.764640   -4.167580
  H     -4.455720   -6.852780   -3.438270
  H     -4.313930   -9.417570   -3.574910
  H     -3.519400  -11.825950   -4.093960
  H     -2.125780  -13.857490   -4.881180
  H      0.201660  -14.371710   -6.146000
  H      1.372850  -11.748940   -6.820250
  H      4.895020  -15.388110   -8.417930
  H      1.905750  -15.469040   -5.923850
  H      4.005550  -17.111880   -7.417020
  H      3.058130  -21.121900   -4.270840
  H      0.239160  -16.713380   -6.007620
  H      0.526160  -20.739640   -3.105830

 Total Charge           Charge          ....    0
 Multiplicity           Mult            ....    1
 Number of Electrons    NEL             ....  496
 Basis Dimension        Dim             .... 1020

ORBITAL ENERGIES
----------------

  NO   OCC          E(Eh)            E(eV)
   0   2.0000     -89.007871     -2422.0273
   1   2.0000     -89.000980     -2421.8398
   2   2.0000     -88.999754     -2421.8064
   3   2.0000     -88.987091     -2421.4618
   4   2.0000     -88.967232     -2420.9215
   5   2.0000     -88.962700     -2420.7981
   6   2.0000     -19.270795      -524.3850
   7   2.0000     -19.267631      -524.2989
   8   2.0000     -19.259393      -524.0747
   9   2.0000     -19.258730      -524.0567
  10   2.0000     -19.257951      -524.0355
  11   2.0000     -19.256732      -524.0023
  12   2.0000     -19.243489      -523.6420
  13   2.0000     -19.243123      -523.6320
  14   2.0000     -19.241709      -523.5935
  15   2.0000     -19.241305      -523.5825
  16   2.0000     -19.234927      -523.4090
  17   2.0000     -19.234392      -523.3944
  18   2.0000     -14.675257      -399.3340
  19   2.0000     -14.668342      -399.1459
  20   2.0000     -14.665744      -399.0752
  21   2.0000     -14.649446      -398.6317
  22   2.0000     -14.648899      -398.6168
  23   2.0000     -14.646668      -398.5561
  24   2.0000     -14.511120      -394.8677
  25   2.0000     -14.495191      -394.4342
  26   2.0000     -10.395786      -282.8837
  27   2.0000     -10.373886      -282.2878
  28   2.0000     -10.372886      -282.2606
  29   2.0000     -10.364738      -282.0389
  30   2.0000     -10.363936      -282.0170
  31   2.0000     -10.360551      -281.9249
  32   2.0000     -10.351539      -281.6797
  33   2.0000     -10.348601      -281.5997
  34   2.0000     -10.346753      -281.5495
  35   2.0000     -10.346114      -281.5321
  36   2.0000     -10.341610      -281.4095
  37   2.0000     -10.338548      -281.3262
  38   2.0000     -10.335020      -281.2302
  39   2.0000     -10.334028      -281.2032
  40   2.0000     -10.332123      -281.1514
  41   2.0000     -10.330385      -281.1041
  42   2.0000     -10.328287      -281.0470
  43   2.0000     -10.327701      -281.0310
  44   2.0000     -10.326582      -281.0006
  45   2.0000     -10.323370      -280.9132
  46   2.0000     -10.323094      -280.9057
  47   2.0000     -10.322861      -280.8993
  48   2.0000     -10.319798      -280.8160
  49   2.0000     -10.319114      -280.7974
  50   2.0000     -10.318358      -280.7768
  51   2.0000     -10.318049      -280.7684
  52   2.0000     -10.316020      -280.7132
  53   2.0000     -10.314650      -280.6759
  54   2.0000     -10.313174      -280.6357
  55   2.0000     -10.309523      -280.5364
  56   2.0000     -10.302036      -280.3327
  57   2.0000     -10.300960      -280.3034
  58   2.0000     -10.299267      -280.2573
  59   2.0000     -10.298988      -280.2497
  60   2.0000     -10.297405      -280.2066
  61   2.0000     -10.294020      -280.1145
  62   2.0000     -10.291053      -280.0338
  63   2.0000     -10.289539      -279.9926
  64   2.0000      -8.103249      -220.5006
  65   2.0000      -8.096891      -220.3276
  66   2.0000      -8.095365      -220.2861
  67   2.0000      -8.082235      -219.9288
  68   2.0000      -8.063974      -219.4319
  69   2.0000      -8.058555      -219.2844
  70   2.0000      -6.072085      -165.2298
  71   2.0000      -6.067742      -165.1117
  72   2.0000      -6.066765      -165.0851
  73   2.0000      -6.066542      -165.0790
  74   2.0000      -6.064483      -165.0230
  75   2.0000      -6.062293      -164.9634
  76   2.0000      -6.060062      -164.9027
  77   2.0000      -6.058134      -164.8502
  78   2.0000      -6.057915      -164.8442
  79   2.0000      -6.051951      -164.6820
  80   2.0000      -6.047477      -164.5602
  81   2.0000      -6.043644      -164.4559
  82   2.0000      -6.033816      -164.1885
  83   2.0000      -6.029871      -164.0811
  84   2.0000      -6.028270      -164.0376
  85   2.0000      -6.024607      -163.9379
  86   2.0000      -6.024285      -163.9291
  87   2.0000      -6.019589      -163.8013
  88   2.0000      -1.350366       -36.7453
  89   2.0000      -1.340393       -36.4739
  90   2.0000      -1.335610       -36.3438
  91   2.0000      -1.328913       -36.1616
  92   2.0000      -1.321858       -35.9696
  93   2.0000      -1.316551       -35.8252
  94   2.0000      -1.169749       -31.8305
  95   2.0000      -1.161780       -31.6136
  96   2.0000      -1.155761       -31.4499
  97   2.0000      -1.149077       -31.2680
  98   2.0000      -1.143658       -31.1205
  99   2.0000      -1.136142       -30.9160
 100   2.0000      -1.116364       -30.3778
 101   2.0000      -1.103012       -30.0145
 102   2.0000      -1.042568       -28.3697
 103   2.0000      -1.026603       -27.9353
 104   2.0000      -1.024958       -27.8905
 105   2.0000      -1.010241       -27.4901
 106   2.0000      -1.004147       -27.3242
 107   2.0000      -1.003332       -27.3021
 108   2.0000      -0.986993       -26.8574
 109   2.0000      -0.980600       -26.6835
 110   2.0000      -0.948226       -25.8025
 111   2.0000      -0.931988       -25.3607
 112   2.0000      -0.928297       -25.2602
 113   2.0000      -0.920286       -25.0423
 114   2.0000      -0.913101       -24.8467
 115   2.0000      -0.911578       -24.8053
 116   2.0000      -0.901123       -24.5208
 117   2.0000      -0.896851       -24.4046
 118   2.0000      -0.891734       -24.2653
 119   2.0000      -0.881562       -23.9885
 120   2.0000      -0.868173       -23.6242
 121   2.0000      -0.863138       -23.4872
 122   2.0000      -0.854537       -23.2531
 123   2.0000      -0.850795       -23.1513
 124   2.0000      -0.838216       -22.8090
 125   2.0000      -0.835534       -22.7360
 126   2.0000      -0.816287       -22.2123
 127   2.0000      -0.808699       -22.0058
 128   2.0000      -0.806703       -21.9515
 129   2.0000      -0.799246       -21.7486
 130   2.0000      -0.793863       -21.6021
 131   2.0000      -0.787308       -21.4237
 132   2.0000      -0.769996       -20.9527
 133   2.0000      -0.753618       -20.5070
 134   2.0000      -0.741590       -20.1797
 135   2.0000      -0.733368       -19.9560
 136   2.0000      -0.721338       -19.6286
 137   2.0000      -0.720803       -19.6141
 138   2.0000      -0.707948       -19.2642
 139   2.0000      -0.703301       -19.1378
 140   2.0000      -0.694376       -18.8949
 141   2.0000      -0.690138       -18.7796
 142   2.0000      -0.683134       -18.5890
 143   2.0000      -0.677389       -18.4327
 144   2.0000      -0.671414       -18.2701
 145   2.0000      -0.664148       -18.0724
 146   2.0000      -0.663387       -18.0517
 147   2.0000      -0.661042       -17.9879
 148   2.0000      -0.654969       -17.8226
 149   2.0000      -0.651012       -17.7149
 150   2.0000      -0.648681       -17.6515
 151   2.0000      -0.647619       -17.6226
 152   2.0000      -0.645194       -17.5566
 153   2.0000      -0.642405       -17.4807
 154   2.0000      -0.640770       -17.4362
 155   2.0000      -0.639019       -17.3886
 156   2.0000      -0.636192       -17.3117
 157   2.0000      -0.633837       -17.2476
 158   2.0000      -0.628170       -17.0934
 159   2.0000      -0.627939       -17.0871
 160   2.0000      -0.625483       -17.0202
 161   2.0000      -0.624001       -16.9799
 162   2.0000      -0.618094       -16.8192
 163   2.0000      -0.610549       -16.6139
 164   2.0000      -0.609909       -16.5965
 165   2.0000      -0.607316       -16.5259
 166   2.0000      -0.603211       -16.4142
 167   2.0000      -0.600243       -16.3334
 168   2.0000      -0.597721       -16.2648
 169   2.0000      -0.595800       -16.2125
 170   2.0000      -0.589349       -16.0370
 171   2.0000      -0.588226       -16.0065
 172   2.0000      -0.583468       -15.8770
 173   2.0000      -0.580255       -15.7895
 174   2.0000      -0.573694       -15.6110
 175   2.0000      -0.572901       -15.5894
 176   2.0000      -0.567540       -15.4436
 177   2.0000      -0.563581       -15.3358
 178   2.0000      -0.560891       -15.2626
 179   2.0000      -0.558886       -15.2080
 180   2.0000      -0.556403       -15.1405
 181   2.0000      -0.551134       -14.9971
 182   2.0000      -0.548156       -14.9161
 183   2.0000      -0.545285       -14.8380
 184   2.0000      -0.536909       -14.6100
 185   2.0000      -0.535499       -14.5717
 186   2.0000      -0.532401       -14.4874
 187   2.0000      -0.526133       -14.3168
 188   2.0000      -0.520781       -14.1712
 189   2.0000      -0.517045       -14.0695
 190   2.0000      -0.513753       -13.9799
 191   2.0000      -0.509516       -13.8646
 192   2.0000      -0.507664       -13.8142
 193   2.0000      -0.504661       -13.7325
 194   2.0000      -0.502057       -13.6617
 195   2.0000      -0.495869       -13.4933
 196   2.0000      -0.493008       -13.4154
 197   2.0000      -0.491604       -13.3772
 198   2.0000      -0.479712       -13.0536
 199   2.0000      -0.478019       -13.0076
 200   2.0000      -0.474530       -12.9126
 201   2.0000      -0.472321       -12.8525
 202   2.0000      -0.467540       -12.7224
 203   2.0000      -0.466005       -12.6806
 204   2.0000      -0.465436       -12.6652
 205   2.0000      -0.462627       -12.5887
 206   2.0000      -0.459263       -12.4972
 207   2.0000      -0.457110       -12.4386
 208   2.0000      -0.453278       -12.3343
 209   2.0000      -0.445217       -12.1150
 210   2.0000      -0.440826       -11.9955
 211   2.0000      -0.435586       -11.8529
 212   2.0000      -0.433102       -11.7853
 213   2.0000      -0.423377       -11.5207
 214   2.0000      -0.416253       -11.3268
 215   2.0000      -0.414877       -11.2894
 216   2.0000      -0.410223       -11.1627
 217   2.0000      -0.406970       -11.0742
 218   2.0000      -0.405219       -11.0266
 219   2.0000      -0.400142       -10.8884
 220   2.0000      -0.398923       -10.8552
 221   2.0000      -0.397630       -10.8201
 222   2.0000      -0.396260       -10.7828
 223   2.0000      -0.391538       -10.6543
 224   2.0000      -0.390916       -10.6374
 225   2.0000      -0.389939       -10.6108
 226   2.0000      -0.385747       -10.4967
 227   2.0000      -0.385541       -10.4911
 228   2.0000      -0.383668       -10.4401
 229   2.0000      -0.382377       -10.4050
 230   2.0000      -0.380701       -10.3594
 231   2.0000      -0.377732       -10.2786
 232   2.0000      -0.375056       -10.2058
 233   2.0000      -0.370485       -10.0814
 234   2.0000      -0.366617        -9.9762
 235   2.0000      -0.363748        -9.8981
 236   2.0000      -0.360979        -9.8227
 237   2.0000      -0.356411        -9.6984
 238   2.0000      -0.356168        -9.6918
 239   2.0000      -0.353518        -9.6197
 240   2.0000      -0.342118        -9.3095
 241   2.0000      -0.339590        -9.2407
 242   2.0000      -0.330992        -9.0068
 243   2.0000      -0.319748        -8.7008
 244   2.0000      -0.299834        -8.1589
 245   2.0000      -0.281703        -7.6655
 246   2.0000      -0.265940        -7.2366
 247   2.0000      -0.224937        -6.1209
 248   0.0000      -0.100837        -2.7439
 249   0.0000      -0.091234        -2.4826
 250   0.0000      -0.075797        -2.0625
 251   0.0000      -0.068101        -1.8531
 252   0.0000      -0.067137        -1.8269

MULLIKEN ATOMIC CHARGES
-----------------------
   0 C :   -0.124145
   1 S :    0.151047
   2 C :   -0.161922
   3 C :    0.157903
   4 C :    0.096792
   5 C :   -0.025626
   6 C :    0.098993
   7 N :    0.249855
   8 O :   -0.221722
   9 O :   -0.224126
  10 C :    0.132684
  11 N :    0.254592
  12 O :   -0.221777
  13 O :   -0.231364
  14 C :   -0.064732
  15 N :   -0.032152
  16 C :   -0.111991
  17 S :    0.175559
  18 C :   -0.012765
  19 N :    0.279703
  20 O :   -0.250232
  21 O :   -0.262270
  22 C :    0.009402
  23 C :    0.134887
  24 C :   -0.058236
  25 C :    0.016277
  26 C :   -0.000786
  27 C :   -0.013607
  28 C :    0.038738
  29 C :    0.031763
  30 C :   -0.029111
  31 S :    0.003398
  32 C :   -0.035065
  33 C :    0.035380
  34 C :    0.048754
  35 C :   -0.051667
  36 S :    0.000173
  37 C :    0.057094
  38 N :    0.005480
  39 C :   -0.101615
  40 S :    0.131016
  41 C :    0.007958
  42 N :    0.300298
  43 O :   -0.238290
  44 O :   -0.287698
  45 C :   -0.005724
  46 C :    0.097593
  47 C :   -0.044591
  48 C :    0.036971
  49 C :   -0.138160
  50 S :    0.199023
  51 C :   -0.117813
  52 C :    0.100953
  53 C :    0.142349
  54 C :   -0.076447
  55 C :    0.129445
  56 N :    0.272023
  57 O :   -0.255654
  58 O :   -0.207430
  59 C :    0.097954
  60 N :    0.250709
  61 O :   -0.224502
  62 O :   -0.222135
  63 C :   -0.026570
  64 H :    0.036124
  65 H :    0.010489
  66 H :    0.015149
  67 H :    0.148337
  68 H :    0.011122
  69 H :   -0.013963
  70 H :   -0.013124
  71 H :   -0.012069
  72 H :   -0.006662
  73 H :   -0.008191
  74 H :   -0.004864
  75 H :   -0.004503
  76 H :   -0.006707
  77 H :    0.144286
  78 H :    0.013715
  79 H :   -0.005254
  80 H :   -0.010058
  81 H :    0.035351
  82 H :   -0.000907
  83 H :    0.006892
Sum of atomic charges:   -0.0000000

LOEWDIN ATOMIC CHARGES
----------------------
   0 C :   -0.187793
   1 S :    0.471988
   2 C :   -0.145972
   3 C :   -0.081842
   4 C :   -0.044784
   5 C :    0.026826
   6 C :   -0.022652
   7 N :    0.280178
   8 O :   -0.185925
   9 O :   -0.192209
  10 C :   -0.029895
  11 N :    0.283234
  12 O :   -0.187611
  13 O :   -0.197500
  14 C :    0.017754
  15 N :    0.012102
  16 C :   -0.107324
  17 S :    0.477699
  18 C :   -0.207663
  19 N :    0.273341
  20 O :   -0.215600
  21 O :   -0.228126
  22 C :    0.005036
  23 C :   -0.098696
  24 C :   -0.043275
  25 C :   -0.031302
  26 C :   -0.056443
  27 C :   -0.141975
  28 C :   -0.025764
  29 C :   -0.036721
  30 C :   -0.181985
  31 S :    0.366314
  32 C :   -0.166504
  33 C :   -0.035100
  34 C :   -0.017822
  35 C :   -0.169429
  36 S :    0.329777
  37 C :   -0.011713
  38 N :    0.049627
  39 C :   -0.084675
  40 S :    0.440846
  41 C :   -0.210069
  42 N :    0.280067
  43 O :   -0.203433
  44 O :   -0.251172
  45 C :    0.013134
  46 C :   -0.113347
  47 C :   -0.011712
  48 C :   -0.055294
  49 C :   -0.158970
  50 S :    0.520919
  51 C :   -0.184769
  52 C :   -0.047805
  53 C :   -0.055579
  54 C :    0.027608
  55 C :   -0.039581
  56 N :    0.292872
  57 O :   -0.220356
  58 O :   -0.174201
  59 C :   -0.026057
  60 N :    0.280753
  61 O :   -0.192017
  62 O :   -0.187778
  63 C :    0.029363
  64 H :    0.024627
  65 H :    0.051516
  66 H :    0.037710
  67 H :    0.090834
  68 H :    0.045072
  69 H :   -0.001323
  70 H :    0.030804
  71 H :    0.036430
  72 H :    0.035928
  73 H :    0.034823
  74 H :    0.037232
  75 H :    0.035245
  76 H :    0.031624
  77 H :    0.073428
  78 H :    0.045373
  79 H :    0.029544
  80 H :    0.029617
  81 H :    0.032275
  82 H :    0.038593
  83 H :    0.049649

  Mayer bond orders larger than 0.100000
B(  0-C ,  1-S ) :   1.1632 B(  0-C ,  4-C ) :   1.4705 B(  0-C , 64-H ) :   0.9553
B(  1-S ,  2-C ) :   1.1890 B(  2-C ,  3-C ) :   1.3510 B(  2-C , 15-N ) :   1.1319
B(  3-C ,  4-C ) :   1.1842 B(  3-C , 14-C ) :   1.0990 B(  4-C ,  5-C ) :   1.1225
B(  5-C ,  6-C ) :   1.5911 B(  5-C , 65-H ) :   1.0081 B(  6-C ,  7-N ) :   0.8562
B(  6-C , 10-C ) :   1.1930 B(  7-N ,  8-O ) :   1.5585 B(  7-N ,  9-O ) :   1.5575
B(  8-O ,  9-O ) :   0.2777 B( 10-C , 11-N ) :   0.8750 B( 10-C , 14-C ) :   1.5948
B( 11-N , 12-O ) :   1.5609 B( 11-N , 13-O ) :   1.5459 B( 12-O , 13-O ) :   0.2728
B( 14-C , 66-H ) :   0.9853 B( 15-N , 16-C ) :   1.1825 B( 15-N , 67-H ) :   0.8944
B( 16-C , 17-S ) :   1.1345 B( 16-C , 23-C ) :   1.3620 B( 17-S , 18-C ) :   1.0701
B( 18-C , 19-N ) :   0.9693 B( 18-C , 22-C ) :   1.5061 B( 19-N , 20-O ) :   1.5332
B( 19-N , 21-O ) :   1.5131 B( 20-O , 21-O ) :   0.2583 B( 22-C , 23-C ) :   1.2181
B( 22-C , 68-H ) :   0.9994 B( 23-C , 24-C ) :   1.1207 B( 24-C , 25-C ) :   1.6495
B( 24-C , 69-H ) :   0.9343 B( 25-C , 26-C ) :   1.1946 B( 25-C , 70-H ) :   0.9694
B( 26-C , 27-C ) :   1.5852 B( 26-C , 71-H ) :   0.9611 B( 27-C , 28-C ) :   1.1481
B( 27-C , 31-S ) :   1.0277 B( 28-C , 29-C ) :   1.5983 B( 28-C , 72-H ) :   0.9970
B( 29-C , 30-C ) :   1.1832 B( 29-C , 73-H ) :   0.9934 B( 30-C , 31-S ) :   1.0294
B( 30-C , 32-C ) :   1.5296 B( 32-C , 33-C ) :   1.1782 B( 32-C , 36-S ) :   1.0353
B( 33-C , 34-C ) :   1.6080 B( 33-C , 74-H ) :   0.9951 B( 34-C , 35-C ) :   1.1547
B( 34-C , 75-H ) :   0.9807 B( 35-C , 36-S ) :   1.0093 B( 35-C , 37-C ) :   1.6182
B( 37-C , 38-N ) :   1.1252 B( 37-C , 76-H ) :   0.9540 B( 38-N , 39-C ) :   1.2489
B( 38-N , 77-H ) :   0.8871 B( 39-C , 40-S ) :   1.1365 B( 39-C , 46-C ) :   1.3297
B( 40-S , 41-C ) :   1.0627 B( 41-C , 42-N ) :   0.9897 B( 41-C , 45-C ) :   1.4936
B( 42-N , 43-O ) :   1.5377 B( 42-N , 44-O ) :   1.4335 B( 43-O , 44-O ) :   0.2485
B( 45-C , 46-C ) :   1.2254 B( 45-C , 78-H ) :   0.9980 B( 46-C , 47-C ) :   1.1084
B( 47-C , 48-C ) :   1.6867 B( 47-C , 79-H ) :   0.9711 B( 48-C , 49-C ) :   1.1288
B( 48-C , 80-H ) :   0.9500 B( 49-C , 50-S ) :   1.2033 B( 49-C , 53-C ) :   1.3491
B( 50-S , 51-C ) :   1.1993 B( 51-C , 52-C ) :   1.4383 B( 51-C , 81-H ) :   0.9705
B( 52-C , 53-C ) :   1.1869 B( 52-C , 63-C ) :   1.1128 B( 53-C , 54-C ) :   1.1646
B( 54-C , 55-C ) :   1.5378 B( 54-C , 82-H ) :   0.9909 B( 55-C , 56-N ) :   0.8907
B( 55-C , 59-C ) :   1.1934 B( 56-N , 57-O ) :   1.4778 B( 56-N , 58-O ) :   1.5804
B( 57-O , 58-O ) :   0.2619 B( 59-C , 60-N ) :   0.8636 B( 59-C , 63-C ) :   1.5912
B( 60-N , 61-O ) :   1.5582 B( 60-N , 62-O ) :   1.5554 B( 61-O , 62-O ) :   0.2766
B( 63-C , 83-H ) :   1.0047

-----------------------------------------------------------------------------
         ABSORPTION SPECTRUM VIA TRANSITION ELECTRIC DIPOLE MOMENTS
-----------------------------------------------------------------------------
State   Energy  Wavelength   fosc         T2         TX        TY        TZ
        (cm-1)    (nm)                  (au**2)     (au)      (au)      (au)
-----------------------------------------------------------------------------
   0   13114.3    762.5   0.680632718  17.08608  -0.46431   4.10643   0.08811
   1   15359.4    651.1   0.036338590   0.77888  -0.30106   0.59870   0.57429
   2   18262.3    547.6   0.302773387   5.45806  -1.67722   1.48451   0.66424
   3   20825.9    480.2   0.439030681   6.94012   0.90634   2.35032  -0.77115
   4   21583.1    463.3   0.310683830   4.73894  -1.43767   1.59956   0.33681
   5   22485.2    444.7   0.004952014   0.07250   0.03525  -0.17194   0.20420
   6   23171.1    431.6   0.549391575   7.80568  -2.41429   0.15725   1.39719
   7   24666.7    405.4   0.162957305   2.17490   0.47436   1.14067  -0.80545
   8   25021.8    399.7   0.070715208   0.93040   0.57966  -0.76708  -0.07730
   9   25906.2    386.0   0.037760574   0.47986  -0.39066   0.56865   0.06221
  10   26451.7    378.0   0.058443954   0.72738   0.68869   0.40445  -0.29918
  11   27294.3    366.4   0.203944402   2.45988   1.22117   0.85721  -0.48354
  12   27504.5    363.6   0.020707233   0.24785  -0.09784   0.38176   0.30420
  13   28300.5    353.4   0.004654088   0.05414  -0.14100   0.10121   0.15497
  14   28470.5    351.2   0.005150727   0.05956   0.02387   0.04260  -0.23911
  15   29438.1    339.7   0.123151478   1.37723  -1.09921   0.04174   0.40892
  16   29508.4    338.9   0.065261454   0.72809   0.39424  -0.74996   0.10116
  17   30470.8    328.2   0.012919359   0.13958   0.09736  -0.35109  -0.08272
  18   30905.4    323.6   0.078839119   0.83981   0.84617  -0.33303  -0.11361
  19   31517.6    317.3   0.165394465   1.72760   0.60529   0.69289  -0.93868
  20   32018.0    312.3   0.290484714   2.98679   1.56142   0.15398  -0.72461
  21   32276.6    309.8   0.142833876   1.45687  -0.95492  -0.27126   0.68659
  22   32991.8    303.1   0.174301567   1.73929   0.22048   1.29604   0.10470
  23   33340.4    299.9   0.014782793   0.14597   0.05699   0.14407  -0.34923
  24   33857.1    295.4   0.031687794   0.30812  -0.45365   0.04719   0.31637
  25   34036.9    293.8   0.084039799   0.81285  -0.27977  -0.61440   0.59757
  26   34751.6    287.8   0.016751479   0.15869  -0.15932  -0.29353   0.21714
  27   34856.0    286.9   0.035576588   0.33602   0.37965   0.33381  -0.28366
  28   34905.8    286.5   0.012367504   0.11664   0.17612  -0.05232  -0.28790
  29   35330.5    283.0   0.269417952   2.51045   0.96071   0.91008  -0.87135
  30   35585.6    281.0   0.075354122   0.69712  -0.71299   0.18017   0.39535
  31   36016.4    277.7   0.077569823   0.70904   0.08137  -0.82537   0.14551
  32   36183.8    276.4   0.020358682   0.18523  -0.35413  -0.24361   0.02182
  33   36731.7    272.2   0.023737785   0.21275   0.21458  -0.38475   0.13665
  34   37063.0    269.8   0.036209674   0.32163  -0.36043   0.39596   0.18691
  35   37307.9    268.0   0.063564924   0.56091  -0.42062  -0.61966   0.00342
  36   37608.6    265.9   0.195306036   1.70964   0.92747  -0.88460   0.25866
  37   37774.9    264.7   0.109170520   0.95143  -0.89463  -0.18708   0.34068
  38   38408.5    260.4   0.005853083   0.05017  -0.17759   0.13020  -0.04099
  39   38687.2    258.5   0.017686631   0.15051   0.06919   0.30122   0.23449
  40   38761.5    258.0   0.101134148   0.85896  -0.87968  -0.26560  -0.12073
  41   38980.8    256.5   0.046623838   0.39376  -0.32249  -0.35320  -0.40622
  42   39215.4    255.0   0.137146007   1.15134   0.67578  -0.82592   0.11185
  43   39666.8    252.1   0.203199844   1.68644  -0.83532  -0.93023  -0.35121
  44   39758.0    251.5   0.053347573   0.44174   0.58197   0.04761   0.31746
  45   40132.0    249.2   0.004444181   0.03646   0.05501   0.17670  -0.04697

FINAL SINGLE POINT ENERGY     -5185.142690941555

DIPOLE MOMENT
-------------
                                X             Y             Z
Electronic contribution:     21.39191       3.06500      -8.89052
Nuclear contribution   :    -24.55468      -8.12849       9.08266
                        -----------------------------------------
Total Dipole Moment    :     -3.16277      -5.06349       0.19214
                        -----------------------------------------
Magnitude (a.u.)       :      5.97319
Magnitude (Debye)      :     15.18265

Rotational constants in cm-1:     0.001379     0.000494     0.000387
Rotational constants in MHz :    41.350793    14.804956    11.591265

                             ****ORCA TERMINATED NORMALLY****
TOTAL RUN TIME: 0 days 0 hours 7 minutes 53 seconds 679 msec
