                         Program Version 4.2.0 -  RELEASE  -
|  1> # ORCA input file
|  2> # SCF done       -157.735533862463          0.000953549570
|  3> ! CAM-B3LYP def2-SVP def2/J RIJCOSX Grid4 TightSCF
|  4> %maxcore 5000
|  5> %tddft
|  6>     Mode sTDDFT
|  7>     Ethresh 5.0
|  8>     maxcore 5000
|  9> end
| 10>
| 11> %pal
| 12>   nprocs 6
| 13>   end
| 14> * xyz 0 1
| 15>    C        4.68251        -0.24644        -2.12262
| 16>    O        6.01987        -0.29639        -2.02876
| 17>    C        6.41871         0.82893        -1.41326
| 18>    C        5.35624         1.61234        -1.09409
| 19>    C        4.21325         0.90886        -1.56616
| 20>    S        2.52371         1.35396        -1.38027
| 21>    C        2.53899         3.07200        -1.81809
| 22>    C        1.54303         3.87414        -1.26166
| 23>    C        1.50413         5.20615        -1.59797
| 24>    C        2.44968         5.74606        -2.48669
| 25>    C        3.42760         4.93765        -3.04812
| 26>    C        3.46232         3.59635        -2.71621
| 27>    C        2.19108         7.16125        -2.62368
| 28>    C        1.08435         7.49788        -1.82015
| 29>    C        0.51289         6.26281        -1.16122
| 30>    C        0.43628         6.39730         0.36616
| 31>    C        1.80073         6.65821         0.99390
| 32>    C       -0.85460         5.87008        -1.77006
| 33>    C       -1.96877         6.89672        -1.61711
| 34>    C        0.69176         8.80631        -1.70296
| 35>    C        1.36095         9.81454        -2.42603
| 36>    C        2.43896         9.45022        -3.25080
| 37>    C        2.86119         8.14223        -3.34421
| 38>    C        0.90444        11.16297        -2.26994
| 39>    C        1.36517        12.26576        -2.92446
| 40>    C        0.90922        13.58788        -2.76457
| 41>    C       -0.04473        14.10493        -1.91582
| 42>    C       -0.41301        15.47171        -1.86850
| 43>    C       -1.37695        15.77187        -0.95104
| 44>    C       -1.82495        14.65774        -0.21534
| 45>    S       -0.98733        13.21719        -0.73003
| 46>    C       -2.79025        14.62748         0.78252
| 47>    C       -3.53170        15.70787         1.29463
| 48>    C       -4.43570        15.35547         2.25735
| 49>    C       -4.45716        13.98051         2.55992
| 50>    S       -3.24891        13.15181         1.59173
| 51>    C       -5.17036        13.23764         3.48458
| 52>    C       -6.31122        13.54976         4.23546
| 53>    C       -7.27194        14.56636         3.96115
| 54>    C       -8.41718        14.80372         4.82573
| 55>    N       -9.23174        15.83396         4.52143
| 56>    C       -9.06082        16.52509         3.41443
| 57>    C       -8.01955        16.18290         2.50660
| 58>    N       -7.14689        15.24839         2.82968
| 59>    C       -7.86721        16.85505         1.27332
| 60>    N       -7.74633        17.42017         0.28277
| 61>    C       -9.91885        17.61734         3.13953
| 62>    N      -10.59267        18.50570         2.87627
| 63>    C       -8.71171        13.98653         5.93437
| 64>    C       -7.81078        12.90744         6.14871
| 65>    C       -6.64520        12.70253         5.32924
| 66>    N       -5.92576        11.66079         5.73113
| 67>    S       -6.63969        10.99822         7.01626
| 68>    N       -7.88729        12.00429         7.12312
| 69>    C       -9.83972        14.10658         6.81751
| 70>    O      -10.21737        12.96364         7.44986
| 71>    C      -11.21103        13.25364         8.29190
| 72>    C      -11.51313        14.57735         8.25138
| 73>    C      -10.63999        15.14826         7.29260
| 74>    S      -10.62011        16.85005         6.95057
| 75>    H        4.17438        -1.07007        -2.58125
| 76>    H        7.47102         0.95794        -1.25612
| 77>    H        5.36386         2.56170        -0.60008
| 78>    H        0.83229         3.43789        -0.57641
| 79>    H        4.14966         5.34149        -3.74165
| 80>    H        4.20858         2.95260        -3.15679
| 81>    H        0.01468         5.47898         0.77983
| 82>    H       -0.23395         7.21940         0.61956
| 83>    H        2.48574         5.84088         0.77951
| 84>    H        1.70493         6.75316         2.07301
| 85>    H        2.23225         7.57781         0.60417
| 86>    H       -1.16552         4.93200        -1.30492
| 87>    H       -0.70267         5.67446        -2.83498
| 88>    H       -2.15046         7.13457        -0.57254
| 89>    H       -2.88826         6.49164        -2.03426
| 90>    H       -1.73066         7.81151        -2.15290
| 91>    H       -0.12203         9.08907        -1.05184
| 92>    H        2.96223        10.21020        -3.80983
| 93>    H        3.70685         7.88427        -3.96430
| 94>    H        0.09895        11.28481        -1.55957
| 95>    H        2.15338        12.14575        -3.65517
| 96>    H        1.37787        14.32615        -3.40473
| 97>    H        0.04691        16.19530        -2.51843
| 98>    H       -1.77169        16.75847        -0.79019
| 99>    H       -3.38849        16.71592         0.94989
|100>    H       -5.05963        16.06109         2.77013
|101>    H       -4.78364        12.24533         3.68664
|102>    H      -11.62654        12.44250         8.85670
|103>    H      -12.25616        15.10615         8.81080
|104>    H       -9.97742        16.66396         5.77058
|105> *
|106>
|107>                          ****END OF INPUT****

CARTESIAN COORDINATES (ANGSTROEM)
---------------------------------
  C      4.682510   -0.246440   -2.122620
  O      6.019870   -0.296390   -2.028760
  C      6.418710    0.828930   -1.413260
  C      5.356240    1.612340   -1.094090
  C      4.213250    0.908860   -1.566160
  S      2.523710    1.353960   -1.380270
  C      2.538990    3.072000   -1.818090
  C      1.543030    3.874140   -1.261660
  C      1.504130    5.206150   -1.597970
  C      2.449680    5.746060   -2.486690
  C      3.427600    4.937650   -3.048120
  C      3.462320    3.596350   -2.716210
  C      2.191080    7.161250   -2.623680
  C      1.084350    7.497880   -1.820150
  C      0.512890    6.262810   -1.161220
  C      0.436280    6.397300    0.366160
  C      1.800730    6.658210    0.993900
  C     -0.854600    5.870080   -1.770060
  C     -1.968770    6.896720   -1.617110
  C      0.691760    8.806310   -1.702960
  C      1.360950    9.814540   -2.426030
  C      2.438960    9.450220   -3.250800
  C      2.861190    8.142230   -3.344210
  C      0.904440   11.162970   -2.269940
  C      1.365170   12.265760   -2.924460
  C      0.909220   13.587880   -2.764570
  C     -0.044730   14.104930   -1.915820
  C     -0.413010   15.471710   -1.868500
  C     -1.376950   15.771870   -0.951040
  C     -1.824950   14.657740   -0.215340
  S     -0.987330   13.217190   -0.730030
  C     -2.790250   14.627480    0.782520
  C     -3.531700   15.707870    1.294630
  C     -4.435700   15.355470    2.257350
  C     -4.457160   13.980510    2.559920
  S     -3.248910   13.151810    1.591730
  C     -5.170360   13.237640    3.484580
  C     -6.311220   13.549760    4.235460
  C     -7.271940   14.566360    3.961150
  C     -8.417180   14.803720    4.825730
  N     -9.231740   15.833960    4.521430
  C     -9.060820   16.525090    3.414430
  C     -8.019550   16.182900    2.506600
  N     -7.146890   15.248390    2.829680
  C     -7.867210   16.855050    1.273320
  N     -7.746330   17.420170    0.282770
  C     -9.918850   17.617340    3.139530
  N    -10.592670   18.505700    2.876270
  C     -8.711710   13.986530    5.934370
  C     -7.810780   12.907440    6.148710
  C     -6.645200   12.702530    5.329240
  N     -5.925760   11.660790    5.731130
  S     -6.639690   10.998220    7.016260
  N     -7.887290   12.004290    7.123120
  C     -9.839720   14.106580    6.817510
  O    -10.217370   12.963640    7.449860
  C    -11.211030   13.253640    8.291900
  C    -11.513130   14.577350    8.251380
  C    -10.639990   15.148260    7.292600
  S    -10.620110   16.850050    6.950570
  H      4.174380   -1.070070   -2.581250
  H      7.471020    0.957940   -1.256120
  H      5.363860    2.561700   -0.600080
  H      0.832290    3.437890   -0.576410
  H      4.149660    5.341490   -3.741650
  H      4.208580    2.952600   -3.156790
  H      0.014680    5.478980    0.779830
  H     -0.233950    7.219400    0.619560
  H      2.485740    5.840880    0.779510
  H      1.704930    6.753160    2.073010
  H      2.232250    7.577810    0.604170
  H     -1.165520    4.932000   -1.304920
  H     -0.702670    5.674460   -2.834980
  H     -2.150460    7.134570   -0.572540
  H     -2.888260    6.491640   -2.034260
  H     -1.730660    7.811510   -2.152900
  H     -0.122030    9.089070   -1.051840
  H      2.962230   10.210200   -3.809830
  H      3.706850    7.884270   -3.964300
  H      0.098950   11.284810   -1.559570
  H      2.153380   12.145750   -3.655170
  H      1.377870   14.326150   -3.404730
  H      0.046910   16.195300   -2.518430
  H     -1.771690   16.758470   -0.790190
  H     -3.388490   16.715920    0.949890
  H     -5.059630   16.061090    2.770130
  H     -4.783640   12.245330    3.686640
  H    -11.626540   12.442500    8.856700
  H    -12.256160   15.106150    8.810800
  H     -9.977420   16.663960    5.770580

 Total Charge           Charge          ....    0
 Multiplicity           Mult            ....    1
 Number of Electrons    NEL             ....  450
 Basis Dimension        Dim             .... 1010

ORBITAL ENERGIES
----------------

  NO   OCC          E(Eh)            E(eV)
   0   2.0000     -89.024246     -2422.4729
   1   2.0000     -88.961102     -2420.7546
   2   2.0000     -88.954688     -2420.5801
   3   2.0000     -88.931386     -2419.9460
   4   2.0000     -88.896884     -2419.0072
   5   2.0000     -19.289724      -524.9001
   6   2.0000     -19.272699      -524.4368
   7   2.0000     -14.457337      -393.4042
   8   2.0000     -14.450281      -393.2121
   9   2.0000     -14.438031      -392.8788
  10   2.0000     -14.432516      -392.7287
  11   2.0000     -14.424947      -392.5228
  12   2.0000     -14.417389      -392.3171
  13   2.0000     -10.375089      -282.3205
  14   2.0000     -10.363331      -282.0006
  15   2.0000     -10.339833      -281.3612
  16   2.0000     -10.336693      -281.2757
  17   2.0000     -10.327655      -281.0298
  18   2.0000     -10.327566      -281.0273
  19   2.0000     -10.326302      -280.9930
  20   2.0000     -10.321600      -280.8650
  21   2.0000     -10.321550      -280.8636
  22   2.0000     -10.321258      -280.8557
  23   2.0000     -10.321197      -280.8541
  24   2.0000     -10.318163      -280.7715
  25   2.0000     -10.317139      -280.7436
  26   2.0000     -10.316912      -280.7374
  27   2.0000     -10.316092      -280.7151
  28   2.0000     -10.312959      -280.6299
  29   2.0000     -10.305757      -280.4339
  30   2.0000     -10.302577      -280.3474
  31   2.0000     -10.301043      -280.3056
  32   2.0000     -10.298403      -280.2338
  33   2.0000     -10.296849      -280.1915
  34   2.0000     -10.294919      -280.1390
  35   2.0000     -10.293870      -280.1104
  36   2.0000     -10.291750      -280.0527
  37   2.0000     -10.290601      -280.0215
  38   2.0000     -10.287695      -279.9424
  39   2.0000     -10.284451      -279.8541
  40   2.0000     -10.284073      -279.8439
  41   2.0000     -10.283395      -279.8254
  42   2.0000     -10.282107      -279.7903
  43   2.0000     -10.281818      -279.7825
  44   2.0000     -10.277452      -279.6637
  45   2.0000     -10.277274      -279.6588
  46   2.0000     -10.276202      -279.6297
  47   2.0000     -10.275973      -279.6234
  48   2.0000     -10.275806      -279.6189
  49   2.0000     -10.274050      -279.5711
  50   2.0000     -10.273115      -279.5457
  51   2.0000     -10.272559      -279.5306
  52   2.0000     -10.271784      -279.5095
  53   2.0000     -10.271396      -279.4989
  54   2.0000     -10.269928      -279.4590
  55   2.0000     -10.266209      -279.3578
  56   2.0000     -10.265666      -279.3430
  57   2.0000     -10.258394      -279.1451
  58   2.0000     -10.253572      -279.0139
  59   2.0000     -10.249286      -278.8973
  60   2.0000      -8.115923      -220.8455
  61   2.0000      -8.056739      -219.2350
  62   2.0000      -8.051189      -219.0840
  63   2.0000      -8.026660      -218.4165
  64   2.0000      -7.993568      -217.5160
  65   2.0000      -6.087073      -165.6377
  66   2.0000      -6.079351      -165.4275
  67   2.0000      -6.078466      -165.4035
  68   2.0000      -6.026405      -163.9868
  69   2.0000      -6.022335      -163.8761
  70   2.0000      -6.020778      -163.8337
  71   2.0000      -6.017914      -163.7558
  72   2.0000      -6.016731      -163.7236
  73   2.0000      -6.012362      -163.6047
  74   2.0000      -5.997160      -163.1910
  75   2.0000      -5.993025      -163.0785
  76   2.0000      -5.986324      -162.8961
  77   2.0000      -5.963690      -162.2803
  78   2.0000      -5.958979      -162.1521
  79   2.0000      -5.954465      -162.0292
  80   2.0000      -1.209517       -32.9126
  81   2.0000      -1.196917       -32.5698
  82   2.0000      -1.124161       -30.5900
  83   2.0000      -1.110613       -30.2213
  84   2.0000      -1.037857       -28.2415
  85   2.0000      -1.006244       -27.3813
  86   2.0000      -1.005597       -27.3637
  87   2.0000      -0.994991       -27.0751
  88   2.0000      -0.991690       -26.9853
  89   2.0000      -0.983817       -26.7710
  90   2.0000      -0.979074       -26.6419
  91   2.0000      -0.963395       -26.2153
  92   2.0000      -0.954646       -25.9772
  93   2.0000      -0.932673       -25.3793
  94   2.0000      -0.913210       -24.8497
  95   2.0000      -0.908479       -24.7210
  96   2.0000      -0.905963       -24.6525
  97   2.0000      -0.897588       -24.4246
  98   2.0000      -0.896127       -24.3849
  99   2.0000      -0.884035       -24.0558
 100   2.0000      -0.870325       -23.6827
 101   2.0000      -0.855472       -23.2786
 102   2.0000      -0.853337       -23.2205
 103   2.0000      -0.842554       -22.9271
 104   2.0000      -0.839561       -22.8456
 105   2.0000      -0.837977       -22.8025
 106   2.0000      -0.836601       -22.7651
 107   2.0000      -0.834950       -22.7201
 108   2.0000      -0.829920       -22.5833
 109   2.0000      -0.821825       -22.3630
 110   2.0000      -0.816238       -22.2110
 111   2.0000      -0.801533       -21.8108
 112   2.0000      -0.796907       -21.6849
 113   2.0000      -0.782563       -21.2946
 114   2.0000      -0.767995       -20.8982
 115   2.0000      -0.764736       -20.8095
 116   2.0000      -0.744942       -20.2709
 117   2.0000      -0.727515       -19.7967
 118   2.0000      -0.720682       -19.6108
 119   2.0000      -0.710461       -19.3326
 120   2.0000      -0.700828       -19.0705
 121   2.0000      -0.694401       -18.8956
 122   2.0000      -0.691980       -18.8297
 123   2.0000      -0.687564       -18.7096
 124   2.0000      -0.684382       -18.6230
 125   2.0000      -0.678536       -18.4639
 126   2.0000      -0.674042       -18.3416
 127   2.0000      -0.666640       -18.1402
 128   2.0000      -0.663651       -18.0589
 129   2.0000      -0.659968       -17.9587
 130   2.0000      -0.652423       -17.7533
 131   2.0000      -0.644724       -17.5438
 132   2.0000      -0.639103       -17.3909
 133   2.0000      -0.636545       -17.3213
 134   2.0000      -0.631934       -17.1958
 135   2.0000      -0.627853       -17.0848
 136   2.0000      -0.613901       -16.7051
 137   2.0000      -0.607646       -16.5349
 138   2.0000      -0.599813       -16.3217
 139   2.0000      -0.598670       -16.2906
 140   2.0000      -0.594103       -16.1664
 141   2.0000      -0.589970       -16.0539
 142   2.0000      -0.585354       -15.9283
 143   2.0000      -0.578815       -15.7503
 144   2.0000      -0.572380       -15.5753
 145   2.0000      -0.565444       -15.3865
 146   2.0000      -0.551716       -15.0130
 147   2.0000      -0.549106       -14.9419
 148   2.0000      -0.547816       -14.9068
 149   2.0000      -0.546396       -14.8682
 150   2.0000      -0.538861       -14.6632
 151   2.0000      -0.537069       -14.6144
 152   2.0000      -0.535538       -14.5727
 153   2.0000      -0.534518       -14.5450
 154   2.0000      -0.528839       -14.3904
 155   2.0000      -0.527010       -14.3407
 156   2.0000      -0.523962       -14.2577
 157   2.0000      -0.522864       -14.2278
 158   2.0000      -0.521198       -14.1825
 159   2.0000      -0.519724       -14.1424
 160   2.0000      -0.515620       -14.0307
 161   2.0000      -0.510479       -13.8908
 162   2.0000      -0.507017       -13.7966
 163   2.0000      -0.503709       -13.7066
 164   2.0000      -0.500822       -13.6281
 165   2.0000      -0.498184       -13.5563
 166   2.0000      -0.493595       -13.4314
 167   2.0000      -0.490478       -13.3466
 168   2.0000      -0.482489       -13.1292
 169   2.0000      -0.480403       -13.0724
 170   2.0000      -0.478299       -13.0152
 171   2.0000      -0.475129       -12.9289
 172   2.0000      -0.474686       -12.9169
 173   2.0000      -0.470186       -12.7944
 174   2.0000      -0.467456       -12.7201
 175   2.0000      -0.466188       -12.6856
 176   2.0000      -0.464953       -12.6520
 177   2.0000      -0.463073       -12.6009
 178   2.0000      -0.460001       -12.5173
 179   2.0000      -0.453621       -12.3436
 180   2.0000      -0.451736       -12.2924
 181   2.0000      -0.451070       -12.2742
 182   2.0000      -0.449978       -12.2445
 183   2.0000      -0.449166       -12.2224
 184   2.0000      -0.444665       -12.0999
 185   2.0000      -0.443818       -12.0769
 186   2.0000      -0.437715       -11.9108
 187   2.0000      -0.437268       -11.8987
 188   2.0000      -0.436468       -11.8769
 189   2.0000      -0.434562       -11.8250
 190   2.0000      -0.432797       -11.7770
 191   2.0000      -0.431772       -11.7491
 192   2.0000      -0.430774       -11.7220
 193   2.0000      -0.425913       -11.5897
 194   2.0000      -0.419659       -11.4195
 195   2.0000      -0.418033       -11.3753
 196   2.0000      -0.415522       -11.3069
 197   2.0000      -0.408256       -11.1092
 198   2.0000      -0.406525       -11.0621
 199   2.0000      -0.406190       -11.0530
 200   2.0000      -0.402594       -10.9551
 201   2.0000      -0.398677       -10.8486
 202   2.0000      -0.396965       -10.8020
 203   2.0000      -0.391754       -10.6602
 204   2.0000      -0.386917       -10.5285
 205   2.0000      -0.385161       -10.4808
 206   2.0000      -0.382527       -10.4091
 207   2.0000      -0.375539       -10.2189
 208   2.0000      -0.370493       -10.0816
 209   2.0000      -0.358476        -9.7546
 210   2.0000      -0.356562        -9.7026
 211   2.0000      -0.345235        -9.3943
 212   2.0000      -0.338474        -9.2103
 213   2.0000      -0.337411        -9.1814
 214   2.0000      -0.336021        -9.1436
 215   2.0000      -0.329225        -8.9587
 216   2.0000      -0.325814        -8.8659
 217   2.0000      -0.320900        -8.7321
 218   2.0000      -0.318106        -8.6561
 219   2.0000      -0.308468        -8.3938
 220   2.0000      -0.296715        -8.0740
 221   2.0000      -0.283037        -7.7018
 222   2.0000      -0.262797        -7.1511
 223   2.0000      -0.247356        -6.7309
 224   2.0000      -0.207243        -5.6394
 225   0.0000      -0.119006        -3.2383
 226   0.0000      -0.077078        -2.0974
 227   0.0000      -0.042080        -1.1450
 228   0.0000      -0.029921        -0.8142
 229   0.0000      -0.019539        -0.5317

MULLIKEN ATOMIC CHARGES
-----------------------
   0 C :    0.092526
   1 O :   -0.182540
   2 C :    0.131558
   3 C :   -0.028660
   4 C :   -0.071755
   5 S :    0.077152
   6 C :   -0.054256
   7 C :   -0.045375
   8 C :    0.004332
   9 C :    0.110202
  10 C :   -0.052819
  11 C :    0.018104
  12 C :    0.103272
  13 C :    0.028135
  14 C :   -0.137324
  15 C :    0.050756
  16 C :    0.024121
  17 C :    0.078744
  18 C :    0.030901
  19 C :   -0.111188
  20 C :    0.123766
  21 C :   -0.011544
  22 C :   -0.048638
  23 C :   -0.002930
  24 C :    0.013935
  25 C :    0.014443
  26 C :   -0.029024
  27 C :    0.044159
  28 C :    0.021760
  29 C :   -0.009801
  30 S :    0.065723
  31 C :   -0.051123
  32 C :    0.014828
  33 C :    0.076987
  34 C :   -0.039466
  35 S :    0.106998
  36 C :   -0.058265
  37 C :    0.114525
  38 C :   -0.099992
  39 C :   -0.004804
  40 N :   -0.036115
  41 C :   -0.058477
  42 C :   -0.156644
  43 N :    0.034568
  44 C :   -0.226302
  45 N :    0.227520
  46 C :   -0.245076
  47 N :    0.239602
  48 C :    0.105762
  49 C :   -0.009653
  50 C :   -0.022414
  51 N :   -0.275127
  52 S :    0.511298
  53 N :   -0.251199
  54 C :   -0.009477
  55 O :   -0.178063
  56 C :    0.159627
  57 C :   -0.036655
  58 C :   -0.075087
  59 S :   -0.035435
  60 H :    0.009138
  61 H :    0.014079
  62 H :    0.000902
  63 H :   -0.033011
  64 H :   -0.034426
  65 H :   -0.000911
  66 H :   -0.000077
  67 H :    0.007325
  68 H :    0.020595
  69 H :    0.011899
  70 H :    0.018683
  71 H :   -0.002559
  72 H :    0.006808
  73 H :    0.004896
  74 H :    0.013976
  75 H :    0.019413
  76 H :   -0.032327
  77 H :   -0.030091
  78 H :   -0.035272
  79 H :   -0.008708
  80 H :   -0.015738
  81 H :   -0.008711
  82 H :   -0.005349
  83 H :   -0.006237
  84 H :   -0.005663
  85 H :   -0.011677
  86 H :    0.005393
  87 H :    0.008913
  88 H :   -0.010885
  89 H :    0.129544
Sum of atomic charges:   -0.0000000

LOEWDIN ATOMIC CHARGES
----------------------
   0 C :    0.013530
   1 O :    0.022612
   2 C :    0.032195
   3 C :   -0.081622
   4 C :   -0.224587
   5 S :    0.332807
   6 C :   -0.145530
   7 C :   -0.046619
   8 C :    0.011928
   9 C :   -0.029211
  10 C :   -0.012821
  11 C :   -0.043576
  12 C :   -0.005580
  13 C :    0.000183
  14 C :   -0.034579
  15 C :   -0.015264
  16 C :   -0.056727
  17 C :   -0.008721
  18 C :   -0.058713
  19 C :   -0.012848
  20 C :   -0.032613
  21 C :   -0.007143
  22 C :   -0.020414
  23 C :    0.003163
  24 C :   -0.049062
  25 C :   -0.029018
  26 C :   -0.155811
  27 C :   -0.012315
  28 C :   -0.044566
  29 C :   -0.154165
  30 S :    0.400774
  31 C :   -0.190597
  32 C :   -0.015799
  33 C :   -0.031382
  34 C :   -0.113831
  35 S :    0.398671
  36 C :   -0.055480
  37 C :   -0.024646
  38 C :   -0.017392
  39 C :   -0.006754
  40 N :   -0.004390
  41 C :   -0.018651
  42 C :   -0.057035
  43 N :    0.012848
  44 C :   -0.040351
  45 N :   -0.025672
  46 C :   -0.040709
  47 N :   -0.004038
  48 C :   -0.055925
  49 C :   -0.041087
  50 C :   -0.046834
  51 N :   -0.284671
  52 S :    0.646725
  53 N :   -0.273990
  54 C :   -0.009345
  55 O :    0.030558
  56 C :    0.052576
  57 C :   -0.090290
  58 C :   -0.183456
  59 S :    0.188491
  60 H :    0.023745
  61 H :    0.023052
  62 H :    0.033290
  63 H :    0.024332
  64 H :    0.027178
  65 H :    0.032361
  66 H :    0.021096
  67 H :    0.020221
  68 H :    0.024932
  69 H :    0.024735
  70 H :    0.024929
  71 H :    0.020555
  72 H :    0.027258
  73 H :    0.020245
  74 H :    0.028574
  75 H :    0.024060
  76 H :    0.025513
  77 H :    0.025739
  78 H :    0.027380
  79 H :    0.011114
  80 H :    0.028970
  81 H :    0.038160
  82 H :    0.036538
  83 H :    0.034937
  84 H :    0.035872
  85 H :    0.030918
  86 H :    0.036390
  87 H :    0.023942
  88 H :    0.031340
  89 H :   -0.020607

  Mayer bond orders larger than 0.100000
B(  0-C ,  1-O ) :   1.1620 B(  0-C ,  4-C ) :   1.5721 B(  0-C , 60-H ) :   1.0116
B(  1-O ,  2-C ) :   1.1502 B(  2-C ,  3-C ) :   1.5804 B(  2-C , 61-H ) :   1.0015
B(  3-C ,  4-C ) :   1.2257 B(  3-C , 62-H ) :   1.0112 B(  4-C ,  5-S ) :   0.9755
B(  5-S ,  6-C ) :   0.9765 B(  6-C ,  7-C ) :   1.3345 B(  6-C , 11-C ) :   1.3863
B(  7-C ,  8-C ) :   1.4113 B(  7-C , 63-H ) :   0.9964 B(  8-C ,  9-C ) :   1.3732
B(  8-C , 14-C ) :   0.9291 B(  9-C , 10-C ) :   1.3341 B(  9-C , 12-C ) :   1.0054
B( 10-C , 11-C ) :   1.3918 B( 10-C , 64-H ) :   0.9929 B( 11-C , 65-H ) :   0.9797
B( 12-C , 13-C ) :   1.3761 B( 12-C , 22-C ) :   1.3218 B( 13-C , 14-C ) :   0.9209
B( 13-C , 19-C ) :   1.3921 B( 14-C , 15-C ) :   1.0329 B( 14-C , 17-C ) :   1.0138
B( 15-C , 16-C ) :   1.1046 B( 15-C , 66-H ) :   0.9391 B( 15-C , 67-H ) :   0.9384
B( 16-C , 68-H ) :   0.9631 B( 16-C , 69-H ) :   0.9648 B( 16-C , 70-H ) :   0.9649
B( 17-C , 18-C ) :   1.1152 B( 17-C , 71-H ) :   0.9367 B( 17-C , 72-H ) :   0.9385
B( 18-C , 73-H ) :   0.9631 B( 18-C , 74-H ) :   0.9595 B( 18-C , 75-H ) :   0.9607
B( 19-C , 20-C ) :   1.2587 B( 19-C , 76-H ) :   1.0077 B( 20-C , 21-C ) :   1.3260
B( 20-C , 23-C ) :   1.1296 B( 21-C , 22-C ) :   1.4108 B( 21-C , 77-H ) :   0.9868
B( 22-C , 78-H ) :   0.9898 B( 23-C , 24-C ) :   1.5864 B( 23-C , 79-H ) :   0.9626
B( 24-C , 25-C ) :   1.2168 B( 24-C , 80-H ) :   0.9661 B( 25-C , 26-C ) :   1.5474
B( 25-C , 81-H ) :   0.9609 B( 26-C , 27-C ) :   1.1669 B( 26-C , 30-S ) :   1.0332
B( 27-C , 28-C ) :   1.5592 B( 27-C , 82-H ) :   0.9989 B( 28-C , 29-C ) :   1.2153
B( 28-C , 83-H ) :   0.9942 B( 29-C , 30-S ) :   1.0681 B( 29-C , 31-C ) :   1.4351
B( 31-C , 32-C ) :   1.2270 B( 31-C , 35-S ) :   1.0545 B( 32-C , 33-C ) :   1.5425
B( 32-C , 84-H ) :   0.9950 B( 33-C , 34-C ) :   1.2197 B( 33-C , 85-H ) :   0.9841
B( 34-C , 35-S ) :   1.0843 B( 34-C , 36-C ) :   1.3932 B( 36-C , 37-C ) :   1.3669
B( 36-C , 86-H ) :   0.9315 B( 37-C , 38-C ) :   1.1688 B( 37-C , 48-C ) :   0.1024
B( 37-C , 50-C ) :   1.1415 B( 38-C , 39-C ) :   1.0623 B( 38-C , 43-N ) :   1.5065
B( 39-C , 40-N ) :   1.3733 B( 39-C , 48-C ) :   1.3471 B( 40-N , 41-C ) :   1.6557
B( 40-N , 89-H ) :   0.1197 B( 41-C , 42-C ) :   1.2314 B( 41-C , 46-C ) :   1.1486
B( 42-C , 43-N ) :   1.6486 B( 42-C , 44-C ) :   1.1735 B( 44-C , 45-N ) :   3.0405
B( 46-C , 47-N ) :   3.0384 B( 48-C , 49-C ) :   1.1820 B( 48-C , 54-C ) :   1.0373
B( 49-C , 50-C ) :   1.1100 B( 49-C , 53-N ) :   1.5536 B( 50-C , 51-N ) :   1.5819
B( 51-N , 52-S ) :   1.2538 B( 51-N , 53-N ) :   0.1444 B( 52-S , 53-N ) :   1.2683
B( 54-C , 55-O ) :   1.1645 B( 54-C , 58-C ) :   1.4871 B( 55-O , 56-C ) :   1.1682
B( 56-C , 57-C ) :   1.5240 B( 56-C , 87-H ) :   1.0053 B( 57-C , 58-C ) :   1.2508
B( 57-C , 88-H ) :   1.0048 B( 58-C , 59-S ) :   1.0676 B( 59-S , 89-H ) :   0.8694

-----------------------------------------------------------------------------
         ABSORPTION SPECTRUM VIA TRANSITION ELECTRIC DIPOLE MOMENTS
-----------------------------------------------------------------------------
State   Energy  Wavelength   fosc         T2         TX        TY        TZ
        (cm-1)    (nm)                  (au**2)     (au)      (au)      (au)
-----------------------------------------------------------------------------
   0    5211.6   1918.8   0.412357749  26.04823   3.92049  -1.23876  -3.02381
   1   14000.3    714.3   0.524019253  12.32216  -2.43770   1.77567   1.79632
   2   14558.1    686.9   0.121994810   2.75875   1.24642  -0.57331  -0.93622
   3   19246.1    519.6   0.212103600   3.62811  -0.29943   1.86926   0.21054
   4   20677.6    483.6   0.107466029   1.71099  -0.42803   0.41470   1.16439
   5   22084.9    452.8   0.210187119   3.13319   0.43987   1.39767  -0.99309
   6   22701.6    440.5   0.009538328   0.13832  -0.18748  -0.14233   0.28795
   7   23915.3    418.1   0.057412217   0.79032   0.00162   0.87719   0.14441
   8   25359.2    394.3   0.062024524   0.80520  -0.34388  -0.31637   0.76606
   9   25569.2    391.1   0.124501037   1.60299   0.36464   1.17014  -0.31749
  10   26717.3    374.3   0.036058298   0.44431   0.04830   0.66156  -0.06573
  11   28435.2    351.7   0.301099963   3.48602  -0.37203  -1.67755   0.73038
  12   28525.8    350.6   0.004951294   0.05714  -0.14348   0.15462  -0.11247
  13   29371.9    340.5   0.117933331   1.32185   0.32959   0.75991  -0.79734
  14   29925.1    334.2   0.081318882   0.89460  -0.30122   0.89174  -0.09310
  15   30533.0    327.5   0.016641196   0.17943   0.03739   0.24078  -0.34649
  16   31111.5    321.4   0.290708848   3.07619   0.36062  -1.31733   1.10035
  17   31714.3    315.3   0.019340223   0.20076  -0.06659   0.19425   0.39824
  18   31831.4    314.2   0.003360128   0.03475   0.12576   0.00164   0.13760
  19   31863.4    313.8   0.035537295   0.36717   0.38432   0.02410  -0.46786
  20   32456.7    308.1   0.113268478   1.14889  -0.11072   1.06567  -0.03117
  21   32959.4    303.4   0.123063712   1.22921  -0.46364   1.00375  -0.08207
  22   33199.1    301.2   0.499657740   4.95476  -0.44375   1.80784  -1.22048
  23   33801.0    295.8   0.005898142   0.05745  -0.15375   0.06259   0.17289
  24   34641.1    288.7   0.007011459   0.06663   0.03567  -0.20024   0.15895
  25   34688.7    288.3   0.062669434   0.59476   0.58082  -0.48455  -0.15040
  26   35724.5    279.9   0.413197753   3.80775  -0.15499  -1.72214   0.90442
  27   35869.0    278.8   0.103024787   0.94558  -0.61361   0.62913   0.41625
  28   36106.9    277.0   0.095172417   0.86775  -0.11689   0.88835  -0.25479
  29   36319.3    275.3   0.023348129   0.21164  -0.34639   0.28628  -0.09845
  30   36583.5    273.3   0.100377202   0.90329   0.61567   0.15637  -0.70695
  31   37304.2    268.1   0.214428073   1.89234   0.47732  -0.95469   0.86780
  32   37341.1    267.8   0.031549059   0.27815   0.42505  -0.09730  -0.29667
  33   38458.8    260.0   0.010897076   0.09328   0.18883  -0.23596  -0.04413
  34   38674.1    258.6   0.050645118   0.43112  -0.36107   0.39499   0.38043
  35   39060.0    256.0   0.014296934   0.12050  -0.09148  -0.32714   0.07147
  36   39179.6    255.2   0.010841299   0.09110   0.01141   0.22872  -0.19660
  37   39374.8    254.0   0.011961367   0.10001   0.10459  -0.23858  -0.17930
  38   40009.7    249.9   0.055039666   0.45288  -0.03436   0.57875  -0.34169

FINAL SINGLE POINT ENERGY     -4275.333728892459

DIPOLE MOMENT
-------------
                                X             Y             Z
Electronic contribution:    -64.54569      51.81324      44.06063
Nuclear contribution   :     68.30961     -53.93943     -44.87380
                        -----------------------------------------
Total Dipole Moment    :      3.76393      -2.12619      -0.81317
                        -----------------------------------------
Magnitude (a.u.)       :      4.39876
Magnitude (Debye)      :     11.18075

Rotational constants in cm-1:     0.001956     0.000331     0.000291
Rotational constants in MHz :    58.643634     9.932503     8.721543

                             ****ORCA TERMINATED NORMALLY****
TOTAL RUN TIME: 0 days 0 hours 8 minutes 13 seconds 21 msec
