                         Program Version 4.2.0 -  RELEASE  -
|  1> # ORCA input file
|  2> # SCF done       -183.698964912078          0.000482988314
|  3> ! CAM-B3LYP def2-SVP def2/J RIJCOSX Grid4 TightSCF
|  4> %maxcore 5000
|  5> %tddft
|  6>     Mode sTDDFT
|  7>     Ethresh 5.0
|  8>     maxcore 5000
|  9> end
| 10>
| 11> %pal
| 12>   nprocs 6
| 13>   end
| 14> * xyz 0 1
| 15>    C        2.92414       -17.21102        -0.92574
| 16>    S        3.38248       -17.95064        -2.38509
| 17>    C        5.05462       -18.04453        -1.92557
| 18>    C        5.23606       -17.47158        -0.66057
| 19>    C        4.00173       -17.00861        -0.08694
| 20>    C        3.98360       -16.44013         1.20134
| 21>    C        5.15203       -16.30671         1.90785
| 22>    O        5.04781       -15.76545         3.15275
| 23>    C        6.20289       -15.64070         3.94571
| 24>    C        6.37648       -16.71680         1.32324
| 25>    C        6.41903       -17.27860         0.07947
| 26>    C        5.91626       -18.71759        -2.83278
| 27>    C        7.18173       -19.15096        -2.64530
| 28>    N        7.83098       -19.84396        -3.63448
| 29>    C        9.07575       -20.35727        -3.59949
| 30>    S       10.04476       -20.24957        -2.16207
| 31>    C       11.27150       -21.22235        -2.92412
| 32>    N       12.41601       -21.49702        -2.19217
| 33>    O       13.27949       -22.18936        -2.71210
| 34>    O       12.47936       -21.02216        -1.06371
| 35>    C       10.94053       -21.60045        -4.20084
| 36>    C        9.70112       -21.09836        -4.62654
| 37>    C        9.14201       -21.36216        -5.92607
| 38>    C        8.23827       -20.55758        -6.53445
| 39>    C        7.47405       -20.82347        -7.69404
| 40>    C        6.36246       -20.06837        -7.95888
| 41>    C        5.39130       -20.19174        -8.98518
| 42>    C        4.32287       -19.35467        -8.85874
| 43>    C        4.37927       -18.51104        -7.72685
| 44>    S        5.86827       -18.78871        -6.84846
| 45>    C        3.47599       -17.60666        -7.21673
| 46>    C        2.17659       -17.25320        -7.64770
| 47>    C        1.55019       -16.36937        -6.82720
| 48>    C        2.30999       -15.95303        -5.69424
| 49>    S        3.88374       -16.73364        -5.75324
| 50>    C        1.86236       -15.13909        -4.69611
| 51>    C        2.54258       -14.68692        -3.51914
| 52>    C        1.77034       -14.13795        -2.47500
| 53>    C        2.37312       -13.71268        -1.31838
| 54>    C        3.76505       -13.84819        -1.16136
| 55>    C        4.54472       -14.36213        -2.18826
| 56>    C        3.93488       -14.76600        -3.35428
| 57>    C        4.13051       -13.39728         0.15619
| 58>    C        2.96812       -12.99327         0.83610
| 59>    C        1.75205       -13.12655        -0.06343
| 60>    C        1.20201       -11.70290        -0.29886
| 61>    C        0.01574       -11.59075        -1.24766
| 62>    C        0.69838       -14.12045         0.46324
| 63>    C       -0.00164       -13.74288         1.76245
| 64>    C        3.06358       -12.49057         2.11031
| 65>    C        4.31155       -12.42383         2.75343
| 66>    C        5.45714       -12.82128         2.04903
| 67>    C        5.37629       -13.30187         0.76187
| 68>    C        4.35938       -11.94307         4.10834
| 69>    C        5.42387       -11.99248         4.94027
| 70>    C        5.43276       -11.52136         6.27496
| 71>    S        4.08100       -10.69906         6.97807
| 72>    C        4.88985       -10.42921         8.48404
| 73>    C        6.16269       -11.00564         8.46502
| 74>    C        6.47634       -11.61699         7.20752
| 75>    C        7.72033       -12.24101         7.02468
| 76>    C        8.63037       -12.28408         8.05470
| 77>    O        9.81298       -12.90549         7.78325
| 78>    C       10.79066       -12.98772         8.79109
| 79>    C        8.30139       -11.72285         9.31162
| 80>    C        7.10171       -11.10462         9.51268
| 81>    C        4.19109        -9.67435         9.48345
| 82>    C        4.72670        -8.98523        10.49166
| 83>    H        1.89659       -16.96412        -0.75239
| 84>    H        3.05828       -16.10686         1.64147
| 85>    H        5.87054       -15.17503         4.87246
| 86>    H        6.95349       -15.00153         3.47138
| 87>    H        6.64642       -16.61668         4.16920
| 88>    H        7.29950       -16.58503         1.86508
| 89>    H        7.37167       -17.56051        -0.33753
| 90>    H        5.45676       -18.94301        -3.78904
| 91>    H        7.74310       -19.00609        -1.73783
| 92>    H        7.28184       -20.05097        -4.46283
| 93>    H       11.59222       -22.20244        -4.80797
| 94>    H        9.47212       -22.27068        -6.41081
| 95>    H        8.03368       -19.59034        -6.09141
| 96>    H        7.70852       -21.66777        -8.32511
| 97>    H        5.50819       -20.90960        -9.77818
| 98>    H        3.49150       -19.32568        -9.54117
| 99>    H        1.74121       -17.67337        -8.53724
|100>    H        0.55330       -15.99703        -6.98836
|101>    H        0.82962       -14.82194        -4.78782
|102>    H        0.69832       -14.08840        -2.59931
|103>    H        5.61458       -14.45081        -2.07344
|104>    H        4.54890       -15.13503        -4.15916
|105>    H        2.02346       -11.09667        -0.69068
|106>    H        0.92539       -11.28285         0.66966
|107>    H        0.29171       -11.89861        -2.25223
|108>    H       -0.31171       -10.55383        -1.29279
|109>    H       -0.82304       -12.19360        -0.90945
|110>    H        1.19929       -15.08168         0.60300
|111>    H       -0.05314       -14.25828        -0.31664
|112>    H        0.69601       -13.74400         2.59466
|113>    H       -0.77900       -14.47405         1.97732
|114>    H       -0.47034       -12.76481         1.69315
|115>    H        2.19245       -12.13821         2.64218
|116>    H        6.42580       -12.72530         2.51514
|117>    H        6.26685       -13.59796         0.22684
|118>    H        3.43422       -11.53164         4.49524
|119>    H        6.35459       -12.42583         4.60508
|120>    H        7.97942       -12.70267         6.08594
|121>    H       11.63634       -13.50075         8.33567
|122>    H       10.43897       -13.56874         9.64992
|123>    H       11.11057       -11.99594         9.12684
|124>    H        8.99912       -11.79107        10.13118
|125>    H        6.85871       -10.71587        10.48781
|126>    H        3.11662        -9.64419         9.34411
|127>    H        5.78762        -8.91144        10.64780
|128>    H        4.10281        -8.44322        11.18062
|129> *
|130>
|131>                          ****END OF INPUT****

CARTESIAN COORDINATES (ANGSTROEM)
---------------------------------
  C      2.924140  -17.211020   -0.925740
  S      3.382480  -17.950640   -2.385090
  C      5.054620  -18.044530   -1.925570
  C      5.236060  -17.471580   -0.660570
  C      4.001730  -17.008610   -0.086940
  C      3.983600  -16.440130    1.201340
  C      5.152030  -16.306710    1.907850
  O      5.047810  -15.765450    3.152750
  C      6.202890  -15.640700    3.945710
  C      6.376480  -16.716800    1.323240
  C      6.419030  -17.278600    0.079470
  C      5.916260  -18.717590   -2.832780
  C      7.181730  -19.150960   -2.645300
  N      7.830980  -19.843960   -3.634480
  C      9.075750  -20.357270   -3.599490
  S     10.044760  -20.249570   -2.162070
  C     11.271500  -21.222350   -2.924120
  N     12.416010  -21.497020   -2.192170
  O     13.279490  -22.189360   -2.712100
  O     12.479360  -21.022160   -1.063710
  C     10.940530  -21.600450   -4.200840
  C      9.701120  -21.098360   -4.626540
  C      9.142010  -21.362160   -5.926070
  C      8.238270  -20.557580   -6.534450
  C      7.474050  -20.823470   -7.694040
  C      6.362460  -20.068370   -7.958880
  C      5.391300  -20.191740   -8.985180
  C      4.322870  -19.354670   -8.858740
  C      4.379270  -18.511040   -7.726850
  S      5.868270  -18.788710   -6.848460
  C      3.475990  -17.606660   -7.216730
  C      2.176590  -17.253200   -7.647700
  C      1.550190  -16.369370   -6.827200
  C      2.309990  -15.953030   -5.694240
  S      3.883740  -16.733640   -5.753240
  C      1.862360  -15.139090   -4.696110
  C      2.542580  -14.686920   -3.519140
  C      1.770340  -14.137950   -2.475000
  C      2.373120  -13.712680   -1.318380
  C      3.765050  -13.848190   -1.161360
  C      4.544720  -14.362130   -2.188260
  C      3.934880  -14.766000   -3.354280
  C      4.130510  -13.397280    0.156190
  C      2.968120  -12.993270    0.836100
  C      1.752050  -13.126550   -0.063430
  C      1.202010  -11.702900   -0.298860
  C      0.015740  -11.590750   -1.247660
  C      0.698380  -14.120450    0.463240
  C     -0.001640  -13.742880    1.762450
  C      3.063580  -12.490570    2.110310
  C      4.311550  -12.423830    2.753430
  C      5.457140  -12.821280    2.049030
  C      5.376290  -13.301870    0.761870
  C      4.359380  -11.943070    4.108340
  C      5.423870  -11.992480    4.940270
  C      5.432760  -11.521360    6.274960
  S      4.081000  -10.699060    6.978070
  C      4.889850  -10.429210    8.484040
  C      6.162690  -11.005640    8.465020
  C      6.476340  -11.616990    7.207520
  C      7.720330  -12.241010    7.024680
  C      8.630370  -12.284080    8.054700
  O      9.812980  -12.905490    7.783250
  C     10.790660  -12.987720    8.791090
  C      8.301390  -11.722850    9.311620
  C      7.101710  -11.104620    9.512680
  C      4.191090   -9.674350    9.483450
  C      4.726700   -8.985230   10.491660
  H      1.896590  -16.964120   -0.752390
  H      3.058280  -16.106860    1.641470
  H      5.870540  -15.175030    4.872460
  H      6.953490  -15.001530    3.471380
  H      6.646420  -16.616680    4.169200
  H      7.299500  -16.585030    1.865080
  H      7.371670  -17.560510   -0.337530
  H      5.456760  -18.943010   -3.789040
  H      7.743100  -19.006090   -1.737830
  H      7.281840  -20.050970   -4.462830
  H     11.592220  -22.202440   -4.807970
  H      9.472120  -22.270680   -6.410810
  H      8.033680  -19.590340   -6.091410
  H      7.708520  -21.667770   -8.325110
  H      5.508190  -20.909600   -9.778180
  H      3.491500  -19.325680   -9.541170
  H      1.741210  -17.673370   -8.537240
  H      0.553300  -15.997030   -6.988360
  H      0.829620  -14.821940   -4.787820
  H      0.698320  -14.088400   -2.599310
  H      5.614580  -14.450810   -2.073440
  H      4.548900  -15.135030   -4.159160
  H      2.023460  -11.096670   -0.690680
  H      0.925390  -11.282850    0.669660
  H      0.291710  -11.898610   -2.252230
  H     -0.311710  -10.553830   -1.292790
  H     -0.823040  -12.193600   -0.909450
  H      1.199290  -15.081680    0.603000
  H     -0.053140  -14.258280   -0.316640
  H      0.696010  -13.744000    2.594660
  H     -0.779000  -14.474050    1.977320
  H     -0.470340  -12.764810    1.693150
  H      2.192450  -12.138210    2.642180
  H      6.425800  -12.725300    2.515140
  H      6.266850  -13.597960    0.226840
  H      3.434220  -11.531640    4.495240
  H      6.354590  -12.425830    4.605080
  H      7.979420  -12.702670    6.085940
  H     11.636340  -13.500750    8.335670
  H     10.438970  -13.568740    9.649920
  H     11.110570  -11.995940    9.126840
  H      8.999120  -11.791070   10.131180
  H      6.858710  -10.715870   10.487810
  H      3.116620   -9.644190    9.344110
  H      5.787620   -8.911440   10.647800
  H      4.102810   -8.443220   11.180620

 Total Charge           Charge          ....    0
 Multiplicity           Mult            ....    1
 Number of Electrons    NEL             ....  514
 Basis Dimension        Dim             .... 1202

ORBITAL ENERGIES
----------------

  NO   OCC          E(Eh)            E(eV)
   0   2.0000     -88.968398     -2420.9532
   1   2.0000     -88.954067     -2420.5632
   2   2.0000     -88.951939     -2420.5053
   3   2.0000     -88.943364     -2420.2720
   4   2.0000     -88.942449     -2420.2471
   5   2.0000     -19.238145      -523.4966
   6   2.0000     -19.229800      -523.2695
   7   2.0000     -19.214740      -522.8596
   8   2.0000     -19.213962      -522.8385
   9   2.0000     -14.626681      -398.0122
  10   2.0000     -14.468004      -393.6944
  11   2.0000     -10.358081      -281.8577
  12   2.0000     -10.326483      -280.9979
  13   2.0000     -10.320895      -280.8458
  14   2.0000     -10.319870      -280.8179
  15   2.0000     -10.317083      -280.7421
  16   2.0000     -10.315686      -280.7041
  17   2.0000     -10.312032      -280.6047
  18   2.0000     -10.308121      -280.4982
  19   2.0000     -10.306814      -280.4627
  20   2.0000     -10.305819      -280.4356
  21   2.0000     -10.302891      -280.3559
  22   2.0000     -10.294853      -280.1372
  23   2.0000     -10.293914      -280.1116
  24   2.0000     -10.290927      -280.0303
  25   2.0000     -10.289217      -279.9838
  26   2.0000     -10.288968      -279.9771
  27   2.0000     -10.285355      -279.8787
  28   2.0000     -10.284768      -279.8628
  29   2.0000     -10.284681      -279.8604
  30   2.0000     -10.284603      -279.8583
  31   2.0000     -10.283204      -279.8202
  32   2.0000     -10.278776      -279.6997
  33   2.0000     -10.278643      -279.6961
  34   2.0000     -10.278287      -279.6864
  35   2.0000     -10.276965      -279.6504
  36   2.0000     -10.276535      -279.6387
  37   2.0000     -10.275130      -279.6005
  38   2.0000     -10.274765      -279.5906
  39   2.0000     -10.274241      -279.5763
  40   2.0000     -10.273541      -279.5573
  41   2.0000     -10.272926      -279.5405
  42   2.0000     -10.271532      -279.5026
  43   2.0000     -10.271355      -279.4978
  44   2.0000     -10.270842      -279.4838
  45   2.0000     -10.270433      -279.4727
  46   2.0000     -10.267650      -279.3970
  47   2.0000     -10.265883      -279.3489
  48   2.0000     -10.265818      -279.3471
  49   2.0000     -10.265646      -279.3424
  50   2.0000     -10.264439      -279.3096
  51   2.0000     -10.263766      -279.2913
  52   2.0000     -10.262288      -279.2511
  53   2.0000     -10.261996      -279.2431
  54   2.0000     -10.261956      -279.2420
  55   2.0000     -10.261767      -279.2369
  56   2.0000     -10.261241      -279.2226
  57   2.0000     -10.260721      -279.2084
  58   2.0000     -10.260681      -279.2073
  59   2.0000     -10.259551      -279.1766
  60   2.0000     -10.259109      -279.1645
  61   2.0000     -10.259083      -279.1639
  62   2.0000     -10.258805      -279.1563
  63   2.0000     -10.258299      -279.1425
  64   2.0000     -10.257503      -279.1208
  65   2.0000     -10.250922      -278.9418
  66   2.0000     -10.250107      -278.9196
  67   2.0000     -10.249357      -278.8992
  68   2.0000      -8.063715      -219.4248
  69   2.0000      -8.049285      -219.0322
  70   2.0000      -8.046428      -218.9544
  71   2.0000      -8.039368      -218.7623
  72   2.0000      -8.038144      -218.7290
  73   2.0000      -6.033457      -164.1787
  74   2.0000      -6.029093      -164.0600
  75   2.0000      -6.025031      -163.9494
  76   2.0000      -6.018093      -163.7606
  77   2.0000      -6.015353      -163.6861
  78   2.0000      -6.014189      -163.6544
  79   2.0000      -6.012259      -163.6019
  80   2.0000      -6.011030      -163.5684
  81   2.0000      -6.009719      -163.5328
  82   2.0000      -6.009135      -163.5169
  83   2.0000      -6.007930      -163.4841
  84   2.0000      -6.005114      -163.4075
  85   2.0000      -6.003854      -163.3732
  86   2.0000      -6.000282      -163.2760
  87   2.0000      -5.999038      -163.2421
  88   2.0000      -1.292779       -35.1783
  89   2.0000      -1.142194       -31.0807
  90   2.0000      -1.133960       -30.8566
  91   2.0000      -1.111306       -30.2402
  92   2.0000      -1.076491       -29.2928
  93   2.0000      -0.994108       -27.0510
  94   2.0000      -0.986851       -26.8536
  95   2.0000      -0.985823       -26.8256
  96   2.0000      -0.979973       -26.6664
  97   2.0000      -0.976607       -26.5748
  98   2.0000      -0.970860       -26.4184
  99   2.0000      -0.937617       -25.5139
 100   2.0000      -0.922115       -25.0920
 101   2.0000      -0.916700       -24.9447
 102   2.0000      -0.914886       -24.8953
 103   2.0000      -0.912025       -24.8175
 104   2.0000      -0.894016       -24.3274
 105   2.0000      -0.892452       -24.2848
 106   2.0000      -0.883199       -24.0331
 107   2.0000      -0.874285       -23.7905
 108   2.0000      -0.865518       -23.5519
 109   2.0000      -0.856780       -23.3142
 110   2.0000      -0.850926       -23.1549
 111   2.0000      -0.843745       -22.9595
 112   2.0000      -0.838961       -22.8293
 113   2.0000      -0.837800       -22.7977
 114   2.0000      -0.831984       -22.6394
 115   2.0000      -0.830090       -22.5879
 116   2.0000      -0.825104       -22.4522
 117   2.0000      -0.824263       -22.4293
 118   2.0000      -0.823778       -22.4161
 119   2.0000      -0.817800       -22.2535
 120   2.0000      -0.815582       -22.1931
 121   2.0000      -0.803420       -21.8622
 122   2.0000      -0.795855       -21.6563
 123   2.0000      -0.783953       -21.3324
 124   2.0000      -0.772746       -21.0275
 125   2.0000      -0.764144       -20.7934
 126   2.0000      -0.762509       -20.7489
 127   2.0000      -0.754617       -20.5342
 128   2.0000      -0.740446       -20.1486
 129   2.0000      -0.727057       -19.7842
 130   2.0000      -0.716432       -19.4951
 131   2.0000      -0.709830       -19.3155
 132   2.0000      -0.705684       -19.2026
 133   2.0000      -0.703086       -19.1320
 134   2.0000      -0.700227       -19.0542
 135   2.0000      -0.696788       -18.9606
 136   2.0000      -0.692767       -18.8511
 137   2.0000      -0.682859       -18.5815
 138   2.0000      -0.678896       -18.4737
 139   2.0000      -0.670379       -18.2419
 140   2.0000      -0.664876       -18.0922
 141   2.0000      -0.657313       -17.8864
 142   2.0000      -0.647422       -17.6173
 143   2.0000      -0.647022       -17.6064
 144   2.0000      -0.637474       -17.3465
 145   2.0000      -0.631497       -17.1839
 146   2.0000      -0.631020       -17.1709
 147   2.0000      -0.625638       -17.0245
 148   2.0000      -0.624813       -17.0020
 149   2.0000      -0.618623       -16.8336
 150   2.0000      -0.613508       -16.6944
 151   2.0000      -0.608421       -16.5560
 152   2.0000      -0.607669       -16.5355
 153   2.0000      -0.597800       -16.2670
 154   2.0000      -0.594616       -16.1803
 155   2.0000      -0.592712       -16.1285
 156   2.0000      -0.590877       -16.0786
 157   2.0000      -0.589328       -16.0364
 158   2.0000      -0.584220       -15.8974
 159   2.0000      -0.577511       -15.7149
 160   2.0000      -0.574835       -15.6421
 161   2.0000      -0.569192       -15.4885
 162   2.0000      -0.566822       -15.4240
 163   2.0000      -0.560781       -15.2596
 164   2.0000      -0.556338       -15.1387
 165   2.0000      -0.552700       -15.0397
 166   2.0000      -0.549661       -14.9570
 167   2.0000      -0.548916       -14.9368
 168   2.0000      -0.547852       -14.9078
 169   2.0000      -0.543120       -14.7790
 170   2.0000      -0.540760       -14.7148
 171   2.0000      -0.537636       -14.6298
 172   2.0000      -0.534791       -14.5524
 173   2.0000      -0.532430       -14.4882
 174   2.0000      -0.523716       -14.2510
 175   2.0000      -0.521994       -14.2042
 176   2.0000      -0.520416       -14.1612
 177   2.0000      -0.517134       -14.0719
 178   2.0000      -0.514919       -14.0117
 179   2.0000      -0.511854       -13.9283
 180   2.0000      -0.509192       -13.8558
 181   2.0000      -0.503890       -13.7115
 182   2.0000      -0.500161       -13.6101
 183   2.0000      -0.499936       -13.6040
 184   2.0000      -0.498532       -13.5657
 185   2.0000      -0.497285       -13.5318
 186   2.0000      -0.495017       -13.4701
 187   2.0000      -0.492389       -13.3986
 188   2.0000      -0.490963       -13.3598
 189   2.0000      -0.490473       -13.3464
 190   2.0000      -0.488671       -13.2974
 191   2.0000      -0.488186       -13.2842
 192   2.0000      -0.486330       -13.2337
 193   2.0000      -0.485565       -13.2129
 194   2.0000      -0.483762       -13.1638
 195   2.0000      -0.481553       -13.1037
 196   2.0000      -0.480733       -13.0814
 197   2.0000      -0.475988       -12.9523
 198   2.0000      -0.472018       -12.8443
 199   2.0000      -0.467001       -12.7078
 200   2.0000      -0.464201       -12.6315
 201   2.0000      -0.462216       -12.5775
 202   2.0000      -0.459425       -12.5016
 203   2.0000      -0.457227       -12.4418
 204   2.0000      -0.451174       -12.2771
 205   2.0000      -0.446220       -12.1423
 206   2.0000      -0.445881       -12.1330
 207   2.0000      -0.444504       -12.0956
 208   2.0000      -0.440560       -11.9882
 209   2.0000      -0.439911       -11.9706
 210   2.0000      -0.437246       -11.8981
 211   2.0000      -0.435080       -11.8391
 212   2.0000      -0.433763       -11.8033
 213   2.0000      -0.431926       -11.7533
 214   2.0000      -0.428526       -11.6608
 215   2.0000      -0.426376       -11.6023
 216   2.0000      -0.426091       -11.5945
 217   2.0000      -0.423654       -11.5282
 218   2.0000      -0.421002       -11.4560
 219   2.0000      -0.420549       -11.4437
 220   2.0000      -0.416701       -11.3390
 221   2.0000      -0.414632       -11.2827
 222   2.0000      -0.412434       -11.2229
 223   2.0000      -0.407603       -11.0914
 224   2.0000      -0.407356       -11.0847
 225   2.0000      -0.403101       -10.9689
 226   2.0000      -0.401094       -10.9143
 227   2.0000      -0.393898       -10.7185
 228   2.0000      -0.392576       -10.6825
 229   2.0000      -0.387538       -10.5454
 230   2.0000      -0.385860       -10.4998
 231   2.0000      -0.381095       -10.3701
 232   2.0000      -0.378664       -10.3040
 233   2.0000      -0.376091       -10.2340
 234   2.0000      -0.373025       -10.1505
 235   2.0000      -0.370501       -10.0818
 236   2.0000      -0.368184       -10.0188
 237   2.0000      -0.364589        -9.9210
 238   2.0000      -0.361538        -9.8379
 239   2.0000      -0.355767        -9.6809
 240   2.0000      -0.343703        -9.3526
 241   2.0000      -0.342394        -9.3170
 242   2.0000      -0.339276        -9.2322
 243   2.0000      -0.325853        -8.8669
 244   2.0000      -0.323953        -8.8152
 245   2.0000      -0.321596        -8.7511
 246   2.0000      -0.320157        -8.7119
 247   2.0000      -0.311943        -8.4884
 248   2.0000      -0.305729        -8.3193
 249   2.0000      -0.296125        -8.0580
 250   2.0000      -0.289320        -7.8728
 251   2.0000      -0.287398        -7.8205
 252   2.0000      -0.276953        -7.5363
 253   2.0000      -0.255381        -6.9493
 254   2.0000      -0.224091        -6.0978
 255   2.0000      -0.218311        -5.9405
 256   2.0000      -0.202286        -5.5045
 257   0.0000      -0.073916        -2.0114
 258   0.0000      -0.050452        -1.3729
 259   0.0000      -0.045062        -1.2262
 260   0.0000      -0.024713        -0.6725
 261   0.0000      -0.008639        -0.2351

MULLIKEN ATOMIC CHARGES
-----------------------
   0 C :   -0.142582
   1 S :    0.157405
   2 C :   -0.173757
   3 C :    0.145530
   4 C :    0.122056
   5 C :   -0.054345
   6 C :    0.242516
   7 O :   -0.313462
   8 C :    0.177402
   9 C :   -0.070408
  10 C :   -0.055931
  11 C :    0.051499
  12 C :    0.019435
  13 N :   -0.021596
  14 C :   -0.107922
  15 S :    0.130578
  16 C :   -0.011713
  17 N :    0.281360
  18 O :   -0.270046
  19 O :   -0.284974
  20 C :    0.009578
  21 C :    0.095302
  22 C :   -0.007271
  23 C :   -0.065496
  24 C :    0.008288
  25 C :   -0.023581
  26 C :    0.034245
  27 C :    0.034869
  28 C :   -0.048489
  29 S :    0.011547
  30 C :   -0.035598
  31 C :    0.033222
  32 C :    0.036273
  33 C :   -0.008914
  34 S :    0.045338
  35 C :   -0.032040
  36 C :    0.116388
  37 C :   -0.142767
  38 C :    0.049924
  39 C :    0.106240
  40 C :   -0.045970
  41 C :   -0.020185
  42 C :    0.100218
  43 C :    0.042641
  44 C :   -0.113820
  45 C :    0.062455
  46 C :    0.031838
  47 C :    0.041526
  48 C :    0.031642
  49 C :   -0.134874
  50 C :    0.157486
  51 C :   -0.031873
  52 C :   -0.028073
  53 C :   -0.026927
  54 C :    0.024670
  55 C :   -0.117405
  56 S :    0.139186
  57 C :   -0.144252
  58 C :    0.125253
  59 C :    0.128389
  60 C :   -0.100976
  61 C :    0.233665
  62 O :   -0.311851
  63 C :    0.173749
  64 C :   -0.072442
  65 C :   -0.037080
  66 C :    0.020469
  67 C :   -0.033657
  68 H :    0.012921
  69 H :   -0.039669
  70 H :    0.042682
  71 H :    0.009372
  72 H :    0.021786
  73 H :   -0.032242
  74 H :   -0.042665
  75 H :   -0.022860
  76 H :    0.022522
  77 H :    0.134909
  78 H :    0.003847
  79 H :   -0.007334
  80 H :    0.021316
  81 H :   -0.015080
  82 H :   -0.010990
  83 H :   -0.012171
  84 H :   -0.015487
  85 H :   -0.013620
  86 H :   -0.023810
  87 H :   -0.039919
  88 H :   -0.034277
  89 H :   -0.013877
  90 H :    0.007006
  91 H :   -0.000053
  92 H :    0.015064
  93 H :    0.012182
  94 H :    0.002135
  95 H :   -0.000529
  96 H :   -0.000162
  97 H :    0.023142
  98 H :    0.011598
  99 H :    0.003832
 100 H :   -0.042720
 101 H :   -0.036663
 102 H :   -0.040001
 103 H :   -0.028313
 104 H :   -0.028738
 105 H :   -0.041358
 106 H :    0.037450
 107 H :    0.022432
 108 H :    0.022347
 109 H :   -0.028270
 110 H :   -0.028485
 111 H :   -0.004781
 112 H :    0.021494
 113 H :    0.024129
Sum of atomic charges:   -0.0000000

LOEWDIN ATOMIC CHARGES
----------------------
   0 C :   -0.210289
   1 S :    0.505996
   2 C :   -0.184587
   3 C :   -0.060617
   4 C :   -0.040921
   5 C :   -0.045923
   6 C :    0.049798
   7 O :   -0.100436
   8 C :    0.073818
   9 C :   -0.060764
  10 C :   -0.016561
  11 C :   -0.079010
  12 C :    0.000458
  13 N :    0.050173
  14 C :   -0.088473
  15 S :    0.440588
  16 C :   -0.225064
  17 N :    0.274665
  18 O :   -0.235902
  19 O :   -0.251361
  20 C :    0.005256
  21 C :   -0.117424
  22 C :   -0.013518
  23 C :   -0.065450
  24 C :   -0.058527
  25 C :   -0.141270
  26 C :   -0.038882
  27 C :   -0.029669
  28 C :   -0.186152
  29 S :    0.352332
  30 C :   -0.175879
  31 C :   -0.041222
  32 C :   -0.024925
  33 C :   -0.152162
  34 S :    0.379790
  35 C :   -0.040024
  36 C :   -0.039804
  37 C :   -0.022188
  38 C :    0.000740
  39 C :   -0.006014
  40 C :   -0.013589
  41 C :   -0.025640
  42 C :   -0.017656
  43 C :    0.004283
  44 C :   -0.029664
  45 C :   -0.013235
  46 C :   -0.059632
  47 C :   -0.017118
  48 C :   -0.058446
  49 C :   -0.024187
  50 C :   -0.017694
  51 C :   -0.016197
  52 C :   -0.011767
  53 C :   -0.030534
  54 C :   -0.039772
  55 C :   -0.191181
  56 S :    0.476057
  57 C :   -0.177751
  58 C :   -0.055330
  59 C :   -0.034803
  60 C :   -0.058202
  61 C :    0.053601
  62 O :   -0.108212
  63 C :    0.074188
  64 C :   -0.063354
  65 C :   -0.002364
  66 C :   -0.043431
  67 C :   -0.052018
  68 H :    0.017574
  69 H :    0.028310
  70 H :    0.029690
  71 H :    0.006135
  72 H :    0.013879
  73 H :    0.027976
  74 H :    0.024033
  75 H :    0.018092
  76 H :    0.017914
  77 H :    0.087167
  78 H :    0.044159
  79 H :    0.031401
  80 H :    0.013968
  81 H :    0.031942
  82 H :    0.033609
  83 H :    0.032635
  84 H :    0.031663
  85 H :    0.032592
  86 H :    0.032191
  87 H :    0.020498
  88 H :    0.028191
  89 H :    0.009937
  90 H :    0.028949
  91 H :    0.018405
  92 H :    0.023094
  93 H :    0.027736
  94 H :    0.018932
  95 H :    0.023482
  96 H :    0.017916
  97 H :    0.025011
  98 H :    0.027566
  99 H :    0.020211
 100 H :    0.021060
 101 H :    0.020661
 102 H :    0.025331
 103 H :    0.017510
 104 H :    0.026755
 105 H :    0.026815
 106 H :    0.029191
 107 H :    0.013891
 108 H :    0.014089
 109 H :    0.028611
 110 H :    0.029012
 111 H :    0.029215
 112 H :    0.020457
 113 H :    0.025599

  Mayer bond orders larger than 0.100000
B(  0-C ,  1-S ) :   1.1962 B(  0-C ,  2-C ) :   0.1110 B(  0-C ,  4-C ) :   1.3906
B(  0-C , 68-H ) :   0.9674 B(  1-S ,  2-C ) :   1.1978 B(  2-C ,  3-C ) :   1.3256
B(  2-C , 11-C ) :   1.1758 B(  3-C ,  4-C ) :   1.2163 B(  3-C , 10-C ) :   1.1855
B(  4-C ,  5-C ) :   1.1702 B(  5-C ,  6-C ) :   1.5237 B(  5-C , 69-H ) :   1.0040
B(  6-C ,  7-O ) :   1.1237 B(  6-C ,  9-C ) :   1.1518 B(  7-O ,  8-C ) :   0.9688
B(  8-C , 70-H ) :   0.9768 B(  8-C , 71-H ) :   0.9630 B(  8-C , 72-H ) :   0.9683
B(  9-C , 10-C ) :   1.5267 B(  9-C , 73-H ) :   0.9886 B( 10-C , 74-H ) :   0.9935
B( 11-C , 12-C ) :   1.6735 B( 11-C , 75-H ) :   0.9307 B( 12-C , 13-N ) :   1.0939
B( 12-C , 76-H ) :   0.9657 B( 13-N , 14-C ) :   1.2757 B( 13-N , 77-H ) :   0.8984
B( 14-C , 15-S ) :   1.1367 B( 14-C , 21-C ) :   1.3071 B( 15-S , 16-C ) :   1.0493
B( 16-C , 17-N ) :   1.0036 B( 16-C , 20-C ) :   1.4597 B( 17-N , 18-O ) :   1.5147
B( 17-N , 19-O ) :   1.4904 B( 18-O , 19-O ) :   0.2441 B( 20-C , 21-C ) :   1.2470
B( 20-C , 78-H ) :   1.0082 B( 21-C , 22-C ) :   1.0841 B( 22-C , 23-C ) :   1.6644
B( 22-C , 79-H ) :   0.9767 B( 23-C , 24-C ) :   1.1266 B( 23-C , 80-H ) :   0.9531
B( 24-C , 25-C ) :   1.5981 B( 24-C , 81-H ) :   0.9892 B( 25-C , 26-C ) :   1.1345
B( 25-C , 29-S ) :   1.0170 B( 26-C , 27-C ) :   1.6017 B( 26-C , 82-H ) :   0.9968
B( 27-C , 28-C ) :   1.1822 B( 27-C , 83-H ) :   0.9932 B( 28-C , 29-S ) :   1.0331
B( 28-C , 30-C ) :   1.5276 B( 30-C , 31-C ) :   1.1717 B( 30-C , 34-S ) :   1.0384
B( 31-C , 32-C ) :   1.6100 B( 31-C , 84-H ) :   0.9941 B( 32-C , 33-C ) :   1.1254
B( 32-C , 85-H ) :   0.9971 B( 33-C , 34-S ) :   1.0162 B( 33-C , 35-C ) :   1.6146
B( 35-C , 36-C ) :   1.0917 B( 35-C , 86-H ) :   0.9705 B( 36-C , 37-C ) :   1.2629
B( 36-C , 41-C ) :   1.3132 B( 37-C , 38-C ) :   1.3841 B( 37-C , 87-H ) :   1.0032
B( 38-C , 39-C ) :   1.3821 B( 38-C , 44-C ) :   0.9277 B( 39-C , 40-C ) :   1.3245
B( 39-C , 42-C ) :   1.0117 B( 40-C , 41-C ) :   1.4065 B( 40-C , 88-H ) :   0.9917
B( 41-C , 89-H ) :   0.9699 B( 42-C , 43-C ) :   1.3936 B( 42-C , 52-C ) :   1.3366
B( 43-C , 44-C ) :   0.9271 B( 43-C , 49-C ) :   1.3682 B( 44-C , 45-C ) :   1.0072
B( 44-C , 47-C ) :   1.0105 B( 45-C , 46-C ) :   1.1110 B( 45-C , 90-H ) :   0.9371
B( 45-C , 91-H ) :   0.9392 B( 46-C , 92-H ) :   0.9607 B( 46-C , 93-H ) :   0.9600
B( 46-C , 94-H ) :   0.9621 B( 47-C , 48-C ) :   1.1123 B( 47-C , 95-H ) :   0.9363
B( 47-C , 96-H ) :   0.9378 B( 48-C , 97-H ) :   0.9606 B( 48-C , 98-H ) :   0.9598
B( 48-C , 99-H ) :   0.9619 B( 49-C , 50-C ) :   1.2855 B( 49-C ,100-H ) :   1.0023
B( 50-C , 51-C ) :   1.3276 B( 50-C , 53-C ) :   1.0831 B( 51-C , 52-C ) :   1.3929
B( 51-C ,101-H ) :   0.9845 B( 52-C ,102-H ) :   0.9876 B( 53-C , 54-C ) :   1.6513
B( 53-C ,103-H ) :   0.9812 B( 54-C , 55-C ) :   1.1803 B( 54-C ,104-H ) :   0.9600
B( 55-C , 56-S ) :   1.1341 B( 55-C , 57-C ) :   0.1117 B( 55-C , 59-C ) :   1.3188
B( 56-S , 57-C ) :   1.1645 B( 57-C , 58-C ) :   1.3669 B( 57-C , 66-C ) :   1.1062
B( 58-C , 59-C ) :   1.2005 B( 58-C , 65-C ) :   1.1920 B( 59-C , 60-C ) :   1.1962
B( 60-C , 61-C ) :   1.5001 B( 60-C ,105-H ) :   0.9984 B( 61-C , 62-O ) :   1.1416
B( 61-C , 64-C ) :   1.1616 B( 62-O , 63-C ) :   0.9708 B( 63-C ,106-H ) :   0.9794
B( 63-C ,107-H ) :   0.9697 B( 63-C ,108-H ) :   0.9697 B( 64-C , 65-C ) :   1.5325
B( 64-C ,109-H ) :   0.9887 B( 65-C ,110-H ) :   0.9894 B( 66-C , 67-C ) :   1.9249
B( 66-C ,111-H ) :   0.9479 B( 67-C ,112-H ) :   0.9580 B( 67-C ,113-H ) :   0.9473

-----------------------------------------------------------------------------
         ABSORPTION SPECTRUM VIA TRANSITION ELECTRIC DIPOLE MOMENTS
-----------------------------------------------------------------------------
State   Energy  Wavelength   fosc         T2         TX        TY        TZ
        (cm-1)    (nm)                  (au**2)     (au)      (au)      (au)
-----------------------------------------------------------------------------
   0   13143.6    760.8   0.311406891   7.79989  -1.36936   2.17413   1.09449
   1   17823.5    561.1   0.299894563   5.53924   0.50430  -1.55201  -1.69594
   2   18956.4    527.5   1.416123389  24.59355  -1.38473   2.58842   3.99702
   3   20960.1    477.1   0.870498474  13.67258  -2.47373   0.43114  -2.71429
   4   22074.2    453.0   0.042138237   0.62845  -0.62489  -0.02575  -0.48713
   5   22951.1    435.7   0.358628358   5.14419   2.03577  -0.98482  -0.17305
   6   23634.0    423.1   0.255395069   3.55755   1.74510  -0.69252   0.18057
   7   25056.0    399.1   0.071746211   0.94268   0.55796  -0.43003  -0.66816
   8   25355.3    394.4   0.014142900   0.18363   0.21891  -0.31255  -0.19500
   9   26542.1    376.8   0.191562061   2.37602   0.03330  -0.50319  -1.45661
  10   27127.4    368.6   0.137186327   1.66486  -0.48699  -0.25013  -1.16839
  11   27259.3    366.8   0.098242702   1.18648  -0.94958   0.26642  -0.46239
  12   29097.3    343.7   0.004445458   0.05030  -0.14687  -0.13618  -0.10090
  13   29744.6    336.2   0.013331462   0.14755   0.23118   0.12280   0.28112
  14   30328.3    329.7   0.092353123   1.00249   0.42778   0.16094   0.89084
  15   30592.3    326.9   0.172840498   1.85998   1.06108  -0.24575   0.82079
  16   30922.3    323.4   0.025927039   0.27603  -0.03185  -0.31723  -0.41759
  17   31757.3    314.9   0.066548477   0.68988  -0.49787  -0.01637  -0.66463
  18   31995.1    312.5   0.204974862   2.10908   0.84324  -0.04095   1.18167
  19   32221.9    310.3   0.092601629   0.94611   0.44581  -0.55958  -0.65897
  20   32385.6    308.8   0.067577949   0.68696  -0.49080  -0.13725  -0.65363
  21   32858.7    304.3   0.028965596   0.29021   0.24126  -0.28304  -0.38973
  22   33287.9    300.4   0.016048964   0.15872  -0.20450   0.23059   0.25245
  23   33745.8    296.3   0.025815769   0.25185   0.39137  -0.23779  -0.20527
  24   33977.4    294.3   0.012004402   0.11631   0.16302   0.08912   0.28600
  25   34602.3    289.0   0.003030894   0.02884  -0.07146   0.11285   0.10486
  26   34853.5    286.9   0.015023651   0.14191  -0.27186  -0.12851  -0.22690
  27   35184.8    284.2   0.015515272   0.14517   0.05913  -0.12670  -0.35443
  28   35525.2    281.5   0.019524941   0.18094   0.31371  -0.26808   0.10321
  29   35877.6    278.7   0.393665250   3.61226   1.35195  -0.17472   1.32437
  30   36077.0    277.2   0.024943349   0.22761   0.32255  -0.19722  -0.29100
  31   36577.4    273.4   0.014933812   0.13441  -0.23783   0.24078   0.14098
  32   37144.9    269.2   0.028600800   0.25349   0.09241   0.04143   0.49318
  33   37299.2    268.1   0.033917645   0.29937   0.36148  -0.34030  -0.22998
  34   37821.2    264.4   0.108572132   0.94506  -0.01653   0.44774   0.86274
  35   38104.2    262.4   0.003886131   0.03358  -0.16211  -0.06427  -0.05627
  36   38547.8    259.4   0.070865598   0.60522  -0.64955   0.42723   0.02781
  37   38606.9    259.0   0.026394827   0.22508  -0.07286  -0.10949  -0.45583
  38   38946.8    256.8   0.250371367   2.11636   1.20080  -0.78938  -0.22652
  39   39202.7    255.1   0.016241798   0.13639  -0.14957  -0.21079  -0.26380
  40   39306.4    254.4   0.024459227   0.20486  -0.36706   0.21842   0.14973
  41   39402.2    253.8   0.158155858   1.32142   0.76148   0.03089   0.86059
  42   39620.8    252.4   0.045155385   0.37520   0.57854  -0.13942   0.14510
  43   39929.6    250.4   0.023196583   0.19125   0.33778  -0.27217   0.05550
  44   40024.3    249.8   0.098457555   0.80984   0.47665   0.09007   0.75798

FINAL SINGLE POINT ENERGY     -4596.984231039422

DIPOLE MOMENT
-------------
                                X             Y             Z
Electronic contribution:     34.57308     -44.43005     -44.69254
Nuclear contribution   :    -37.14809      45.48521      44.44215
                        -----------------------------------------
Total Dipole Moment    :     -2.57502       1.05516      -0.25039
                        -----------------------------------------
Magnitude (a.u.)       :      2.79406
Magnitude (Debye)      :      7.10193

Rotational constants in cm-1:     0.001281     0.000459     0.000349
Rotational constants in MHz :    38.405315    13.751585    10.464051

                             ****ORCA TERMINATED NORMALLY****
TOTAL RUN TIME: 0 days 0 hours 11 minutes 41 seconds 789 msec
