                         Program Version 4.2.0 -  RELEASE  -
|  1> # ORCA input file
|  2> # SCF done       -167.301861504130          0.000922421396
|  3> ! CAM-B3LYP def2-SVP def2/J RIJCOSX Grid4 TightSCF
|  4> %maxcore 5000
|  5> %tddft
|  6>     Mode sTDDFT
|  7>     Ethresh 5.0
|  8>     maxcore 5000
|  9> end
| 10>
| 11> %pal
| 12>   nprocs 6
| 13>   end
| 14> * xyz 0 1
| 15>    C        6.41606        -4.54420         2.74088
| 16>    S        4.77958        -4.34954         3.18770
| 17>    C        4.41904        -6.03777         2.85212
| 18>    C        5.56180        -6.67925         2.41696
| 19>    C        6.71270        -5.81680         2.35122
| 20>    C        8.00598        -6.30641         1.91394
| 21>    C        9.11922        -5.58762         1.83309
| 22>    O        5.77813        -7.96752         2.05579
| 23>    C        4.77305        -8.94355         2.14303
| 24>    C        3.06883        -6.47962         3.03678
| 25>    C        2.10578        -5.69837         3.55890
| 26>    N        0.80873        -6.12592         3.72009
| 27>    C       -0.26367        -5.38810         4.09206
| 28>    S       -1.60885        -6.23232         4.80632
| 29>    C       -2.43598        -4.71853         5.02270
| 30>    N       -3.70914        -4.74056         5.57553
| 31>    O       -4.28353        -3.67147         5.73685
| 32>    O       -4.17642        -5.83376         5.86699
| 33>    C       -1.71346        -3.64767         4.56783
| 34>    C       -0.46688        -3.99716         4.00779
| 35>    C        0.39582        -3.06954         3.33571
| 36>    C        0.23305        -1.72105         3.38963
| 37>    C        0.98283        -0.77481         2.66878
| 38>    C        0.63757         0.55666         2.65321
| 39>    C        1.21717         1.62466         1.92899
| 40>    C        0.54435         2.81014         2.03863
| 41>    C       -0.59661         2.74423         2.86005
| 42>    S       -0.76857         1.14053         3.53037
| 43>    C       -1.58980         3.67571         3.12518
| 44>    C       -1.81264         4.96597         2.60938
| 45>    C       -3.01756         5.49412         2.98394
| 46>    C       -3.79811         4.65334         3.81315
| 47>    S       -2.89380         3.20759         4.18812
| 48>    C       -5.13850         4.82066         4.09992
| 49>    C       -5.97787         3.90567         4.75309
| 50>    C       -7.38114         3.90404         4.49175
| 51>    C       -8.21200         2.77440         4.83854
| 52>    N       -9.50602         2.77093         4.49832
| 53>    C      -10.01370         3.80499         3.86948
| 54>    C       -9.19478         4.92896         3.54094
| 55>    N       -7.91322         4.94401         3.84654
| 56>    C       -9.75204         6.04675         2.87601
| 57>    N      -10.22572         6.93603         2.32947
| 58>    C      -11.38574         3.79680         3.51799
| 59>    N      -12.48970         3.82707         3.21302
| 60>    C       -7.69080         1.62665         5.48430
| 61>    C       -6.38797         1.77918         6.01010
| 62>    C       -5.54593         2.88699         5.64440
| 63>    N       -4.38551         2.85497         6.29097
| 64>    S       -4.35189         1.56872         7.25990
| 65>    N       -5.80673         0.98812         6.90855
| 66>    C       -8.43079         0.42231         5.60645
| 67>    S      -10.16292         0.44477         5.59257
| 68>    C      -10.22979        -1.26160         5.87874
| 69>    C       -8.94862        -1.82623         5.91734
| 70>    C       -7.92268        -0.87121         5.74863
| 71>    C       -6.49788        -1.15818         5.53596
| 72>    C       -5.88414        -0.86223         4.40021
| 73>    O       -8.84427        -3.16535         6.05844
| 74>    C       -7.59651        -3.76071         6.35072
| 75>    C      -11.51535        -1.87814         6.01094
| 76>    C      -11.75663        -3.17668         6.20507
| 77>    H        7.07243        -3.69977         2.79363
| 78>    H        8.01209        -7.35263         1.64272
| 79>    H        9.15454        -4.54401         2.09487
| 80>    H       10.04261        -6.02571         1.49727
| 81>    H        4.36199        -9.01073         3.15471
| 82>    H        5.26483        -9.88423         1.89502
| 83>    H        3.97240        -8.76268         1.41893
| 84>    H        2.80534        -7.47667         2.72129
| 85>    H        2.31700        -4.69980         3.90430
| 86>    H        0.65454        -7.12378         3.64238
| 87>    H       -2.10635        -2.64900         4.61187
| 88>    H        1.17108        -3.47238         2.70129
| 89>    H       -0.54612        -1.31249         4.01866
| 90>    H        1.82443        -1.10081         2.07371
| 91>    H        2.10141         1.48264         1.33279
| 92>    H        0.83380         3.71969         1.54254
| 93>    H       -1.11006         5.45697         1.95955
| 94>    H       -3.38448         6.45226         2.65955
| 95>    H       -5.63435         5.66923         3.64582
| 96>    H       -5.94777        -1.63683         6.33140
| 97>    H       -6.39760        -0.39250         3.57611
| 98>    H       -4.84246        -1.08856         4.25543
| 99>    H       -6.86391        -3.58905         5.56035
|100>    H       -7.79896        -4.82806         6.43097
|101>    H       -7.19760        -3.39903         7.30126
|102>    H      -12.34338        -1.18344         5.93950
|103>    H      -10.96328        -3.89770         6.26958
|104>    H      -12.76519        -3.54159         6.29435
|105> *
|106>
|107>                          ****END OF INPUT****

CARTESIAN COORDINATES (ANGSTROEM)
---------------------------------
  C      6.416060   -4.544200    2.740880
  S      4.779580   -4.349540    3.187700
  C      4.419040   -6.037770    2.852120
  C      5.561800   -6.679250    2.416960
  C      6.712700   -5.816800    2.351220
  C      8.005980   -6.306410    1.913940
  C      9.119220   -5.587620    1.833090
  O      5.778130   -7.967520    2.055790
  C      4.773050   -8.943550    2.143030
  C      3.068830   -6.479620    3.036780
  C      2.105780   -5.698370    3.558900
  N      0.808730   -6.125920    3.720090
  C     -0.263670   -5.388100    4.092060
  S     -1.608850   -6.232320    4.806320
  C     -2.435980   -4.718530    5.022700
  N     -3.709140   -4.740560    5.575530
  O     -4.283530   -3.671470    5.736850
  O     -4.176420   -5.833760    5.866990
  C     -1.713460   -3.647670    4.567830
  C     -0.466880   -3.997160    4.007790
  C      0.395820   -3.069540    3.335710
  C      0.233050   -1.721050    3.389630
  C      0.982830   -0.774810    2.668780
  C      0.637570    0.556660    2.653210
  C      1.217170    1.624660    1.928990
  C      0.544350    2.810140    2.038630
  C     -0.596610    2.744230    2.860050
  S     -0.768570    1.140530    3.530370
  C     -1.589800    3.675710    3.125180
  C     -1.812640    4.965970    2.609380
  C     -3.017560    5.494120    2.983940
  C     -3.798110    4.653340    3.813150
  S     -2.893800    3.207590    4.188120
  C     -5.138500    4.820660    4.099920
  C     -5.977870    3.905670    4.753090
  C     -7.381140    3.904040    4.491750
  C     -8.212000    2.774400    4.838540
  N     -9.506020    2.770930    4.498320
  C    -10.013700    3.804990    3.869480
  C     -9.194780    4.928960    3.540940
  N     -7.913220    4.944010    3.846540
  C     -9.752040    6.046750    2.876010
  N    -10.225720    6.936030    2.329470
  C    -11.385740    3.796800    3.517990
  N    -12.489700    3.827070    3.213020
  C     -7.690800    1.626650    5.484300
  C     -6.387970    1.779180    6.010100
  C     -5.545930    2.886990    5.644400
  N     -4.385510    2.854970    6.290970
  S     -4.351890    1.568720    7.259900
  N     -5.806730    0.988120    6.908550
  C     -8.430790    0.422310    5.606450
  S    -10.162920    0.444770    5.592570
  C    -10.229790   -1.261600    5.878740
  C     -8.948620   -1.826230    5.917340
  C     -7.922680   -0.871210    5.748630
  C     -6.497880   -1.158180    5.535960
  C     -5.884140   -0.862230    4.400210
  O     -8.844270   -3.165350    6.058440
  C     -7.596510   -3.760710    6.350720
  C    -11.515350   -1.878140    6.010940
  C    -11.756630   -3.176680    6.205070
  H      7.072430   -3.699770    2.793630
  H      8.012090   -7.352630    1.642720
  H      9.154540   -4.544010    2.094870
  H     10.042610   -6.025710    1.497270
  H      4.361990   -9.010730    3.154710
  H      5.264830   -9.884230    1.895020
  H      3.972400   -8.762680    1.418930
  H      2.805340   -7.476670    2.721290
  H      2.317000   -4.699800    3.904300
  H      0.654540   -7.123780    3.642380
  H     -2.106350   -2.649000    4.611870
  H      1.171080   -3.472380    2.701290
  H     -0.546120   -1.312490    4.018660
  H      1.824430   -1.100810    2.073710
  H      2.101410    1.482640    1.332790
  H      0.833800    3.719690    1.542540
  H     -1.110060    5.456970    1.959550
  H     -3.384480    6.452260    2.659550
  H     -5.634350    5.669230    3.645820
  H     -5.947770   -1.636830    6.331400
  H     -6.397600   -0.392500    3.576110
  H     -4.842460   -1.088560    4.255430
  H     -6.863910   -3.589050    5.560350
  H     -7.798960   -4.828060    6.430970
  H     -7.197600   -3.399030    7.301260
  H    -12.343380   -1.183440    5.939500
  H    -10.963280   -3.897700    6.269580
  H    -12.765190   -3.541590    6.294350

 Total Charge           Charge          ....    0
 Multiplicity           Mult            ....    1
 Number of Electrons    NEL             ....  476
 Basis Dimension        Dim             .... 1032

ORBITAL ENERGIES
----------------

  NO   OCC          E(Eh)            E(eV)
   0   2.0000     -89.028266     -2422.5823
   1   2.0000     -88.986587     -2421.4481
   2   2.0000     -88.959409     -2420.7086
   3   2.0000     -88.949790     -2420.4468
   4   2.0000     -88.944369     -2420.2993
   5   2.0000     -88.938312     -2420.1345
   6   2.0000     -19.262064      -524.1474
   7   2.0000     -19.242515      -523.6154
   8   2.0000     -19.242223      -523.6075
   9   2.0000     -19.230899      -523.2994
  10   2.0000     -14.653000      -398.7284
  11   2.0000     -14.489186      -394.2708
  12   2.0000     -14.447331      -393.1319
  13   2.0000     -14.446409      -393.1068
  14   2.0000     -14.438179      -392.8828
  15   2.0000     -14.436963      -392.8497
  16   2.0000     -14.415314      -392.2606
  17   2.0000     -14.414373      -392.2350
  18   2.0000     -10.377097      -282.3752
  19   2.0000     -10.365571      -282.0615
  20   2.0000     -10.363162      -281.9960
  21   2.0000     -10.345619      -281.5186
  22   2.0000     -10.344411      -281.4857
  23   2.0000     -10.340485      -281.3789
  24   2.0000     -10.333944      -281.2009
  25   2.0000     -10.332125      -281.1514
  26   2.0000     -10.331447      -281.1330
  27   2.0000     -10.326759      -281.0054
  28   2.0000     -10.324831      -280.9529
  29   2.0000     -10.318775      -280.7881
  30   2.0000     -10.317969      -280.7662
  31   2.0000     -10.314121      -280.6615
  32   2.0000     -10.314013      -280.6586
  33   2.0000     -10.311837      -280.5994
  34   2.0000     -10.309285      -280.5299
  35   2.0000     -10.309048      -280.5234
  36   2.0000     -10.308787      -280.5164
  37   2.0000     -10.307182      -280.4727
  38   2.0000     -10.304570      -280.4016
  39   2.0000     -10.300254      -280.2842
  40   2.0000     -10.299816      -280.2722
  41   2.0000     -10.299680      -280.2685
  42   2.0000     -10.298938      -280.2484
  43   2.0000     -10.296999      -280.1956
  44   2.0000     -10.295942      -280.1668
  45   2.0000     -10.294515      -280.1280
  46   2.0000     -10.293687      -280.1055
  47   2.0000     -10.293163      -280.0912
  48   2.0000     -10.290547      -280.0200
  49   2.0000     -10.289729      -279.9977
  50   2.0000     -10.287167      -279.9280
  51   2.0000     -10.286918      -279.9213
  52   2.0000     -10.283289      -279.8225
  53   2.0000     -10.281820      -279.7825
  54   2.0000     -10.277007      -279.6516
  55   2.0000     -10.274206      -279.5753
  56   2.0000     -10.272887      -279.5395
  57   2.0000     -10.263710      -279.2898
  58   2.0000     -10.262902      -279.2678
  59   2.0000     -10.260501      -279.2024
  60   2.0000     -10.247634      -278.8523
  61   2.0000     -10.243527      -278.7405
  62   2.0000      -8.119601      -220.9456
  63   2.0000      -8.082703      -219.9415
  64   2.0000      -8.055185      -219.1927
  65   2.0000      -8.046284      -218.9505
  66   2.0000      -8.039960      -218.7784
  67   2.0000      -8.032773      -218.5829
  68   2.0000      -6.090712      -165.7367
  69   2.0000      -6.083065      -165.5286
  70   2.0000      -6.082236      -165.5061
  71   2.0000      -6.052482      -164.6964
  72   2.0000      -6.048132      -164.5780
  73   2.0000      -6.043772      -164.4594
  74   2.0000      -6.024637      -163.9387
  75   2.0000      -6.020502      -163.8262
  76   2.0000      -6.016995      -163.7308
  77   2.0000      -6.015987      -163.7033
  78   2.0000      -6.011961      -163.5938
  79   2.0000      -6.009703      -163.5323
  80   2.0000      -6.007193      -163.4640
  81   2.0000      -6.005434      -163.4162
  82   2.0000      -6.002070      -163.3246
  83   2.0000      -6.000999      -163.2955
  84   2.0000      -5.997935      -163.2121
  85   2.0000      -5.994893      -163.1293
  86   2.0000      -1.319607       -35.9083
  87   2.0000      -1.165192       -31.7065
  88   2.0000      -1.137689       -30.9581
  89   2.0000      -1.134620       -30.8746
  90   2.0000      -1.126599       -30.6563
  91   2.0000      -1.105141       -30.0724
  92   2.0000      -1.093480       -29.7551
  93   2.0000      -1.032487       -28.0954
  94   2.0000      -1.007716       -27.4213
  95   2.0000      -1.001813       -27.2607
  96   2.0000      -0.999599       -27.2005
  97   2.0000      -0.990261       -26.9464
  98   2.0000      -0.986418       -26.8418
  99   2.0000      -0.985294       -26.8112
 100   2.0000      -0.978359       -26.6225
 101   2.0000      -0.970006       -26.3952
 102   2.0000      -0.953244       -25.9391
 103   2.0000      -0.927794       -25.2465
 104   2.0000      -0.915288       -24.9062
 105   2.0000      -0.901040       -24.5186
 106   2.0000      -0.893794       -24.3214
 107   2.0000      -0.892815       -24.2947
 108   2.0000      -0.882606       -24.0169
 109   2.0000      -0.876155       -23.8414
 110   2.0000      -0.866131       -23.5686
 111   2.0000      -0.860835       -23.4245
 112   2.0000      -0.851111       -23.1599
 113   2.0000      -0.847625       -23.0651
 114   2.0000      -0.841488       -22.8980
 115   2.0000      -0.832957       -22.6659
 116   2.0000      -0.824260       -22.4293
 117   2.0000      -0.816343       -22.2138
 118   2.0000      -0.815006       -22.1774
 119   2.0000      -0.806225       -21.9385
 120   2.0000      -0.793039       -21.5797
 121   2.0000      -0.789981       -21.4965
 122   2.0000      -0.784553       -21.3488
 123   2.0000      -0.777612       -21.1599
 124   2.0000      -0.769225       -20.9317
 125   2.0000      -0.754856       -20.5407
 126   2.0000      -0.734951       -19.9990
 127   2.0000      -0.731375       -19.9017
 128   2.0000      -0.721144       -19.6233
 129   2.0000      -0.707429       -19.2501
 130   2.0000      -0.699186       -19.0258
 131   2.0000      -0.689871       -18.7723
 132   2.0000      -0.686619       -18.6839
 133   2.0000      -0.682809       -18.5802
 134   2.0000      -0.679860       -18.4999
 135   2.0000      -0.672692       -18.3049
 136   2.0000      -0.665474       -18.1085
 137   2.0000      -0.656439       -17.8626
 138   2.0000      -0.650937       -17.7129
 139   2.0000      -0.647717       -17.6253
 140   2.0000      -0.644427       -17.5357
 141   2.0000      -0.640574       -17.4309
 142   2.0000      -0.635805       -17.3011
 143   2.0000      -0.633226       -17.2310
 144   2.0000      -0.632324       -17.2064
 145   2.0000      -0.623009       -16.9529
 146   2.0000      -0.616016       -16.7626
 147   2.0000      -0.610142       -16.6028
 148   2.0000      -0.609016       -16.5722
 149   2.0000      -0.606257       -16.4971
 150   2.0000      -0.605759       -16.4835
 151   2.0000      -0.603188       -16.4136
 152   2.0000      -0.598936       -16.2979
 153   2.0000      -0.584641       -15.9089
 154   2.0000      -0.576703       -15.6929
 155   2.0000      -0.572057       -15.5665
 156   2.0000      -0.571320       -15.5464
 157   2.0000      -0.566551       -15.4166
 158   2.0000      -0.562168       -15.2974
 159   2.0000      -0.560678       -15.2568
 160   2.0000      -0.559784       -15.2325
 161   2.0000      -0.554571       -15.0906
 162   2.0000      -0.543176       -14.7806
 163   2.0000      -0.541962       -14.7475
 164   2.0000      -0.538509       -14.6536
 165   2.0000      -0.536434       -14.5971
 166   2.0000      -0.535519       -14.5722
 167   2.0000      -0.532125       -14.4799
 168   2.0000      -0.528239       -14.3741
 169   2.0000      -0.524387       -14.2693
 170   2.0000      -0.520902       -14.1745
 171   2.0000      -0.514360       -13.9965
 172   2.0000      -0.511928       -13.9303
 173   2.0000      -0.508174       -13.8281
 174   2.0000      -0.503727       -13.7071
 175   2.0000      -0.501589       -13.6489
 176   2.0000      -0.499569       -13.5940
 177   2.0000      -0.498197       -13.5566
 178   2.0000      -0.493017       -13.4157
 179   2.0000      -0.488282       -13.2868
 180   2.0000      -0.482804       -13.1378
 181   2.0000      -0.482186       -13.1209
 182   2.0000      -0.475875       -12.9492
 183   2.0000      -0.475175       -12.9302
 184   2.0000      -0.473242       -12.8776
 185   2.0000      -0.471728       -12.8364
 186   2.0000      -0.468319       -12.7436
 187   2.0000      -0.467289       -12.7156
 188   2.0000      -0.464606       -12.6426
 189   2.0000      -0.464193       -12.6313
 190   2.0000      -0.462769       -12.5926
 191   2.0000      -0.458994       -12.4899
 192   2.0000      -0.455601       -12.3975
 193   2.0000      -0.453083       -12.3290
 194   2.0000      -0.450583       -12.2610
 195   2.0000      -0.444480       -12.0949
 196   2.0000      -0.441719       -12.0198
 197   2.0000      -0.440914       -11.9979
 198   2.0000      -0.440095       -11.9756
 199   2.0000      -0.436581       -11.8800
 200   2.0000      -0.429791       -11.6952
 201   2.0000      -0.428756       -11.6670
 202   2.0000      -0.425777       -11.5860
 203   2.0000      -0.421275       -11.4635
 204   2.0000      -0.418630       -11.3915
 205   2.0000      -0.416464       -11.3326
 206   2.0000      -0.416273       -11.3274
 207   2.0000      -0.411302       -11.1921
 208   2.0000      -0.409217       -11.1353
 209   2.0000      -0.408185       -11.1073
 210   2.0000      -0.404221       -10.9994
 211   2.0000      -0.400711       -10.9039
 212   2.0000      -0.397658       -10.8208
 213   2.0000      -0.394688       -10.7400
 214   2.0000      -0.391878       -10.6635
 215   2.0000      -0.388165       -10.5625
 216   2.0000      -0.384495       -10.4627
 217   2.0000      -0.383961       -10.4481
 218   2.0000      -0.378914       -10.3108
 219   2.0000      -0.377451       -10.2710
 220   2.0000      -0.370092       -10.0707
 221   2.0000      -0.363535        -9.8923
 222   2.0000      -0.362102        -9.8533
 223   2.0000      -0.359968        -9.7952
 224   2.0000      -0.351129        -9.5547
 225   2.0000      -0.341332        -9.2881
 226   2.0000      -0.340234        -9.2582
 227   2.0000      -0.333966        -9.0877
 228   2.0000      -0.328326        -8.9342
 229   2.0000      -0.320227        -8.7138
 230   2.0000      -0.315496        -8.5851
 231   2.0000      -0.305346        -8.3089
 232   2.0000      -0.286772        -7.8035
 233   2.0000      -0.284842        -7.7510
 234   2.0000      -0.272936        -7.4270
 235   2.0000      -0.256023        -6.9667
 236   2.0000      -0.240316        -6.5393
 237   2.0000      -0.203805        -5.5458
 238   0.0000      -0.115055        -3.1308
 239   0.0000      -0.072925        -1.9844
 240   0.0000      -0.063642        -1.7318
 241   0.0000      -0.037261        -1.0139
 242   0.0000      -0.026029        -0.7083

MULLIKEN ATOMIC CHARGES
-----------------------
   0 C :   -0.114683
   1 S :    0.072448
   2 C :   -0.187886
   3 C :    0.205845
   4 C :    0.041632
   5 C :    0.015684
   6 C :   -0.010594
   7 O :   -0.308985
   8 C :    0.178000
   9 C :    0.007166
  10 C :    0.024960
  11 N :   -0.025079
  12 C :   -0.110087
  13 S :    0.160097
  14 C :   -0.013392
  15 N :    0.290597
  16 O :   -0.265702
  17 O :   -0.270198
  18 C :   -0.005125
  19 C :    0.111565
  20 C :   -0.041744
  21 C :   -0.005164
  22 C :    0.002016
  23 C :   -0.020042
  24 C :    0.036046
  25 C :    0.030604
  26 C :   -0.035521
  27 S :    0.046060
  28 C :   -0.034458
  29 C :    0.031835
  30 C :    0.032444
  31 C :   -0.001149
  32 S :    0.090489
  33 C :   -0.065178
  34 C :    0.075235
  35 C :   -0.048494
  36 C :   -0.066260
  37 N :    0.027507
  38 C :   -0.117086
  39 C :   -0.153897
  40 N :    0.052286
  41 C :   -0.213089
  42 N :    0.227541
  43 C :   -0.218541
  44 N :    0.231926
  45 C :    0.130657
  46 C :   -0.011374
  47 C :   -0.004253
  48 N :   -0.305644
  49 S :    0.521368
  50 N :   -0.261557
  51 C :   -0.221368
  52 S :    0.170318
  53 C :   -0.129238
  54 C :    0.167909
  55 C :    0.029663
  56 C :   -0.018897
  57 C :   -0.014222
  58 O :   -0.314758
  59 C :    0.179260
  60 C :    0.020193
  61 C :   -0.010971
  62 H :    0.022520
  63 H :   -0.002837
  64 H :    0.004943
  65 H :    0.021444
  66 H :    0.027687
  67 H :    0.039084
  68 H :    0.032792
  69 H :   -0.039082
  70 H :    0.043035
  71 H :    0.134392
  72 H :    0.009422
  73 H :   -0.004327
  74 H :    0.005472
  75 H :   -0.013566
  76 H :   -0.010084
  77 H :   -0.009843
  78 H :   -0.012343
  79 H :   -0.004534
  80 H :    0.001640
  81 H :    0.016774
  82 H :    0.018059
  83 H :    0.011133
  84 H :    0.045062
  85 H :    0.028657
  86 H :    0.019058
  87 H :   -0.015305
  88 H :    0.029730
  89 H :    0.014301
Sum of atomic charges:   -0.0000000

LOEWDIN ATOMIC CHARGES
----------------------
   0 C :   -0.167877
   1 S :    0.419076
   2 C :   -0.220401
   3 C :    0.026549
   4 C :   -0.079852
   5 C :   -0.019695
   6 C :   -0.042835
   7 O :   -0.094641
   8 C :    0.078922
   9 C :   -0.086909
  10 C :    0.001504
  11 N :    0.034867
  12 C :   -0.093795
  13 S :    0.437636
  14 C :   -0.214871
  15 N :    0.278893
  16 O :   -0.228621
  17 O :   -0.236246
  18 C :    0.010650
  19 C :   -0.107135
  20 C :   -0.028793
  21 C :   -0.035669
  22 C :   -0.049069
  23 C :   -0.144140
  24 C :   -0.031708
  25 C :   -0.030449
  26 C :   -0.170295
  27 S :    0.371624
  28 C :   -0.184711
  29 C :   -0.032603
  30 C :   -0.028839
  31 C :   -0.135531
  32 S :    0.418673
  33 C :   -0.036843
  34 C :   -0.041934
  35 C :   -0.002363
  36 C :   -0.014999
  37 N :   -0.015540
  38 C :   -0.030483
  39 C :   -0.039477
  40 N :   -0.002729
  41 C :   -0.036692
  42 N :   -0.017917
  43 C :   -0.035130
  44 N :   -0.012669
  45 C :   -0.043246
  46 C :   -0.038667
  47 C :   -0.054676
  48 N :   -0.294351
  49 S :    0.657042
  50 N :   -0.258964
  51 C :   -0.169099
  52 S :    0.480465
  53 C :   -0.194817
  54 C :    0.022924
  55 C :   -0.066126
  56 C :   -0.008897
  57 C :   -0.057163
  58 O :   -0.095130
  59 C :    0.079694
  60 C :   -0.047338
  61 C :   -0.037708
  62 H :    0.024080
  63 H :    0.030725
  64 H :    0.017501
  65 H :    0.025412
  66 H :    0.016386
  67 H :    0.031571
  68 H :    0.015606
  69 H :    0.024880
  70 H :    0.025227
  71 H :    0.091176
  72 H :    0.043893
  73 H :    0.030188
  74 H :    0.017261
  75 H :    0.033218
  76 H :    0.034100
  77 H :    0.034019
  78 H :    0.031816
  79 H :    0.035504
  80 H :    0.039925
  81 H :    0.028230
  82 H :    0.020347
  83 H :    0.017121
  84 H :    0.018325
  85 H :    0.027089
  86 H :    0.015286
  87 H :    0.026584
  88 H :    0.022388
  89 H :    0.021265

  Mayer bond orders larger than 0.100000
B(  0-C ,  1-S ) :   1.1470 B(  0-C ,  4-C ) :   1.5784 B(  0-C , 62-H ) :   0.9656
B(  1-S ,  2-C ) :   1.0818 B(  2-C ,  3-C ) :   1.4719 B(  2-C ,  9-C ) :   1.1301
B(  3-C ,  4-C ) :   1.1990 B(  3-C ,  7-O ) :   1.1892 B(  4-C ,  5-C ) :   1.0839
B(  5-C ,  6-C ) :   1.9519 B(  5-C , 63-H ) :   0.9593 B(  6-C , 64-H ) :   0.9514
B(  6-C , 65-H ) :   0.9497 B(  7-O ,  8-C ) :   0.9582 B(  8-C , 66-H ) :   0.9659
B(  8-C , 67-H ) :   0.9748 B(  8-C , 68-H ) :   0.9661 B(  9-C , 10-C ) :   1.7109
B(  9-C , 69-H ) :   0.9630 B( 10-C , 11-N ) :   1.0961 B( 10-C , 70-H ) :   0.9540
B( 11-N , 12-C ) :   1.2272 B( 11-N , 71-H ) :   0.9134 B( 12-C , 13-S ) :   1.1346
B( 12-C , 19-C ) :   1.3331 B( 13-S , 14-C ) :   1.0633 B( 14-C , 15-N ) :   0.9959
B( 14-C , 18-C ) :   1.4744 B( 15-N , 16-O ) :   1.4794 B( 15-N , 17-O ) :   1.5022
B( 16-O , 17-O ) :   0.2423 B( 18-C , 19-C ) :   1.2372 B( 18-C , 72-H ) :   1.0007
B( 19-C , 20-C ) :   1.0710 B( 20-C , 21-C ) :   1.6582 B( 20-C , 73-H ) :   0.9817
B( 21-C , 22-C ) :   1.1513 B( 21-C , 74-H ) :   0.9624 B( 22-C , 23-C ) :   1.5496
B( 22-C , 75-H ) :   0.9884 B( 23-C , 24-C ) :   1.1529 B( 23-C , 27-S ) :   1.0342
B( 24-C , 25-C ) :   1.5661 B( 24-C , 76-H ) :   0.9993 B( 25-C , 26-C ) :   1.2123
B( 25-C , 77-H ) :   0.9960 B( 26-C , 27-S ) :   1.0569 B( 26-C , 28-C ) :   1.4573
B( 28-C , 29-C ) :   1.2110 B( 28-C , 32-S ) :   1.0555 B( 29-C , 30-C ) :   1.5543
B( 29-C , 78-H ) :   0.9952 B( 30-C , 31-C ) :   1.1781 B( 30-C , 79-H ) :   0.9986
B( 31-C , 32-S ) :   1.0668 B( 31-C , 33-C ) :   1.4670 B( 33-C , 34-C ) :   1.2849
B( 33-C , 80-H ) :   0.9483 B( 34-C , 35-C ) :   1.2166 B( 34-C , 45-C ) :   0.1037
B( 34-C , 47-C ) :   1.1401 B( 35-C , 36-C ) :   1.1187 B( 35-C , 40-N ) :   1.4917
B( 36-C , 37-N ) :   1.4295 B( 36-C , 45-C ) :   1.2442 B( 37-N , 38-C ) :   1.7036
B( 38-C , 39-C ) :   1.2300 B( 38-C , 43-C ) :   1.1547 B( 39-C , 40-N ) :   1.6960
B( 39-C , 41-C ) :   1.1637 B( 41-C , 42-N ) :   3.0467 B( 43-C , 44-N ) :   3.0441
B( 45-C , 46-C ) :   1.2087 B( 45-C , 51-C ) :   1.1738 B( 46-C , 47-C ) :   1.0988
B( 46-C , 50-N ) :   1.5200 B( 47-C , 48-N ) :   1.4855 B( 48-N , 49-S ) :   1.2585
B( 48-N , 50-N ) :   0.1457 B( 49-S , 50-N ) :   1.2769 B( 51-C , 52-S ) :   1.1382
B( 51-C , 53-C ) :   0.1074 B( 51-C , 55-C ) :   1.4296 B( 52-S , 53-C ) :   1.0970
B( 53-C , 54-C ) :   1.4213 B( 53-C , 60-C ) :   1.1221 B( 54-C , 55-C ) :   1.2716
B( 54-C , 58-O ) :   1.1767 B( 55-C , 56-C ) :   1.0195 B( 56-C , 57-C ) :   2.0059
B( 56-C , 81-H ) :   0.9210 B( 57-C , 82-H ) :   0.9552 B( 57-C , 83-H ) :   0.9508
B( 58-O , 59-C ) :   0.9314 B( 59-C , 84-H ) :   0.9587 B( 59-C , 85-H ) :   0.9735
B( 59-C , 86-H ) :   0.9723 B( 60-C , 61-C ) :   1.9242 B( 60-C , 87-H ) :   0.9453
B( 61-C , 88-H ) :   0.9437 B( 61-C , 89-H ) :   0.9448

-----------------------------------------------------------------------------
         ABSORPTION SPECTRUM VIA TRANSITION ELECTRIC DIPOLE MOMENTS
-----------------------------------------------------------------------------
State   Energy  Wavelength   fosc         T2         TX        TY        TZ
        (cm-1)    (nm)                  (au**2)     (au)      (au)      (au)
-----------------------------------------------------------------------------
   0    4907.5   2037.7   0.202826398  13.60626   3.56116  -0.21855  -0.93629
   1   12976.4    770.6   0.116971709   2.96758  -0.51828  -1.63138   0.19377
   2   14360.8    696.3   0.736804221  16.89081  -2.21450   3.45512   0.22133
   3   16816.3    594.7   0.062012287   1.21401  -0.50049   0.97924   0.06791
   4   17061.0    586.1   0.147887254   2.85366  -1.53196   0.54985   0.45213
   5   19056.3    524.8   0.011936083   0.20621   0.28618   0.16653  -0.31076
   6   21161.6    472.6   0.034791448   0.54125   0.39337   0.61990   0.04727
   7   21607.2    462.8   0.099851682   1.52136  -0.01971   1.13899  -0.47294
   8   22934.3    436.0   0.061075639   0.87671  -0.73482  -0.53787   0.21782
   9   23247.6    430.2   0.139968238   1.98211  -0.77106  -1.07478   0.48211
  10   24061.1    415.6   0.493679984   6.75468  -1.96846   1.65660   0.36815
  11   24471.7    408.6   0.072513894   0.97551  -0.51239  -0.62362   0.56927
  12   25110.4    398.2   0.337230721   4.42130   1.04562   1.73611  -0.56027
  13   26121.8    382.8   0.055936629   0.70497  -0.39423  -0.74128  -0.00707
  14   26844.7    372.5   0.269209948   3.30148  -1.68210  -0.25848   0.63655
  15   27289.8    366.4   0.049297339   0.59470  -0.62078   0.38932  -0.24036
  16   27425.0    364.6   0.037256521   0.44723   0.41389   0.39898  -0.34168
  17   28193.7    354.7   0.111016980   1.29632  -0.59213  -0.92958   0.28562
  18   28630.9    349.3   0.229558803   2.63958  -0.97618  -1.21398   0.46143
  19   29099.8    343.6   0.148325689   1.67804   0.44850   1.20357  -0.16824
  20   29353.3    340.7   0.042458956   0.47620   0.09486   0.65792  -0.18530
  21   29635.1    337.4   0.031059473   0.34503  -0.54876  -0.19198  -0.08389
  22   30401.9    328.9   0.165583408   1.79305   0.78656  -0.87195   0.64349
  23   30683.4    325.9   0.002144560   0.02301   0.00712   0.10937  -0.10487
  24   30843.1    324.2   0.155506022   1.65983   1.27334   0.01193   0.19571
  25   31103.9    321.5   0.002551887   0.02701   0.09166   0.02763   0.13359
  26   32134.8    311.2   0.232418624   2.38106  -1.29887   0.07789  -0.82941
  27   32232.3    310.2   0.105538274   1.07794   0.78784   0.32033  -0.59551
  28   32964.3    303.4   0.052954656   0.52885   0.71040   0.04836   0.14782
  29   33274.5    300.5   0.002767233   0.02738  -0.10605  -0.03852   0.12103
  30   33372.0    299.7   0.034679264   0.34211   0.12162   0.50423  -0.27030
  31   33849.7    295.4   0.004054457   0.03943   0.11995   0.13357   0.08487
  32   34114.5    293.1   0.051476171   0.49676   0.37625  -0.58889   0.09167
  33   34183.1    292.5   0.056302151   0.54224  -0.31699   0.65611  -0.10615
  34   34376.8    290.9   0.108053731   1.03479   0.79500   0.40245  -0.49071
  35   34759.8    287.7   0.125436569   1.18802   0.63438  -0.66423   0.58684
  36   34941.3    286.2   0.084224895   0.79355  -0.73527   0.50205   0.02961
  37   35270.4    283.5   0.009955729   0.09293   0.03387  -0.29342   0.07538
  38   35457.8    282.0   0.007133417   0.06623   0.09523  -0.23111  -0.06124
  39   35687.3    280.2   0.060108730   0.55450   0.72928   0.13626  -0.06393
  40   36145.4    276.7   0.020786761   0.18933   0.13199   0.41411   0.02033
  41   36573.0    273.4   0.008630346   0.07769  -0.23661   0.01358   0.14670
  42   36965.7    270.5   0.011345996   0.10105   0.12975  -0.26940  -0.10788
  43   37174.3    269.0   0.032470635   0.28756  -0.52345  -0.08247   0.08218
  44   37435.0    267.1   0.068250529   0.60021   0.18269   0.39036  -0.64378
  45   37720.7    265.1   0.173210820   1.51172   0.93331  -0.73138   0.32517
  46   37916.5    263.7   0.005269673   0.04575   0.16178  -0.08046   0.11450
  47   38161.8    262.0   0.006336028   0.05466  -0.21241   0.09034   0.03717
  48   38265.1    261.3   0.041003293   0.35277   0.56626   0.15288   0.09353
  49   38624.6    258.9   0.025693262   0.21899  -0.24230  -0.00876   0.40026
  50   38744.2    258.1   0.029842535   0.25357  -0.29365   0.22757  -0.33993
  51   39193.5    255.1   0.007359109   0.06181  -0.16938   0.03368  -0.17885
  52   39319.0    254.3   0.036973413   0.30957   0.53669   0.07756  -0.12460
  53   39681.2    252.0   0.028432967   0.23589   0.16773   0.45541  -0.01889
  54   39707.1    251.8   0.046330197   0.38412   0.52246   0.22647   0.24468
  55   39972.2    250.2   0.130673431   1.07623   0.89759   0.37447  -0.36101
  56   40284.5    248.2   0.022211966   0.18152  -0.22785   0.10609   0.34402

FINAL SINGLE POINT ENERGY     -4817.466739568026

DIPOLE MOMENT
-------------
                                X             Y             Z
Electronic contribution:    -50.86774      49.97684      15.69266
Nuclear contribution   :     57.36201     -53.15512     -16.26691
                        -----------------------------------------
Total Dipole Moment    :      6.49426      -3.17828      -0.57425
                        -----------------------------------------
Magnitude (a.u.)       :      7.25305
Magnitude (Debye)      :     18.43578

Rotational constants in cm-1:     0.001727     0.000461     0.000379
Rotational constants in MHz :    51.775245    13.805992    11.352292

                             ****ORCA TERMINATED NORMALLY****
TOTAL RUN TIME: 0 days 0 hours 8 minutes 46 seconds 63 msec
