                         Program Version 4.2.0 -  RELEASE  -
|  1> # ORCA input file
|  2> # SCF done       -159.697771243360          0.000724762109
|  3> ! CAM-B3LYP def2-SVP def2/J RIJCOSX Grid4 TightSCF
|  4> %maxcore 5000
|  5> %tddft
|  6>     Mode sTDDFT
|  7>     Ethresh 5.0
|  8>     maxcore 5000
|  9> end
| 10>
| 11> %pal
| 12>   nprocs 6
| 13>   end
| 14> * xyz 0 1
| 15>    C        0.18332        -3.10579       -17.39416
| 16>    S       -0.95231        -2.32772       -16.36935
| 17>    C       -0.18918        -2.94249       -14.95304
| 18>    C        0.91761        -3.73048       -15.27176
| 19>    C        1.12317        -3.81621       -16.69295
| 20>    C        2.22221        -4.58662       -17.18945
| 21>    C        2.45727        -4.69355       -18.63369
| 22>    O        1.78893        -4.17555       -19.49808
| 23>    O        3.52872        -5.45040       -18.94400
| 24>    C        3.04408        -5.21688       -16.28621
| 25>    C        2.83946        -5.12887       -14.90211
| 26>    C        1.79611        -4.40067       -14.38630
| 27>    O        1.57445        -4.29410       -13.04367
| 28>    N       -0.59625        -2.70350       -13.67504
| 29>    C       -1.60317        -1.93840       -13.19825
| 30>    S       -2.65793        -1.01827       -14.21558
| 31>    C       -3.45722        -0.40496       -12.79748
| 32>    N       -4.51076         0.47958       -12.97880
| 33>    O       -5.07172         0.91323       -11.98269
| 34>    O       -4.80499         0.76493       -14.13201
| 35>    C       -2.93512        -0.89294       -11.62339
| 36>    C       -1.87280        -1.78125       -11.82658
| 37>    C       -1.11698        -2.47003       -10.80944
| 38>    C       -1.11130        -2.15584        -9.50526
| 39>    N       -0.39088        -2.81976        -8.54025
| 40>    C        0.70659        -3.64507        -8.75648
| 41>    C        1.60084        -3.56195        -9.78133
| 42>    S        2.83171        -4.75854        -9.66985
| 43>    C        2.16076        -5.38172        -8.21532
| 44>    C        1.03489        -4.70635        -7.83980
| 45>    N        0.26231        -4.96093        -6.72684
| 46>    C        0.63191        -5.76135        -5.68827
| 47>    C       -0.17932        -6.07218        -4.64756
| 48>    C        0.16452        -6.87061        -3.53176
| 49>    C        1.33296        -7.53614        -3.26332
| 50>    C        1.59229        -8.30610        -2.09899
| 51>    C        2.82681        -8.87978        -2.05099
| 52>    C        3.63014        -8.60669        -3.17794
| 53>    S        2.75271        -7.58838        -4.30140
| 54>    C        4.91571        -9.01616        -3.46640
| 55>    C        5.79295        -9.81422        -2.70054
| 56>    C        7.00192       -10.02430        -3.29109
| 57>    C        7.15874        -9.41160        -4.56139
| 58>    S        5.68507        -8.54486        -4.96719
| 59>    C        8.27027        -9.47993        -5.35890
| 60>    C        8.46462        -8.90338        -6.63441
| 61>    C        7.60306        -8.12346        -7.40664
| 62>    C        8.25252        -7.79846        -8.62543
| 63>    C        7.83564        -7.06905        -9.71453
| 64>    C        8.72845        -6.93429       -10.79199
| 65>    C        8.61601        -6.28395       -12.01006
| 66>    C        9.82759        -6.45877       -12.75247
| 67>    C       10.69140        -7.21965       -11.98805
| 68>    C       10.04665        -7.54263       -10.75221
| 69>    C       10.46589        -8.26730        -9.66953
| 70>    C        9.56995        -8.40786        -8.58712
| 71>    C        9.68392        -9.06859        -7.38060
| 72>    C       10.03792        -5.90543       -14.06935
| 73>    C       11.14990        -6.02279       -14.79031
| 74>    H        0.10230        -2.99963       -18.45521
| 75>    H        3.62636        -5.47878       -19.90821
| 76>    H        3.87385        -5.80075       -16.65144
| 77>    H        3.51534        -5.64174       -14.23245
| 78>    H        2.24638        -4.79078       -12.55656
| 79>    H       -0.01805        -3.17107       -12.98084
| 80>    H       -3.33537        -0.61258       -10.66705
| 81>    H       -0.51967        -3.30885       -11.13364
| 82>    H       -1.72192        -1.35252        -9.12092
| 83>    H       -0.54834        -2.54167        -7.58393
| 84>    H        1.63214        -2.84680       -10.57647
| 85>    H        2.63294        -6.21661        -7.74090
| 86>    H       -0.67888        -4.59179        -6.72644
| 87>    H        1.64870        -6.10712        -5.73614
| 88>    H       -1.18795        -5.67644        -4.65097
| 89>    H       -0.60487        -6.97759        -2.77753
| 90>    H        0.84891        -8.40875        -1.32751
| 91>    H        3.17957        -9.49170        -1.23988
| 92>    H        5.50928       -10.20731        -1.74038
| 93>    H        7.79551       -10.60637        -2.85537
| 94>    H        9.10019       -10.05403        -4.96431
| 95>    H        6.61140        -7.80852        -7.14709
| 96>    H        6.85593        -6.61302        -9.74892
| 97>    H        7.76145        -5.72994       -12.35744
| 98>    H       11.68352        -7.53054       -12.25647
| 99>    H       11.44599        -8.72247        -9.63154
|100>    H       10.53748        -9.62534        -7.03545
|101>    H        9.19914        -5.35008       -14.47153
|102>    H       12.01013        -6.56033       -14.42982
|103>    H       11.23656        -5.58477       -15.76968
|104> *
|105>
|106>                          ****END OF INPUT****

CARTESIAN COORDINATES (ANGSTROEM)
---------------------------------
  C      0.183320   -3.105790  -17.394160
  S     -0.952310   -2.327720  -16.369350
  C     -0.189180   -2.942490  -14.953040
  C      0.917610   -3.730480  -15.271760
  C      1.123170   -3.816210  -16.692950
  C      2.222210   -4.586620  -17.189450
  C      2.457270   -4.693550  -18.633690
  O      1.788930   -4.175550  -19.498080
  O      3.528720   -5.450400  -18.944000
  C      3.044080   -5.216880  -16.286210
  C      2.839460   -5.128870  -14.902110
  C      1.796110   -4.400670  -14.386300
  O      1.574450   -4.294100  -13.043670
  N     -0.596250   -2.703500  -13.675040
  C     -1.603170   -1.938400  -13.198250
  S     -2.657930   -1.018270  -14.215580
  C     -3.457220   -0.404960  -12.797480
  N     -4.510760    0.479580  -12.978800
  O     -5.071720    0.913230  -11.982690
  O     -4.804990    0.764930  -14.132010
  C     -2.935120   -0.892940  -11.623390
  C     -1.872800   -1.781250  -11.826580
  C     -1.116980   -2.470030  -10.809440
  C     -1.111300   -2.155840   -9.505260
  N     -0.390880   -2.819760   -8.540250
  C      0.706590   -3.645070   -8.756480
  C      1.600840   -3.561950   -9.781330
  S      2.831710   -4.758540   -9.669850
  C      2.160760   -5.381720   -8.215320
  C      1.034890   -4.706350   -7.839800
  N      0.262310   -4.960930   -6.726840
  C      0.631910   -5.761350   -5.688270
  C     -0.179320   -6.072180   -4.647560
  C      0.164520   -6.870610   -3.531760
  C      1.332960   -7.536140   -3.263320
  C      1.592290   -8.306100   -2.098990
  C      2.826810   -8.879780   -2.050990
  C      3.630140   -8.606690   -3.177940
  S      2.752710   -7.588380   -4.301400
  C      4.915710   -9.016160   -3.466400
  C      5.792950   -9.814220   -2.700540
  C      7.001920  -10.024300   -3.291090
  C      7.158740   -9.411600   -4.561390
  S      5.685070   -8.544860   -4.967190
  C      8.270270   -9.479930   -5.358900
  C      8.464620   -8.903380   -6.634410
  C      7.603060   -8.123460   -7.406640
  C      8.252520   -7.798460   -8.625430
  C      7.835640   -7.069050   -9.714530
  C      8.728450   -6.934290  -10.791990
  C      8.616010   -6.283950  -12.010060
  C      9.827590   -6.458770  -12.752470
  C     10.691400   -7.219650  -11.988050
  C     10.046650   -7.542630  -10.752210
  C     10.465890   -8.267300   -9.669530
  C      9.569950   -8.407860   -8.587120
  C      9.683920   -9.068590   -7.380600
  C     10.037920   -5.905430  -14.069350
  C     11.149900   -6.022790  -14.790310
  H      0.102300   -2.999630  -18.455210
  H      3.626360   -5.478780  -19.908210
  H      3.873850   -5.800750  -16.651440
  H      3.515340   -5.641740  -14.232450
  H      2.246380   -4.790780  -12.556560
  H     -0.018050   -3.171070  -12.980840
  H     -3.335370   -0.612580  -10.667050
  H     -0.519670   -3.308850  -11.133640
  H     -1.721920   -1.352520   -9.120920
  H     -0.548340   -2.541670   -7.583930
  H      1.632140   -2.846800  -10.576470
  H      2.632940   -6.216610   -7.740900
  H     -0.678880   -4.591790   -6.726440
  H      1.648700   -6.107120   -5.736140
  H     -1.187950   -5.676440   -4.650970
  H     -0.604870   -6.977590   -2.777530
  H      0.848910   -8.408750   -1.327510
  H      3.179570   -9.491700   -1.239880
  H      5.509280  -10.207310   -1.740380
  H      7.795510  -10.606370   -2.855370
  H      9.100190  -10.054030   -4.964310
  H      6.611400   -7.808520   -7.147090
  H      6.855930   -6.613020   -9.748920
  H      7.761450   -5.729940  -12.357440
  H     11.683520   -7.530540  -12.256470
  H     11.445990   -8.722470   -9.631540
  H     10.537480   -9.625340   -7.035450
  H      9.199140   -5.350080  -14.471530
  H     12.010130   -6.560330  -14.429820
  H     11.236560   -5.584770  -15.769680

 Total Charge           Charge          ....    0
 Multiplicity           Mult            ....    1
 Number of Electrons    NEL             ....  448
 Basis Dimension        Dim             ....  996

ORBITAL ENERGIES
----------------

  NO   OCC          E(Eh)            E(eV)
   0   2.0000     -88.973504     -2421.0921
   1   2.0000     -88.971530     -2421.0384
   2   2.0000     -88.967086     -2420.9175
   3   2.0000     -88.941062     -2420.2093
   4   2.0000     -88.937602     -2420.1152
   5   2.0000     -19.284741      -524.7645
   6   2.0000     -19.250812      -523.8412
   7   2.0000     -19.217943      -522.9468
   8   2.0000     -19.217043      -522.9223
   9   2.0000     -19.193213      -522.2739
  10   2.0000     -14.629877      -398.0992
  11   2.0000     -14.476191      -393.9172
  12   2.0000     -14.462598      -393.5473
  13   2.0000     -14.458246      -393.4289
  14   2.0000     -10.393544      -282.8227
  15   2.0000     -10.361334      -281.9462
  16   2.0000     -10.356818      -281.8233
  17   2.0000     -10.353366      -281.7294
  18   2.0000     -10.330318      -281.1022
  19   2.0000     -10.329137      -281.0701
  20   2.0000     -10.324097      -280.9330
  21   2.0000     -10.323628      -280.9202
  22   2.0000     -10.320124      -280.8248
  23   2.0000     -10.303118      -280.3621
  24   2.0000     -10.300444      -280.2893
  25   2.0000     -10.300360      -280.2870
  26   2.0000     -10.297381      -280.2060
  27   2.0000     -10.296304      -280.1767
  28   2.0000     -10.296187      -280.1735
  29   2.0000     -10.296081      -280.1706
  30   2.0000     -10.294895      -280.1383
  31   2.0000     -10.293744      -280.1070
  32   2.0000     -10.287590      -279.9396
  33   2.0000     -10.287149      -279.9276
  34   2.0000     -10.285417      -279.8804
  35   2.0000     -10.284596      -279.8581
  36   2.0000     -10.282451      -279.7997
  37   2.0000     -10.279655      -279.7236
  38   2.0000     -10.279163      -279.7102
  39   2.0000     -10.278693      -279.6974
  40   2.0000     -10.278108      -279.6815
  41   2.0000     -10.277278      -279.6590
  42   2.0000     -10.277198      -279.6568
  43   2.0000     -10.276995      -279.6512
  44   2.0000     -10.276757      -279.6448
  45   2.0000     -10.275453      -279.6093
  46   2.0000     -10.272693      -279.5342
  47   2.0000     -10.271628      -279.5052
  48   2.0000     -10.269298      -279.4418
  49   2.0000     -10.269127      -279.4372
  50   2.0000     -10.266695      -279.3710
  51   2.0000     -10.266313      -279.3606
  52   2.0000     -10.264904      -279.3222
  53   2.0000     -10.263915      -279.2953
  54   2.0000     -10.261995      -279.2431
  55   2.0000     -10.261397      -279.2268
  56   2.0000     -10.260601      -279.2051
  57   2.0000     -10.260284      -279.1965
  58   2.0000     -10.255530      -279.0671
  59   2.0000      -8.068539      -219.5561
  60   2.0000      -8.066770      -219.5080
  61   2.0000      -8.062462      -219.3907
  62   2.0000      -8.036678      -218.6891
  63   2.0000      -8.033426      -218.6006
  64   2.0000      -6.038219      -164.3083
  65   2.0000      -6.036153      -164.2521
  66   2.0000      -6.033841      -164.1891
  67   2.0000      -6.031942      -164.1375
  68   2.0000      -6.031336      -164.1210
  69   2.0000      -6.030000      -164.0846
  70   2.0000      -6.029424      -164.0690
  71   2.0000      -6.027734      -164.0230
  72   2.0000      -6.024493      -163.9348
  73   2.0000      -6.006426      -163.4432
  74   2.0000      -6.003166      -163.3544
  75   2.0000      -6.002427      -163.3343
  76   2.0000      -5.999138      -163.2448
  77   2.0000      -5.997736      -163.2067
  78   2.0000      -5.994420      -163.1165
  79   2.0000      -1.296593       -35.2821
  80   2.0000      -1.177867       -32.0514
  81   2.0000      -1.174710       -31.9655
  82   2.0000      -1.115020       -30.3412
  83   2.0000      -1.087874       -29.6026
  84   2.0000      -1.080659       -29.4062
  85   2.0000      -1.075852       -29.2754
  86   2.0000      -1.046485       -28.4763
  87   2.0000      -0.999663       -27.2022
  88   2.0000      -0.987429       -26.8693
  89   2.0000      -0.982323       -26.7304
  90   2.0000      -0.979926       -26.6652
  91   2.0000      -0.977603       -26.6019
  92   2.0000      -0.965044       -26.2602
  93   2.0000      -0.955107       -25.9898
  94   2.0000      -0.933166       -25.3927
  95   2.0000      -0.902495       -24.5581
  96   2.0000      -0.899297       -24.4711
  97   2.0000      -0.893047       -24.3010
  98   2.0000      -0.877795       -23.8860
  99   2.0000      -0.869012       -23.6470
 100   2.0000      -0.862033       -23.4571
 101   2.0000      -0.859570       -23.3901
 102   2.0000      -0.852144       -23.1880
 103   2.0000      -0.844945       -22.9921
 104   2.0000      -0.838253       -22.8100
 105   2.0000      -0.835693       -22.7404
 106   2.0000      -0.831666       -22.6308
 107   2.0000      -0.815966       -22.2036
 108   2.0000      -0.814656       -22.1679
 109   2.0000      -0.811949       -22.0943
 110   2.0000      -0.807282       -21.9673
 111   2.0000      -0.792790       -21.5729
 112   2.0000      -0.784226       -21.3399
 113   2.0000      -0.759867       -20.6770
 114   2.0000      -0.759130       -20.6570
 115   2.0000      -0.747011       -20.3272
 116   2.0000      -0.743578       -20.2338
 117   2.0000      -0.735522       -20.0146
 118   2.0000      -0.722949       -19.6724
 119   2.0000      -0.713194       -19.4070
 120   2.0000      -0.707167       -19.2430
 121   2.0000      -0.701338       -19.0844
 122   2.0000      -0.688351       -18.7310
 123   2.0000      -0.683784       -18.6067
 124   2.0000      -0.676340       -18.4042
 125   2.0000      -0.669883       -18.2284
 126   2.0000      -0.667108       -18.1529
 127   2.0000      -0.665401       -18.1065
 128   2.0000      -0.658176       -17.9099
 129   2.0000      -0.646037       -17.5796
 130   2.0000      -0.639827       -17.4106
 131   2.0000      -0.637538       -17.3483
 132   2.0000      -0.636338       -17.3156
 133   2.0000      -0.621288       -16.9061
 134   2.0000      -0.620782       -16.8923
 135   2.0000      -0.617127       -16.7929
 136   2.0000      -0.616387       -16.7727
 137   2.0000      -0.611363       -16.6360
 138   2.0000      -0.610893       -16.6233
 139   2.0000      -0.609864       -16.5953
 140   2.0000      -0.606126       -16.4935
 141   2.0000      -0.594651       -16.1813
 142   2.0000      -0.588367       -16.0103
 143   2.0000      -0.586829       -15.9684
 144   2.0000      -0.576173       -15.6785
 145   2.0000      -0.574075       -15.6214
 146   2.0000      -0.572226       -15.5711
 147   2.0000      -0.568316       -15.4647
 148   2.0000      -0.558637       -15.2013
 149   2.0000      -0.555405       -15.1133
 150   2.0000      -0.549158       -14.9433
 151   2.0000      -0.547387       -14.8951
 152   2.0000      -0.545965       -14.8565
 153   2.0000      -0.540996       -14.7212
 154   2.0000      -0.537682       -14.6311
 155   2.0000      -0.534623       -14.5478
 156   2.0000      -0.528663       -14.3857
 157   2.0000      -0.527389       -14.3510
 158   2.0000      -0.526477       -14.3262
 159   2.0000      -0.523632       -14.2488
 160   2.0000      -0.518437       -14.1074
 161   2.0000      -0.516107       -14.0440
 162   2.0000      -0.514410       -13.9978
 163   2.0000      -0.508659       -13.8413
 164   2.0000      -0.507285       -13.8039
 165   2.0000      -0.500480       -13.6187
 166   2.0000      -0.495568       -13.4851
 167   2.0000      -0.492471       -13.4008
 168   2.0000      -0.491888       -13.3849
 169   2.0000      -0.490875       -13.3574
 170   2.0000      -0.488061       -13.2808
 171   2.0000      -0.487405       -13.2630
 172   2.0000      -0.482799       -13.1376
 173   2.0000      -0.479568       -13.0497
 174   2.0000      -0.476252       -12.9595
 175   2.0000      -0.475428       -12.9370
 176   2.0000      -0.474233       -12.9045
 177   2.0000      -0.466767       -12.7014
 178   2.0000      -0.465131       -12.6568
 179   2.0000      -0.463301       -12.6071
 180   2.0000      -0.459287       -12.4978
 181   2.0000      -0.457769       -12.4565
 182   2.0000      -0.456465       -12.4210
 183   2.0000      -0.455006       -12.3813
 184   2.0000      -0.449537       -12.2325
 185   2.0000      -0.446729       -12.1561
 186   2.0000      -0.445283       -12.1168
 187   2.0000      -0.442556       -12.0426
 188   2.0000      -0.440525       -11.9873
 189   2.0000      -0.439076       -11.9479
 190   2.0000      -0.437862       -11.9148
 191   2.0000      -0.433643       -11.8000
 192   2.0000      -0.432345       -11.7647
 193   2.0000      -0.421032       -11.4569
 194   2.0000      -0.418988       -11.4012
 195   2.0000      -0.415656       -11.3106
 196   2.0000      -0.414669       -11.2837
 197   2.0000      -0.402553       -10.9540
 198   2.0000      -0.401709       -10.9310
 199   2.0000      -0.400628       -10.9016
 200   2.0000      -0.387148       -10.5348
 201   2.0000      -0.386165       -10.5081
 202   2.0000      -0.381830       -10.3901
 203   2.0000      -0.373811       -10.1719
 204   2.0000      -0.367245        -9.9932
 205   2.0000      -0.362803        -9.8724
 206   2.0000      -0.358385        -9.7522
 207   2.0000      -0.356828        -9.7098
 208   2.0000      -0.346870        -9.4388
 209   2.0000      -0.343616        -9.3503
 210   2.0000      -0.341759        -9.2997
 211   2.0000      -0.334240        -9.0951
 212   2.0000      -0.329012        -8.9529
 213   2.0000      -0.325593        -8.8598
 214   2.0000      -0.320060        -8.7093
 215   2.0000      -0.316759        -8.6195
 216   2.0000      -0.302131        -8.2214
 217   2.0000      -0.300615        -8.1802
 218   2.0000      -0.273112        -7.4318
 219   2.0000      -0.264945        -7.2095
 220   2.0000      -0.263681        -7.1751
 221   2.0000      -0.241702        -6.5771
 222   2.0000      -0.228159        -6.2085
 223   2.0000      -0.197479        -5.3737
 224   0.0000      -0.094592        -2.5740
 225   0.0000      -0.062590        -1.7031
 226   0.0000      -0.049859        -1.3567
 227   0.0000      -0.026511        -0.7214
 228   0.0000      -0.008902        -0.2422

MULLIKEN ATOMIC CHARGES
-----------------------
   0 C :   -0.145408
   1 S :    0.136951
   2 C :   -0.172903
   3 C :    0.093513
   4 C :    0.081788
   5 C :   -0.020246
   6 C :    0.129769
   7 O :   -0.207394
   8 O :   -0.182712
   9 C :    0.010724
  10 C :   -0.081273
  11 C :    0.159268
  12 O :   -0.214694
  13 N :   -0.008966
  14 C :   -0.109268
  15 S :    0.151372
  16 C :   -0.018024
  17 N :    0.278888
  18 O :   -0.271265
  19 O :   -0.278315
  20 C :    0.002628
  21 C :    0.126878
  22 C :   -0.098310
  23 C :    0.054721
  24 N :   -0.093754
  25 C :    0.136835
  26 C :   -0.193170
  27 S :    0.078681
  28 C :   -0.211865
  29 C :    0.122876
  30 N :   -0.050817
  31 C :    0.055076
  32 C :   -0.016810
  33 C :   -0.007625
  34 C :   -0.027947
  35 C :    0.037495
  36 C :    0.020006
  37 C :   -0.026785
  38 S :    0.007361
  39 C :   -0.030380
  40 C :    0.025262
  41 C :    0.032355
  42 C :   -0.017410
  43 S :    0.035252
  44 C :   -0.017557
  45 C :    0.060298
  46 C :   -0.045849
  47 C :    0.055565
  48 C :   -0.005487
  49 C :    0.062052
  50 C :   -0.032930
  51 C :    0.064157
  52 C :   -0.028556
  53 C :    0.047675
  54 C :   -0.001539
  55 C :    0.057734
  56 C :   -0.032206
  57 C :    0.005090
  58 C :   -0.014301
  59 H :    0.038940
  60 H :    0.186810
  61 H :    0.000888
  62 H :   -0.040108
  63 H :    0.194249
  64 H :    0.155982
  65 H :   -0.002811
  66 H :    0.001261
  67 H :    0.002467
  68 H :    0.128462
  69 H :    0.020543
  70 H :    0.027446
  71 H :    0.110811
  72 H :    0.029113
  73 H :   -0.030539
  74 H :   -0.016834
  75 H :   -0.016631
  76 H :   -0.018515
  77 H :   -0.018700
  78 H :   -0.017453
  79 H :   -0.030153
  80 H :   -0.020287
  81 H :   -0.036421
  82 H :   -0.031951
  83 H :   -0.032526
  84 H :   -0.028054
  85 H :   -0.024477
  86 H :   -0.024314
  87 H :    0.008078
  88 H :    0.018220
Sum of atomic charges:   -0.0000000

LOEWDIN ATOMIC CHARGES
----------------------
   0 C :   -0.218106
   1 S :    0.470327
   2 C :   -0.130609
   3 C :   -0.105770
   4 C :   -0.024978
   5 C :   -0.096574
   6 C :    0.090472
   7 O :   -0.189201
   8 O :   -0.048266
   9 C :    0.028933
  10 C :   -0.113656
  11 C :    0.085385
  12 O :   -0.047376
  13 N :    0.036051
  14 C :   -0.111486
  15 S :    0.450042
  16 C :   -0.222957
  17 N :    0.274330
  18 O :   -0.237040
  19 O :   -0.245477
  20 C :   -0.005471
  21 C :   -0.099110
  22 C :   -0.106695
  23 C :    0.032635
  24 N :    0.001505
  25 C :   -0.030572
  26 C :   -0.216099
  27 S :    0.416546
  28 C :   -0.234800
  29 C :   -0.022031
  30 N :    0.029984
  31 C :    0.035425
  32 C :   -0.105877
  33 C :   -0.050273
  34 C :   -0.163490
  35 C :   -0.028265
  36 C :   -0.050291
  37 C :   -0.176400
  38 S :    0.361667
  39 C :   -0.183999
  40 C :   -0.042080
  41 C :   -0.033636
  42 C :   -0.149497
  43 S :    0.373253
  44 C :   -0.056525
  45 C :   -0.065917
  46 C :   -0.011846
  47 C :   -0.055977
  48 C :    0.061595
  49 C :   -0.066318
  50 C :    0.032472
  51 C :   -0.062286
  52 C :    0.015489
  53 C :   -0.056947
  54 C :    0.071805
  55 C :   -0.066931
  56 C :    0.046020
  57 C :   -0.025847
  58 C :   -0.047382
  59 H :    0.028038
  60 H :    0.098103
  61 H :    0.036848
  62 H :    0.025862
  63 H :    0.091377
  64 H :    0.086216
  65 H :    0.039018
  66 H :    0.023553
  67 H :    0.026861
  68 H :    0.079745
  69 H :    0.020704
  70 H :    0.024474
  71 H :    0.079117
  72 H :    0.010361
  73 H :    0.023774
  74 H :    0.034171
  75 H :    0.031602
  76 H :    0.030275
  77 H :    0.030194
  78 H :    0.031295
  79 H :    0.031054
  80 H :    0.008419
  81 H :    0.030767
  82 H :    0.021582
  83 H :    0.021996
  84 H :    0.033855
  85 H :    0.024602
  86 H :    0.025875
  87 H :    0.018835
  88 H :    0.023547

  Mayer bond orders larger than 0.100000
B(  0-C ,  1-S ) :   1.1038 B(  0-C ,  4-C ) :   1.5375 B(  0-C , 59-H ) :   0.9421
B(  1-S ,  2-C ) :   1.1991 B(  2-C ,  3-C ) :   1.3035 B(  2-C , 13-N ) :   1.1871
B(  3-C ,  4-C ) :   1.2124 B(  3-C , 11-C ) :   1.1705 B(  4-C ,  5-C ) :   1.1497
B(  5-C ,  6-C ) :   0.9554 B(  5-C ,  9-C ) :   1.5183 B(  6-C ,  7-O ) :   2.1063
B(  6-C ,  8-O ) :   1.2728 B(  8-O , 60-H ) :   0.9435 B(  9-C , 10-C ) :   1.1902
B(  9-C , 61-H ) :   0.9843 B( 10-C , 11-C ) :   1.4553 B( 10-C , 62-H ) :   0.9891
B( 11-C , 12-O ) :   1.1766 B( 12-O , 63-H ) :   0.9265 B( 13-N , 14-C ) :   1.2271
B( 13-N , 64-H ) :   0.8593 B( 14-C , 15-S ) :   1.1304 B( 14-C , 21-C ) :   1.3475
B( 15-S , 16-C ) :   1.0711 B( 16-C , 17-N ) :   1.0021 B( 16-C , 20-C ) :   1.4455
B( 17-N , 18-O ) :   1.5120 B( 17-N , 19-O ) :   1.4973 B( 18-O , 19-O ) :   0.2451
B( 20-C , 21-C ) :   1.2787 B( 20-C , 65-H ) :   0.9984 B( 21-C , 22-C ) :   1.0741
B( 22-C , 23-C ) :   1.7479 B( 22-C , 66-H ) :   0.9502 B( 23-C , 24-N ) :   1.1337
B( 23-C , 67-H ) :   0.9652 B( 24-N , 25-C ) :   1.0702 B( 24-N , 68-H ) :   0.9238
B( 25-C , 26-C ) :   1.5410 B( 25-C , 29-C ) :   1.2489 B( 26-C , 27-S ) :   1.1372
B( 26-C , 69-H ) :   0.9711 B( 27-S , 28-C ) :   1.1240 B( 28-C , 29-C ) :   1.5268
B( 28-C , 70-H ) :   0.9707 B( 29-C , 30-N ) :   1.1321 B( 30-N , 31-C ) :   1.1643
B( 30-N , 71-H ) :   0.9162 B( 31-C , 32-C ) :   1.6061 B( 31-C , 72-H ) :   0.9504
B( 32-C , 33-C ) :   1.2135 B( 32-C , 73-H ) :   0.9636 B( 33-C , 34-C ) :   1.5890
B( 33-C , 74-H ) :   0.9609 B( 34-C , 35-C ) :   1.1531 B( 34-C , 38-S ) :   1.0183
B( 35-C , 36-C ) :   1.5901 B( 35-C , 75-H ) :   0.9968 B( 36-C , 37-C ) :   1.1884
B( 36-C , 76-H ) :   0.9924 B( 37-C , 38-S ) :   1.0367 B( 37-C , 39-C ) :   1.5120
B( 39-C , 40-C ) :   1.1872 B( 39-C , 43-S ) :   1.0326 B( 40-C , 41-C ) :   1.5886
B( 40-C , 77-H ) :   0.9936 B( 41-C , 42-C ) :   1.1441 B( 41-C , 78-H ) :   0.9979
B( 42-C , 43-S ) :   1.0309 B( 42-C , 44-C ) :   1.5761 B( 44-C , 45-C ) :   1.1336
B( 44-C , 79-H ) :   0.9691 B( 45-C , 46-C ) :   1.4449 B( 45-C , 56-C ) :   1.1257
B( 46-C , 47-C ) :   1.1299 B( 46-C , 80-H ) :   0.9932 B( 47-C , 48-C ) :   1.4381
B( 47-C , 55-C ) :   1.1343 B( 48-C , 49-C ) :   1.1362 B( 48-C , 81-H ) :   1.0020
B( 49-C , 50-C ) :   1.4115 B( 49-C , 53-C ) :   1.1325 B( 50-C , 51-C ) :   1.1517
B( 50-C , 82-H ) :   1.0116 B( 51-C , 52-C ) :   1.5106 B( 51-C , 57-C ) :   1.0739
B( 52-C , 53-C ) :   1.1019 B( 52-C , 83-H ) :   1.0108 B( 53-C , 54-C ) :   1.4580
B( 54-C , 55-C ) :   1.1204 B( 54-C , 84-H ) :   1.0040 B( 55-C , 56-C ) :   1.4296
B( 56-C , 85-H ) :   1.0152 B( 57-C , 58-C ) :   1.9484 B( 57-C , 86-H ) :   0.9651
B( 58-C , 87-H ) :   0.9523 B( 58-C , 88-H ) :   0.9483

-----------------------------------------------------------------------------
         ABSORPTION SPECTRUM VIA TRANSITION ELECTRIC DIPOLE MOMENTS
-----------------------------------------------------------------------------
State   Energy  Wavelength   fosc         T2         TX        TY        TZ
        (cm-1)    (nm)                  (au**2)     (au)      (au)      (au)
-----------------------------------------------------------------------------
   0    6059.3   1650.4   0.026844062   1.45849   0.92054   0.00418  -0.78172
   1   13903.3    719.3   0.210805132   4.99158  -1.98584   0.35928   0.95861
   2   15433.5    647.9   0.648076624  13.82409   3.43595  -0.91008  -1.09091
   3   19745.1    506.5   0.006450693   0.10755  -0.10053  -0.10416   0.29428
   4   21446.4    466.3   0.628504965   9.64784  -1.95865   1.50406   1.88397
   5   22463.7    445.2   0.126653703   1.85615   0.60597   0.22391  -1.19951
   6   23348.2    428.3   0.169797586   2.39416   0.12503  -0.76452   1.33942
   7   23610.9    423.5   0.019674154   0.27432  -0.31722   0.19803   0.36671
   8   24806.6    403.1   0.100447910   1.33306  -0.08958  -0.49615   1.03868
   9   26165.4    382.2   0.451089116   5.67558   0.34703  -1.13801   2.06400
  10   26243.5    381.0   0.103327282   1.29619   1.04035  -0.13996  -0.44076
  11   27270.2    366.7   0.128696298   1.55365   0.18083   0.48915  -1.13211
  12   27390.1    365.1   1.295833958  15.57512  -0.58646  -1.57412   3.57118
  13   28217.0    354.4   0.140169855   1.63538   0.20142   0.50279  -1.15845
  14   28937.3    345.6   0.015449232   0.17576  -0.12509  -0.13261   0.37753
  15   29467.2    339.4   0.026075248   0.29132  -0.26974   0.29072  -0.36611
  16   30361.0    329.4   0.047946008   0.51989  -0.48852   0.36939   0.38051
  17   31035.6    322.2   0.454685928   4.82310   0.85667  -1.12449   1.68070
  18   31491.6    317.5   0.060604985   0.63356   0.46933   0.17166  -0.61953
  19   31944.3    313.0   0.005627938   0.05800  -0.23453   0.05146   0.01865
  20   32182.6    310.7   0.053058414   0.54276   0.17569   0.11001   0.70696
  21   32484.6    307.8   0.000454216   0.00460   0.06630  -0.00691  -0.01265
  22   32947.0    303.5   0.005868222   0.05864   0.15166  -0.06121   0.17857
  23   33328.5    300.0   0.042234785   0.41719  -0.34336   0.33614  -0.43162
  24   33933.6    294.7   0.061371820   0.59541  -0.48750   0.35696  -0.47992
  25   34923.6    286.3   0.000512777   0.00483  -0.00662   0.06891   0.00646
  26   34930.3    286.3   0.001192664   0.01124  -0.09881   0.00853   0.03749
  27   35190.8    284.2   0.013520287   0.12648   0.08762   0.11990  -0.32316
  28   35768.5    279.6   0.022118763   0.20358  -0.26051  -0.05439   0.36435
  29   36113.4    276.9   0.002285947   0.02084  -0.13525   0.03645   0.03492
  30   36483.6    274.1   0.092039645   0.83052   0.17369  -0.48332   0.75283
  31   36677.3    272.6   0.027418590   0.24611  -0.14823   0.37937  -0.28322
  32   37443.3    267.1   0.134247964   1.18034   0.18662  -0.37969   1.00067
  33   37614.9    265.9   0.011627975   0.10177  -0.19191   0.17305   0.18706
  34   37725.3    265.1   0.095623021   0.83446  -0.36581  -0.10700   0.83018
  35   37886.4    263.9   0.000945819   0.00822   0.08721  -0.02127  -0.01270
  36   38036.4    262.9   0.041739517   0.36126  -0.53241   0.24788  -0.12791
  37   38305.9    261.1   0.239492318   2.05827   1.16070  -0.80959   0.23580
  38   38824.5    257.6   0.130372414   1.10549   0.71646  -0.63625   0.43286
  39   39010.4    256.3   0.023230399   0.19604  -0.18962  -0.00635   0.40006
  40   39347.4    254.1   0.017130883   0.14333   0.33871  -0.13491  -0.10201
  41   39555.3    252.8   0.144942292   1.20633  -0.94889   0.43583   0.34057
  42   40120.0    249.3   0.017778142   0.14588   0.33570   0.02235  -0.18080

FINAL SINGLE POINT ENERGY     -4315.193892406660

DIPOLE MOMENT
-------------
                                X             Y             Z
Electronic contribution:    -35.34121      20.29474     -19.66822
Nuclear contribution   :     37.54986     -22.38585      22.24822
                        -----------------------------------------
Total Dipole Moment    :      2.20866      -2.09110       2.58000
                        -----------------------------------------
Magnitude (a.u.)       :      3.98839
Magnitude (Debye)      :     10.13769

Rotational constants in cm-1:     0.001157     0.000569     0.000395
Rotational constants in MHz :    34.682706    17.068583    11.842904

                             ****ORCA TERMINATED NORMALLY****
TOTAL RUN TIME: 0 days 0 hours 8 minutes 44 seconds 236 msec
