                         Program Version 4.2.0 -  RELEASE  -
|  1> # ORCA input file
|  2> # SCF done       -192.411925708484          0.000408064131
|  3> ! CAM-B3LYP def2-SVP def2/J RIJCOSX Grid4 TightSCF
|  4> %maxcore 5000
|  5> %tddft
|  6>     Mode sTDDFT
|  7>     Ethresh 5.0
|  8>     maxcore 5000
|  9> end
| 10>
| 11> %pal
| 12>   nprocs 6
| 13>   end
| 14> * xyz 0 1
| 15>    C       -1.91673       -11.20585       -12.79464
| 16>    S       -2.92241       -12.17179       -11.79562
| 17>    C       -2.10746       -11.66111       -10.32558
| 18>    C       -1.09305       -10.77010       -10.64927
| 19>    C       -1.00311       -10.52564       -12.05127
| 20>    C        0.03468        -9.59526       -12.47823
| 21>    O        0.31351        -9.22601       -13.58039
| 22>    S        0.89592        -9.04424       -10.99368
| 23>    C       -0.11910       -10.04298        -9.86147
| 24>    O        0.07981       -10.01990        -8.67909
| 25>    C       -2.60047       -12.20827        -9.10949
| 26>    C       -2.11729       -11.94749        -7.87423
| 27>    C       -2.61701       -12.47124        -6.63094
| 28>    C       -2.00666       -12.02586        -5.44441
| 29>    C       -2.45676       -12.48152        -4.23165
| 30>    C       -3.52681       -13.39084        -4.16435
| 31>    C       -4.13626       -13.84323        -5.32776
| 32>    C       -3.68043       -13.38300        -6.54491
| 33>    C       -3.77444       -13.70622        -2.77555
| 34>    C       -2.85649       -12.99449        -1.98192
| 35>    C       -1.99130       -12.10126        -2.84202
| 36>    C       -2.34064       -10.60554        -2.65059
| 37>    C       -2.14006       -10.04729        -1.24795
| 38>    C       -0.49275       -12.36391        -2.63661
| 39>    C       -0.11413       -13.81233        -2.92458
| 40>    C       -2.82596       -13.18026        -0.62071
| 41>    C       -3.74986       -14.04238        -0.01394
| 42>    C       -4.68521       -14.70725        -0.81613
| 43>    C       -4.69595       -14.56108        -2.18824
| 44>    C       -3.77941       -14.26165         1.41946
| 45>    C       -2.80961       -13.94247         2.28637
| 46>    C       -2.92953       -14.14582         3.72758
| 47>    C       -1.93538       -14.67696         4.56566
| 48>    N       -0.68188       -15.19036         4.29063
| 49>    C        0.01263       -15.10917         3.02980
| 50>    C       -0.43535       -16.18721         2.04443
| 51>    C       -0.12946       -15.67297         5.45836
| 52>    C       -1.01637       -15.41184         6.52738
| 53>    C       -2.18415       -14.81281         5.95337
| 54>    C       -3.38502       -14.41592         6.52324
| 55>    C       -4.36079       -13.89957         5.69660
| 56>    C       -4.13195       -13.78082         4.33342
| 57>    C       -0.67659       -15.70767         7.83968
| 58>    C        0.56704       -16.25681         8.08294
| 59>    C        1.42731       -16.54750         7.03570
| 60>    C        1.10593       -16.30273         5.69667
| 61>    C        1.99981       -16.78301         4.66309
| 62>    C        3.35087       -16.80290         4.76409
| 63>    C        4.20037       -17.36480         3.78779
| 64>    C        5.56774       -17.35291         3.85579
| 65>    C        6.47897       -17.92156         2.93058
| 66>    C        7.78982       -17.75620         3.25848
| 67>    C        7.99730       -17.03946         4.45770
| 68>    S        6.45973       -16.59159         5.16822
| 69>    C        9.19705       -16.68903         5.04417
| 70>    C       10.50501       -16.98565         4.59955
| 71>    C       11.48504       -16.48233         5.39823
| 72>    C       11.01826       -15.75145         6.52114
| 73>    S        9.26004       -15.74836         6.51844
| 74>    C       11.80931       -15.13460         7.45375
| 75>    C       11.41531       -14.37133         8.57485
| 76>    C       10.13881       -14.04936         9.03954
| 77>    C       10.26862       -13.23952        10.19698
| 78>    C        9.32694       -12.65940        11.01599
| 79>    C        9.78635       -11.89146        12.09940
| 80>    C        9.11235       -11.18730        13.08501
| 81>    C       10.06360       -10.56726        13.95610
| 82>    C       11.33012       -10.89141        13.50673
| 83>    C       11.20697       -11.71880        12.34640
| 84>    C       12.14705       -12.29601        11.53603
| 85>    C       11.68873       -13.06608        10.44523
| 86>    C       12.36696       -13.75559         9.46017
| 87>    C        9.69009        -9.75486        15.08972
| 88>    C       10.53463        -9.14922        15.92017
| 89>    H       -2.04981       -11.18977       -13.85789
| 90>    H       -3.43835       -12.88037        -9.23970
| 91>    H       -1.28000       -11.27112        -7.78180
| 92>    H       -1.18653       -11.32567        -5.50880
| 93>    H       -4.95608       -14.54452        -5.28101
| 94>    H       -4.15430       -13.73632        -7.44757
| 95>    H       -3.38775       -10.46823        -2.93383
| 96>    H       -1.73197       -10.03214        -3.35319
| 97>    H       -2.80433       -10.53189        -0.53755
| 98>    H       -2.36825        -8.98356        -1.25024
| 99>    H       -1.11274       -10.16849        -0.91456
|100>    H       -0.22506       -12.12459        -1.60655
|101>    H        0.07482       -11.70192        -3.29355
|102>    H       -0.66466       -14.48893        -2.27393
|103>    H        0.95022       -13.96232        -2.75799
|104>    H       -0.34039       -14.07090        -3.95660
|105>    H       -2.09947       -12.66236        -0.01496
|106>    H       -5.40135       -15.36504        -0.34407
|107>    H       -5.40854       -15.10292        -2.79223
|108>    H       -4.66226       -14.76720         1.79109
|109>    H       -1.90247       -13.48390         1.92349
|110>    H        1.08194       -15.20362         3.23466
|111>    H       -0.14451       -14.11799         2.59943
|112>    H       -0.29420       -17.17752         2.47163
|113>    H        0.14236       -16.11501         1.12633
|114>    H       -1.48902       -16.06819         1.80335
|115>    H       -3.54675       -14.52125         7.58484
|116>    H       -5.30930       -13.58384         6.10439
|117>    H       -4.90462       -13.35824         3.70801
|118>    H       -1.36634       -15.50370         8.64398
|119>    H        0.86906       -16.48654         9.09377
|120>    H        2.36782       -17.03145         7.25150
|121>    H        1.54876       -17.21730         3.78078
|122>    H        3.83168       -16.34626         5.61965
|123>    H        3.74782       -17.84601         2.92996
|124>    H        6.13149       -18.43750         2.05249
|125>    H        8.61146       -18.12427         2.67007
|126>    H       10.68536       -17.55959         3.70819
|127>    H       12.53852       -16.60697         5.21661
|128>    H       12.87774       -15.23777         7.30402
|129>    H        9.20331       -14.35055         8.60969
|130>    H        8.26835       -12.78358        10.83683
|131>    H        8.04457       -11.10894        13.19106
|132>    H       12.26377       -10.58485        13.93983
|133>    H       13.20684       -12.17247        11.71212
|134>    H       13.43496       -13.83014         9.35259
|135>    H        8.62308        -9.65020        15.24556
|136>    H       11.60219        -9.22284        15.80329
|137>    H       10.18497        -8.55545        16.74691
|138> *
|139>
|140>                          ****END OF INPUT****

CARTESIAN COORDINATES (ANGSTROEM)
---------------------------------
  C     -1.916730  -11.205850  -12.794640
  S     -2.922410  -12.171790  -11.795620
  C     -2.107460  -11.661110  -10.325580
  C     -1.093050  -10.770100  -10.649270
  C     -1.003110  -10.525640  -12.051270
  C      0.034680   -9.595260  -12.478230
  O      0.313510   -9.226010  -13.580390
  S      0.895920   -9.044240  -10.993680
  C     -0.119100  -10.042980   -9.861470
  O      0.079810  -10.019900   -8.679090
  C     -2.600470  -12.208270   -9.109490
  C     -2.117290  -11.947490   -7.874230
  C     -2.617010  -12.471240   -6.630940
  C     -2.006660  -12.025860   -5.444410
  C     -2.456760  -12.481520   -4.231650
  C     -3.526810  -13.390840   -4.164350
  C     -4.136260  -13.843230   -5.327760
  C     -3.680430  -13.383000   -6.544910
  C     -3.774440  -13.706220   -2.775550
  C     -2.856490  -12.994490   -1.981920
  C     -1.991300  -12.101260   -2.842020
  C     -2.340640  -10.605540   -2.650590
  C     -2.140060  -10.047290   -1.247950
  C     -0.492750  -12.363910   -2.636610
  C     -0.114130  -13.812330   -2.924580
  C     -2.825960  -13.180260   -0.620710
  C     -3.749860  -14.042380   -0.013940
  C     -4.685210  -14.707250   -0.816130
  C     -4.695950  -14.561080   -2.188240
  C     -3.779410  -14.261650    1.419460
  C     -2.809610  -13.942470    2.286370
  C     -2.929530  -14.145820    3.727580
  C     -1.935380  -14.676960    4.565660
  N     -0.681880  -15.190360    4.290630
  C      0.012630  -15.109170    3.029800
  C     -0.435350  -16.187210    2.044430
  C     -0.129460  -15.672970    5.458360
  C     -1.016370  -15.411840    6.527380
  C     -2.184150  -14.812810    5.953370
  C     -3.385020  -14.415920    6.523240
  C     -4.360790  -13.899570    5.696600
  C     -4.131950  -13.780820    4.333420
  C     -0.676590  -15.707670    7.839680
  C      0.567040  -16.256810    8.082940
  C      1.427310  -16.547500    7.035700
  C      1.105930  -16.302730    5.696670
  C      1.999810  -16.783010    4.663090
  C      3.350870  -16.802900    4.764090
  C      4.200370  -17.364800    3.787790
  C      5.567740  -17.352910    3.855790
  C      6.478970  -17.921560    2.930580
  C      7.789820  -17.756200    3.258480
  C      7.997300  -17.039460    4.457700
  S      6.459730  -16.591590    5.168220
  C      9.197050  -16.689030    5.044170
  C     10.505010  -16.985650    4.599550
  C     11.485040  -16.482330    5.398230
  C     11.018260  -15.751450    6.521140
  S      9.260040  -15.748360    6.518440
  C     11.809310  -15.134600    7.453750
  C     11.415310  -14.371330    8.574850
  C     10.138810  -14.049360    9.039540
  C     10.268620  -13.239520   10.196980
  C      9.326940  -12.659400   11.015990
  C      9.786350  -11.891460   12.099400
  C      9.112350  -11.187300   13.085010
  C     10.063600  -10.567260   13.956100
  C     11.330120  -10.891410   13.506730
  C     11.206970  -11.718800   12.346400
  C     12.147050  -12.296010   11.536030
  C     11.688730  -13.066080   10.445230
  C     12.366960  -13.755590    9.460170
  C      9.690090   -9.754860   15.089720
  C     10.534630   -9.149220   15.920170
  H     -2.049810  -11.189770  -13.857890
  H     -3.438350  -12.880370   -9.239700
  H     -1.280000  -11.271120   -7.781800
  H     -1.186530  -11.325670   -5.508800
  H     -4.956080  -14.544520   -5.281010
  H     -4.154300  -13.736320   -7.447570
  H     -3.387750  -10.468230   -2.933830
  H     -1.731970  -10.032140   -3.353190
  H     -2.804330  -10.531890   -0.537550
  H     -2.368250   -8.983560   -1.250240
  H     -1.112740  -10.168490   -0.914560
  H     -0.225060  -12.124590   -1.606550
  H      0.074820  -11.701920   -3.293550
  H     -0.664660  -14.488930   -2.273930
  H      0.950220  -13.962320   -2.757990
  H     -0.340390  -14.070900   -3.956600
  H     -2.099470  -12.662360   -0.014960
  H     -5.401350  -15.365040   -0.344070
  H     -5.408540  -15.102920   -2.792230
  H     -4.662260  -14.767200    1.791090
  H     -1.902470  -13.483900    1.923490
  H      1.081940  -15.203620    3.234660
  H     -0.144510  -14.117990    2.599430
  H     -0.294200  -17.177520    2.471630
  H      0.142360  -16.115010    1.126330
  H     -1.489020  -16.068190    1.803350
  H     -3.546750  -14.521250    7.584840
  H     -5.309300  -13.583840    6.104390
  H     -4.904620  -13.358240    3.708010
  H     -1.366340  -15.503700    8.643980
  H      0.869060  -16.486540    9.093770
  H      2.367820  -17.031450    7.251500
  H      1.548760  -17.217300    3.780780
  H      3.831680  -16.346260    5.619650
  H      3.747820  -17.846010    2.929960
  H      6.131490  -18.437500    2.052490
  H      8.611460  -18.124270    2.670070
  H     10.685360  -17.559590    3.708190
  H     12.538520  -16.606970    5.216610
  H     12.877740  -15.237770    7.304020
  H      9.203310  -14.350550    8.609690
  H      8.268350  -12.783580   10.836830
  H      8.044570  -11.108940   13.191060
  H     12.263770  -10.584850   13.939830
  H     13.206840  -12.172470   11.712120
  H     13.434960  -13.830140    9.352590
  H      8.623080   -9.650200   15.245560
  H     11.602190   -9.222840   15.803290
  H     10.184970   -8.555450   16.746910

 Total Charge           Charge          ....    0
 Multiplicity           Mult            ....    1
 Number of Electrons    NEL             ....  538
 Basis Dimension        Dim             .... 1297

ORBITAL ENERGIES
----------------

  NO   OCC          E(Eh)            E(eV)
   0   2.0000     -88.979856     -2421.2650
   1   2.0000     -88.935480     -2420.0574
   2   2.0000     -88.933480     -2420.0030
   3   2.0000     -88.932586     -2419.9787
   4   2.0000     -19.226370      -523.1761
   5   2.0000     -19.221983      -523.0567
   6   2.0000     -14.444926      -393.0664
   7   2.0000     -10.391654      -282.7713
   8   2.0000     -10.387119      -282.6479
   9   2.0000     -10.335276      -281.2372
  10   2.0000     -10.320693      -280.8403
  11   2.0000     -10.304966      -280.4124
  12   2.0000     -10.299950      -280.2759
  13   2.0000     -10.299553      -280.2651
  14   2.0000     -10.298828      -280.2453
  15   2.0000     -10.297241      -280.2022
  16   2.0000     -10.297079      -280.1978
  17   2.0000     -10.297013      -280.1960
  18   2.0000     -10.295677      -280.1596
  19   2.0000     -10.294640      -280.1314
  20   2.0000     -10.293598      -280.1030
  21   2.0000     -10.291132      -280.0360
  22   2.0000     -10.286614      -279.9130
  23   2.0000     -10.283024      -279.8153
  24   2.0000     -10.279582      -279.7217
  25   2.0000     -10.279551      -279.7208
  26   2.0000     -10.279124      -279.7092
  27   2.0000     -10.278958      -279.7047
  28   2.0000     -10.276709      -279.6435
  29   2.0000     -10.276609      -279.6407
  30   2.0000     -10.275914      -279.6218
  31   2.0000     -10.275601      -279.6133
  32   2.0000     -10.275044      -279.5982
  33   2.0000     -10.274837      -279.5925
  34   2.0000     -10.274529      -279.5842
  35   2.0000     -10.273949      -279.5684
  36   2.0000     -10.272204      -279.5209
  37   2.0000     -10.271468      -279.5009
  38   2.0000     -10.271300      -279.4963
  39   2.0000     -10.271277      -279.4957
  40   2.0000     -10.270632      -279.4781
  41   2.0000     -10.270063      -279.4626
  42   2.0000     -10.269566      -279.4491
  43   2.0000     -10.269312      -279.4422
  44   2.0000     -10.269274      -279.4411
  45   2.0000     -10.269066      -279.4355
  46   2.0000     -10.268879      -279.4304
  47   2.0000     -10.268368      -279.4165
  48   2.0000     -10.268235      -279.4129
  49   2.0000     -10.268029      -279.4073
  50   2.0000     -10.266985      -279.3789
  51   2.0000     -10.266306      -279.3604
  52   2.0000     -10.263508      -279.2843
  53   2.0000     -10.263474      -279.2833
  54   2.0000     -10.263437      -279.2823
  55   2.0000     -10.263259      -279.2775
  56   2.0000     -10.263042      -279.2716
  57   2.0000     -10.260883      -279.2128
  58   2.0000     -10.260392      -279.1995
  59   2.0000     -10.259770      -279.1825
  60   2.0000     -10.258782      -279.1557
  61   2.0000     -10.258448      -279.1466
  62   2.0000     -10.257987      -279.1340
  63   2.0000     -10.257981      -279.1339
  64   2.0000     -10.257255      -279.1141
  65   2.0000     -10.257042      -279.1083
  66   2.0000     -10.256778      -279.1011
  67   2.0000     -10.256482      -279.0931
  68   2.0000     -10.254994      -279.0526
  69   2.0000     -10.252745      -278.9914
  70   2.0000     -10.252369      -278.9812
  71   2.0000     -10.251519      -278.9580
  72   2.0000     -10.250709      -278.9360
  73   2.0000     -10.247773      -278.8561
  74   2.0000      -8.075684      -219.7505
  75   2.0000      -8.031497      -218.5481
  76   2.0000      -8.031270      -218.5420
  77   2.0000      -8.029789      -218.5017
  78   2.0000      -6.044946      -164.4914
  79   2.0000      -6.040455      -164.3691
  80   2.0000      -6.038152      -164.3065
  81   2.0000      -6.001016      -163.2959
  82   2.0000      -6.000502      -163.2820
  83   2.0000      -5.999553      -163.2561
  84   2.0000      -5.997028      -163.1874
  85   2.0000      -5.996974      -163.1860
  86   2.0000      -5.995590      -163.1483
  87   2.0000      -5.992591      -163.0667
  88   2.0000      -5.992263      -163.0578
  89   2.0000      -5.990587      -163.0122
  90   2.0000      -1.149138       -31.2696
  91   2.0000      -1.143443       -31.1147
  92   2.0000      -1.073290       -29.2057
  93   2.0000      -1.009378       -27.4666
  94   2.0000      -0.988189       -26.8900
  95   2.0000      -0.984769       -26.7969
  96   2.0000      -0.979273       -26.6474
  97   2.0000      -0.963013       -26.2049
  98   2.0000      -0.952330       -25.9142
  99   2.0000      -0.948702       -25.8155
 100   2.0000      -0.939204       -25.5570
 101   2.0000      -0.937502       -25.5107
 102   2.0000      -0.927431       -25.2367
 103   2.0000      -0.920402       -25.0454
 104   2.0000      -0.903779       -24.5931
 105   2.0000      -0.897836       -24.4314
 106   2.0000      -0.893775       -24.3209
 107   2.0000      -0.888535       -24.1783
 108   2.0000      -0.877388       -23.8749
 109   2.0000      -0.866874       -23.5888
 110   2.0000      -0.861804       -23.4509
 111   2.0000      -0.856451       -23.3052
 112   2.0000      -0.851291       -23.1648
 113   2.0000      -0.842436       -22.9238
 114   2.0000      -0.840717       -22.8771
 115   2.0000      -0.836792       -22.7703
 116   2.0000      -0.834554       -22.7094
 117   2.0000      -0.832587       -22.6559
 118   2.0000      -0.831733       -22.6326
 119   2.0000      -0.830468       -22.5982
 120   2.0000      -0.820177       -22.3182
 121   2.0000      -0.816787       -22.2259
 122   2.0000      -0.810821       -22.0636
 123   2.0000      -0.800057       -21.7707
 124   2.0000      -0.796436       -21.6721
 125   2.0000      -0.789787       -21.4912
 126   2.0000      -0.778977       -21.1970
 127   2.0000      -0.777279       -21.1508
 128   2.0000      -0.764570       -20.8050
 129   2.0000      -0.752334       -20.4720
 130   2.0000      -0.747711       -20.3463
 131   2.0000      -0.740593       -20.1526
 132   2.0000      -0.735979       -20.0270
 133   2.0000      -0.724790       -19.7225
 134   2.0000      -0.720222       -19.5982
 135   2.0000      -0.708776       -19.2868
 136   2.0000      -0.702287       -19.1102
 137   2.0000      -0.697130       -18.9699
 138   2.0000      -0.692086       -18.8326
 139   2.0000      -0.690458       -18.7883
 140   2.0000      -0.688071       -18.7234
 141   2.0000      -0.686455       -18.6794
 142   2.0000      -0.674749       -18.3608
 143   2.0000      -0.672791       -18.3076
 144   2.0000      -0.663056       -18.0427
 145   2.0000      -0.661989       -18.0136
 146   2.0000      -0.656291       -17.8586
 147   2.0000      -0.653858       -17.7924
 148   2.0000      -0.645513       -17.5653
 149   2.0000      -0.640334       -17.4244
 150   2.0000      -0.635094       -17.2818
 151   2.0000      -0.634380       -17.2624
 152   2.0000      -0.628288       -17.0966
 153   2.0000      -0.620413       -16.8823
 154   2.0000      -0.617420       -16.8009
 155   2.0000      -0.613195       -16.6859
 156   2.0000      -0.604737       -16.4557
 157   2.0000      -0.602201       -16.3867
 158   2.0000      -0.597876       -16.2690
 159   2.0000      -0.594252       -16.1704
 160   2.0000      -0.591314       -16.0905
 161   2.0000      -0.585966       -15.9449
 162   2.0000      -0.583254       -15.8712
 163   2.0000      -0.578548       -15.7431
 164   2.0000      -0.573041       -15.5932
 165   2.0000      -0.572412       -15.5761
 166   2.0000      -0.568030       -15.4569
 167   2.0000      -0.566056       -15.4032
 168   2.0000      -0.557100       -15.1595
 169   2.0000      -0.550797       -14.9880
 170   2.0000      -0.550308       -14.9746
 171   2.0000      -0.545984       -14.8570
 172   2.0000      -0.542376       -14.7588
 173   2.0000      -0.541835       -14.7441
 174   2.0000      -0.539556       -14.6821
 175   2.0000      -0.533245       -14.5103
 176   2.0000      -0.532838       -14.4993
 177   2.0000      -0.531296       -14.4573
 178   2.0000      -0.529654       -14.4126
 179   2.0000      -0.524929       -14.2841
 180   2.0000      -0.523591       -14.2476
 181   2.0000      -0.522425       -14.2159
 182   2.0000      -0.521581       -14.1929
 183   2.0000      -0.520143       -14.1538
 184   2.0000      -0.517543       -14.0831
 185   2.0000      -0.517171       -14.0729
 186   2.0000      -0.514892       -14.0109
 187   2.0000      -0.507906       -13.8208
 188   2.0000      -0.506533       -13.7835
 189   2.0000      -0.502725       -13.6798
 190   2.0000      -0.501091       -13.6354
 191   2.0000      -0.497212       -13.5298
 192   2.0000      -0.495206       -13.4752
 193   2.0000      -0.492860       -13.4114
 194   2.0000      -0.492147       -13.3920
 195   2.0000      -0.489601       -13.3227
 196   2.0000      -0.489336       -13.3155
 197   2.0000      -0.486629       -13.2419
 198   2.0000      -0.486074       -13.2268
 199   2.0000      -0.484779       -13.1915
 200   2.0000      -0.483202       -13.1486
 201   2.0000      -0.476936       -12.9781
 202   2.0000      -0.476595       -12.9688
 203   2.0000      -0.475733       -12.9454
 204   2.0000      -0.470687       -12.8080
 205   2.0000      -0.469765       -12.7830
 206   2.0000      -0.466143       -12.6844
 207   2.0000      -0.464098       -12.6287
 208   2.0000      -0.462425       -12.5832
 209   2.0000      -0.460716       -12.5367
 210   2.0000      -0.459612       -12.5067
 211   2.0000      -0.459122       -12.4933
 212   2.0000      -0.455386       -12.3917
 213   2.0000      -0.454310       -12.3624
 214   2.0000      -0.452773       -12.3206
 215   2.0000      -0.451856       -12.2956
 216   2.0000      -0.450100       -12.2479
 217   2.0000      -0.445652       -12.1268
 218   2.0000      -0.443668       -12.0728
 219   2.0000      -0.442859       -12.0508
 220   2.0000      -0.440307       -11.9814
 221   2.0000      -0.438662       -11.9366
 222   2.0000      -0.438026       -11.9193
 223   2.0000      -0.433441       -11.7945
 224   2.0000      -0.431717       -11.7476
 225   2.0000      -0.431282       -11.7358
 226   2.0000      -0.429461       -11.6862
 227   2.0000      -0.423635       -11.5277
 228   2.0000      -0.422729       -11.5030
 229   2.0000      -0.421918       -11.4810
 230   2.0000      -0.421059       -11.4576
 231   2.0000      -0.419473       -11.4144
 232   2.0000      -0.416187       -11.3250
 233   2.0000      -0.413993       -11.2653
 234   2.0000      -0.410056       -11.1582
 235   2.0000      -0.406929       -11.0731
 236   2.0000      -0.404917       -11.0183
 237   2.0000      -0.403421       -10.9776
 238   2.0000      -0.399349       -10.8668
 239   2.0000      -0.397835       -10.8256
 240   2.0000      -0.392472       -10.6797
 241   2.0000      -0.387736       -10.5508
 242   2.0000      -0.385666       -10.4945
 243   2.0000      -0.384405       -10.4602
 244   2.0000      -0.381893       -10.3918
 245   2.0000      -0.380268       -10.3476
 246   2.0000      -0.376180       -10.2364
 247   2.0000      -0.360757        -9.8167
 248   2.0000      -0.359479        -9.7819
 249   2.0000      -0.351146        -9.5552
 250   2.0000      -0.349963        -9.5230
 251   2.0000      -0.347700        -9.4614
 252   2.0000      -0.337594        -9.1864
 253   2.0000      -0.331193        -9.0122
 254   2.0000      -0.329753        -8.9730
 255   2.0000      -0.326327        -8.8798
 256   2.0000      -0.324510        -8.8304
 257   2.0000      -0.320307        -8.7160
 258   2.0000      -0.315022        -8.5722
 259   2.0000      -0.314251        -8.5512
 260   2.0000      -0.310066        -8.4373
 261   2.0000      -0.291721        -7.9381
 262   2.0000      -0.283437        -7.7127
 263   2.0000      -0.267333        -7.2745
 264   2.0000      -0.261554        -7.1172
 265   2.0000      -0.259185        -7.0528
 266   2.0000      -0.246200        -6.6994
 267   2.0000      -0.237271        -6.4565
 268   2.0000      -0.195427        -5.3178
 269   0.0000      -0.091669        -2.4944
 270   0.0000      -0.063407        -1.7254
 271   0.0000      -0.062447        -1.6993
 272   0.0000      -0.032094        -0.8733
 273   0.0000      -0.018912        -0.5146

MULLIKEN ATOMIC CHARGES
-----------------------
   0 C :   -0.106307
   1 S :    0.146908
   2 C :   -0.134940
   3 C :    0.079062
   4 C :    0.056872
   5 C :    0.055184
   6 O :   -0.132573
   7 S :   -0.023287
   8 C :    0.045474
   9 O :   -0.150716
  10 C :    0.066733
  11 C :   -0.009886
  12 C :    0.112783
  13 C :   -0.108569
  14 C :    0.026539
  15 C :    0.105645
  16 C :   -0.047916
  17 C :   -0.010357
  18 C :    0.101217
  19 C :    0.022426
  20 C :   -0.137574
  21 C :    0.078469
  22 C :    0.027427
  23 C :    0.052287
  24 C :    0.023549
  25 C :   -0.095717
  26 C :    0.115523
  27 C :   -0.019360
  28 C :   -0.051808
  29 C :    0.000874
  30 C :   -0.048683
  31 C :    0.033146
  32 C :    0.110265
  33 N :   -0.194014
  34 C :    0.097840
  35 C :    0.017508
  36 C :    0.091677
  37 C :    0.065989
  38 C :    0.058363
  39 C :   -0.050922
  40 C :    0.034378
  41 C :   -0.051527
  42 C :   -0.049046
  43 C :    0.031388
  44 C :   -0.046015
  45 C :    0.050404
  46 C :   -0.063805
  47 C :    0.007225
  48 C :   -0.025739
  49 C :   -0.011618
  50 C :    0.031090
  51 C :    0.026689
  52 C :   -0.049326
  53 S :    0.061764
  54 C :   -0.034223
  55 C :    0.023020
  56 C :    0.034118
  57 C :   -0.019163
  58 S :    0.050226
  59 C :   -0.019912
  60 C :    0.059218
  61 C :   -0.042289
  62 C :    0.052333
  63 C :   -0.003211
  64 C :    0.057592
  65 C :   -0.030799
  66 C :    0.062198
  67 C :   -0.027369
  68 C :    0.050045
  69 C :   -0.004052
  70 C :    0.058350
  71 C :   -0.035668
  72 C :    0.007324
  73 C :   -0.018638
  74 H :    0.045694
  75 H :   -0.026886
  76 H :   -0.001053
  77 H :   -0.021805
  78 H :   -0.034701
  79 H :   -0.030321
  80 H :    0.004900
  81 H :    0.000022
  82 H :    0.024207
  83 H :    0.014469
  84 H :    0.002872
  85 H :    0.003502
  86 H :    0.002658
  87 H :    0.018643
  88 H :    0.009659
  89 H :    0.020656
  90 H :   -0.043281
  91 H :   -0.030148
  92 H :   -0.035921
  93 H :   -0.016485
  94 H :   -0.002550
  95 H :    0.035301
  96 H :    0.007809
  97 H :    0.020317
  98 H :    0.017446
  99 H :    0.030874
 100 H :   -0.035295
 101 H :   -0.027841
 102 H :   -0.027266
 103 H :   -0.035822
 104 H :   -0.026496
 105 H :   -0.025960
 106 H :   -0.010660
 107 H :    0.002671
 108 H :   -0.022753
 109 H :   -0.017525
 110 H :   -0.016431
 111 H :   -0.019270
 112 H :   -0.016740
 113 H :   -0.028471
 114 H :   -0.013039
 115 H :   -0.025694
 116 H :   -0.023953
 117 H :   -0.032540
 118 H :   -0.027049
 119 H :   -0.024725
 120 H :   -0.021688
 121 H :    0.008552
 122 H :    0.018021
Sum of atomic charges:   -0.0000000

LOEWDIN ATOMIC CHARGES
----------------------
   0 C :   -0.142641
   1 S :    0.470332
   2 C :   -0.108569
   3 C :   -0.133768
   4 C :   -0.115624
   5 C :   -0.047586
   6 O :   -0.129768
   7 S :    0.275625
   8 C :   -0.035720
   9 O :   -0.136805
  10 C :   -0.073186
  11 C :    0.029749
  12 C :   -0.034723
  13 C :   -0.007813
  14 C :    0.003214
  15 C :   -0.007553
  16 C :   -0.019890
  17 C :   -0.008354
  18 C :   -0.021192
  19 C :    0.006837
  20 C :   -0.034681
  21 C :   -0.008958
  22 C :   -0.059646
  23 C :   -0.015399
  24 C :   -0.057043
  25 C :   -0.020989
  26 C :   -0.022588
  27 C :   -0.020117
  28 C :   -0.018030
  29 C :   -0.020508
  30 C :   -0.018000
  31 C :   -0.054889
  32 C :    0.033082
  33 N :    0.020025
  34 C :    0.039102
  35 C :   -0.063701
  36 C :    0.034207
  37 C :   -0.043802
  38 C :   -0.039978
  39 C :   -0.013546
  40 C :   -0.046179
  41 C :   -0.017905
  42 C :   -0.013206
  43 C :   -0.046344
  44 C :   -0.013344
  45 C :   -0.057341
  46 C :   -0.024720
  47 C :   -0.034768
  48 C :   -0.062194
  49 C :   -0.145398
  50 C :   -0.038417
  51 C :   -0.032468
  52 C :   -0.181857
  53 S :    0.358599
  54 C :   -0.178848
  55 C :   -0.044812
  56 C :   -0.030676
  57 C :   -0.152336
  58 S :    0.378407
  59 C :   -0.051304
  60 C :   -0.068713
  61 C :   -0.003601
  62 C :   -0.058062
  63 C :    0.068383
  64 C :   -0.067536
  65 C :    0.037945
  66 C :   -0.062824
  67 C :    0.017662
  68 C :   -0.057645
  69 C :    0.072032
  70 C :   -0.067567
  71 C :    0.043919
  72 C :   -0.025040
  73 C :   -0.048806
  74 H :    0.037316
  75 H :    0.022576
  76 H :    0.030496
  77 H :    0.030118
  78 H :    0.027187
  79 H :    0.024946
  80 H :    0.026670
  81 H :    0.021354
  82 H :    0.025067
  83 H :    0.028584
  84 H :    0.019589
  85 H :    0.018795
  86 H :    0.022171
  87 H :    0.024238
  88 H :    0.023821
  89 H :    0.025340
  90 H :    0.021471
  91 H :    0.026271
  92 H :    0.026418
  93 H :    0.028219
  94 H :    0.020940
  95 H :    0.034378
  96 H :    0.021998
  97 H :    0.023543
  98 H :    0.028736
  99 H :    0.029898
 100 H :    0.026386
 101 H :    0.024941
 102 H :    0.026096
 103 H :    0.026031
 104 H :    0.025230
 105 H :    0.026803
 106 H :    0.025530
 107 H :    0.022597
 108 H :    0.029574
 109 H :    0.031431
 110 H :    0.030776
 111 H :    0.029506
 112 H :    0.031512
 113 H :    0.031606
 114 H :    0.011988
 115 H :    0.034507
 116 H :    0.024540
 117 H :    0.021938
 118 H :    0.033771
 119 H :    0.024290
 120 H :    0.026763
 121 H :    0.018615
 122 H :    0.023289

  Mayer bond orders larger than 0.100000
B(  0-C ,  1-S ) :   1.1581 B(  0-C ,  4-C ) :   1.5746 B(  0-C , 74-H ) :   0.9713
B(  1-S ,  2-C ) :   1.1657 B(  2-C ,  3-C ) :   1.4720 B(  2-C , 10-C ) :   1.1509
B(  3-C ,  4-C ) :   1.2089 B(  3-C ,  8-C ) :   0.8995 B(  4-C ,  5-C ) :   0.8644
B(  5-C ,  6-O ) :   2.2234 B(  5-C ,  7-S ) :   1.0176 B(  6-O ,  7-S ) :   0.1118
B(  7-S ,  8-C ) :   1.0202 B(  7-S ,  9-O ) :   0.1002 B(  8-C ,  9-O ) :   2.1055
B(  9-O , 76-H ) :   0.1084 B( 10-C , 11-C ) :   1.6577 B( 10-C , 75-H ) :   0.9430
B( 11-C , 12-C ) :   1.0838 B( 11-C , 76-H ) :   0.9653 B( 12-C , 13-C ) :   1.2811
B( 12-C , 17-C ) :   1.3325 B( 13-C , 14-C ) :   1.3689 B( 13-C , 77-H ) :   1.0171
B( 14-C , 15-C ) :   1.3792 B( 14-C , 20-C ) :   0.9234 B( 15-C , 16-C ) :   1.3246
B( 15-C , 18-C ) :   0.9997 B( 16-C , 17-C ) :   1.4078 B( 16-C , 78-H ) :   0.9903
B( 17-C , 79-H ) :   0.9847 B( 18-C , 19-C ) :   1.3729 B( 18-C , 28-C ) :   1.3420
B( 19-C , 20-C ) :   0.9201 B( 19-C , 25-C ) :   1.4082 B( 20-C , 21-C ) :   1.0145
B( 20-C , 23-C ) :   1.0334 B( 21-C , 22-C ) :   1.1156 B( 21-C , 80-H ) :   0.9388
B( 21-C , 81-H ) :   0.9368 B( 22-C , 82-H ) :   0.9601 B( 22-C , 83-H ) :   0.9592
B( 22-C , 84-H ) :   0.9629 B( 23-C , 24-C ) :   1.1040 B( 23-C , 85-H ) :   0.9383
B( 23-C , 86-H ) :   0.9393 B( 24-C , 87-H ) :   0.9643 B( 24-C , 88-H ) :   0.9650
B( 24-C , 89-H ) :   0.9633 B( 25-C , 26-C ) :   1.3047 B( 25-C , 90-H ) :   0.9917
B( 26-C , 27-C ) :   1.3474 B( 26-C , 29-C ) :   1.0454 B( 27-C , 28-C ) :   1.3728
B( 27-C , 91-H ) :   0.9947 B( 28-C , 92-H ) :   0.9910 B( 29-C , 30-C ) :   1.7837
B( 29-C , 93-H ) :   0.9822 B( 30-C , 31-C ) :   0.9865 B( 30-C , 94-H ) :   0.9567
B( 31-C , 32-C ) :   1.3033 B( 31-C , 41-C ) :   1.4107 B( 32-C , 33-N ) :   1.1292
B( 32-C , 38-C ) :   1.2889 B( 33-N , 34-C ) :   0.9515 B( 33-N , 36-C ) :   1.1414
B( 34-C , 35-C ) :   1.1083 B( 34-C , 95-H ) :   0.9329 B( 34-C , 96-H ) :   0.9465
B( 35-C , 97-H ) :   0.9553 B( 35-C , 98-H ) :   0.9642 B( 35-C , 99-H ) :   0.9573
B( 36-C , 37-C ) :   1.2868 B( 36-C , 45-C ) :   1.2809 B( 37-C , 38-C ) :   1.0775
B( 37-C , 42-C ) :   1.3368 B( 38-C , 39-C ) :   1.3376 B( 39-C , 40-C ) :   1.3833
B( 39-C ,100-H ) :   1.0002 B( 40-C , 41-C ) :   1.3338 B( 40-C ,101-H ) :   0.9852
B( 41-C ,102-H ) :   0.9922 B( 42-C , 43-C ) :   1.3791 B( 42-C ,103-H ) :   0.9995
B( 43-C , 44-C ) :   1.3493 B( 43-C ,104-H ) :   0.9845 B( 44-C , 45-C ) :   1.3993
B( 44-C ,105-H ) :   0.9883 B( 45-C , 46-C ) :   1.0070 B( 46-C , 47-C ) :   1.6931
B( 46-C ,106-H ) :   0.9695 B( 47-C , 48-C ) :   1.1290 B( 47-C ,107-H ) :   0.9724
B( 48-C , 49-C ) :   1.5856 B( 48-C ,108-H ) :   0.9813 B( 49-C , 50-C ) :   1.1363
B( 49-C , 53-S ) :   1.0262 B( 50-C , 51-C ) :   1.5926 B( 50-C ,109-H ) :   0.9988
B( 51-C , 52-C ) :   1.1879 B( 51-C ,110-H ) :   0.9936 B( 52-C , 53-S ) :   1.0383
B( 52-C , 54-C ) :   1.5137 B( 54-C , 55-C ) :   1.1847 B( 54-C , 58-S ) :   1.0392
B( 55-C , 56-C ) :   1.5904 B( 55-C ,111-H ) :   0.9927 B( 56-C , 57-C ) :   1.1420
B( 56-C ,112-H ) :   0.9987 B( 57-C , 58-S ) :   1.0280 B( 57-C , 59-C ) :   1.5778
B( 59-C , 60-C ) :   1.1319 B( 59-C ,113-H ) :   0.9692 B( 60-C , 61-C ) :   1.4386
B( 60-C , 71-C ) :   1.1303 B( 61-C , 62-C ) :   1.1377 B( 61-C ,114-H ) :   0.9956
B( 62-C , 63-C ) :   1.4251 B( 62-C , 70-C ) :   1.1341 B( 63-C , 64-C ) :   1.1447
B( 63-C ,115-H ) :   1.0051 B( 64-C , 65-C ) :   1.4045 B( 64-C , 68-C ) :   1.1308
B( 65-C , 66-C ) :   1.1555 B( 65-C ,116-H ) :   1.0128 B( 66-C , 67-C ) :   1.5045
B( 66-C , 72-C ) :   1.0747 B( 67-C , 68-C ) :   1.1058 B( 67-C ,117-H ) :   1.0111
B( 68-C , 69-C ) :   1.4509 B( 69-C , 70-C ) :   1.1262 B( 69-C ,118-H ) :   1.0050
B( 70-C , 71-C ) :   1.4235 B( 71-C ,119-H ) :   1.0156 B( 72-C , 73-C ) :   1.9458
B( 72-C ,120-H ) :   0.9656 B( 73-C ,121-H ) :   0.9527 B( 73-C ,122-H ) :   0.9489

-----------------------------------------------------------------------------
         ABSORPTION SPECTRUM VIA TRANSITION ELECTRIC DIPOLE MOMENTS
-----------------------------------------------------------------------------
State   Energy  Wavelength   fosc         T2         TX        TY        TZ
        (cm-1)    (nm)                  (au**2)     (au)      (au)      (au)
-----------------------------------------------------------------------------
   0    6248.8   1600.3   0.030205730   1.59136   0.64006   0.58120   0.91863
   1   14539.4    687.8   0.461478316  10.44917  -2.30150  -1.14297  -1.96109
   2   15509.7    644.8   1.047078749  22.22547   3.71241   1.43358   2.52751
   3   22131.4    451.8   0.051382055   0.76432   0.12327  -0.13780   0.85448
   4   22282.3    448.8   0.111706644   1.65042  -0.10121  -0.76954  -1.02371
   5   23400.3    427.3   0.136235641   1.91666  -1.03613   0.74819   0.53226
   6   25061.4    399.0   1.187518615  15.59950  -0.60250  -1.63706   3.54352
   7   25129.1    397.9   0.170156384   2.22919   0.00217  -0.48878   1.41077
   8   25952.6    385.3   1.041508601  13.21167   1.64602  -1.44131  -2.90257
   9   27601.3    362.3   0.797328449   9.51007  -1.83152   1.28299   2.12356
  10   28546.7    350.3   0.016430378   0.18948   0.17917   0.13833   0.37181
  11   28607.4    349.6   0.120341299   1.38488   0.69477  -0.49021  -0.81355
  12   28915.9    345.8   0.068927084   0.78475   0.71622  -0.29069  -0.43276
  13   29368.9    340.5   0.070124913   0.78607  -0.84142   0.02016  -0.27870
  14   30214.8    331.0   0.002221869   0.02421   0.14023   0.00501  -0.06722
  15   30403.5    328.9   0.028383230   0.30734  -0.43439  -0.24480  -0.24231
  16   30947.6    323.1   0.030081226   0.32000  -0.12880   0.46963   0.28784
  17   31490.9    317.6   0.086516672   0.90446  -0.37056   0.47714   0.73449
  18   32121.3    311.3   0.129184950   1.32402   0.60814  -0.40543  -0.88871
  19   32924.7    303.7   0.217204298   2.17181  -0.45586  -0.08173  -1.39904
  20   32999.7    303.0   0.001402241   0.01399   0.04605   0.00004   0.10894
  21   33026.7    302.8   0.133423615   1.32997   0.70495  -0.61423  -0.67508
  22   33248.0    300.8   0.027529571   0.27259  -0.26033   0.22818   0.39084
  23   33523.8    298.3   0.028712140   0.28196   0.29861  -0.11187  -0.42459
  24   33993.9    294.2   0.197834867   1.91592   0.13146  -0.37795   1.32507
  25   34085.0    293.4   0.091395098   0.88275   0.16759   0.11532   0.91726
  26   34194.0    292.4   0.115933270   1.11618   0.12808  -0.14363   1.03882
  27   34762.6    287.7   0.008762687   0.08299  -0.09936   0.26956   0.02125
  28   35171.4    284.3   0.129870215   1.21561   0.23753  -0.01396  -1.07657
  29   35785.9    279.4   0.046461010   0.42742   0.19836  -0.23876  -0.57538
  30   35998.5    277.8   0.055161410   0.50446  -0.39851   0.38193   0.44697
  31   36220.8    276.1   0.000102510   0.00093   0.02253  -0.01388   0.01521
  32   36554.3    273.6   0.047480319   0.42761   0.22463   0.18622   0.58521
  33   36592.3    273.3   0.027427762   0.24676   0.29456   0.06994   0.39383
  34   37172.9    269.0   0.058422279   0.51740  -0.43439  -0.46770  -0.33160
  35   37414.5    267.3   0.100167701   0.88138  -0.80280  -0.14924  -0.46328
  36   37669.0    265.5   0.002751129   0.02404   0.09968   0.06110   0.10185
  37   37878.9    264.0   0.040883284   0.35532   0.28197  -0.19311  -0.48839
  38   37934.2    263.6   0.024532281   0.21290  -0.38632   0.19481  -0.16034
  39   38167.7    262.0   0.090697441   0.78230  -0.35110   0.20955  -0.78430
  40   38373.5    260.6   0.021616765   0.18545   0.13306  -0.17593  -0.36986
  41   38495.9    259.8   0.129398677   1.10660   0.45583  -0.49983  -0.80560
  42   38781.1    257.9   0.013022106   0.11054  -0.00396   0.03959   0.33009
  43   39265.3    254.7   0.003063165   0.02568   0.02207  -0.00491   0.15866
  44   39866.2    250.8   0.002546938   0.02103   0.06003  -0.05063  -0.12192
  45   40046.3    249.7   0.190726030   1.56792   1.04297  -0.51684  -0.46152
  46   40220.7    248.6   0.018071044   0.14791   0.26217   0.08315   0.26882
  47   40276.5    248.3   0.034040506   0.27824  -0.22449   0.45008   0.15898

FINAL SINGLE POINT ENERGY     -4376.448995051894

DIPOLE MOMENT
-------------
                                X             Y             Z
Electronic contribution:     19.26998       4.77258     -57.54251
Nuclear contribution   :    -19.86548      -6.07831      57.58004
                        -----------------------------------------
Total Dipole Moment    :     -0.59550      -1.30574       0.03753
                        -----------------------------------------
Magnitude (a.u.)       :      1.43561
Magnitude (Debye)      :      3.64903

Rotational constants in cm-1:     0.000867     0.000193     0.000173
Rotational constants in MHz :    25.982896     5.776474     5.196928

                             ****ORCA TERMINATED NORMALLY****
TOTAL RUN TIME: 0 days 0 hours 31 minutes 30 seconds 946 msec
