                         Program Version 4.2.0 -  RELEASE  -
|  1> # ORCA input file
|  2> # SCF done       -186.703556416106          0.000732345551
|  3> ! CAM-B3LYP def2-SVP def2/J RIJCOSX Grid4 TightSCF
|  4> %maxcore 5000
|  5> %tddft
|  6>     Mode sTDDFT
|  7>     Ethresh 5.0
|  8>     maxcore 5000
|  9> end
| 10>
| 11> %pal
| 12>   nprocs 6
| 13>   end
| 14> * xyz 0 1
| 15>    N       -4.76182       -11.83645         5.11315
| 16>    C       -4.38969       -12.85154         4.14200
| 17>    C       -4.23148       -14.21952         4.79582
| 18>    C       -3.27504       -15.12064         4.01048
| 19>    N       -3.17761       -16.38554         4.71370
| 20>    S       -1.96592       -16.14770         5.90597
| 21>    N       -0.98357       -15.15632         4.89424
| 22>    C       -1.83970       -14.48641         3.92467
| 23>    C       -1.87682       -12.98234         4.20697
| 24>    C       -3.07364       -12.38340         3.47074
| 25>    N       -3.07987       -10.93766         3.53647
| 26>    S       -4.47337       -10.33568         4.39689
| 27>    C       -2.27905       -10.17621         2.77397
| 28>    C       -2.28686        -8.82146         2.73398
| 29>    C       -1.40652        -8.10138         1.89248
| 30>    O       -0.55441        -8.77124         1.06299
| 31>    C       -1.22119        -6.74630         1.69803
| 32>    C       -1.66153        -5.42267         2.10967
| 33>    O       -2.48520        -5.06058         2.91355
| 34>    N       -0.88264        -4.55935         1.32934
| 35>    C        0.00963        -5.18055         0.46142
| 36>    O        0.76283        -4.60702        -0.28651
| 37>    C       -0.21349        -6.60520         0.70248
| 38>    C        0.17190        -7.87208         0.33132
| 39>    C        1.10666        -8.32560        -0.64239
| 40>    C        1.30490        -9.63292        -0.90458
| 41>    C        2.24016       -10.13719        -1.88315
| 42>    C        3.38221        -9.43527        -2.14787
| 43>    S        4.43334       -10.16596        -3.28576
| 44>    C        3.31291       -11.48095        -3.46285
| 45>    C        2.16858       -11.36155        -2.65920
| 46>    C        1.17617       -12.37290        -2.75162
| 47>    C       -0.12322       -12.18463        -2.01092
| 48>    C       -0.93525       -11.04057        -2.62287
| 49>    C        1.37571       -13.48500        -3.56621
| 50>    C        0.39624       -14.62915        -3.56893
| 51>    C       -0.62343       -14.51247        -4.70145
| 52>    C        2.51289       -13.56750        -4.41135
| 53>    C        2.87778       -14.50703        -5.46002
| 54>    C        4.06402       -14.15706        -6.05356
| 55>    S        4.80191       -12.74724        -5.43018
| 56>    C        3.46854       -12.54517        -4.33306
| 57>    C        2.14583       -15.64629        -5.93965
| 58>    C        2.20175       -16.10543        -7.21727
| 59>    C        1.47062       -17.19574        -7.73868
| 60>    C        0.58766       -18.05061        -7.12774
| 61>    C       -0.11413       -19.07966        -7.81014
| 62>    C       -0.94317       -19.82075        -7.02940
| 63>    C       -0.94893       -19.43344        -5.66795
| 64>    S        0.13091       -18.08077        -5.42811
| 65>    C       -1.65489       -20.02785        -4.64105
| 66>    C       -2.50430       -21.15295        -4.74971
| 67>    C       -3.00280       -21.58486        -3.56241
| 68>    C       -2.58159       -20.82370        -2.43911
| 69>    S       -1.55679       -19.50169        -2.96783
| 70>    C       -2.87460       -21.15330        -1.14223
| 71>    C       -2.49927       -20.48355         0.03917
| 72>    S       -2.57500       -21.34926         1.57090
| 73>    C       -2.00374       -20.02291         2.50384
| 74>    C       -1.76406       -18.94446         1.68863
| 75>    C       -2.04759       -19.20489         0.30727
| 76>    O       -1.87815       -18.08555        -0.43366
| 77>    C       -1.48077       -17.12842         0.44455
| 78>    N       -1.30302       -15.81803        -0.01442
| 79>    O       -0.95840       -14.99012         0.82608
| 80>    O       -1.51803       -15.55923        -1.18279
| 81>    C       -1.37784       -17.58201         1.73701
| 82>    H       -4.24846       -11.94146         5.98514
| 83>    H       -5.18590       -12.86823         3.38895
| 84>    H       -5.19810       -14.71482         4.87866
| 85>    H       -3.83397       -14.11275         5.80691
| 86>    H       -3.67373       -15.29668         3.00706
| 87>    H       -2.95262       -17.16277         4.09907
| 88>    H       -0.23980       -15.69176         4.46053
| 89>    H       -1.44021       -14.62973         2.91591
| 90>    H       -0.94791       -12.52954         3.86041
| 91>    H       -1.95124       -12.80521         5.28049
| 92>    H       -3.04273       -12.70580         2.42249
| 93>    H       -1.57469       -10.72615         2.16382
| 94>    H       -2.96957        -8.24274         3.33526
| 95>    H       -0.96493        -3.55509         1.39343
| 96>    H        1.61193        -7.54260        -1.18709
| 97>    H        0.73861       -10.34573        -0.32790
| 98>    H        3.68644        -8.51715        -1.68497
| 99>    H       -0.73615       -13.07937        -2.05446
|100>    H        0.07125       -11.99382        -0.95626
|101>    H       -1.86548       -10.90880        -2.07484
|102>    H       -1.17479       -11.26905        -3.65911
|103>    H       -0.38849       -10.10185        -2.60047
|104>    H       -0.14371       -14.69033        -2.62748
|105>    H        0.94656       -15.56536        -3.64201
|106>    H       -1.23512       -13.62449        -4.56402
|107>    H       -1.27508       -15.38240        -4.70132
|108>    H       -0.13063       -14.44234        -5.66929
|109>    H        4.57402       -14.69956        -6.82534
|110>    H        1.49954       -16.16103        -5.25400
|111>    H        2.81529       -15.57940        -7.93667
|112>    H        1.60666       -17.38174        -8.79764
|113>    H        0.01978       -19.23517        -8.86644
|114>    H       -1.54415       -20.63443        -7.39261
|115>    H       -2.71417       -21.61888        -5.69538
|116>    H       -3.65358       -22.43318        -3.44567
|117>    H       -3.41837       -22.07714        -0.99476
|118>    H       -1.89067       -20.11600         3.56345
|119>    H       -1.06278       -17.00549         2.58050
|120> *
|121>
|122>                          ****END OF INPUT****

CARTESIAN COORDINATES (ANGSTROEM)
---------------------------------
  N     -4.761820  -11.836450    5.113150
  C     -4.389690  -12.851540    4.142000
  C     -4.231480  -14.219520    4.795820
  C     -3.275040  -15.120640    4.010480
  N     -3.177610  -16.385540    4.713700
  S     -1.965920  -16.147700    5.905970
  N     -0.983570  -15.156320    4.894240
  C     -1.839700  -14.486410    3.924670
  C     -1.876820  -12.982340    4.206970
  C     -3.073640  -12.383400    3.470740
  N     -3.079870  -10.937660    3.536470
  S     -4.473370  -10.335680    4.396890
  C     -2.279050  -10.176210    2.773970
  C     -2.286860   -8.821460    2.733980
  C     -1.406520   -8.101380    1.892480
  O     -0.554410   -8.771240    1.062990
  C     -1.221190   -6.746300    1.698030
  C     -1.661530   -5.422670    2.109670
  O     -2.485200   -5.060580    2.913550
  N     -0.882640   -4.559350    1.329340
  C      0.009630   -5.180550    0.461420
  O      0.762830   -4.607020   -0.286510
  C     -0.213490   -6.605200    0.702480
  C      0.171900   -7.872080    0.331320
  C      1.106660   -8.325600   -0.642390
  C      1.304900   -9.632920   -0.904580
  C      2.240160  -10.137190   -1.883150
  C      3.382210   -9.435270   -2.147870
  S      4.433340  -10.165960   -3.285760
  C      3.312910  -11.480950   -3.462850
  C      2.168580  -11.361550   -2.659200
  C      1.176170  -12.372900   -2.751620
  C     -0.123220  -12.184630   -2.010920
  C     -0.935250  -11.040570   -2.622870
  C      1.375710  -13.485000   -3.566210
  C      0.396240  -14.629150   -3.568930
  C     -0.623430  -14.512470   -4.701450
  C      2.512890  -13.567500   -4.411350
  C      2.877780  -14.507030   -5.460020
  C      4.064020  -14.157060   -6.053560
  S      4.801910  -12.747240   -5.430180
  C      3.468540  -12.545170   -4.333060
  C      2.145830  -15.646290   -5.939650
  C      2.201750  -16.105430   -7.217270
  C      1.470620  -17.195740   -7.738680
  C      0.587660  -18.050610   -7.127740
  C     -0.114130  -19.079660   -7.810140
  C     -0.943170  -19.820750   -7.029400
  C     -0.948930  -19.433440   -5.667950
  S      0.130910  -18.080770   -5.428110
  C     -1.654890  -20.027850   -4.641050
  C     -2.504300  -21.152950   -4.749710
  C     -3.002800  -21.584860   -3.562410
  C     -2.581590  -20.823700   -2.439110
  S     -1.556790  -19.501690   -2.967830
  C     -2.874600  -21.153300   -1.142230
  C     -2.499270  -20.483550    0.039170
  S     -2.575000  -21.349260    1.570900
  C     -2.003740  -20.022910    2.503840
  C     -1.764060  -18.944460    1.688630
  C     -2.047590  -19.204890    0.307270
  O     -1.878150  -18.085550   -0.433660
  C     -1.480770  -17.128420    0.444550
  N     -1.303020  -15.818030   -0.014420
  O     -0.958400  -14.990120    0.826080
  O     -1.518030  -15.559230   -1.182790
  C     -1.377840  -17.582010    1.737010
  H     -4.248460  -11.941460    5.985140
  H     -5.185900  -12.868230    3.388950
  H     -5.198100  -14.714820    4.878660
  H     -3.833970  -14.112750    5.806910
  H     -3.673730  -15.296680    3.007060
  H     -2.952620  -17.162770    4.099070
  H     -0.239800  -15.691760    4.460530
  H     -1.440210  -14.629730    2.915910
  H     -0.947910  -12.529540    3.860410
  H     -1.951240  -12.805210    5.280490
  H     -3.042730  -12.705800    2.422490
  H     -1.574690  -10.726150    2.163820
  H     -2.969570   -8.242740    3.335260
  H     -0.964930   -3.555090    1.393430
  H      1.611930   -7.542600   -1.187090
  H      0.738610  -10.345730   -0.327900
  H      3.686440   -8.517150   -1.684970
  H     -0.736150  -13.079370   -2.054460
  H      0.071250  -11.993820   -0.956260
  H     -1.865480  -10.908800   -2.074840
  H     -1.174790  -11.269050   -3.659110
  H     -0.388490  -10.101850   -2.600470
  H     -0.143710  -14.690330   -2.627480
  H      0.946560  -15.565360   -3.642010
  H     -1.235120  -13.624490   -4.564020
  H     -1.275080  -15.382400   -4.701320
  H     -0.130630  -14.442340   -5.669290
  H      4.574020  -14.699560   -6.825340
  H      1.499540  -16.161030   -5.254000
  H      2.815290  -15.579400   -7.936670
  H      1.606660  -17.381740   -8.797640
  H      0.019780  -19.235170   -8.866440
  H     -1.544150  -20.634430   -7.392610
  H     -2.714170  -21.618880   -5.695380
  H     -3.653580  -22.433180   -3.445670
  H     -3.418370  -22.077140   -0.994760
  H     -1.890670  -20.116000    3.563450
  H     -1.062780  -17.005490    2.580500

 Total Charge           Charge          ....    0
 Multiplicity           Mult            ....    1
 Number of Electrons    NEL             ....  528
 Basis Dimension        Dim             .... 1156

ORBITAL ENERGIES
----------------

  NO   OCC          E(Eh)            E(eV)
   0   2.0000     -88.986624     -2421.4491
   1   2.0000     -88.973925     -2421.1036
   2   2.0000     -88.962321     -2420.7878
   3   2.0000     -88.952519     -2420.5211
   4   2.0000     -88.949627     -2420.4424
   5   2.0000     -88.947282     -2420.3786
   6   2.0000     -88.943425     -2420.2736
   7   2.0000     -19.324525      -525.8471
   8   2.0000     -19.281260      -524.6698
   9   2.0000     -19.273626      -524.4620
  10   2.0000     -19.267798      -524.3034
  11   2.0000     -19.181446      -521.9537
  12   2.0000     -19.177758      -521.8533
  13   2.0000     -14.680847      -399.4862
  14   2.0000     -14.449059      -393.1789
  15   2.0000     -14.434469      -392.7819
  16   2.0000     -14.427361      -392.5885
  17   2.0000     -14.425347      -392.5336
  18   2.0000     -14.420841      -392.4110
  19   2.0000     -10.408182      -283.2210
  20   2.0000     -10.371101      -282.2120
  21   2.0000     -10.367824      -282.1228
  22   2.0000     -10.359407      -281.8938
  23   2.0000     -10.337218      -281.2900
  24   2.0000     -10.334027      -281.2032
  25   2.0000     -10.330615      -281.1103
  26   2.0000     -10.329645      -281.0839
  27   2.0000     -10.324716      -280.9498
  28   2.0000     -10.318977      -280.7936
  29   2.0000     -10.317702      -280.7589
  30   2.0000     -10.317379      -280.7502
  31   2.0000     -10.316649      -280.7303
  32   2.0000     -10.316372      -280.7227
  33   2.0000     -10.316129      -280.7161
  34   2.0000     -10.314265      -280.6654
  35   2.0000     -10.311936      -280.6020
  36   2.0000     -10.307399      -280.4786
  37   2.0000     -10.305873      -280.4371
  38   2.0000     -10.293257      -280.0938
  39   2.0000     -10.293065      -280.0885
  40   2.0000     -10.289766      -279.9988
  41   2.0000     -10.289686      -279.9966
  42   2.0000     -10.289486      -279.9912
  43   2.0000     -10.288659      -279.9686
  44   2.0000     -10.287462      -279.9361
  45   2.0000     -10.287324      -279.9323
  46   2.0000     -10.284568      -279.8573
  47   2.0000     -10.284285      -279.8496
  48   2.0000     -10.278257      -279.6856
  49   2.0000     -10.277460      -279.6639
  50   2.0000     -10.274430      -279.5815
  51   2.0000     -10.273519      -279.5567
  52   2.0000     -10.271979      -279.5148
  53   2.0000     -10.271826      -279.5106
  54   2.0000     -10.270815      -279.4831
  55   2.0000     -10.270536      -279.4755
  56   2.0000     -10.268964      -279.4327
  57   2.0000     -10.268502      -279.4201
  58   2.0000     -10.265273      -279.3323
  59   2.0000     -10.264397      -279.3084
  60   2.0000     -10.259771      -279.1826
  61   2.0000     -10.253276      -279.0058
  62   2.0000     -10.251224      -278.9500
  63   2.0000     -10.249852      -278.9126
  64   2.0000     -10.246531      -278.8223
  65   2.0000     -10.240352      -278.6541
  66   2.0000     -10.239699      -278.6364
  67   2.0000      -8.081707      -219.9144
  68   2.0000      -8.065231      -219.4661
  69   2.0000      -8.053948      -219.1591
  70   2.0000      -8.047600      -218.9863
  71   2.0000      -8.045671      -218.9338
  72   2.0000      -8.043556      -218.8763
  73   2.0000      -8.039658      -218.7702
  74   2.0000      -6.051007      -164.6563
  75   2.0000      -6.046685      -164.5387
  76   2.0000      -6.044036      -164.4666
  77   2.0000      -6.038281      -164.3100
  78   2.0000      -6.032413      -164.1503
  79   2.0000      -6.027076      -164.0051
  80   2.0000      -6.021820      -163.8620
  81   2.0000      -6.020757      -163.8331
  82   2.0000      -6.017415      -163.7422
  83   2.0000      -6.015476      -163.6894
  84   2.0000      -6.013251      -163.6289
  85   2.0000      -6.012963      -163.6210
  86   2.0000      -6.011361      -163.5774
  87   2.0000      -6.010984      -163.5672
  88   2.0000      -6.009103      -163.5160
  89   2.0000      -6.008781      -163.5073
  90   2.0000      -6.008696      -163.5049
  91   2.0000      -6.006449      -163.4438
  92   2.0000      -6.005370      -163.4144
  93   2.0000      -6.004924      -163.4023
  94   2.0000      -6.001411      -163.3067
  95   2.0000      -1.348912       -36.7057
  96   2.0000      -1.244771       -33.8719
  97   2.0000      -1.195541       -32.5323
  98   2.0000      -1.164118       -31.6773
  99   2.0000      -1.124073       -30.5876
 100   2.0000      -1.102768       -30.0078
 101   2.0000      -1.085129       -29.5279
 102   2.0000      -1.062335       -28.9076
 103   2.0000      -1.011493       -27.5241
 104   2.0000      -1.008988       -27.4559
 105   2.0000      -1.002647       -27.2834
 106   2.0000      -0.998114       -27.1601
 107   2.0000      -0.993749       -27.0413
 108   2.0000      -0.977084       -26.5878
 109   2.0000      -0.964092       -26.2343
 110   2.0000      -0.962260       -26.1844
 111   2.0000      -0.957936       -26.0668
 112   2.0000      -0.922104       -25.0917
 113   2.0000      -0.916557       -24.9408
 114   2.0000      -0.914389       -24.8818
 115   2.0000      -0.909316       -24.7437
 116   2.0000      -0.904660       -24.6170
 117   2.0000      -0.891207       -24.2510
 118   2.0000      -0.889741       -24.2111
 119   2.0000      -0.877305       -23.8727
 120   2.0000      -0.866973       -23.5915
 121   2.0000      -0.854016       -23.2389
 122   2.0000      -0.851572       -23.1725
 123   2.0000      -0.842483       -22.9251
 124   2.0000      -0.838252       -22.8100
 125   2.0000      -0.835662       -22.7395
 126   2.0000      -0.832963       -22.6661
 127   2.0000      -0.827680       -22.5223
 128   2.0000      -0.819894       -22.3105
 129   2.0000      -0.813586       -22.1388
 130   2.0000      -0.803332       -21.8598
 131   2.0000      -0.798047       -21.7160
 132   2.0000      -0.786138       -21.3919
 133   2.0000      -0.775756       -21.1094
 134   2.0000      -0.765353       -20.8263
 135   2.0000      -0.759425       -20.6650
 136   2.0000      -0.750752       -20.4290
 137   2.0000      -0.738903       -20.1066
 138   2.0000      -0.735498       -20.0139
 139   2.0000      -0.727400       -19.7936
 140   2.0000      -0.724500       -19.7147
 141   2.0000      -0.708614       -19.2824
 142   2.0000      -0.705280       -19.1916
 143   2.0000      -0.705151       -19.1881
 144   2.0000      -0.701938       -19.1007
 145   2.0000      -0.692088       -18.8327
 146   2.0000      -0.684654       -18.6304
 147   2.0000      -0.684241       -18.6191
 148   2.0000      -0.677793       -18.4437
 149   2.0000      -0.672915       -18.3109
 150   2.0000      -0.671056       -18.2604
 151   2.0000      -0.665815       -18.1177
 152   2.0000      -0.663767       -18.0620
 153   2.0000      -0.657031       -17.8787
 154   2.0000      -0.645767       -17.5722
 155   2.0000      -0.642591       -17.4858
 156   2.0000      -0.637505       -17.3474
 157   2.0000      -0.635080       -17.2814
 158   2.0000      -0.628893       -17.1131
 159   2.0000      -0.627895       -17.0859
 160   2.0000      -0.623934       -16.9781
 161   2.0000      -0.619013       -16.8442
 162   2.0000      -0.615796       -16.7567
 163   2.0000      -0.611848       -16.6492
 164   2.0000      -0.608060       -16.5462
 165   2.0000      -0.595181       -16.1957
 166   2.0000      -0.591158       -16.0862
 167   2.0000      -0.588817       -16.0225
 168   2.0000      -0.583891       -15.8885
 169   2.0000      -0.581285       -15.8176
 170   2.0000      -0.575818       -15.6688
 171   2.0000      -0.572660       -15.5829
 172   2.0000      -0.566728       -15.4215
 173   2.0000      -0.564247       -15.3539
 174   2.0000      -0.561062       -15.2673
 175   2.0000      -0.556025       -15.1302
 176   2.0000      -0.555021       -15.1029
 177   2.0000      -0.548195       -14.9172
 178   2.0000      -0.542761       -14.7693
 179   2.0000      -0.541993       -14.7484
 180   2.0000      -0.539460       -14.6795
 181   2.0000      -0.535122       -14.5614
 182   2.0000      -0.533160       -14.5080
 183   2.0000      -0.530583       -14.4379
 184   2.0000      -0.525720       -14.3056
 185   2.0000      -0.523013       -14.2319
 186   2.0000      -0.521414       -14.1884
 187   2.0000      -0.515565       -14.0292
 188   2.0000      -0.514462       -13.9992
 189   2.0000      -0.512356       -13.9419
 190   2.0000      -0.505872       -13.7655
 191   2.0000      -0.502209       -13.6658
 192   2.0000      -0.499441       -13.5905
 193   2.0000      -0.497678       -13.5425
 194   2.0000      -0.496073       -13.4988
 195   2.0000      -0.494725       -13.4622
 196   2.0000      -0.492647       -13.4056
 197   2.0000      -0.487344       -13.2613
 198   2.0000      -0.486518       -13.2388
 199   2.0000      -0.484344       -13.1797
 200   2.0000      -0.483227       -13.1493
 201   2.0000      -0.482025       -13.1166
 202   2.0000      -0.481065       -13.0905
 203   2.0000      -0.477610       -12.9964
 204   2.0000      -0.474961       -12.9243
 205   2.0000      -0.473725       -12.8907
 206   2.0000      -0.470866       -12.8129
 207   2.0000      -0.467711       -12.7271
 208   2.0000      -0.466957       -12.7065
 209   2.0000      -0.463626       -12.6159
 210   2.0000      -0.461080       -12.5466
 211   2.0000      -0.457975       -12.4621
 212   2.0000      -0.455910       -12.4059
 213   2.0000      -0.453624       -12.3437
 214   2.0000      -0.450844       -12.2681
 215   2.0000      -0.449450       -12.2302
 216   2.0000      -0.447868       -12.1871
 217   2.0000      -0.444186       -12.0869
 218   2.0000      -0.441929       -12.0255
 219   2.0000      -0.437779       -11.9126
 220   2.0000      -0.434629       -11.8269
 221   2.0000      -0.432984       -11.7821
 222   2.0000      -0.430019       -11.7014
 223   2.0000      -0.427589       -11.6353
 224   2.0000      -0.426240       -11.5986
 225   2.0000      -0.425484       -11.5780
 226   2.0000      -0.423839       -11.5333
 227   2.0000      -0.420316       -11.4374
 228   2.0000      -0.416458       -11.3324
 229   2.0000      -0.413962       -11.2645
 230   2.0000      -0.412031       -11.2119
 231   2.0000      -0.409888       -11.1536
 232   2.0000      -0.409076       -11.1315
 233   2.0000      -0.404409       -11.0045
 234   2.0000      -0.401975       -10.9383
 235   2.0000      -0.398748       -10.8505
 236   2.0000      -0.396164       -10.7802
 237   2.0000      -0.391211       -10.6454
 238   2.0000      -0.388689       -10.5768
 239   2.0000      -0.386966       -10.5299
 240   2.0000      -0.377255       -10.2656
 241   2.0000      -0.375807       -10.2262
 242   2.0000      -0.372038       -10.1237
 243   2.0000      -0.365282        -9.9398
 244   2.0000      -0.362402        -9.8615
 245   2.0000      -0.350312        -9.5325
 246   2.0000      -0.347541        -9.4571
 247   2.0000      -0.341688        -9.2978
 248   2.0000      -0.339594        -9.2408
 249   2.0000      -0.336518        -9.1571
 250   2.0000      -0.334507        -9.1024
 251   2.0000      -0.331995        -9.0340
 252   2.0000      -0.328565        -8.9407
 253   2.0000      -0.327790        -8.9196
 254   2.0000      -0.316399        -8.6097
 255   2.0000      -0.315627        -8.5887
 256   2.0000      -0.312037        -8.4909
 257   2.0000      -0.288980        -7.8635
 258   2.0000      -0.287146        -7.8136
 259   2.0000      -0.284518        -7.7421
 260   2.0000      -0.257653        -7.0111
 261   2.0000      -0.257409        -7.0045
 262   2.0000      -0.219881        -5.9833
 263   2.0000      -0.214608        -5.8398
 264   0.0000      -0.094746        -2.5782
 265   0.0000      -0.078747        -2.1428
 266   0.0000      -0.025328        -0.6892
 267   0.0000      -0.023262        -0.6330
 268   0.0000      -0.003816        -0.1038

MULLIKEN ATOMIC CHARGES
-----------------------
   0 N :   -0.321918
   1 C :    0.011166
   2 C :    0.230153
   3 C :   -0.080451
   4 N :   -0.299172
   5 S :    0.212405
   6 N :   -0.332532
   7 C :   -0.016675
   8 C :    0.255451
   9 C :    0.045071
  10 N :   -0.368883
  11 S :    0.308904
  12 C :    0.154026
  13 C :   -0.105596
  14 C :    0.098068
  15 O :   -0.242122
  16 C :   -0.046406
  17 C :    0.147545
  18 O :   -0.162369
  19 N :   -0.167641
  20 C :    0.149736
  21 O :   -0.159843
  22 C :   -0.022171
  23 C :    0.067448
  24 C :   -0.024080
  25 C :   -0.023010
  26 C :    0.076035
  27 C :   -0.116202
  28 S :    0.126279
  29 C :   -0.150764
  30 C :    0.124465
  31 C :   -0.119451
  32 C :    0.049617
  33 C :    0.022451
  34 C :   -0.111816
  35 C :    0.017664
  36 C :    0.041786
  37 C :    0.109351
  38 C :    0.076427
  39 C :   -0.128510
  40 S :    0.133392
  41 C :   -0.151893
  42 C :   -0.006976
  43 C :    0.003483
  44 C :   -0.011261
  45 C :   -0.016374
  46 C :    0.041940
  47 C :    0.020689
  48 C :   -0.025874
  49 S :    0.050360
  50 C :   -0.053572
  51 C :    0.035782
  52 C :    0.023406
  53 C :   -0.024307
  54 S :    0.104100
  55 C :    0.018542
  56 C :   -0.231553
  57 S :    0.160497
  58 C :   -0.141302
  59 C :    0.119156
  60 C :    0.202160
  61 O :   -0.186513
  62 C :    0.238604
  63 N :    0.300725
  64 O :   -0.254140
  65 O :   -0.201969
  66 C :   -0.067778
  67 H :    0.142129
  68 H :    0.020623
  69 H :    0.020178
  70 H :   -0.022218
  71 H :    0.008298
  72 H :    0.122770
  73 H :    0.134578
  74 H :    0.020226
  75 H :    0.006702
  76 H :   -0.033066
  77 H :    0.011257
  78 H :    0.025865
  79 H :    0.006818
  80 H :    0.128339
  81 H :    0.003542
  82 H :    0.000627
  83 H :    0.023043
  84 H :   -0.008067
  85 H :    0.000060
  86 H :    0.009055
  87 H :    0.006696
  88 H :    0.027886
  89 H :   -0.000693
  90 H :   -0.006028
  91 H :   -0.001591
  92 H :    0.014386
  93 H :    0.013935
  94 H :    0.019369
  95 H :    0.005019
  96 H :   -0.020679
  97 H :   -0.013193
  98 H :   -0.010124
  99 H :   -0.015807
 100 H :   -0.011282
 101 H :   -0.012581
 102 H :   -0.017990
 103 H :    0.037907
 104 H :   -0.039754
Sum of atomic charges:   -0.0000000

LOEWDIN ATOMIC CHARGES
----------------------
   0 N :   -0.210153
   1 C :    0.002895
   2 C :   -0.029495
   3 C :   -0.010254
   4 N :   -0.220129
   5 S :    0.355709
   6 N :   -0.232457
   7 C :   -0.014341
   8 C :   -0.030288
   9 C :    0.005711
  10 N :   -0.159575
  11 S :    0.409476
  12 C :    0.043288
  13 C :   -0.149705
  14 C :    0.092120
  15 O :   -0.007093
  16 C :   -0.134934
  17 C :    0.081720
  18 O :   -0.181095
  19 N :   -0.011281
  20 C :    0.080329
  21 O :   -0.178637
  22 C :   -0.099399
  23 C :    0.057439
  24 C :   -0.040103
  25 C :   -0.005642
  26 C :   -0.064833
  27 C :   -0.163691
  28 S :    0.414410
  29 C :   -0.178828
  30 C :   -0.039120
  31 C :   -0.017168
  32 C :   -0.030360
  33 C :   -0.049746
  34 C :   -0.018797
  35 C :   -0.036422
  36 C :   -0.052965
  37 C :   -0.040278
  38 C :   -0.062741
  39 C :   -0.166774
  40 S :    0.420543
  41 C :   -0.179149
  42 C :   -0.002573
  43 C :   -0.046157
  44 C :   -0.043106
  45 C :   -0.152269
  46 C :   -0.019300
  47 C :   -0.047240
  48 C :   -0.165800
  49 S :    0.396602
  50 C :   -0.188665
  51 C :   -0.023396
  52 C :   -0.042357
  53 C :   -0.133580
  54 S :    0.382526
  55 C :   -0.104581
  56 C :   -0.190194
  57 S :    0.482538
  58 C :   -0.195414
  59 C :   -0.085163
  60 C :    0.006423
  61 O :    0.002019
  62 C :    0.022639
  63 N :    0.285650
  64 O :   -0.218121
  65 O :   -0.165914
  66 C :   -0.012232
  67 H :    0.053328
  68 H :    0.025550
  69 H :    0.034972
  70 H :    0.018046
  71 H :    0.022000
  72 H :    0.041011
  73 H :    0.042848
  74 H :    0.014869
  75 H :    0.027832
  76 H :    0.020607
  77 H :    0.022219
  78 H :    0.033113
  79 H :    0.034419
  80 H :    0.088789
  81 H :    0.040872
  82 H :    0.026950
  83 H :    0.024372
  84 H :    0.024742
  85 H :    0.022049
  86 H :    0.023554
  87 H :    0.022417
  88 H :    0.024568
  89 H :    0.019721
  90 H :    0.018357
  91 H :    0.022027
  92 H :    0.019750
  93 H :    0.021145
  94 H :    0.021408
  95 H :    0.009669
  96 H :    0.027357
  97 H :    0.035759
  98 H :    0.034602
  99 H :    0.030756
 100 H :    0.032706
 101 H :    0.032637
 102 H :    0.033368
 103 H :    0.029813
 104 H :    0.031280

  Mayer bond orders larger than 0.100000
B(  0-N ,  1-C ) :   0.9868 B(  0-N , 11-S ) :   1.0533 B(  0-N , 67-H ) :   0.9359
B(  1-C ,  2-C ) :   1.0699 B(  1-C ,  9-C ) :   0.9948 B(  1-C , 68-H ) :   0.9032
B(  2-C ,  3-C ) :   1.0830 B(  2-C , 69-H ) :   0.9309 B(  2-C , 70-H ) :   0.8635
B(  3-C ,  4-N ) :   1.0555 B(  3-C ,  7-C ) :   0.9672 B(  3-C , 71-H ) :   0.9139
B(  4-N ,  5-S ) :   0.9828 B(  4-N , 72-H ) :   0.9495 B(  5-S ,  6-N ) :   0.9709
B(  6-N ,  7-C ) :   1.0076 B(  6-N , 73-H ) :   0.9522 B(  7-C ,  8-C ) :   1.0780
B(  7-C , 74-H ) :   0.9082 B(  8-C ,  9-C ) :   1.0994 B(  8-C , 75-H ) :   0.9302
B(  8-C , 76-H ) :   0.8587 B(  9-C , 10-N ) :   0.9187 B(  9-C , 77-H ) :   0.9105
B( 10-N , 11-S ) :   0.8474 B( 10-N , 12-C ) :   1.1811 B( 12-C , 13-C ) :   1.5505
B( 12-C , 78-H ) :   0.9665 B( 13-C , 14-C ) :   1.2442 B( 13-C , 79-H ) :   0.9439
B( 14-C , 15-O ) :   1.1398 B( 14-C , 16-C ) :   1.3869 B( 15-O , 23-C ) :   1.1151
B( 16-C , 17-C ) :   0.9050 B( 16-C , 22-C ) :   1.2319 B( 17-C , 18-O ) :   2.2578
B( 17-C , 19-N ) :   1.0597 B( 19-N , 20-C ) :   1.0880 B( 19-N , 80-H ) :   0.9157
B( 20-C , 21-O ) :   2.2568 B( 20-C , 22-C ) :   0.8841 B( 22-C , 23-C ) :   1.4345
B( 23-C , 24-C ) :   1.1624 B( 24-C , 25-C ) :   1.6902 B( 24-C , 81-H ) :   0.9638
B( 25-C , 26-C ) :   1.0076 B( 25-C , 82-H ) :   0.9731 B( 26-C , 27-C ) :   1.6084
B( 26-C , 30-C ) :   1.1397 B( 27-C , 28-S ) :   1.1172 B( 27-C , 83-H ) :   0.9618
B( 28-S , 29-C ) :   1.0800 B( 29-C , 30-C ) :   1.3781 B( 29-C , 41-C ) :   1.3751
B( 30-C , 31-C ) :   1.2362 B( 31-C , 32-C ) :   1.0724 B( 31-C , 34-C ) :   1.5283
B( 32-C , 33-C ) :   1.1042 B( 32-C , 84-H ) :   0.9062 B( 32-C , 85-H ) :   0.9228
B( 33-C , 86-H ) :   0.9650 B( 33-C , 87-H ) :   0.9566 B( 33-C , 88-H ) :   0.9648
B( 34-C , 35-C ) :   1.0488 B( 34-C , 37-C ) :   1.2565 B( 35-C , 36-C ) :   1.1010
B( 35-C , 89-H ) :   0.9082 B( 35-C , 90-H ) :   0.9220 B( 36-C , 91-H ) :   0.9575
B( 36-C , 92-H ) :   0.9593 B( 36-C , 93-H ) :   0.9640 B( 37-C , 38-C ) :   1.1363
B( 37-C , 41-C ) :   1.3826 B( 38-C , 39-C ) :   1.5732 B( 38-C , 42-C ) :   1.0870
B( 39-C , 40-S ) :   1.1278 B( 39-C , 94-H ) :   0.9607 B( 40-S , 41-C ) :   1.0745
B( 42-C , 43-C ) :   1.6776 B( 42-C , 95-H ) :   0.9433 B( 43-C , 44-C ) :   1.1760
B( 43-C , 96-H ) :   0.9696 B( 44-C , 45-C ) :   1.5916 B( 44-C , 97-H ) :   0.9608
B( 45-C , 46-C ) :   1.1430 B( 45-C , 49-S ) :   1.0248 B( 46-C , 47-C ) :   1.5980
B( 46-C , 98-H ) :   0.9979 B( 47-C , 48-C ) :   1.1749 B( 47-C , 99-H ) :   0.9921
B( 48-C , 49-S ) :   1.0575 B( 48-C , 50-C ) :   1.5219 B( 50-C , 51-C ) :   1.1820
B( 50-C , 54-S ) :   1.0255 B( 51-C , 52-C ) :   1.5967 B( 51-C ,100-H ) :   0.9933
B( 52-C , 53-C ) :   1.1341 B( 52-C ,101-H ) :   1.0003 B( 53-C , 54-S ) :   1.0533
B( 53-C , 55-C ) :   1.6145 B( 55-C , 56-C ) :   1.1375 B( 55-C ,102-H ) :   0.9414
B( 56-C , 57-S ) :   1.1422 B( 56-C , 58-C ) :   0.1070 B( 56-C , 60-C ) :   1.4438
B( 57-S , 58-C ) :   1.1820 B( 58-C , 59-C ) :   1.4277 B( 58-C ,103-H ) :   0.9773
B( 59-C , 60-C ) :   1.2150 B( 59-C , 66-C ) :   1.0725 B( 60-C , 61-O ) :   1.0901
B( 61-O , 62-C ) :   1.1332 B( 62-C , 63-N ) :   0.9389 B( 62-C , 66-C ) :   1.5469
B( 63-N , 64-O ) :   1.4669 B( 63-N , 65-O ) :   1.4838 B( 64-O , 65-O ) :   0.2624
B( 66-C ,104-H ) :   1.0094

-----------------------------------------------------------------------------
         ABSORPTION SPECTRUM VIA TRANSITION ELECTRIC DIPOLE MOMENTS
-----------------------------------------------------------------------------
State   Energy  Wavelength   fosc         T2         TX        TY        TZ
        (cm-1)    (nm)                  (au**2)     (au)      (au)      (au)
-----------------------------------------------------------------------------
   0   10568.0    946.3   0.078391196   2.44202  -0.47073  -0.54067   1.38856
   1   14800.7    675.6   0.000510379   0.01135   0.05693   0.01987  -0.08785
   2   15558.4    642.7   0.906544527  19.18221   2.34659   2.55986  -2.66886
   3   20987.9    476.5   0.037931105   0.59498  -0.04330  -0.00526   0.77012
   4   21108.7    473.7   0.006395636   0.09975   0.00166  -0.14521   0.28046
   5   22211.5    450.2   0.011041310   0.16365  -0.03943  -0.08707  -0.39308
   6   23986.8    416.9   0.071378689   0.97965  -0.05371   0.36247   0.91945
   7   24086.4    415.2   0.047107059   0.64386  -0.07097   0.35791   0.71465
   8   25472.9    392.6   0.790666191  10.21857   1.44381  -1.55533  -2.39059
   9   25774.6    388.0   0.166727013   2.12956  -1.29581  -0.66384  -0.09878
  10   26582.2    376.2   0.028832676   0.35708  -0.12488  -0.15768  -0.56269
  11   27101.4    369.0   0.205418109   2.49530  -0.74226  -0.80469  -1.13878
  12   28773.9    347.5   0.008530789   0.09760  -0.06572  -0.03846  -0.30299
  13   29425.9    339.8   0.658707877   7.36951  -1.07895  -2.26695   1.03263
  14   30657.9    326.2   0.312233723   3.35284   0.89607   1.35227   0.84927
  15   30964.4    323.0   0.239875639   2.55035   0.55100   1.31598   0.71759
  16   31804.1    314.4   0.012303293   0.12735   0.04618  -0.03422  -0.35221
  17   31916.3    313.3   0.048999014   0.50542   0.01672  -0.40402   0.58473
  18   32581.9    306.9   0.063606237   0.64269  -0.01937   0.65764   0.45807
  19   33056.4    302.5   0.123479363   1.22974   0.44315   0.76441   0.67010
  20   33411.8    299.3   0.028593241   0.28173  -0.17925  -0.07686  -0.49366
  21   33502.7    298.5   0.130358505   1.28096   0.69283  -0.49687  -0.74436
  22   33768.6    296.1   0.112708386   1.09880   0.20515  -1.02537  -0.07299
  23   33960.6    294.5   0.004627810   0.04486  -0.03580  -0.08230  -0.19185
  24   34168.6    292.7   0.003357664   0.03235   0.02149  -0.17412  -0.03966
  25   34527.3    289.6   0.048819906   0.46549  -0.16894  -0.54699   0.37115
  26   34608.4    288.9   0.402542601   3.82918   0.37330   1.64871  -0.98569
  27   34822.5    287.2   0.003670751   0.03470  -0.11711   0.13475  -0.05321
  28   34990.3    285.8   0.015365689   0.14457   0.22121  -0.03139   0.30766
  29   35155.9    284.4   0.046274760   0.43333  -0.23873  -0.13878   0.59756
  30   35455.0    282.0   0.033897120   0.31475   0.22507   0.46710  -0.21425
  31   35735.2    279.8   0.123957552   1.14196   0.01046  -1.06480  -0.08974
  32   36623.8    273.0   0.023467685   0.21095   0.09272   0.37482  -0.24872
  33   36954.7    270.6   0.022511404   0.20054  -0.33849  -0.25610  -0.14276
  34   37253.3    268.4   0.076907515   0.67964   0.31711   0.64157  -0.40922
  35   37634.4    265.7   0.000116647   0.00102  -0.02331   0.00624   0.02093
  36   37970.2    263.4   0.018829380   0.16326   0.13939  -0.12035  -0.35964
  37   38130.9    262.3   0.039937647   0.34481  -0.10997  -0.55239  -0.16609
  38   39116.2    255.6   0.046971128   0.39532  -0.11146   0.39565   0.47578
  39   39269.1    254.7   0.075386098   0.63200  -0.34293   0.36762   0.61583
  40   39330.7    254.3   0.001322371   0.01107   0.05419  -0.04603  -0.07755
  41   39778.9    251.4   0.055377981   0.45831   0.38899  -0.07200  -0.54937
  42   40061.5    249.6   0.060276549   0.49533  -0.36752   0.08145   0.59467
  43   40251.8    248.4   0.029676666   0.24272   0.33910   0.28290  -0.21840

FINAL SINGLE POINT ENERGY     -5414.841827244672

DIPOLE MOMENT
-------------
                                X             Y             Z
Electronic contribution:     17.32238       2.07387       2.70203
Nuclear contribution   :    -17.90659      -7.89591      -3.46085
                        -----------------------------------------
Total Dipole Moment    :     -0.58421      -5.82204      -0.75882
                        -----------------------------------------
Magnitude (a.u.)       :      5.90028
Magnitude (Debye)      :     14.99731

Rotational constants in cm-1:     0.000917     0.000639     0.000407
Rotational constants in MHz :    27.489837    19.163964    12.213353

                             ****ORCA TERMINATED NORMALLY****
TOTAL RUN TIME: 0 days 0 hours 9 minutes 52 seconds 644 msec
