                         Program Version 4.2.0 -  RELEASE  -
|  1> # ORCA input file
|  2> # SCF done       -164.563917753422          0.000818209751
|  3> ! CAM-B3LYP def2-SVP def2/J RIJCOSX Grid4 TightSCF
|  4> %maxcore 5000
|  5> %tddft
|  6>     Mode sTDDFT
|  7>     Ethresh 5.0
|  8>     maxcore 5000
|  9> end
| 10>
| 11> %pal
| 12>   nprocs 6
| 13>   end
| 14> * xyz 0 1
| 15>    C      -17.97048        12.45430        -1.04915
| 16>    S      -16.42195        12.97785        -1.58258
| 17>    C      -15.61784        12.01343        -0.37780
| 18>    C      -16.55647        11.32710         0.38829
| 19>    C      -17.89305        11.58996        -0.00800
| 20>    C      -16.26679        10.45970         1.45018
| 21>    N      -16.07845         9.74138         2.32705
| 22>    C      -14.20054        12.02984        -0.31281
| 23>    C      -13.45265        11.31943         0.56905
| 24>    C      -12.04382        11.33779         0.63378
| 25>    S      -11.06713        12.28414        -0.43818
| 26>    C       -9.57720        11.72748         0.25089
| 27>    C       -9.83081        10.86104         1.32538
| 28>    C      -11.22864        10.62983         1.53176
| 29>    C      -11.66147         9.77648         2.56579
| 30>    C      -10.72998         9.20213         3.38004
| 31>    F      -11.11323         8.38627         4.37306
| 32>    C       -9.35235         9.47300         3.21438
| 33>    F       -8.47298         8.92515         4.07093
| 34>    C       -8.90150        10.28500         2.21593
| 35>    C       -8.36438        12.18490        -0.33210
| 36>    C       -7.14992        11.59552        -0.24565
| 37>    C       -5.97767        12.15708        -0.84135
| 38>    C       -4.75337        11.60149        -0.82575
| 39>    C       -4.44437        10.26207        -0.23067
| 40>    C       -3.55598        12.30943        -1.40755
| 41>    N       -3.73764        13.72889        -1.54754
| 42>    C       -3.26285        14.45690        -2.56708
| 43>    C       -3.31542        15.82120        -2.61638
| 44>    C       -2.79437        16.64256        -3.62930
| 45>    C       -2.11410        16.31790        -4.78069
| 46>    C       -1.55624        17.25928        -5.67770
| 47>    C       -0.87669        16.71547        -6.72794
| 48>    C       -0.87323        15.30609        -6.73443
| 49>    S       -1.75466        14.69523        -5.36269
| 50>    C       -0.26781        14.45277        -7.64527
| 51>    C        0.52840        14.79614        -8.75123
| 52>    C        1.02959        13.71786        -9.42789
| 53>    C        0.65506        12.47153        -8.88622
| 54>    S       -0.40397        12.71346        -7.51892
| 55>    C        0.95145        11.18629        -9.31840
| 56>    C        1.88433        10.79281       -10.26870
| 57>    C        2.98704        11.43356       -10.81559
| 58>    C        3.49091        10.95472       -12.11931
| 59>    O        3.13028         9.96597       -12.72636
| 60>    C        4.49049        11.95515       -12.55226
| 61>    C        5.18383        12.03320       -13.72307
| 62>    C        6.08346        13.10683       -13.92161
| 63>    C        6.24274        14.07993       -12.89409
| 64>    C        7.13778        15.14764       -13.09768
| 65>    C        7.83339        15.22615       -14.27186
| 66>    C        7.69093        14.28031       -15.29436
| 67>    C        6.82485        13.23714       -15.11250
| 68>    F        8.69215        16.24800       -14.46699
| 69>    C        5.51320        13.96753       -11.68578
| 70>    C        4.65253        12.91875       -11.51725
| 71>    C        3.80116        12.53050       -10.39007
| 72>    C        3.93275        13.02967        -9.10933
| 73>    C        3.33928        12.45222        -7.97544
| 74>    N        2.92477        11.99721        -7.00459
| 75>    C        4.73710        14.12860        -8.76573
| 76>    N        5.33967        15.04612        -8.42282
| 77>    H      -18.84954        12.81994        -1.54107
| 78>    H      -18.74444        11.14433         0.47462
| 79>    H      -13.70319        12.66607        -1.03417
| 80>    H      -13.94755        10.68313         1.28652
| 81>    H      -12.70783         9.57731         2.73012
| 82>    H       -7.84890        10.49825         2.14812
| 83>    H       -8.46114        13.07319        -0.94547
| 84>    H       -7.04216        10.66061         0.27821
| 85>    H       -6.11169        13.11368        -1.33062
| 86>    H       -4.29120        10.34881         0.84583
| 87>    H       -3.53447         9.85525        -0.66521
| 88>    H       -5.25144         9.55539        -0.40121
| 89>    H       -3.32663        11.89211        -2.39440
| 90>    H       -2.68926        12.10595        -0.76002
| 91>    H       -4.09721        14.21698        -0.73899
| 92>    H       -2.82992        13.88683        -3.37443
| 93>    H       -3.77713        16.33408        -1.78215
| 94>    H       -2.91459        17.70737        -3.46969
| 95>    H       -1.66294        18.31726        -5.51249
| 96>    H       -0.38356        17.28888        -7.49145
| 97>    H        0.72395        15.81839        -9.02248
| 98>    H        1.61452        13.79621       -10.32597
| 99>    H        0.34214        10.39869        -8.89378
|100>    H        1.71330         9.81310       -10.70763
|101>    H        5.05210        11.28525       -14.49066
|102>    H        7.27522        15.89329       -12.33003
|103>    H        8.26548        14.39380       -16.20002
|104>    H        6.69761        12.49458       -15.88614
|105>    H        5.65281        14.72098       -10.92686
|106> *
|107>
|108>                          ****END OF INPUT****

CARTESIAN COORDINATES (ANGSTROEM)
---------------------------------
  C    -17.970480   12.454300   -1.049150
  S    -16.421950   12.977850   -1.582580
  C    -15.617840   12.013430   -0.377800
  C    -16.556470   11.327100    0.388290
  C    -17.893050   11.589960   -0.008000
  C    -16.266790   10.459700    1.450180
  N    -16.078450    9.741380    2.327050
  C    -14.200540   12.029840   -0.312810
  C    -13.452650   11.319430    0.569050
  C    -12.043820   11.337790    0.633780
  S    -11.067130   12.284140   -0.438180
  C     -9.577200   11.727480    0.250890
  C     -9.830810   10.861040    1.325380
  C    -11.228640   10.629830    1.531760
  C    -11.661470    9.776480    2.565790
  C    -10.729980    9.202130    3.380040
  F    -11.113230    8.386270    4.373060
  C     -9.352350    9.473000    3.214380
  F     -8.472980    8.925150    4.070930
  C     -8.901500   10.285000    2.215930
  C     -8.364380   12.184900   -0.332100
  C     -7.149920   11.595520   -0.245650
  C     -5.977670   12.157080   -0.841350
  C     -4.753370   11.601490   -0.825750
  C     -4.444370   10.262070   -0.230670
  C     -3.555980   12.309430   -1.407550
  N     -3.737640   13.728890   -1.547540
  C     -3.262850   14.456900   -2.567080
  C     -3.315420   15.821200   -2.616380
  C     -2.794370   16.642560   -3.629300
  C     -2.114100   16.317900   -4.780690
  C     -1.556240   17.259280   -5.677700
  C     -0.876690   16.715470   -6.727940
  C     -0.873230   15.306090   -6.734430
  S     -1.754660   14.695230   -5.362690
  C     -0.267810   14.452770   -7.645270
  C      0.528400   14.796140   -8.751230
  C      1.029590   13.717860   -9.427890
  C      0.655060   12.471530   -8.886220
  S     -0.403970   12.713460   -7.518920
  C      0.951450   11.186290   -9.318400
  C      1.884330   10.792810  -10.268700
  C      2.987040   11.433560  -10.815590
  C      3.490910   10.954720  -12.119310
  O      3.130280    9.965970  -12.726360
  C      4.490490   11.955150  -12.552260
  C      5.183830   12.033200  -13.723070
  C      6.083460   13.106830  -13.921610
  C      6.242740   14.079930  -12.894090
  C      7.137780   15.147640  -13.097680
  C      7.833390   15.226150  -14.271860
  C      7.690930   14.280310  -15.294360
  C      6.824850   13.237140  -15.112500
  F      8.692150   16.248000  -14.466990
  C      5.513200   13.967530  -11.685780
  C      4.652530   12.918750  -11.517250
  C      3.801160   12.530500  -10.390070
  C      3.932750   13.029670   -9.109330
  C      3.339280   12.452220   -7.975440
  N      2.924770   11.997210   -7.004590
  C      4.737100   14.128600   -8.765730
  N      5.339670   15.046120   -8.422820
  H    -18.849540   12.819940   -1.541070
  H    -18.744440   11.144330    0.474620
  H    -13.703190   12.666070   -1.034170
  H    -13.947550   10.683130    1.286520
  H    -12.707830    9.577310    2.730120
  H     -7.848900   10.498250    2.148120
  H     -8.461140   13.073190   -0.945470
  H     -7.042160   10.660610    0.278210
  H     -6.111690   13.113680   -1.330620
  H     -4.291200   10.348810    0.845830
  H     -3.534470    9.855250   -0.665210
  H     -5.251440    9.555390   -0.401210
  H     -3.326630   11.892110   -2.394400
  H     -2.689260   12.105950   -0.760020
  H     -4.097210   14.216980   -0.738990
  H     -2.829920   13.886830   -3.374430
  H     -3.777130   16.334080   -1.782150
  H     -2.914590   17.707370   -3.469690
  H     -1.662940   18.317260   -5.512490
  H     -0.383560   17.288880   -7.491450
  H      0.723950   15.818390   -9.022480
  H      1.614520   13.796210  -10.325970
  H      0.342140   10.398690   -8.893780
  H      1.713300    9.813100  -10.707630
  H      5.052100   11.285250  -14.490660
  H      7.275220   15.893290  -12.330030
  H      8.265480   14.393800  -16.200020
  H      6.697610   12.494580  -15.886140
  H      5.652810   14.720980  -10.926860

 Total Charge           Charge          ....    0
 Multiplicity           Mult            ....    1
 Number of Electrons    NEL             ....  456
 Basis Dimension        Dim             .... 1029

ORBITAL ENERGIES
----------------

  NO   OCC          E(Eh)            E(eV)
   0   2.0000     -88.979530     -2421.2561
   1   2.0000     -88.975779     -2421.1540
   2   2.0000     -88.965210     -2420.8664
   3   2.0000     -88.946269     -2420.3510
   4   2.0000     -24.792882      -674.6486
   5   2.0000     -24.790718      -674.5897
   6   2.0000     -24.766616      -673.9339
   7   2.0000     -19.179539      -521.9018
   8   2.0000     -14.475197      -393.8901
   9   2.0000     -14.410649      -392.1337
  10   2.0000     -14.383931      -391.4067
  11   2.0000     -14.380850      -391.3228
  12   2.0000     -10.374819      -282.3132
  13   2.0000     -10.374122      -282.2942
  14   2.0000     -10.353106      -281.7223
  15   2.0000     -10.348100      -281.5861
  16   2.0000     -10.340810      -281.3878
  17   2.0000     -10.334481      -281.2155
  18   2.0000     -10.330968      -281.1199
  19   2.0000     -10.330830      -281.1162
  20   2.0000     -10.322354      -280.8855
  21   2.0000     -10.317627      -280.7569
  22   2.0000     -10.314129      -280.6617
  23   2.0000     -10.314036      -280.6592
  24   2.0000     -10.313322      -280.6398
  25   2.0000     -10.312775      -280.6249
  26   2.0000     -10.312564      -280.6191
  27   2.0000     -10.309731      -280.5421
  28   2.0000     -10.307083      -280.4700
  29   2.0000     -10.304491      -280.3995
  30   2.0000     -10.304269      -280.3934
  31   2.0000     -10.304018      -280.3866
  32   2.0000     -10.303515      -280.3729
  33   2.0000     -10.303192      -280.3641
  34   2.0000     -10.302310      -280.3401
  35   2.0000     -10.301064      -280.3062
  36   2.0000     -10.300621      -280.2942
  37   2.0000     -10.298113      -280.2259
  38   2.0000     -10.296880      -280.1923
  39   2.0000     -10.296143      -280.1723
  40   2.0000     -10.295039      -280.1423
  41   2.0000     -10.294631      -280.1312
  42   2.0000     -10.293368      -280.0968
  43   2.0000     -10.290665      -280.0232
  44   2.0000     -10.289616      -279.9947
  45   2.0000     -10.287529      -279.9379
  46   2.0000     -10.287302      -279.9317
  47   2.0000     -10.284962      -279.8681
  48   2.0000     -10.284517      -279.8559
  49   2.0000     -10.281841      -279.7831
  50   2.0000     -10.280312      -279.7415
  51   2.0000     -10.277779      -279.6726
  52   2.0000     -10.276776      -279.6453
  53   2.0000     -10.276454      -279.6365
  54   2.0000     -10.274535      -279.5843
  55   2.0000     -10.273329      -279.5515
  56   2.0000     -10.273219      -279.5485
  57   2.0000     -10.270232      -279.4672
  58   2.0000     -10.268036      -279.4075
  59   2.0000     -10.263783      -279.2917
  60   2.0000     -10.261401      -279.2269
  61   2.0000     -10.256299      -279.0881
  62   2.0000      -8.074688      -219.7234
  63   2.0000      -8.071686      -219.6417
  64   2.0000      -8.060988      -219.3506
  65   2.0000      -8.042654      -218.8518
  66   2.0000      -6.043570      -164.4539
  67   2.0000      -6.040966      -164.3831
  68   2.0000      -6.039602      -164.3459
  69   2.0000      -6.037586      -164.2911
  70   2.0000      -6.036577      -164.2636
  71   2.0000      -6.034066      -164.1953
  72   2.0000      -6.030598      -164.1009
  73   2.0000      -6.026579      -163.9916
  74   2.0000      -6.022256      -163.8739
  75   2.0000      -6.012255      -163.6018
  76   2.0000      -6.008242      -163.4926
  77   2.0000      -6.003796      -163.3716
  78   2.0000      -1.313899       -35.7530
  79   2.0000      -1.298889       -35.3446
  80   2.0000      -1.280395       -34.8413
  81   2.0000      -1.093468       -29.7548
  82   2.0000      -1.074093       -29.2275
  83   2.0000      -1.015049       -27.6209
  84   2.0000      -1.010533       -27.4980
  85   2.0000      -1.005366       -27.3574
  86   2.0000      -0.987887       -26.8818
  87   2.0000      -0.987852       -26.8808
  88   2.0000      -0.978240       -26.6193
  89   2.0000      -0.972404       -26.4605
  90   2.0000      -0.961502       -26.1638
  91   2.0000      -0.953025       -25.9331
  92   2.0000      -0.948141       -25.8002
  93   2.0000      -0.943634       -25.6776
  94   2.0000      -0.925664       -25.1886
  95   2.0000      -0.914739       -24.8913
  96   2.0000      -0.901908       -24.5422
  97   2.0000      -0.895135       -24.3579
  98   2.0000      -0.884776       -24.0760
  99   2.0000      -0.873405       -23.7665
 100   2.0000      -0.867909       -23.6170
 101   2.0000      -0.866440       -23.5770
 102   2.0000      -0.861923       -23.4541
 103   2.0000      -0.854445       -23.2506
 104   2.0000      -0.848655       -23.0931
 105   2.0000      -0.844285       -22.9742
 106   2.0000      -0.841335       -22.8939
 107   2.0000      -0.832453       -22.6522
 108   2.0000      -0.825382       -22.4598
 109   2.0000      -0.812217       -22.1016
 110   2.0000      -0.810067       -22.0431
 111   2.0000      -0.802185       -21.8286
 112   2.0000      -0.784316       -21.3423
 113   2.0000      -0.778716       -21.1899
 114   2.0000      -0.759699       -20.6725
 115   2.0000      -0.743334       -20.2272
 116   2.0000      -0.740273       -20.1439
 117   2.0000      -0.736652       -20.0453
 118   2.0000      -0.728994       -19.8369
 119   2.0000      -0.719268       -19.5723
 120   2.0000      -0.711286       -19.3551
 121   2.0000      -0.696751       -18.9596
 122   2.0000      -0.695117       -18.9151
 123   2.0000      -0.687230       -18.7005
 124   2.0000      -0.682868       -18.5818
 125   2.0000      -0.675518       -18.3818
 126   2.0000      -0.669842       -18.2273
 127   2.0000      -0.668887       -18.2013
 128   2.0000      -0.660348       -17.9690
 129   2.0000      -0.652301       -17.7500
 130   2.0000      -0.647581       -17.6216
 131   2.0000      -0.641095       -17.4451
 132   2.0000      -0.637798       -17.3554
 133   2.0000      -0.630588       -17.1592
 134   2.0000      -0.625491       -17.0205
 135   2.0000      -0.620912       -16.8959
 136   2.0000      -0.618276       -16.8242
 137   2.0000      -0.615443       -16.7471
 138   2.0000      -0.611572       -16.6417
 139   2.0000      -0.608050       -16.5459
 140   2.0000      -0.602447       -16.3934
 141   2.0000      -0.597128       -16.2487
 142   2.0000      -0.587302       -15.9813
 143   2.0000      -0.582103       -15.8398
 144   2.0000      -0.579164       -15.7599
 145   2.0000      -0.575532       -15.6610
 146   2.0000      -0.573290       -15.6000
 147   2.0000      -0.564333       -15.3563
 148   2.0000      -0.558576       -15.1996
 149   2.0000      -0.550571       -14.9818
 150   2.0000      -0.549021       -14.9396
 151   2.0000      -0.543809       -14.7978
 152   2.0000      -0.541689       -14.7401
 153   2.0000      -0.540897       -14.7186
 154   2.0000      -0.539539       -14.6816
 155   2.0000      -0.538543       -14.6545
 156   2.0000      -0.536968       -14.6116
 157   2.0000      -0.535021       -14.5587
 158   2.0000      -0.530238       -14.4285
 159   2.0000      -0.529119       -14.3981
 160   2.0000      -0.524226       -14.2649
 161   2.0000      -0.518695       -14.1144
 162   2.0000      -0.517206       -14.0739
 163   2.0000      -0.514069       -13.9885
 164   2.0000      -0.509035       -13.8515
 165   2.0000      -0.508553       -13.8384
 166   2.0000      -0.507369       -13.8062
 167   2.0000      -0.506135       -13.7726
 168   2.0000      -0.504162       -13.7189
 169   2.0000      -0.500887       -13.6298
 170   2.0000      -0.498374       -13.5615
 171   2.0000      -0.496423       -13.5084
 172   2.0000      -0.494162       -13.4468
 173   2.0000      -0.492245       -13.3947
 174   2.0000      -0.486453       -13.2371
 175   2.0000      -0.483875       -13.1669
 176   2.0000      -0.482170       -13.1205
 177   2.0000      -0.480840       -13.0843
 178   2.0000      -0.476302       -12.9608
 179   2.0000      -0.475045       -12.9266
 180   2.0000      -0.472569       -12.8592
 181   2.0000      -0.469463       -12.7747
 182   2.0000      -0.467480       -12.7208
 183   2.0000      -0.462506       -12.5854
 184   2.0000      -0.459355       -12.4997
 185   2.0000      -0.456630       -12.4255
 186   2.0000      -0.450930       -12.2704
 187   2.0000      -0.450390       -12.2557
 188   2.0000      -0.447239       -12.1700
 189   2.0000      -0.445306       -12.1174
 190   2.0000      -0.439326       -11.9547
 191   2.0000      -0.437731       -11.9113
 192   2.0000      -0.437102       -11.8941
 193   2.0000      -0.436082       -11.8664
 194   2.0000      -0.434149       -11.8138
 195   2.0000      -0.433228       -11.7887
 196   2.0000      -0.432172       -11.7600
 197   2.0000      -0.431737       -11.7482
 198   2.0000      -0.429604       -11.6901
 199   2.0000      -0.425929       -11.5901
 200   2.0000      -0.422446       -11.4953
 201   2.0000      -0.415946       -11.3185
 202   2.0000      -0.413058       -11.2399
 203   2.0000      -0.410557       -11.1718
 204   2.0000      -0.407470       -11.0878
 205   2.0000      -0.404442       -11.0054
 206   2.0000      -0.400749       -10.9049
 207   2.0000      -0.397641       -10.8204
 208   2.0000      -0.396608       -10.7923
 209   2.0000      -0.387582       -10.5467
 210   2.0000      -0.381721       -10.3872
 211   2.0000      -0.372903       -10.1472
 212   2.0000      -0.371661       -10.1134
 213   2.0000      -0.357680        -9.7330
 214   2.0000      -0.349644        -9.5143
 215   2.0000      -0.343254        -9.3404
 216   2.0000      -0.335276        -9.1233
 217   2.0000      -0.327327        -8.9070
 218   2.0000      -0.326908        -8.8956
 219   2.0000      -0.322442        -8.7741
 220   2.0000      -0.317278        -8.6336
 221   2.0000      -0.305084        -8.3018
 222   2.0000      -0.304185        -8.2773
 223   2.0000      -0.287825        -7.8321
 224   2.0000      -0.277691        -7.5564
 225   2.0000      -0.265004        -7.2111
 226   2.0000      -0.241162        -6.5623
 227   2.0000      -0.215819        -5.8727
 228   0.0000      -0.096680        -2.6308
 229   0.0000      -0.084784        -2.3071
 230   0.0000      -0.041295        -1.1237
 231   0.0000      -0.026864        -0.7310
 232   0.0000      -0.025358        -0.6900

MULLIKEN ATOMIC CHARGES
-----------------------
   0 C :   -0.063730
   1 S :    0.133400
   2 C :   -0.063800
   3 C :   -0.110724
   4 C :    0.073509
   5 C :   -0.175600
   6 N :    0.099197
   7 C :    0.034297
   8 C :   -0.003113
   9 C :   -0.102358
  10 S :    0.154018
  11 C :   -0.121512
  12 C :    0.134028
  13 C :    0.115093
  14 C :   -0.116160
  15 C :    0.228219
  16 F :   -0.172733
  17 C :    0.226484
  18 F :   -0.179915
  19 C :   -0.124470
  20 C :    0.033278
  21 C :   -0.005103
  22 C :    0.002493
  23 C :   -0.247782
  24 C :    0.078070
  25 C :    0.227479
  26 N :   -0.143586
  27 C :    0.083791
  28 C :   -0.049505
  29 C :    0.036609
  30 C :   -0.059234
  31 C :    0.057781
  32 C :    0.008585
  33 C :    0.004193
  34 S :    0.056512
  35 C :   -0.061487
  36 C :    0.014583
  37 C :    0.073381
  38 C :   -0.089550
  39 S :    0.123670
  40 C :    0.037304
  41 C :    0.030855
  42 C :   -0.160574
  43 C :    0.129252
  44 O :   -0.165240
  45 C :    0.019743
  46 C :   -0.099141
  47 C :    0.103941
  48 C :    0.105994
  49 C :   -0.104526
  50 C :    0.300235
  51 C :   -0.033914
  52 C :   -0.015697
  53 F :   -0.199680
  54 C :   -0.106755
  55 C :    0.045127
  56 C :    0.264650
  57 C :   -0.377202
  58 C :   -0.200830
  59 N :    0.151818
  60 C :   -0.185538
  61 N :    0.121959
  62 H :    0.036739
  63 H :    0.000477
  64 H :   -0.017988
  65 H :    0.005098
  66 H :    0.012589
  67 H :   -0.016654
  68 H :   -0.013762
  69 H :   -0.006988
  70 H :   -0.027374
  71 H :    0.041382
  72 H :    0.021952
  73 H :    0.042021
  74 H :    0.048362
  75 H :    0.030786
  76 H :    0.131825
  77 H :    0.031926
  78 H :   -0.020742
  79 H :    0.001299
  80 H :   -0.004036
  81 H :   -0.006766
  82 H :   -0.005372
  83 H :    0.002765
  84 H :   -0.011883
  85 H :    0.017153
  86 H :   -0.020589
  87 H :   -0.008331
  88 H :   -0.005306
  89 H :   -0.014643
  90 H :   -0.014028
Sum of atomic charges:   -0.0000000

LOEWDIN ATOMIC CHARGES
----------------------
   0 C :   -0.180945
   1 S :    0.455864
   2 C :   -0.136354
   3 C :   -0.120919
   4 C :   -0.030025
   5 C :   -0.026154
   6 N :   -0.071367
   7 C :   -0.062959
   8 C :   -0.015787
   9 C :   -0.182921
  10 S :    0.481638
  11 C :   -0.171576
  12 C :   -0.045877
  13 C :   -0.035923
  14 C :   -0.034982
  15 C :    0.063912
  16 F :   -0.051583
  17 C :    0.063525
  18 F :   -0.057886
  19 C :   -0.045027
  20 C :   -0.042759
  21 C :   -0.025583
  22 C :   -0.055030
  23 C :   -0.040360
  24 C :   -0.048546
  25 C :    0.045259
  26 N :    0.034063
  27 C :    0.077779
  28 C :   -0.138042
  29 C :    0.007475
  30 C :   -0.191687
  31 C :    0.002703
  32 C :   -0.062942
  33 C :   -0.126583
  34 S :    0.393642
  35 C :   -0.209997
  36 C :    0.005232
  37 C :   -0.053909
  38 C :   -0.102204
  39 S :    0.406946
  40 C :   -0.091830
  41 C :    0.049822
  42 C :   -0.130846
  43 C :    0.076337
  44 O :   -0.168151
  45 C :   -0.054976
  46 C :    0.023382
  47 C :   -0.022925
  48 C :    0.000940
  49 C :   -0.046101
  50 C :    0.088086
  51 C :   -0.046493
  52 C :    0.000798
  53 F :   -0.073589
  54 C :   -0.003167
  55 C :   -0.012525
  56 C :    0.050960
  57 C :   -0.169265
  58 C :   -0.016541
  59 N :   -0.075490
  60 C :   -0.020347
  61 N :   -0.087000
  62 H :    0.028542
  63 H :    0.040382
  64 H :    0.021512
  65 H :    0.041474
  66 H :    0.048121
  67 H :    0.037447
  68 H :    0.028317
  69 H :    0.025284
  70 H :    0.021389
  71 H :    0.043134
  72 H :    0.034284
  73 H :    0.037895
  74 H :    0.044516
  75 H :    0.030086
  76 H :    0.086074
  77 H :    0.017292
  78 H :    0.027051
  79 H :    0.043045
  80 H :    0.037178
  81 H :    0.034670
  82 H :    0.035925
  83 H :    0.037878
  84 H :    0.030909
  85 H :    0.042874
  86 H :    0.035802
  87 H :    0.040517
  88 H :    0.038124
  89 H :    0.033018
  90 H :    0.036075

  Mayer bond orders larger than 0.100000
B(  0-C ,  1-S ) :   1.1476 B(  0-C ,  4-C ) :   1.5748 B(  0-C , 62-H ) :   0.9697
B(  1-S ,  2-C ) :   1.1441 B(  2-C ,  3-C ) :   1.4642 B(  2-C ,  7-C ) :   1.1654
B(  3-C ,  4-C ) :   1.2677 B(  3-C ,  5-C ) :   1.1395 B(  4-C , 63-H ) :   1.0003
B(  5-C ,  6-N ) :   2.9746 B(  7-C ,  8-C ) :   1.6450 B(  7-C , 64-H ) :   0.9470
B(  8-C ,  9-C ) :   1.2076 B(  8-C , 65-H ) :   0.9529 B(  9-C , 10-S ) :   1.1343
B(  9-C , 11-C ) :   0.1087 B(  9-C , 13-C ) :   1.3278 B( 10-S , 11-C ) :   1.1590
B( 11-C , 12-C ) :   1.3610 B( 11-C , 20-C ) :   1.1124 B( 12-C , 13-C ) :   1.2118
B( 12-C , 19-C ) :   1.1498 B( 13-C , 14-C ) :   1.1692 B( 14-C , 15-C ) :   1.5049
B( 14-C , 19-C ) :   0.1115 B( 14-C , 66-H ) :   0.9977 B( 15-C , 16-F ) :   1.1389
B( 15-C , 17-C ) :   1.1489 B( 17-C , 18-F ) :   1.1261 B( 17-C , 19-C ) :   1.5127
B( 19-C , 67-H ) :   0.9945 B( 20-C , 21-C ) :   1.6928 B( 20-C , 68-H ) :   0.9589
B( 21-C , 22-C ) :   1.1121 B( 21-C , 69-H ) :   0.9682 B( 22-C , 23-C ) :   1.7716
B( 22-C , 70-H ) :   0.9696 B( 23-C , 24-C ) :   1.0759 B( 23-C , 25-C ) :   1.0094
B( 24-C , 71-H ) :   0.9458 B( 24-C , 72-H ) :   0.9539 B( 24-C , 73-H ) :   0.9510
B( 25-C , 26-N ) :   1.0004 B( 25-C , 74-H ) :   0.9175 B( 25-C , 75-H ) :   0.9367
B( 26-N , 27-C ) :   1.3056 B( 26-N , 76-H ) :   0.9329 B( 27-C , 28-C ) :   1.4981
B( 27-C , 77-H ) :   0.9466 B( 28-C , 29-C ) :   1.2834 B( 28-C , 78-H ) :   0.9618
B( 29-C , 30-C ) :   1.5203 B( 29-C , 79-H ) :   0.9612 B( 30-C , 31-C ) :   1.1906
B( 30-C , 34-S ) :   1.0130 B( 31-C , 32-C ) :   1.5344 B( 31-C , 80-H ) :   0.9981
B( 32-C , 33-C ) :   1.2353 B( 32-C , 81-H ) :   0.9940 B( 33-C , 34-S ) :   1.0964
B( 33-C , 35-C ) :   1.4053 B( 35-C , 36-C ) :   1.2629 B( 35-C , 39-S ) :   1.0465
B( 36-C , 37-C ) :   1.4971 B( 36-C , 82-H ) :   0.9955 B( 37-C , 38-C ) :   1.2517
B( 37-C , 83-H ) :   0.9793 B( 38-C , 39-S ) :   1.1121 B( 38-C , 40-C ) :   1.3698
B( 40-C , 41-C ) :   1.4060 B( 40-C , 84-H ) :   0.9416 B( 41-C , 42-C ) :   1.4148
B( 41-C , 85-H ) :   0.9310 B( 42-C , 43-C ) :   0.9795 B( 42-C , 56-C ) :   1.1455
B( 43-C , 44-O ) :   2.2449 B( 43-C , 45-C ) :   0.9104 B( 45-C , 46-C ) :   1.4845
B( 45-C , 55-C ) :   1.2192 B( 46-C , 47-C ) :   1.1730 B( 46-C , 86-H ) :   1.0155
B( 47-C , 48-C ) :   1.2642 B( 47-C , 52-C ) :   1.2429 B( 48-C , 49-C ) :   1.2058
B( 48-C , 54-C ) :   1.1882 B( 49-C , 50-C ) :   1.4380 B( 49-C , 87-H ) :   1.0062
B( 50-C , 51-C ) :   1.2626 B( 50-C , 53-F ) :   1.0788 B( 51-C , 52-C ) :   1.4512
B( 51-C , 88-H ) :   0.9923 B( 52-C , 89-H ) :   0.9958 B( 54-C , 55-C ) :   1.4763
B( 54-C , 90-H ) :   0.9931 B( 55-C , 56-C ) :   0.9843 B( 56-C , 57-C ) :   1.5515
B( 57-C , 58-C ) :   1.1759 B( 57-C , 60-C ) :   1.1530 B( 58-C , 59-N ) :   2.9998
B( 60-C , 61-N ) :   2.9618

-----------------------------------------------------------------------------
         ABSORPTION SPECTRUM VIA TRANSITION ELECTRIC DIPOLE MOMENTS
-----------------------------------------------------------------------------
State   Energy  Wavelength   fosc         T2         TX        TY        TZ
        (cm-1)    (nm)                  (au**2)     (au)      (au)      (au)
-----------------------------------------------------------------------------
   0   11382.0    878.6   1.094657151  31.66168  -3.99797   1.41771   3.69702
   1   19081.0    524.1   1.053976244  18.18467   4.25667   0.04074  -0.25246
   2   20109.9    497.3   0.047587363   0.77903  -0.87865   0.06410   0.05383
   3   20728.5    482.4   0.092269349   1.46543   0.20278   0.07577  -1.19104
   4   22252.8    449.4   0.036740032   0.54354   0.27561   0.06568   0.68064
   5   22812.2    438.4   0.306114069   4.41765   0.15302   0.70454   1.97430
   6   24983.1    400.3   0.008623420   0.11363  -0.10573  -0.03818  -0.31780
   7   26318.1    380.0   0.035618145   0.44555  -0.53732   0.33463  -0.21180
   8   27034.9    369.9   0.019844231   0.24165  -0.22329   0.29492   0.32374
   9   28559.7    350.1   0.012495545   0.14404  -0.24623  -0.04121   0.28585
  10   28728.6    348.1   0.025125539   0.28792   0.30014  -0.24304   0.37252
  11   30344.7    329.5   0.009003437   0.09768   0.24720  -0.18288  -0.05590
  12   30706.9    325.7   0.050413819   0.54049   0.45353  -0.37163   0.44350
  13   30926.3    323.3   0.034804034   0.37049  -0.07217   0.48702  -0.35790
  14   31208.7    320.4   0.057472856   0.60627  -0.69644   0.18422  -0.29546
  15   31864.9    313.8   0.103096995   1.06514   0.45317  -0.41542  -0.82898
  16   32688.4    305.9   0.155579536   1.56688   0.51289   0.07164  -1.13960
  17   33019.9    302.8   0.211607414   2.10975  -0.04409   0.86608  -1.16521
  18   33177.4    301.4   0.036724557   0.36441  -0.10999   0.37369  -0.46116
  19   33281.2    300.5   0.119528599   1.18236  -0.64886  -0.25612   0.83411
  20   33490.8    298.6   0.059054863   0.58050  -0.41451  -0.62874  -0.11565
  21   33814.9    295.7   0.064880656   0.63166  -0.24362  -0.73782  -0.16714
  22   34522.3    289.7   0.179319962   1.71003   0.11321   0.79381  -1.03300
  23   35237.7    283.8   0.092489549   0.86409   0.43232   0.73182  -0.37636
  24   35644.1    280.6   0.222183078   2.05210  -1.11478  -0.76728   0.46973
  25   35773.0    279.5   0.111440231   1.02556  -0.65582   0.77089   0.03438
  26   36145.7    276.7   0.128560506   1.17092  -1.02214   0.06143   0.34982
  27   36405.3    274.7   0.034134246   0.30867  -0.15686  -0.30731   0.43546
  28   36457.8    274.3   0.002017169   0.01821   0.03909   0.12897   0.00723
  29   36597.4    273.2   0.055398642   0.49834  -0.31520  -0.63069   0.03489
  30   37230.3    268.6   0.169590202   1.49961  -0.10607   0.47807   1.12242
  31   37362.4    267.6   0.392398871   3.45755   0.88331   0.86298  -1.39018
  32   38404.9    260.4   0.000350121   0.00300  -0.05211  -0.00932  -0.01409
  33   39028.5    256.2   0.125403832   1.05780   0.14535  -0.08661  -1.01448
  34   39383.0    253.9   0.128011915   1.07008  -0.19134  -1.00156  -0.17419
  35   39523.0    253.0   0.080642230   0.67172   0.22417  -0.50572   0.60474
  36   39731.2    251.7   0.047897822   0.39688  -0.27729  -0.54123   0.16450

FINAL SINGLE POINT ENERGY     -4105.518012632059

DIPOLE MOMENT
-------------
                                X             Y             Z
Electronic contribution:     -6.32206      -9.07406       0.76707
Nuclear contribution   :      1.61725      11.65544       1.09508
                        -----------------------------------------
Total Dipole Moment    :     -4.70480       2.58138       1.86216
                        -----------------------------------------
Magnitude (a.u.)       :      5.68034
Magnitude (Debye)      :     14.43829

Rotational constants in cm-1:     0.002396     0.000205     0.000201
Rotational constants in MHz :    71.824681     6.134555     6.020461

                             ****ORCA TERMINATED NORMALLY****
TOTAL RUN TIME: 0 days 0 hours 7 minutes 35 seconds 443 msec
