                         Program Version 4.2.0 -  RELEASE  -
|  1> # ORCA input file
|  2> # SCF done       -130.032354540711          0.000694253310
|  3> ! CAM-B3LYP def2-SVP def2/J RIJCOSX Grid4 TightSCF
|  4> %maxcore 5000
|  5> %tddft
|  6>     Mode sTDDFT
|  7>     Ethresh 5.0
|  8>     maxcore 5000
|  9> end
| 10>
| 11> %pal
| 12>   nprocs 6
| 13>   end
| 14> * xyz 0 1
| 15>    C       -0.03578         0.78522        -3.60736
| 16>    C        0.97784         1.70150        -3.49800
| 17>    C        0.98838         2.70111        -2.51482
| 18>    C       -0.01899         2.82792        -1.57097
| 19>    C       -1.09902         1.91003        -1.68888
| 20>    C       -1.10043         0.88676        -2.69946
| 21>    N       -2.19822         0.13006        -2.63874
| 22>    S       -3.12504         0.65570        -1.43566
| 23>    N       -2.18810         1.86405        -0.92804
| 24>    C       -0.05801         3.83252        -0.54892
| 25>    S       -1.59269         4.32168         0.07725
| 26>    C       -0.89432         5.53622         1.09856
| 27>    C        0.49800         5.55983         0.95875
| 28>    C        0.97833         4.56370         0.04882
| 29>    C        2.36789         4.39878        -0.10205
| 30>    C        3.25468         5.25249         0.51650
| 31>    C        4.68240         5.02707         0.34417
| 32>    C        5.67109         5.69616         0.92703
| 33>    C        2.74825         6.33191         1.28758
| 34>    C        1.41421         6.47752         1.51645
| 35>    C       -1.73675         6.33778         1.91053
| 36>    S       -3.29788         6.80740         1.31661
| 37>    C       -3.68764         7.68952         2.76064
| 38>    C       -2.62507         7.63715         3.66830
| 39>    C       -1.53450         6.83503         3.20556
| 40>    C       -0.45775         6.57412         4.07236
| 41>    C       -0.38487         7.18202         5.30587
| 42>    C        0.74119         6.87412         6.17481
| 43>    C        0.94408         7.32666         7.40737
| 44>    C       -1.40073         8.10285         5.68053
| 45>    C       -2.49378         8.31844         4.89900
| 46>    C       -4.94114         8.34226         2.87620
| 47>    S       -5.66879         9.06919         1.48361
| 48>    C       -7.02665         9.66590         2.38077
| 49>    C       -6.94766         9.26274         3.71316
| 50>    C       -5.77233         8.49284         3.99463
| 51>    C       -5.61439         7.89434         5.25682
| 52>    C       -6.54990         8.08684         6.24809
| 53>    C       -6.33924         7.45497         7.54184
| 54>    C       -7.09682         7.58207         8.62570
| 55>    C       -7.69539         8.87907         5.96572
| 56>    C       -7.90191         9.43509         4.74175
| 57>    C       -8.01996        10.43153         1.67326
| 58>    C       -8.30178        10.16946         0.34242
| 59>    C       -9.24307        10.89751        -0.39663
| 60>    C       -9.94183        11.94189         0.14872
| 61>    C       -9.67252        12.27558         1.48425
| 62>    C       -8.71460        11.52426         2.25774
| 63>    N       -8.56948        12.02415         3.48308
| 64>    S       -9.54570        13.29125         3.65044
| 65>    N      -10.20146        13.28124         2.18365
| 66>    H       -0.04318         0.01813        -4.36378
| 67>    H        1.80031         1.66698        -4.19746
| 68>    H        1.79243         3.41884        -2.52717
| 69>    H        2.74569         3.57376        -0.68585
| 70>    H        4.92906         4.21410        -0.32845
| 71>    H        5.50443         6.50751         1.61435
| 72>    H        6.70098         5.44888         0.73476
| 73>    H        3.43762         7.04682         1.70735
| 74>    H        1.04471         7.30110         2.10773
| 75>    H        0.30727         5.87644         3.76648
| 76>    H        1.46692         6.19709         5.74007
| 77>    H        0.26378         7.99513         7.90615
| 78>    H        1.81292         7.03545         7.97217
| 79>    H       -1.30624         8.63704         6.61227
| 80>    H       -3.25828         9.01749         5.20099
| 81>    H       -4.76188         7.25559         5.43354
| 82>    H       -5.45537         6.82970         7.59292
| 83>    H       -7.98369         8.19150         8.65395
| 84>    H       -6.84813         7.07343         9.54141
| 85>    H       -8.43619         9.01666         6.73714
| 86>    H       -8.79392        10.00393         4.54195
| 87>    H       -7.78150         9.35567        -0.14219
| 88>    H       -9.41600        10.61745        -1.42504
| 89>    H      -10.66618        12.51028        -0.41072
| 90> *
| 91>
| 92>                          ****END OF INPUT****

CARTESIAN COORDINATES (ANGSTROEM)
---------------------------------
  C     -0.035780    0.785220   -3.607360
  C      0.977840    1.701500   -3.498000
  C      0.988380    2.701110   -2.514820
  C     -0.018990    2.827920   -1.570970
  C     -1.099020    1.910030   -1.688880
  C     -1.100430    0.886760   -2.699460
  N     -2.198220    0.130060   -2.638740
  S     -3.125040    0.655700   -1.435660
  N     -2.188100    1.864050   -0.928040
  C     -0.058010    3.832520   -0.548920
  S     -1.592690    4.321680    0.077250
  C     -0.894320    5.536220    1.098560
  C      0.498000    5.559830    0.958750
  C      0.978330    4.563700    0.048820
  C      2.367890    4.398780   -0.102050
  C      3.254680    5.252490    0.516500
  C      4.682400    5.027070    0.344170
  C      5.671090    5.696160    0.927030
  C      2.748250    6.331910    1.287580
  C      1.414210    6.477520    1.516450
  C     -1.736750    6.337780    1.910530
  S     -3.297880    6.807400    1.316610
  C     -3.687640    7.689520    2.760640
  C     -2.625070    7.637150    3.668300
  C     -1.534500    6.835030    3.205560
  C     -0.457750    6.574120    4.072360
  C     -0.384870    7.182020    5.305870
  C      0.741190    6.874120    6.174810
  C      0.944080    7.326660    7.407370
  C     -1.400730    8.102850    5.680530
  C     -2.493780    8.318440    4.899000
  C     -4.941140    8.342260    2.876200
  S     -5.668790    9.069190    1.483610
  C     -7.026650    9.665900    2.380770
  C     -6.947660    9.262740    3.713160
  C     -5.772330    8.492840    3.994630
  C     -5.614390    7.894340    5.256820
  C     -6.549900    8.086840    6.248090
  C     -6.339240    7.454970    7.541840
  C     -7.096820    7.582070    8.625700
  C     -7.695390    8.879070    5.965720
  C     -7.901910    9.435090    4.741750
  C     -8.019960   10.431530    1.673260
  C     -8.301780   10.169460    0.342420
  C     -9.243070   10.897510   -0.396630
  C     -9.941830   11.941890    0.148720
  C     -9.672520   12.275580    1.484250
  C     -8.714600   11.524260    2.257740
  N     -8.569480   12.024150    3.483080
  S     -9.545700   13.291250    3.650440
  N    -10.201460   13.281240    2.183650
  H     -0.043180    0.018130   -4.363780
  H      1.800310    1.666980   -4.197460
  H      1.792430    3.418840   -2.527170
  H      2.745690    3.573760   -0.685850
  H      4.929060    4.214100   -0.328450
  H      5.504430    6.507510    1.614350
  H      6.700980    5.448880    0.734760
  H      3.437620    7.046820    1.707350
  H      1.044710    7.301100    2.107730
  H      0.307270    5.876440    3.766480
  H      1.466920    6.197090    5.740070
  H      0.263780    7.995130    7.906150
  H      1.812920    7.035450    7.972170
  H     -1.306240    8.637040    6.612270
  H     -3.258280    9.017490    5.200990
  H     -4.761880    7.255590    5.433540
  H     -5.455370    6.829700    7.592920
  H     -7.983690    8.191500    8.653950
  H     -6.848130    7.073430    9.541410
  H     -8.436190    9.016660    6.737140
  H     -8.793920   10.003930    4.541950
  H     -7.781500    9.355670   -0.142190
  H     -9.416000   10.617450   -1.425040
  H    -10.666180   12.510280   -0.410720

 Total Charge           Charge          ....    0
 Multiplicity           Mult            ....    1
 Number of Electrons    NEL             ....  384
 Basis Dimension        Dim             ....  854

ORBITAL ENERGIES
----------------

  NO   OCC          E(Eh)            E(eV)
   0   2.0000     -89.016782     -2422.2698
   1   2.0000     -89.016482     -2422.2616
   2   2.0000     -88.961337     -2420.7611
   3   2.0000     -88.961195     -2420.7572
   4   2.0000     -88.956927     -2420.6410
   5   2.0000     -14.432824      -392.7371
   6   2.0000     -14.430776      -392.6814
   7   2.0000     -14.430183      -392.6652
   8   2.0000     -14.428997      -392.6330
   9   2.0000     -10.317697      -280.7588
  10   2.0000     -10.316240      -280.7192
  11   2.0000     -10.314309      -280.6666
  12   2.0000     -10.314133      -280.6618
  13   2.0000     -10.304552      -280.4011
  14   2.0000     -10.304127      -280.3895
  15   2.0000     -10.303244      -280.3655
  16   2.0000     -10.300206      -280.2828
  17   2.0000     -10.299555      -280.2651
  18   2.0000     -10.297971      -280.2220
  19   2.0000     -10.297281      -280.2033
  20   2.0000     -10.296812      -280.1905
  21   2.0000     -10.282208      -279.7931
  22   2.0000     -10.282147      -279.7914
  23   2.0000     -10.280905      -279.7576
  24   2.0000     -10.280217      -279.7389
  25   2.0000     -10.278033      -279.6795
  26   2.0000     -10.277481      -279.6645
  27   2.0000     -10.277470      -279.6642
  28   2.0000     -10.277043      -279.6525
  29   2.0000     -10.277025      -279.6521
  30   2.0000     -10.275655      -279.6148
  31   2.0000     -10.275166      -279.6015
  32   2.0000     -10.274671      -279.5880
  33   2.0000     -10.273750      -279.5630
  34   2.0000     -10.272813      -279.5375
  35   2.0000     -10.269790      -279.4552
  36   2.0000     -10.268530      -279.4209
  37   2.0000     -10.268494      -279.4199
  38   2.0000     -10.268356      -279.4162
  39   2.0000     -10.268191      -279.4117
  40   2.0000     -10.266987      -279.3789
  41   2.0000     -10.266588      -279.3681
  42   2.0000     -10.265727      -279.3446
  43   2.0000     -10.264798      -279.3194
  44   2.0000     -10.264480      -279.3107
  45   2.0000     -10.263437      -279.2823
  46   2.0000     -10.262045      -279.2444
  47   2.0000     -10.261025      -279.2167
  48   2.0000     -10.259155      -279.1658
  49   2.0000     -10.257518      -279.1212
  50   2.0000     -10.255459      -279.0652
  51   2.0000      -8.108762      -220.6506
  52   2.0000      -8.108479      -220.6429
  53   2.0000      -8.056570      -219.2304
  54   2.0000      -8.056309      -219.2233
  55   2.0000      -8.051216      -219.0847
  56   2.0000      -6.079953      -165.4439
  57   2.0000      -6.079636      -165.4353
  58   2.0000      -6.072253      -165.2344
  59   2.0000      -6.071894      -165.2246
  60   2.0000      -6.071092      -165.2028
  61   2.0000      -6.070945      -165.1988
  62   2.0000      -6.025601      -163.9649
  63   2.0000      -6.025300      -163.9568
  64   2.0000      -6.021486      -163.8530
  65   2.0000      -6.021174      -163.8445
  66   2.0000      -6.020241      -163.8191
  67   2.0000      -6.019235      -163.7917
  68   2.0000      -6.019099      -163.7880
  69   2.0000      -6.015847      -163.6995
  70   2.0000      -6.014170      -163.6539
  71   2.0000      -1.117036       -30.3961
  72   2.0000      -1.116098       -30.3706
  73   2.0000      -1.003486       -27.3062
  74   2.0000      -0.993729       -27.0407
  75   2.0000      -0.981715       -26.7138
  76   2.0000      -0.969986       -26.3947
  77   2.0000      -0.968319       -26.3493
  78   2.0000      -0.953001       -25.9325
  79   2.0000      -0.951930       -25.9033
  80   2.0000      -0.934774       -25.4365
  81   2.0000      -0.929510       -25.2933
  82   2.0000      -0.923084       -25.1184
  83   2.0000      -0.889676       -24.2093
  84   2.0000      -0.873197       -23.7609
  85   2.0000      -0.869499       -23.6603
  86   2.0000      -0.865680       -23.5563
  87   2.0000      -0.859739       -23.3947
  88   2.0000      -0.851479       -23.1699
  89   2.0000      -0.850629       -23.1468
  90   2.0000      -0.846504       -23.0345
  91   2.0000      -0.833504       -22.6808
  92   2.0000      -0.830124       -22.5888
  93   2.0000      -0.814711       -22.1694
  94   2.0000      -0.808878       -22.0107
  95   2.0000      -0.806131       -21.9359
  96   2.0000      -0.798057       -21.7162
  97   2.0000      -0.785988       -21.3878
  98   2.0000      -0.759158       -20.6577
  99   2.0000      -0.737628       -20.0719
 100   2.0000      -0.730591       -19.8804
 101   2.0000      -0.709406       -19.3039
 102   2.0000      -0.705307       -19.1924
 103   2.0000      -0.704225       -19.1629
 104   2.0000      -0.702399       -19.1132
 105   2.0000      -0.699960       -19.0469
 106   2.0000      -0.694667       -18.9029
 107   2.0000      -0.691540       -18.8178
 108   2.0000      -0.690603       -18.7923
 109   2.0000      -0.687901       -18.7187
 110   2.0000      -0.660706       -17.9787
 111   2.0000      -0.653056       -17.7706
 112   2.0000      -0.643879       -17.5208
 113   2.0000      -0.635183       -17.2842
 114   2.0000      -0.617445       -16.8015
 115   2.0000      -0.615393       -16.7457
 116   2.0000      -0.611923       -16.6513
 117   2.0000      -0.598459       -16.2849
 118   2.0000      -0.588578       -16.0160
 119   2.0000      -0.586480       -15.9589
 120   2.0000      -0.583744       -15.8845
 121   2.0000      -0.572828       -15.5874
 122   2.0000      -0.567572       -15.4444
 123   2.0000      -0.566444       -15.4137
 124   2.0000      -0.563943       -15.3457
 125   2.0000      -0.562469       -15.3056
 126   2.0000      -0.559030       -15.2120
 127   2.0000      -0.555220       -15.1083
 128   2.0000      -0.551671       -15.0117
 129   2.0000      -0.543789       -14.7972
 130   2.0000      -0.541517       -14.7354
 131   2.0000      -0.540844       -14.7171
 132   2.0000      -0.530114       -14.4251
 133   2.0000      -0.524374       -14.2689
 134   2.0000      -0.515811       -14.0359
 135   2.0000      -0.512869       -13.9559
 136   2.0000      -0.510294       -13.8858
 137   2.0000      -0.504906       -13.7392
 138   2.0000      -0.503678       -13.7058
 139   2.0000      -0.498819       -13.5735
 140   2.0000      -0.496176       -13.5016
 141   2.0000      -0.495459       -13.4821
 142   2.0000      -0.494720       -13.4620
 143   2.0000      -0.492700       -13.4071
 144   2.0000      -0.487242       -13.2585
 145   2.0000      -0.479213       -13.0400
 146   2.0000      -0.477032       -12.9807
 147   2.0000      -0.474000       -12.8982
 148   2.0000      -0.469940       -12.7877
 149   2.0000      -0.460495       -12.5307
 150   2.0000      -0.458229       -12.4690
 151   2.0000      -0.456139       -12.4122
 152   2.0000      -0.455405       -12.3922
 153   2.0000      -0.448765       -12.2115
 154   2.0000      -0.447325       -12.1723
 155   2.0000      -0.445320       -12.1178
 156   2.0000      -0.443326       -12.0635
 157   2.0000      -0.435266       -11.8442
 158   2.0000      -0.433377       -11.7928
 159   2.0000      -0.431639       -11.7455
 160   2.0000      -0.430319       -11.7096
 161   2.0000      -0.428831       -11.6691
 162   2.0000      -0.423534       -11.5250
 163   2.0000      -0.421326       -11.4649
 164   2.0000      -0.418552       -11.3894
 165   2.0000      -0.417973       -11.3736
 166   2.0000      -0.411148       -11.1879
 167   2.0000      -0.407110       -11.0780
 168   2.0000      -0.405610       -11.0372
 169   2.0000      -0.402531       -10.9534
 170   2.0000      -0.401973       -10.9383
 171   2.0000      -0.395146       -10.7525
 172   2.0000      -0.390070       -10.6143
 173   2.0000      -0.386670       -10.5218
 174   2.0000      -0.373186       -10.1549
 175   2.0000      -0.366205        -9.9649
 176   2.0000      -0.364811        -9.9270
 177   2.0000      -0.357294        -9.7225
 178   2.0000      -0.354612        -9.6495
 179   2.0000      -0.350120        -9.5273
 180   2.0000      -0.341068        -9.2809
 181   2.0000      -0.334670        -9.1068
 182   2.0000      -0.327203        -8.9036
 183   2.0000      -0.327109        -8.9011
 184   2.0000      -0.307923        -8.3790
 185   2.0000      -0.305867        -8.3231
 186   2.0000      -0.295585        -8.0433
 187   2.0000      -0.289725        -7.8838
 188   2.0000      -0.286763        -7.8032
 189   2.0000      -0.270567        -7.3625
 190   2.0000      -0.244490        -6.6529
 191   2.0000      -0.211880        -5.7656
 192   0.0000      -0.072497        -1.9727
 193   0.0000      -0.058085        -1.5806
 194   0.0000      -0.041058        -1.1173
 195   0.0000      -0.023081        -0.6281
 196   0.0000      -0.015608        -0.4247

MULLIKEN ATOMIC CHARGES
-----------------------
   0 C :   -0.036831
   1 C :    0.041575
   2 C :   -0.065654
   3 C :    0.125531
   4 C :   -0.031476
   5 C :    0.066519
   6 N :   -0.269432
   7 S :    0.501666
   8 N :   -0.303359
   9 C :   -0.162976
  10 S :    0.211361
  11 C :   -0.145438
  12 C :    0.116205
  13 C :    0.139472
  14 C :   -0.129139
  15 C :    0.116687
  16 C :    0.000195
  17 C :   -0.023057
  18 C :   -0.016318
  19 C :   -0.040778
  20 C :   -0.154490
  21 S :    0.175062
  22 C :   -0.140545
  23 C :    0.110983
  24 C :    0.147257
  25 C :   -0.137258
  26 C :    0.114550
  27 C :   -0.001879
  28 C :   -0.020989
  29 C :   -0.011597
  30 C :   -0.043372
  31 C :   -0.156852
  32 S :    0.165517
  33 C :   -0.159181
  34 C :    0.113748
  35 C :    0.140373
  36 C :   -0.134446
  37 C :    0.114419
  38 C :   -0.002855
  39 C :   -0.019793
  40 C :   -0.018168
  41 C :    0.007836
  42 C :    0.095173
  43 C :   -0.054575
  44 C :    0.041922
  45 C :   -0.030705
  46 C :    0.056559
  47 C :   -0.009281
  48 N :   -0.277398
  49 S :    0.494838
  50 N :   -0.271783
  51 H :   -0.018859
  52 H :   -0.004941
  53 H :   -0.013720
  54 H :   -0.034981
  55 H :   -0.018561
  56 H :    0.014734
  57 H :    0.021362
  58 H :   -0.031927
  59 H :   -0.008998
  60 H :   -0.011940
  61 H :   -0.014962
  62 H :    0.013295
  63 H :    0.021275
  64 H :   -0.031731
  65 H :   -0.007407
  66 H :   -0.014764
  67 H :   -0.015025
  68 H :    0.012043
  69 H :    0.019802
  70 H :   -0.035483
  71 H :   -0.032880
  72 H :   -0.011456
  73 H :   -0.004375
  74 H :   -0.018323
Sum of atomic charges:    0.0000000

LOEWDIN ATOMIC CHARGES
----------------------
   0 C :   -0.029415
   1 C :   -0.013180
   2 C :   -0.024150
   3 C :   -0.037928
   4 C :   -0.053110
   5 C :   -0.051769
   6 N :   -0.286238
   7 S :    0.636594
   8 N :   -0.302181
   9 C :   -0.183814
  10 S :    0.517844
  11 C :   -0.201821
  12 C :   -0.050473
  13 C :   -0.038306
  14 C :   -0.020041
  15 C :   -0.026478
  16 C :   -0.018901
  17 C :   -0.047470
  18 C :   -0.021471
  19 C :   -0.010417
  20 C :   -0.200430
  21 S :    0.465957
  22 C :   -0.198974
  23 C :   -0.047787
  24 C :   -0.044791
  25 C :   -0.013759
  26 C :   -0.029490
  27 C :   -0.018510
  28 C :   -0.048675
  29 C :   -0.017045
  30 C :   -0.012708
  31 C :   -0.199395
  32 S :    0.478730
  33 C :   -0.173832
  34 C :   -0.036184
  35 C :   -0.045057
  36 C :   -0.017269
  37 C :   -0.027781
  38 C :   -0.018082
  39 C :   -0.049729
  40 C :   -0.019096
  41 C :   -0.001489
  42 C :   -0.040737
  43 C :   -0.027172
  44 C :   -0.013640
  45 C :   -0.025898
  46 C :   -0.051420
  47 C :   -0.047647
  48 N :   -0.279800
  49 S :    0.635322
  50 N :   -0.289139
  51 H :    0.036330
  52 H :    0.033461
  53 H :    0.031834
  54 H :    0.024509
  55 H :    0.027472
  56 H :    0.019786
  57 H :    0.025590
  58 H :    0.026704
  59 H :    0.034331
  60 H :    0.031864
  61 H :    0.029422
  62 H :    0.019224
  63 H :    0.025593
  64 H :    0.027203
  65 H :    0.034846
  66 H :    0.031186
  67 H :    0.029359
  68 H :    0.018883
  69 H :    0.025120
  70 H :    0.025893
  71 H :    0.024392
  72 H :    0.024622
  73 H :    0.033930
  74 H :    0.036697

  Mayer bond orders larger than 0.100000
B(  0-C ,  1-C ) :   1.4880 B(  0-C ,  3-C ) :   0.1017 B(  0-C ,  5-C ) :   1.2064
B(  0-C , 51-H ) :   1.0226 B(  1-C ,  2-C ) :   1.2114 B(  1-C , 52-H ) :   0.9840
B(  2-C ,  3-C ) :   1.4919 B(  2-C , 53-H ) :   0.9935 B(  3-C ,  4-C ) :   1.1715
B(  3-C ,  9-C ) :   1.0859 B(  4-C ,  5-C ) :   1.1669 B(  4-C ,  8-N ) :   1.5165
B(  5-C ,  6-N ) :   1.5121 B(  6-N ,  7-S ) :   1.2754 B(  6-N ,  8-N ) :   0.1498
B(  7-S ,  8-N ) :   1.2502 B(  9-C , 10-S ) :   1.1679 B(  9-C , 11-C ) :   0.1255
B(  9-C , 13-C ) :   1.3496 B( 10-S , 11-C ) :   1.1652 B( 11-C , 12-C ) :   1.3617
B( 11-C , 20-C ) :   1.1221 B( 12-C , 13-C ) :   1.2146 B( 12-C , 19-C ) :   1.1818
B( 13-C , 14-C ) :   1.1684 B( 14-C , 15-C ) :   1.4881 B( 14-C , 54-H ) :   0.9949
B( 15-C , 16-C ) :   1.0692 B( 15-C , 18-C ) :   1.1776 B( 16-C , 17-C ) :   1.9401
B( 16-C , 55-H ) :   0.9698 B( 17-C , 56-H ) :   0.9500 B( 17-C , 57-H ) :   0.9492
B( 18-C , 19-C ) :   1.5718 B( 18-C , 58-H ) :   0.9883 B( 19-C , 59-H ) :   0.9898
B( 20-C , 21-S ) :   1.1541 B( 20-C , 22-C ) :   0.1290 B( 20-C , 24-C ) :   1.3648
B( 21-S , 22-C ) :   1.1506 B( 22-C , 23-C ) :   1.3852 B( 22-C , 31-C ) :   1.1174
B( 23-C , 24-C ) :   1.2085 B( 23-C , 30-C ) :   1.1722 B( 24-C , 25-C ) :   1.1640
B( 25-C , 26-C ) :   1.4881 B( 25-C , 60-H ) :   1.0010 B( 26-C , 27-C ) :   1.0716
B( 26-C , 29-C ) :   1.1696 B( 27-C , 28-C ) :   1.9396 B( 27-C , 61-H ) :   0.9705
B( 28-C , 62-H ) :   0.9491 B( 28-C , 63-H ) :   0.9486 B( 29-C , 30-C ) :   1.5801
B( 29-C , 64-H ) :   0.9887 B( 30-C , 65-H ) :   0.9903 B( 31-C , 32-S ) :   1.1678
B( 31-C , 33-C ) :   0.1294 B( 31-C , 35-C ) :   1.3572 B( 32-S , 33-C ) :   1.1531
B( 33-C , 34-C ) :   1.4093 B( 33-C , 42-C ) :   1.0397 B( 34-C , 35-C ) :   1.1943
B( 34-C , 41-C ) :   1.1864 B( 35-C , 36-C ) :   1.1717 B( 36-C , 37-C ) :   1.4884
B( 36-C , 66-H ) :   1.0012 B( 37-C , 38-C ) :   1.0705 B( 37-C , 40-C ) :   1.1703
B( 38-C , 39-C ) :   1.9423 B( 38-C , 67-H ) :   0.9698 B( 39-C , 68-H ) :   0.9489
B( 39-C , 69-H ) :   0.9478 B( 40-C , 41-C ) :   1.5944 B( 40-C , 70-H ) :   0.9859
B( 41-C , 71-H ) :   0.9762 B( 42-C , 43-C ) :   1.4959 B( 42-C , 45-C ) :   0.1046
B( 42-C , 47-C ) :   1.2056 B( 43-C , 44-C ) :   1.2189 B( 43-C , 72-H ) :   0.9897
B( 44-C , 45-C ) :   1.4855 B( 44-C , 73-H ) :   0.9844 B( 45-C , 46-C ) :   1.2087
B( 45-C , 74-H ) :   1.0222 B( 46-C , 47-C ) :   1.1588 B( 46-C , 50-N ) :   1.5112
B( 47-C , 48-N ) :   1.5256 B( 48-N , 49-S ) :   1.2577 B( 48-N , 50-N ) :   0.1507
B( 49-S , 50-N ) :   1.2735

-----------------------------------------------------------------------------
         ABSORPTION SPECTRUM VIA TRANSITION ELECTRIC DIPOLE MOMENTS
-----------------------------------------------------------------------------
State   Energy  Wavelength   fosc         T2         TX        TY        TZ
        (cm-1)    (nm)                  (au**2)     (au)      (au)      (au)
-----------------------------------------------------------------------------
   0   15315.7    652.9   0.901215835  19.37169   2.70925  -2.96627  -1.79802
   1   18889.5    529.4   0.329216699   5.73769  -1.77223   0.00868  -1.61146
   2   21619.3    462.6   0.154173795   2.34772  -1.24552  -0.04581   0.89124
   3   22270.6    449.0   0.112082797   1.65685  -0.97111  -0.36738  -0.76080
   4   24701.4    404.8   0.029655778   0.39524   0.43961   0.32903   0.30615
   5   25371.9    394.1   0.108290368   1.40512   0.72561   0.23360   0.90777
   6   27247.5    367.0   0.059497769   0.71887   0.07080   0.83634   0.11999
   7   28833.4    346.8   0.010303489   0.11764   0.28891  -0.01507  -0.18424
   8   29440.2    339.7   0.000411187   0.00460  -0.00254  -0.06772   0.00241
   9   30750.5    325.2   0.060480721   0.64750   0.38115   0.35690  -0.61224
  10   30965.6    322.9   0.072648723   0.77237   0.54309  -0.32547   0.60951
  11   31839.6    314.1   0.041596419   0.43009  -0.50247  -0.14129  -0.39706
  12   33169.2    301.5   0.009555057   0.09484  -0.17617   0.24810   0.04740
  13   33265.5    300.6   0.047972499   0.47476  -0.20745  -0.65052  -0.09243
  14   33711.3    296.6   0.038153446   0.37259   0.53745  -0.07387   0.27979
  15   33875.4    295.2   0.067834567   0.65924  -0.27712   0.39968   0.65015
  16   34656.1    288.5   0.087978772   0.83575   0.35144   0.50427  -0.67672
  17   34924.6    286.3   0.071724963   0.67610  -0.25747   0.57234  -0.53126
  18   35250.3    283.7   0.005297604   0.04948  -0.11567  -0.03744   0.18627
  19   35437.5    282.2   0.065964855   0.61281   0.10916   0.36076  -0.68611
  20   35584.9    281.0   0.266037890   2.46124  -1.29714   0.07841  -0.87893
  21   35884.2    278.7   0.107257176   0.98401   0.98156  -0.00022   0.14337
  22   36696.6    272.5   0.036718583   0.32941  -0.41853  -0.26053  -0.29388
  23   37191.6    268.9   0.024949961   0.22085   0.25047   0.04781   0.39475
  24   37231.3    268.6   0.001407365   0.01244  -0.00805   0.05968  -0.09390
  25   37432.7    267.1   0.024969011   0.21960   0.13721  -0.33591  -0.29654
  26   38183.3    261.9   0.117386309   1.01209   0.58274   0.77240   0.27549
  27   38363.5    260.7   0.020588039   0.17667   0.36512   0.06832   0.19670
  28   39099.1    255.8   0.031928113   0.26883   0.05892  -0.47191   0.20656
  29   39302.3    254.4   0.071583915   0.59962  -0.02701  -0.44784  -0.63113
  30   39338.6    254.2   0.137382177   1.14971   0.78744  -0.36327  -0.63062
  31   39543.0    252.9   0.038722271   0.32238   0.09548  -0.52206   0.20177
  32   39872.1    250.8   0.269279892   2.22336  -0.45050  -0.23322   1.40215
  33   40261.4    248.4   0.049022423   0.40085   0.44914   0.24554  -0.37261

FINAL SINGLE POINT ENERGY     -3821.841287939695

DIPOLE MOMENT
-------------
                                X             Y             Z
Electronic contribution:    -33.76736      -0.19832     -26.15499
Nuclear contribution   :     34.14469       0.15502      25.87976
                        -----------------------------------------
Total Dipole Moment    :      0.37732      -0.04329      -0.27524
                        -----------------------------------------
Magnitude (a.u.)       :      0.46904
Magnitude (Debye)      :      1.19221

Rotational constants in cm-1:     0.002255     0.000753     0.000651
Rotational constants in MHz :    67.616382    22.570115    19.512658

                             ****ORCA TERMINATED NORMALLY****
TOTAL RUN TIME: 0 days 0 hours 5 minutes 55 seconds 550 msec
