                         Program Version 4.2.0 -  RELEASE  -
|  1> # ORCA input file
|  2> # SCF done       -210.412200502251          0.000962965351
|  3> ! CAM-B3LYP def2-SVP def2/J RIJCOSX Grid4 TightSCF
|  4> %maxcore 5000
|  5> %tddft
|  6>     Mode sTDDFT
|  7>     Ethresh 5.0
|  8>     maxcore 5000
|  9> end
| 10>
| 11> %pal
| 12>   nprocs 6
| 13>   end
| 14> * xyz 0 1
| 15>    C       -2.92136        -9.64424        -2.57728
| 16>    C       -3.97036        -9.56768        -3.48125
| 17>    F       -4.57077       -10.69551        -3.87389
| 18>    C       -4.41027        -8.34450        -3.99040
| 19>    F       -5.43179        -8.31812        -4.85304
| 20>    C       -3.79928        -7.15890        -3.61371
| 21>    C       -2.74782        -7.23442        -2.72143
| 22>    C       -2.30782        -8.46242        -2.19549
| 23>    C       -1.22677        -8.20623        -1.24451
| 24>    C       -0.86330        -9.04544        -0.22417
| 25>    C       -1.34076       -10.36456        -0.08116
| 26>    N       -1.68252       -11.44918         0.07199
| 27>    C       -0.04535        -8.65414         0.85650
| 28>    N        0.58002        -8.36969         1.77618
| 29>    C       -0.85634        -6.81441        -1.38424
| 30>    C       -1.91619        -6.13576        -2.17674
| 31>    O       -2.03726        -4.94955        -2.36519
| 32>    C        0.24267        -6.11736        -0.98102
| 33>    C        1.50342        -6.61009        -0.57567
| 34>    C        2.40677        -5.95834         0.24950
| 35>    C        3.54516        -6.71856         0.48899
| 36>    C        3.54688        -7.94089        -0.21839
| 37>    S        2.13029        -8.16334        -1.13606
| 38>    C        4.72400        -8.65001         0.10790
| 39>    C        5.45044        -7.90058         1.05213
| 40>    C        4.74491        -6.65118         1.30166
| 41>    C        5.13446        -5.63865         2.12800
| 42>    C        6.32852        -5.70390         2.87681
| 43>    N        7.30123        -5.75902         3.48142
| 44>    C        4.37790        -4.45674         2.27766
| 45>    N        3.77360        -3.49034         2.39982
| 46>    C        6.59573        -8.55114         1.49764
| 47>    C        6.76943        -9.78134         0.88301
| 48>    S        5.48591       -10.13429        -0.26619
| 49>    C        7.80213       -10.72982         1.13729
| 50>    C        8.09716       -11.76827         0.28363
| 51>    C        9.06207       -12.74108         0.52689
| 52>    C        9.80085       -12.77280         1.79038
| 53>    C        9.69964       -11.83083         2.75427
| 54>    S        8.65610       -10.47665         2.65472
| 55>    C       10.61835       -13.93310         1.71907
| 56>    C       10.44316       -14.57164         0.48760
| 57>    C       11.24781       -15.73043         0.39164
| 58>    C       11.98672       -15.92770         1.51506
| 59>    S       11.74903       -14.72717         2.73530
| 60>    C        9.48779       -13.81741        -0.28843
| 61>    C        9.11020       -13.98853        -1.63443
| 62>    C        9.57972       -14.95254        -2.47754
| 63>    C        9.32624       -14.99729        -3.86441
| 64>    C        8.61035       -14.10760        -4.66223
| 65>    C        8.68534       -14.43326        -6.00823
| 66>    C        9.45364       -15.58964        -6.26048
| 67>    S       10.07367       -16.27110        -4.82035
| 68>    C        9.52212       -15.79269        -7.65318
| 69>    C        8.79561       -14.75909        -8.29307
| 70>    C        8.24595       -13.87928        -7.28195
| 71>    C        7.51622       -12.74356        -7.48467
| 72>    C        7.19959       -12.29722        -8.78475
| 73>    N        6.95176       -11.94923        -9.84890
| 74>    C        7.04522       -11.95704        -6.41413
| 75>    N        6.66211       -11.32756        -5.53500
| 76>    C        8.87128       -14.82215        -9.67556
| 77>    C        9.64412       -15.89020       -10.11577
| 78>    S       10.24814       -16.85525        -8.76523
| 79>    C        9.96114       -16.28241       -11.42791
| 80>    C        9.89992       -15.55790       -12.58578
| 81>    C        9.88361       -16.29059       -13.87877
| 82>    O       10.10173       -17.46728       -14.04878
| 83>    C        9.50012       -15.28185       -14.89144
| 84>    C        9.40571       -14.01960       -14.27976
| 85>    C        9.02356       -12.91425       -15.02200
| 86>    C        8.75334       -13.09969       -16.36999
| 87>    C        8.86619       -14.35264       -16.97417
| 88>    C        9.24072       -15.46377       -16.23554
| 89>    F        8.60566       -14.48284       -18.28020
| 90>    F        8.37397       -12.04977       -17.10537
| 91>    C        9.79180       -14.14557       -12.87218
| 92>    C       10.22509       -13.10336       -12.09360
| 93>    C       10.84767       -13.25471       -10.83955
| 94>    N       11.38575       -13.31733        -9.82699
| 95>    C       10.19897       -11.75135       -12.49752
| 96>    N       10.20604       -10.63730       -12.77128
| 97>    H       -2.61350       -10.61039        -2.21169
| 98>    H       -4.13924        -6.21379        -4.00613
| 99>    H        0.15218        -5.03613        -1.03029
|100>    H        2.19953        -4.99793         0.68585
|101>    H        7.28334        -8.16028         2.22584
|102>    H        7.52545       -11.81489        -0.63417
|103>    H       10.28418       -11.86127         3.66007
|104>    H       11.29136       -16.40308        -0.44453
|105>    H       12.67647       -16.72526         1.71074
|106>    H        8.43301       -13.24641        -2.03355
|107>    H       10.23295       -15.72101        -2.09620
|108>    H        8.08232       -13.25884        -4.26954
|109>    H        8.36256       -14.15485       -10.34745
|110>    H       10.24443       -17.32214       -11.56319
|111>    H        8.91745       -11.92901       -14.59811
|112>    H        9.32563       -16.43313       -16.70012
|113> *
|114>
|115>                          ****END OF INPUT****

CARTESIAN COORDINATES (ANGSTROEM)
---------------------------------
  C     -2.921360   -9.644240   -2.577280
  C     -3.970360   -9.567680   -3.481250
  F     -4.570770  -10.695510   -3.873890
  C     -4.410270   -8.344500   -3.990400
  F     -5.431790   -8.318120   -4.853040
  C     -3.799280   -7.158900   -3.613710
  C     -2.747820   -7.234420   -2.721430
  C     -2.307820   -8.462420   -2.195490
  C     -1.226770   -8.206230   -1.244510
  C     -0.863300   -9.045440   -0.224170
  C     -1.340760  -10.364560   -0.081160
  N     -1.682520  -11.449180    0.071990
  C     -0.045350   -8.654140    0.856500
  N      0.580020   -8.369690    1.776180
  C     -0.856340   -6.814410   -1.384240
  C     -1.916190   -6.135760   -2.176740
  O     -2.037260   -4.949550   -2.365190
  C      0.242670   -6.117360   -0.981020
  C      1.503420   -6.610090   -0.575670
  C      2.406770   -5.958340    0.249500
  C      3.545160   -6.718560    0.488990
  C      3.546880   -7.940890   -0.218390
  S      2.130290   -8.163340   -1.136060
  C      4.724000   -8.650010    0.107900
  C      5.450440   -7.900580    1.052130
  C      4.744910   -6.651180    1.301660
  C      5.134460   -5.638650    2.128000
  C      6.328520   -5.703900    2.876810
  N      7.301230   -5.759020    3.481420
  C      4.377900   -4.456740    2.277660
  N      3.773600   -3.490340    2.399820
  C      6.595730   -8.551140    1.497640
  C      6.769430   -9.781340    0.883010
  S      5.485910  -10.134290   -0.266190
  C      7.802130  -10.729820    1.137290
  C      8.097160  -11.768270    0.283630
  C      9.062070  -12.741080    0.526890
  C      9.800850  -12.772800    1.790380
  C      9.699640  -11.830830    2.754270
  S      8.656100  -10.476650    2.654720
  C     10.618350  -13.933100    1.719070
  C     10.443160  -14.571640    0.487600
  C     11.247810  -15.730430    0.391640
  C     11.986720  -15.927700    1.515060
  S     11.749030  -14.727170    2.735300
  C      9.487790  -13.817410   -0.288430
  C      9.110200  -13.988530   -1.634430
  C      9.579720  -14.952540   -2.477540
  C      9.326240  -14.997290   -3.864410
  C      8.610350  -14.107600   -4.662230
  C      8.685340  -14.433260   -6.008230
  C      9.453640  -15.589640   -6.260480
  S     10.073670  -16.271100   -4.820350
  C      9.522120  -15.792690   -7.653180
  C      8.795610  -14.759090   -8.293070
  C      8.245950  -13.879280   -7.281950
  C      7.516220  -12.743560   -7.484670
  C      7.199590  -12.297220   -8.784750
  N      6.951760  -11.949230   -9.848900
  C      7.045220  -11.957040   -6.414130
  N      6.662110  -11.327560   -5.535000
  C      8.871280  -14.822150   -9.675560
  C      9.644120  -15.890200  -10.115770
  S     10.248140  -16.855250   -8.765230
  C      9.961140  -16.282410  -11.427910
  C      9.899920  -15.557900  -12.585780
  C      9.883610  -16.290590  -13.878770
  O     10.101730  -17.467280  -14.048780
  C      9.500120  -15.281850  -14.891440
  C      9.405710  -14.019600  -14.279760
  C      9.023560  -12.914250  -15.022000
  C      8.753340  -13.099690  -16.369990
  C      8.866190  -14.352640  -16.974170
  C      9.240720  -15.463770  -16.235540
  F      8.605660  -14.482840  -18.280200
  F      8.373970  -12.049770  -17.105370
  C      9.791800  -14.145570  -12.872180
  C     10.225090  -13.103360  -12.093600
  C     10.847670  -13.254710  -10.839550
  N     11.385750  -13.317330   -9.826990
  C     10.198970  -11.751350  -12.497520
  N     10.206040  -10.637300  -12.771280
  H     -2.613500  -10.610390   -2.211690
  H     -4.139240   -6.213790   -4.006130
  H      0.152180   -5.036130   -1.030290
  H      2.199530   -4.997930    0.685850
  H      7.283340   -8.160280    2.225840
  H      7.525450  -11.814890   -0.634170
  H     10.284180  -11.861270    3.660070
  H     11.291360  -16.403080   -0.444530
  H     12.676470  -16.725260    1.710740
  H      8.433010  -13.246410   -2.033550
  H     10.232950  -15.721010   -2.096200
  H      8.082320  -13.258840   -4.269540
  H      8.362560  -14.154850  -10.347450
  H     10.244430  -17.322140  -11.563190
  H      8.917450  -11.929010  -14.598110
  H      9.325630  -16.433130  -16.700120

 Total Charge           Charge          ....    0
 Multiplicity           Mult            ....    1
 Number of Electrons    NEL             ....  592
 Basis Dimension        Dim             .... 1252

ORBITAL ENERGIES
----------------

  NO   OCC          E(Eh)            E(eV)
   0   2.0000     -89.004337     -2421.9312
   1   2.0000     -89.003116     -2421.8979
   2   2.0000     -88.996662     -2421.7223
   3   2.0000     -88.992666     -2421.6136
   4   2.0000     -88.992141     -2421.5993
   5   2.0000     -88.969989     -2420.9965
   6   2.0000     -24.807652      -675.0505
   7   2.0000     -24.807511      -675.0467
   8   2.0000     -24.801353      -674.8791
   9   2.0000     -24.800549      -674.8573
  10   2.0000     -19.227463      -523.2059
  11   2.0000     -19.220108      -523.0057
  12   2.0000     -14.439486      -392.9184
  13   2.0000     -14.438514      -392.8919
  14   2.0000     -14.437413      -392.8620
  15   2.0000     -14.435705      -392.8155
  16   2.0000     -14.426692      -392.5703
  17   2.0000     -14.425892      -392.5485
  18   2.0000     -14.420896      -392.4125
  19   2.0000     -14.416368      -392.2893
  20   2.0000     -10.394325      -282.8440
  21   2.0000     -10.393500      -282.8215
  22   2.0000     -10.386913      -282.6423
  23   2.0000     -10.386307      -282.6258
  24   2.0000     -10.379594      -282.4431
  25   2.0000     -10.375550      -282.3331
  26   2.0000     -10.371672      -282.2275
  27   2.0000     -10.369812      -282.1769
  28   2.0000     -10.361983      -281.9639
  29   2.0000     -10.357770      -281.8493
  30   2.0000     -10.356735      -281.8211
  31   2.0000     -10.355933      -281.7993
  32   2.0000     -10.352364      -281.7021
  33   2.0000     -10.348000      -281.5834
  34   2.0000     -10.347517      -281.5703
  35   2.0000     -10.347263      -281.5633
  36   2.0000     -10.345694      -281.5207
  37   2.0000     -10.344472      -281.4874
  38   2.0000     -10.343609      -281.4639
  39   2.0000     -10.342896      -281.4445
  40   2.0000     -10.339433      -281.3503
  41   2.0000     -10.338306      -281.3196
  42   2.0000     -10.338101      -281.3140
  43   2.0000     -10.335993      -281.2567
  44   2.0000     -10.335414      -281.2409
  45   2.0000     -10.334825      -281.2249
  46   2.0000     -10.332448      -281.1602
  47   2.0000     -10.331505      -281.1346
  48   2.0000     -10.328763      -281.0599
  49   2.0000     -10.327998      -281.0391
  50   2.0000     -10.327803      -281.0338
  51   2.0000     -10.327313      -281.0205
  52   2.0000     -10.325960      -280.9837
  53   2.0000     -10.322331      -280.8849
  54   2.0000     -10.320639      -280.8389
  55   2.0000     -10.319621      -280.8112
  56   2.0000     -10.318784      -280.7884
  57   2.0000     -10.317981      -280.7665
  58   2.0000     -10.316816      -280.7348
  59   2.0000     -10.316578      -280.7284
  60   2.0000     -10.316255      -280.7196
  61   2.0000     -10.316103      -280.7154
  62   2.0000     -10.314840      -280.6811
  63   2.0000     -10.314373      -280.6684
  64   2.0000     -10.313480      -280.6440
  65   2.0000     -10.312920      -280.6288
  66   2.0000     -10.311310      -280.5850
  67   2.0000     -10.309798      -280.5439
  68   2.0000     -10.309722      -280.5418
  69   2.0000     -10.308869      -280.5186
  70   2.0000     -10.308780      -280.5162
  71   2.0000     -10.307713      -280.4871
  72   2.0000     -10.304091      -280.3886
  73   2.0000     -10.303465      -280.3715
  74   2.0000     -10.303328      -280.3678
  75   2.0000     -10.301572      -280.3200
  76   2.0000     -10.301024      -280.3051
  77   2.0000     -10.299539      -280.2647
  78   2.0000     -10.295269      -280.1485
  79   2.0000     -10.293219      -280.0927
  80   2.0000     -10.289698      -279.9969
  81   2.0000     -10.288598      -279.9670
  82   2.0000      -8.098554      -220.3728
  83   2.0000      -8.097287      -220.3384
  84   2.0000      -8.091461      -220.1799
  85   2.0000      -8.087376      -220.0687
  86   2.0000      -8.087372      -220.0686
  87   2.0000      -8.065465      -219.4725
  88   2.0000      -6.067852      -165.1147
  89   2.0000      -6.066567      -165.0797
  90   2.0000      -6.063703      -165.0018
  91   2.0000      -6.062339      -164.9646
  92   2.0000      -6.060827      -164.9235
  93   2.0000      -6.060641      -164.9184
  94   2.0000      -6.059651      -164.8915
  95   2.0000      -6.056999      -164.8193
  96   2.0000      -6.056605      -164.8086
  97   2.0000      -6.056520      -164.8063
  98   2.0000      -6.053856      -164.7338
  99   2.0000      -6.052466      -164.6960
 100   2.0000      -6.052363      -164.6932
 101   2.0000      -6.049742      -164.6218
 102   2.0000      -6.049208      -164.6073
 103   2.0000      -6.034867      -164.2171
 104   2.0000      -6.030604      -164.1011
 105   2.0000      -6.027574      -164.0186
 106   2.0000      -1.331710       -36.2377
 107   2.0000      -1.324944       -36.0535
 108   2.0000      -1.316423       -35.8217
 109   2.0000      -1.309681       -35.6382
 110   2.0000      -1.143554       -31.1177
 111   2.0000      -1.135948       -30.9107
 112   2.0000      -1.058071       -28.7916
 113   2.0000      -1.050980       -28.5986
 114   2.0000      -1.033280       -28.1170
 115   2.0000      -1.031024       -28.0556
 116   2.0000      -1.028134       -27.9769
 117   2.0000      -1.024082       -27.8667
 118   2.0000      -1.023138       -27.8410
 119   2.0000      -1.016447       -27.6589
 120   2.0000      -1.014257       -27.5993
 121   2.0000      -1.012848       -27.5610
 122   2.0000      -1.012035       -27.5389
 123   2.0000      -1.005317       -27.3561
 124   2.0000      -1.004154       -27.3244
 125   2.0000      -1.003384       -27.3035
 126   2.0000      -0.995812       -27.0974
 127   2.0000      -0.987693       -26.8765
 128   2.0000      -0.971222       -26.4283
 129   2.0000      -0.967731       -26.3333
 130   2.0000      -0.964272       -26.2392
 131   2.0000      -0.957834       -26.0640
 132   2.0000      -0.944442       -25.6996
 133   2.0000      -0.931438       -25.3457
 134   2.0000      -0.926032       -25.1986
 135   2.0000      -0.915458       -24.9109
 136   2.0000      -0.908609       -24.7245
 137   2.0000      -0.905324       -24.6351
 138   2.0000      -0.896594       -24.3976
 139   2.0000      -0.889989       -24.2178
 140   2.0000      -0.885438       -24.0940
 141   2.0000      -0.883267       -24.0349
 142   2.0000      -0.877793       -23.8860
 143   2.0000      -0.875517       -23.8240
 144   2.0000      -0.871048       -23.7024
 145   2.0000      -0.867017       -23.5927
 146   2.0000      -0.861280       -23.4366
 147   2.0000      -0.851526       -23.1712
 148   2.0000      -0.837606       -22.7924
 149   2.0000      -0.822170       -22.3724
 150   2.0000      -0.817592       -22.2478
 151   2.0000      -0.808624       -22.0038
 152   2.0000      -0.792505       -21.5651
 153   2.0000      -0.787893       -21.4397
 154   2.0000      -0.783057       -21.3081
 155   2.0000      -0.780539       -21.2395
 156   2.0000      -0.776541       -21.1307
 157   2.0000      -0.769572       -20.9411
 158   2.0000      -0.752873       -20.4867
 159   2.0000      -0.747780       -20.3481
 160   2.0000      -0.731883       -19.9155
 161   2.0000      -0.729776       -19.8582
 162   2.0000      -0.718904       -19.5624
 163   2.0000      -0.713628       -19.4188
 164   2.0000      -0.712007       -19.3747
 165   2.0000      -0.703799       -19.1513
 166   2.0000      -0.698711       -19.0129
 167   2.0000      -0.697411       -18.9775
 168   2.0000      -0.693724       -18.8772
 169   2.0000      -0.688956       -18.7474
 170   2.0000      -0.684929       -18.6379
 171   2.0000      -0.681847       -18.5540
 172   2.0000      -0.674752       -18.3609
 173   2.0000      -0.666203       -18.1283
 174   2.0000      -0.661796       -18.0084
 175   2.0000      -0.652891       -17.7661
 176   2.0000      -0.649836       -17.6829
 177   2.0000      -0.648392       -17.6436
 178   2.0000      -0.644953       -17.5501
 179   2.0000      -0.642406       -17.4807
 180   2.0000      -0.640488       -17.4286
 181   2.0000      -0.637503       -17.3473
 182   2.0000      -0.631064       -17.1721
 183   2.0000      -0.629123       -17.1193
 184   2.0000      -0.623813       -16.9748
 185   2.0000      -0.622722       -16.9451
 186   2.0000      -0.614979       -16.7344
 187   2.0000      -0.612202       -16.6589
 188   2.0000      -0.608850       -16.5676
 189   2.0000      -0.605179       -16.4678
 190   2.0000      -0.599311       -16.3081
 191   2.0000      -0.596500       -16.2316
 192   2.0000      -0.593526       -16.1507
 193   2.0000      -0.589722       -16.0471
 194   2.0000      -0.585749       -15.9390
 195   2.0000      -0.578469       -15.7409
 196   2.0000      -0.575073       -15.6485
 197   2.0000      -0.573696       -15.6111
 198   2.0000      -0.565031       -15.3753
 199   2.0000      -0.560203       -15.2439
 200   2.0000      -0.558546       -15.1988
 201   2.0000      -0.557552       -15.1718
 202   2.0000      -0.556242       -15.1361
 203   2.0000      -0.553361       -15.0577
 204   2.0000      -0.552604       -15.0371
 205   2.0000      -0.549689       -14.9578
 206   2.0000      -0.547758       -14.9053
 207   2.0000      -0.547319       -14.8933
 208   2.0000      -0.542912       -14.7734
 209   2.0000      -0.539839       -14.6898
 210   2.0000      -0.537713       -14.6319
 211   2.0000      -0.535732       -14.5780
 212   2.0000      -0.530867       -14.4456
 213   2.0000      -0.529033       -14.3957
 214   2.0000      -0.527655       -14.3582
 215   2.0000      -0.526888       -14.3373
 216   2.0000      -0.523661       -14.2496
 217   2.0000      -0.519563       -14.1380
 218   2.0000      -0.517701       -14.0874
 219   2.0000      -0.515172       -14.0185
 220   2.0000      -0.512012       -13.9326
 221   2.0000      -0.511219       -13.9110
 222   2.0000      -0.508275       -13.8309
 223   2.0000      -0.506536       -13.7835
 224   2.0000      -0.504610       -13.7311
 225   2.0000      -0.503562       -13.7026
 226   2.0000      -0.502410       -13.6713
 227   2.0000      -0.499871       -13.6022
 228   2.0000      -0.497299       -13.5322
 229   2.0000      -0.495763       -13.4904
 230   2.0000      -0.495700       -13.4887
 231   2.0000      -0.491065       -13.3625
 232   2.0000      -0.489101       -13.3091
 233   2.0000      -0.483098       -13.1458
 234   2.0000      -0.480352       -13.0711
 235   2.0000      -0.477257       -12.9868
 236   2.0000      -0.474721       -12.9178
 237   2.0000      -0.469490       -12.7755
 238   2.0000      -0.468673       -12.7532
 239   2.0000      -0.467934       -12.7331
 240   2.0000      -0.466932       -12.7059
 241   2.0000      -0.465361       -12.6631
 242   2.0000      -0.464129       -12.6296
 243   2.0000      -0.463811       -12.6209
 244   2.0000      -0.462122       -12.5750
 245   2.0000      -0.460040       -12.5183
 246   2.0000      -0.459669       -12.5082
 247   2.0000      -0.457334       -12.4447
 248   2.0000      -0.454925       -12.3791
 249   2.0000      -0.454552       -12.3690
 250   2.0000      -0.453779       -12.3480
 251   2.0000      -0.452329       -12.3085
 252   2.0000      -0.451355       -12.2820
 253   2.0000      -0.449426       -12.2295
 254   2.0000      -0.448655       -12.2085
 255   2.0000      -0.447793       -12.1851
 256   2.0000      -0.447108       -12.1664
 257   2.0000      -0.446778       -12.1574
 258   2.0000      -0.445385       -12.1195
 259   2.0000      -0.443888       -12.0788
 260   2.0000      -0.443144       -12.0586
 261   2.0000      -0.442378       -12.0377
 262   2.0000      -0.439189       -11.9509
 263   2.0000      -0.437546       -11.9062
 264   2.0000      -0.433836       -11.8053
 265   2.0000      -0.432872       -11.7791
 266   2.0000      -0.432204       -11.7609
 267   2.0000      -0.430838       -11.7237
 268   2.0000      -0.429622       -11.6906
 269   2.0000      -0.427323       -11.6281
 270   2.0000      -0.424780       -11.5588
 271   2.0000      -0.419398       -11.4124
 272   2.0000      -0.413428       -11.2499
 273   2.0000      -0.412455       -11.2235
 274   2.0000      -0.410286       -11.1644
 275   2.0000      -0.408213       -11.1080
 276   2.0000      -0.394254       -10.7282
 277   2.0000      -0.385644       -10.4939
 278   2.0000      -0.375676       -10.2227
 279   2.0000      -0.360933        -9.8215
 280   2.0000      -0.359049        -9.7702
 281   2.0000      -0.354393        -9.6435
 282   2.0000      -0.353124        -9.6090
 283   2.0000      -0.351973        -9.5777
 284   2.0000      -0.349811        -9.5188
 285   2.0000      -0.343595        -9.3497
 286   2.0000      -0.342556        -9.3214
 287   2.0000      -0.332316        -9.0428
 288   2.0000      -0.330189        -8.9849
 289   2.0000      -0.325564        -8.8591
 290   2.0000      -0.322633        -8.7793
 291   2.0000      -0.315216        -8.5775
 292   2.0000      -0.299629        -8.1533
 293   2.0000      -0.286959        -7.8085
 294   2.0000      -0.269971        -7.3463
 295   2.0000      -0.233121        -6.3436
 296   0.0000      -0.123593        -3.3631
 297   0.0000      -0.114087        -3.1045
 298   0.0000      -0.096254        -2.6192
 299   0.0000      -0.091427        -2.4879
 300   0.0000      -0.076400        -2.0790

MULLIKEN ATOMIC CHARGES
-----------------------
   0 C :   -0.082956
   1 C :    0.236111
   2 F :   -0.163162
   3 C :    0.233840
   4 F :   -0.166590
   5 C :   -0.095356
   6 C :    0.005337
   7 C :    0.025282
   8 C :    0.247760
   9 C :   -0.328070
  10 C :   -0.179098
  11 N :    0.165854
  12 C :   -0.199455
  13 N :    0.171495
  14 C :   -0.141450
  15 C :    0.139998
  16 O :   -0.131458
  17 C :    0.048236
  18 C :   -0.113022
  19 C :    0.023431
  20 C :    0.021448
  21 C :   -0.078938
  22 S :    0.212171
  23 C :   -0.102198
  24 C :    0.024756
  25 C :    0.300474
  26 C :   -0.285010
  27 C :   -0.188921
  28 N :    0.177005
  29 C :   -0.187145
  30 N :    0.180158
  31 C :   -0.048630
  32 C :   -0.065731
  33 S :    0.205336
  34 C :   -0.039013
  35 C :   -0.068582
  36 C :    0.053430
  37 C :    0.061002
  38 C :   -0.115548
  39 S :    0.147752
  40 C :   -0.112187
  41 C :    0.055729
  42 C :   -0.010819
  43 C :   -0.065557
  44 S :    0.140299
  45 C :    0.090152
  46 C :   -0.010607
  47 C :    0.039172
  48 C :   -0.058081
  49 C :   -0.048736
  50 C :    0.024604
  51 C :   -0.115682
  52 S :    0.188780
  53 C :   -0.065117
  54 C :   -0.012388
  55 C :    0.307736
  56 C :   -0.289090
  57 C :   -0.184289
  58 N :    0.170698
  59 C :   -0.178175
  60 N :    0.158590
  61 C :    0.002280
  62 C :   -0.117281
  63 S :    0.208201
  64 C :    0.080186
  65 C :   -0.140962
  66 C :    0.129927
  67 O :   -0.141710
  68 C :    0.014448
  69 C :    0.021710
  70 C :   -0.088103
  71 C :    0.236470
  72 C :    0.235221
  73 C :   -0.103721
  74 F :   -0.168767
  75 F :   -0.164156
  76 C :    0.269366
  77 C :   -0.331010
  78 C :   -0.201788
  79 N :    0.168251
  80 C :   -0.176575
  81 N :    0.161781
  82 H :    0.018805
  83 H :    0.015142
  84 H :    0.040484
  85 H :    0.018833
  86 H :    0.023349
  87 H :   -0.004407
  88 H :    0.043678
  89 H :   -0.008057
  90 H :    0.030167
  91 H :   -0.029698
  92 H :   -0.048456
  93 H :    0.002345
  94 H :    0.024561
  95 H :    0.021655
  96 H :    0.021369
  97 H :    0.010885
Sum of atomic charges:   -0.0000000

LOEWDIN ATOMIC CHARGES
----------------------
   0 C :   -0.019646
   1 C :    0.075624
   2 F :   -0.041209
   3 C :    0.071455
   4 F :   -0.043010
   5 C :   -0.002705
   6 C :   -0.046549
   7 C :   -0.013006
   8 C :    0.060617
   9 C :   -0.139696
  10 C :   -0.022616
  11 N :   -0.043378
  12 C :   -0.033609
  13 N :   -0.046133
  14 C :   -0.103571
  15 C :    0.083523
  16 O :   -0.133106
  17 C :    0.054726
  18 C :   -0.182045
  19 C :    0.018466
  20 C :   -0.070872
  21 C :   -0.148265
  22 S :    0.507132
  23 C :   -0.186444
  24 C :   -0.050280
  25 C :    0.080238
  26 C :   -0.092759
  27 C :   -0.015766
  28 N :   -0.027625
  29 C :   -0.017107
  30 N :   -0.023849
  31 C :   -0.039050
  32 C :   -0.171395
  33 S :    0.491492
  34 C :   -0.180488
  35 C :   -0.025661
  36 C :   -0.013398
  37 C :   -0.049033
  38 C :   -0.135910
  39 S :    0.473474
  40 C :   -0.198123
  41 C :   -0.037074
  42 C :   -0.067008
  43 C :   -0.161966
  44 S :    0.433996
  45 C :   -0.048031
  46 C :    0.004174
  47 C :   -0.066998
  48 C :   -0.139398
  49 C :   -0.038130
  50 C :   -0.046451
  51 C :   -0.205549
  52 S :    0.475066
  53 C :   -0.145490
  54 C :   -0.075046
  55 C :    0.085515
  56 C :   -0.101449
  57 C :   -0.014006
  58 N :   -0.032311
  59 C :   -0.012106
  60 N :   -0.040765
  61 C :    0.015015
  62 C :   -0.188437
  63 S :    0.492736
  64 C :    0.045682
  65 C :   -0.103818
  66 C :    0.082446
  67 O :   -0.142128
  68 C :   -0.047385
  69 C :   -0.011531
  70 C :   -0.018312
  71 C :    0.074592
  72 C :    0.069365
  73 C :   -0.005203
  74 F :   -0.045628
  75 F :   -0.042344
  76 C :    0.065780
  77 C :   -0.137398
  78 C :   -0.015072
  79 N :   -0.046113
  80 C :   -0.021180
  81 N :   -0.044003
  82 H :    0.051616
  83 H :    0.053566
  84 H :    0.056503
  85 H :    0.047904
  86 H :    0.037028
  87 H :    0.030494
  88 H :    0.039891
  89 H :    0.028671
  90 H :    0.025713
  91 H :    0.028688
  92 H :    0.025125
  93 H :    0.036779
  94 H :    0.042958
  95 H :    0.045856
  96 H :    0.052735
  97 H :    0.051994

  Mayer bond orders larger than 0.100000
B(  0-C ,  1-C ) :   1.3389 B(  0-C ,  5-C ) :   0.1033 B(  0-C ,  7-C ) :   1.3175
B(  0-C , 82-H ) :   0.9947 B(  1-C ,  2-F ) :   1.1440 B(  1-C ,  3-C ) :   1.2862
B(  3-C ,  4-F ) :   1.1328 B(  3-C ,  5-C ) :   1.3228 B(  5-C ,  6-C ) :   1.3244
B(  5-C , 83-H ) :   1.0200 B(  6-C ,  7-C ) :   1.3429 B(  6-C , 15-C ) :   0.9293
B(  7-C ,  8-C ) :   1.0202 B(  8-C ,  9-C ) :   1.6567 B(  8-C , 14-C ) :   1.0417
B(  9-C , 10-C ) :   1.1309 B(  9-C , 12-C ) :   1.1568 B( 10-C , 11-N ) :   2.9985
B( 12-C , 13-N ) :   3.0128 B( 14-C , 15-C ) :   0.9434 B( 14-C , 17-C ) :   1.6372
B( 15-C , 16-O ) :   2.2819 B( 17-C , 18-C ) :   1.1336 B( 17-C , 84-H ) :   0.9487
B( 18-C , 19-C ) :   1.3978 B( 18-C , 22-S ) :   1.0862 B( 19-C , 20-C ) :   1.3103
B( 19-C , 85-H ) :   0.9985 B( 20-C , 21-C ) :   1.3982 B( 20-C , 25-C ) :   0.9966
B( 21-C , 22-S ) :   1.1546 B( 21-C , 23-C ) :   1.2165 B( 23-C , 24-C ) :   1.4320
B( 23-C , 33-S ) :   1.1150 B( 24-C , 25-C ) :   0.9953 B( 24-C , 31-C ) :   1.3182
B( 25-C , 26-C ) :   1.7202 B( 26-C , 27-C ) :   1.1354 B( 26-C , 29-C ) :   1.1311
B( 27-C , 28-N ) :   2.9875 B( 29-C , 30-N ) :   2.9934 B( 31-C , 32-C ) :   1.4395
B( 31-C , 86-H ) :   0.9809 B( 32-C , 33-S ) :   1.1227 B( 32-C , 34-C ) :   1.1463
B( 34-C , 35-C ) :   1.5195 B( 34-C , 39-S ) :   1.0661 B( 35-C , 36-C ) :   1.2561
B( 35-C , 87-H ) :   0.9622 B( 36-C , 37-C ) :   1.0565 B( 36-C , 45-C ) :   1.3518
B( 37-C , 38-C ) :   1.6058 B( 37-C , 40-C ) :   1.1799 B( 38-C , 39-S ) :   1.1419
B( 38-C , 88-H ) :   0.9403 B( 40-C , 41-C ) :   1.4501 B( 40-C , 44-S ) :   1.0854
B( 41-C , 42-C ) :   1.2109 B( 41-C , 45-C ) :   1.0748 B( 42-C , 43-C ) :   1.5908
B( 42-C , 89-H ) :   0.9989 B( 43-C , 44-S ) :   1.1593 B( 43-C , 90-H ) :   0.9641
B( 45-C , 46-C ) :   1.2062 B( 46-C , 47-C ) :   1.6078 B( 46-C , 91-H ) :   0.9598
B( 47-C , 48-C ) :   1.1482 B( 47-C , 92-H ) :   0.9627 B( 48-C , 49-C ) :   1.4101
B( 48-C , 52-S ) :   1.1235 B( 49-C , 50-C ) :   1.3333 B( 49-C , 93-H ) :   0.9885
B( 50-C , 51-C ) :   1.4101 B( 50-C , 55-C ) :   0.9953 B( 51-C , 52-S ) :   1.0956
B( 51-C , 53-C ) :   1.2297 B( 53-C , 54-C ) :   1.3796 B( 53-C , 63-S ) :   1.1622
B( 54-C , 55-C ) :   1.0071 B( 54-C , 61-C ) :   1.3741 B( 55-C , 56-C ) :   1.7109
B( 56-C , 57-C ) :   1.1327 B( 56-C , 59-C ) :   1.1355 B( 57-C , 58-N ) :   2.9848
B( 59-C , 60-N ) :   2.9793 B( 61-C , 62-C ) :   1.3776 B( 61-C , 94-H ) :   0.9796
B( 62-C , 63-S ) :   1.0698 B( 62-C , 64-C ) :   1.1663 B( 64-C , 65-C ) :   1.6317
B( 64-C , 95-H ) :   0.9279 B( 65-C , 66-C ) :   0.9563 B( 65-C , 76-C ) :   1.0538
B( 66-C , 67-O ) :   2.2653 B( 66-C , 68-C ) :   0.9302 B( 68-C , 69-C ) :   1.3462
B( 68-C , 73-C ) :   1.3196 B( 69-C , 70-C ) :   1.3203 B( 69-C , 76-C ) :   1.0103
B( 70-C , 71-C ) :   1.3346 B( 70-C , 73-C ) :   0.1046 B( 70-C , 96-H ) :   0.9942
B( 71-C , 72-C ) :   1.2908 B( 71-C , 75-F ) :   1.1434 B( 72-C , 73-C ) :   1.3201
B( 72-C , 74-F ) :   1.1311 B( 73-C , 97-H ) :   1.0211 B( 76-C , 77-C ) :   1.6443
B( 77-C , 78-C ) :   1.1731 B( 77-C , 80-C ) :   1.1231 B( 78-C , 79-N ) :   2.9962
B( 80-C , 81-N ) :   2.9967

-----------------------------------------------------------------------------
         ABSORPTION SPECTRUM VIA TRANSITION ELECTRIC DIPOLE MOMENTS
-----------------------------------------------------------------------------
State   Energy  Wavelength   fosc         T2         TX        TY        TZ
        (cm-1)    (nm)                  (au**2)     (au)      (au)      (au)
-----------------------------------------------------------------------------
   0    9498.3   1052.8   0.406526065  14.09024  -1.55892   1.54229   3.04653
   1   10815.2    924.6   0.157260486   4.78696  -1.76868   1.02666  -0.77762
   2   16134.0    619.8   0.514357671  10.49542  -0.72104   0.84772   3.04251
   3   16526.0    605.1   0.349579707   6.96391  -1.50861   0.73016   2.03835
   4   18205.8    549.3   0.471918345   8.53360   2.25633  -0.71729   1.71116
   5   19267.4    519.0   0.074505564   1.27304   0.36929   0.80249  -0.70190
   6   20399.7    490.2   0.192887673   3.11284  -0.02563   1.57190   0.80082
   7   22923.5    436.2   0.296269269   4.25483   1.41960   0.61006   1.36652
   8   22990.5    435.0   0.193409479   2.76952   0.83442  -1.29095  -0.63774
   9   23923.1    418.0   0.107341795   1.47716  -0.30848  -0.55661   1.03547
  10   24147.1    414.1   0.131140476   1.78792  -0.21503   0.01805  -1.31960
  11   24834.1    402.7   0.145707287   1.93156  -0.88535   0.20096  -1.05230
  12   25274.9    395.6   0.101866321   1.32684  -0.42519  -0.07813   1.06768
  13   26077.5    383.5   0.107831010   1.36130  -0.86158  -0.03115  -0.78613
  14   26131.3    382.7   0.045332883   0.57112   0.24858   0.56301  -0.43858
  15   27521.1    363.4   0.012047652   0.14412   0.07239   0.25376   0.27291
  16   28026.0    356.8   0.154908197   1.81966   0.91375  -0.37222   0.91988
  17   28346.9    352.8   0.207739276   2.41262  -0.74423  -0.33126  -1.32250
  18   28630.9    349.3   0.057016476   0.65560   0.54645  -0.59214  -0.07980
  19   29466.8    339.4   0.077563578   0.86656  -0.22343  -0.76481   0.48136
  20   29573.1    338.1   0.398963367   4.44132   0.56672   1.23348   1.61204
  21   30119.0    332.0   0.162606446   1.77735  -0.69937   0.99947  -0.53787
  22   30485.8    328.0   0.430261915   4.64633   1.55333  -1.22404   0.85746
  23   30542.0    327.4   0.040225377   0.43359   0.46420   0.21626   0.41393
  24   30851.6    324.1   0.083322080   0.88912  -0.48014   0.48719  -0.64902
  25   31120.3    321.3   0.096833353   1.02437  -0.80828  -0.60803  -0.03684
  26   31380.3    318.7   0.108187849   1.13500   0.40871  -0.85196  -0.49206
  27   31578.6    316.7   0.201170204   2.09723  -0.72251  -0.48882  -1.15597
  28   31689.6    315.6   0.176547827   1.83409  -1.04673   0.64244  -0.57071
  29   31992.8    312.6   0.175943957   1.81050  -0.56946  -0.99887  -0.69891
  30   32503.4    307.7   0.086253203   0.87362  -0.45966   0.44587   0.68083
  31   32757.7    305.3   0.108391593   1.08932  -0.18605  -0.26273  -0.99282
  32   32852.7    304.4   0.140868553   1.41162   0.86364  -0.60240   0.55033
  33   32960.5    303.4   0.165417651   1.65220   0.42791  -0.37172   1.15365
  34   33068.4    302.4   0.002227690   0.02218  -0.05483  -0.13075   0.04555
  35   33292.8    300.4   0.048780312   0.48236  -0.07138   0.34692   0.59742
  36   33575.5    297.8   0.137498255   1.34819  -0.19976   0.58065   0.98546
  37   33683.3    296.9   0.282977532   2.76575  -0.49451   1.58540   0.08788
  38   33875.0    295.2   0.040464738   0.39325   0.11108   0.18458   0.58893
  39   34434.5    290.4   0.224069655   2.14223   0.09776   1.04278   1.02239
  40   34603.8    289.0   0.167785208   1.59627  -0.67337   1.06896   0.01275
  41   34926.8    286.3   0.232370345   2.19027  -0.35233   1.27091   0.67151
  42   35188.0    284.2   0.085647443   0.80130   0.72796  -0.23749   0.46365
  43   35418.2    282.3   0.452787793   4.20866  -1.50695   1.02902  -0.93749
  44   35820.5    279.2   0.030992596   0.28484  -0.11027  -0.22773  -0.46992
  45   36078.0    277.2   0.044114871   0.40255  -0.19314   0.55725   0.23390
  46   36280.0    275.6   0.005954918   0.05404  -0.17402   0.07009  -0.13726
  47   36344.6    275.1   0.168087302   1.52255   0.27235   0.54737   1.07180
  48   36813.7    271.6   0.011615423   0.10387  -0.07607  -0.10676  -0.29443
  49   37104.5    269.5   0.201022104   1.78358   0.55147  -1.18180  -0.28776
  50   37165.3    269.1   0.294592568   2.60952   0.72952   0.07061   1.43956
  51   37411.8    267.3   0.132440123   1.16543  -0.44224   0.22449  -0.95889
  52   37564.4    266.2   0.042121346   0.36915   0.18590  -0.42164   0.39599
  53   37637.0    265.7   0.023086995   0.20194  -0.14406   0.42556   0.00956
  54   37823.5    264.4   0.005642374   0.04911   0.11745  -0.12292  -0.14215
  55   37938.1    263.6   0.029952401   0.25992   0.26083   0.29766   0.32138
  56   38107.5    262.4   0.058552719   0.50584   0.23262   0.52468   0.42005
  57   38231.7    261.6   0.052212440   0.44960  -0.29659  -0.45083  -0.39798
  58   38333.4    260.9   0.010501289   0.09019  -0.26745  -0.09352   0.09955
  59   38801.8    257.7   0.023602925   0.20026   0.28421  -0.19342   0.28648
  60   38972.6    256.6   0.042285391   0.35720  -0.29346   0.51260  -0.09123
  61   39132.1    255.5   0.008383529   0.07053   0.00560   0.24568   0.10069
  62   39383.6    253.9   0.110862527   0.92671  -0.27147   0.69359  -0.60987
  63   39483.4    253.3   0.175737198   1.46529   0.49888  -1.09482   0.13335
  64   39662.1    252.1   0.007617209   0.06323   0.06637  -0.17765   0.16511
  65   39931.2    250.4   0.023842917   0.19657   0.12210   0.42072  -0.06825
  66   40025.5    249.8   0.023936964   0.19688  -0.18955   0.40106   0.01039
  67   40318.6    248.0   0.012773014   0.10429  -0.22685   0.14550  -0.17795

FINAL SINGLE POINT ENERGY     -5744.045114470478

DIPOLE MOMENT
-------------
                                X             Y             Z
Electronic contribution:    -25.57041       6.75943     -30.69061
Nuclear contribution   :     26.73480      -9.58251      32.19187
                        -----------------------------------------
Total Dipole Moment    :      1.16439      -2.82308       1.50126
                        -----------------------------------------
Magnitude (a.u.)       :      3.40285
Magnitude (Debye)      :      8.64935

Rotational constants in cm-1:     0.000588     0.000272     0.000207
Rotational constants in MHz :    17.631317     8.168381     6.193765

                             ****ORCA TERMINATED NORMALLY****
TOTAL RUN TIME: 0 days 0 hours 16 minutes 7 seconds 290 msec
