                         Program Version 4.2.0 -  RELEASE  -
|  1> # ORCA input file
|  2> # SCF done       -211.570266541360          0.000973720776
|  3> ! CAM-B3LYP def2-SVP def2/J RIJCOSX Grid4 TightSCF
|  4> %maxcore 5000
|  5> %tddft
|  6>     Mode sTDDFT
|  7>     Ethresh 5.0
|  8>     maxcore 5000
|  9> end
| 10>
| 11> %pal
| 12>   nprocs 6
| 13>   end
| 14> * xyz 0 1
| 15>    C        0.13989        -4.04543         7.30368
| 16>    C       -0.09701        -3.04719         8.23719
| 17>    F       -0.33650        -3.39056         9.50662
| 18>    C       -0.08723        -1.69684         7.88391
| 19>    F       -0.32911        -0.76861         8.81632
| 20>    C        0.17447        -1.30704         6.58008
| 21>    C        0.42286        -2.29919         5.65225
| 22>    C        0.40112        -3.66200         5.99885
| 23>    C        0.64695        -4.45485         4.79411
| 24>    C        0.25430        -5.75481         4.61226
| 25>    C       -0.24126        -6.57767         5.64405
| 26>    N       -0.62892        -7.28967         6.45601
| 27>    C        0.21052        -6.37232         3.34481
| 28>    N        0.11883        -6.88239         2.32050
| 29>    C        1.07508        -3.53897         3.76139
| 30>    C        0.76056        -2.15887         4.21653
| 31>    O        0.82174        -1.14408         3.56492
| 32>    C        1.75753        -3.70966         2.59232
| 33>    C        2.54595        -4.78594         2.14150
| 34>    C        3.06445        -4.91113         0.85713
| 35>    C        3.88208        -6.02360         0.72003
| 36>    C        4.01685        -6.75268         1.92308
| 37>    S        3.13329        -6.06836         3.20432
| 38>    C        4.88021        -7.84561         1.69378
| 39>    C        5.30390        -7.81270         0.35175
| 40>    C        4.67759        -6.67427        -0.30669
| 41>    C        4.80225        -6.30683        -1.61373
| 42>    C        5.59581        -7.03524        -2.52561
| 43>    N        6.23761        -7.62848        -3.26722
| 44>    C        4.14253        -5.17644        -2.14219
| 45>    N        3.61350        -4.25587        -2.57417
| 46>    C        6.17858        -8.84719         0.03109
| 47>    C        6.41389        -9.67872         1.11608
| 48>    S        5.54218        -9.16809         2.55052
| 49>    C        7.25173       -10.82278         1.15515
| 50>    C        8.19760       -11.20663         0.21914
| 51>    C        8.84939       -12.38131         0.59019
| 52>    C        8.38242       -12.90615         1.81081
| 53>    S        7.16243       -11.94026         2.50993
| 54>    C        9.09229       -14.09619         2.09273
| 55>    C       10.02281       -14.31988         1.06222
| 56>    C        9.90269       -13.24640         0.08567
| 57>    C       10.63663       -13.08404        -1.05183
| 58>    C       11.64587       -13.99623        -1.42626
| 59>    N       12.46635       -14.73863        -1.72672
| 60>    C       10.44339       -11.98866        -1.92038
| 61>    N       10.29323       -11.09530        -2.62269
| 62>    C       10.77573       -15.47534         1.25118
| 63>    C       10.41886       -16.14785         2.40895
| 64>    S        9.13373       -15.31932         3.28316
| 65>    C       10.95875       -17.36692         2.90800
| 66>    C       10.41392       -18.03381         3.98287
| 67>    C       10.89043       -19.23381         4.49635
| 68>    C       12.06692       -19.89210         3.92669
| 69>    C       12.76202       -19.41441         2.86993
| 70>    S       12.36638       -17.96619         2.04307
| 71>    C       12.24854       -21.07176         4.69918
| 72>    C       11.25189       -21.16803         5.67552
| 73>    C       11.40334       -22.33404         6.46046
| 74>    C       12.47753       -23.06692         6.06616
| 75>    S       13.35054       -22.38639         4.73653
| 76>    C       10.38429       -20.02000         5.55986
| 77>    C        9.23278       -19.71027         6.30258
| 78>    C        8.66321       -20.49576         7.26655
| 79>    C        7.47897       -20.11668         7.91682
| 80>    C        6.81868       -20.87899         8.84847
| 81>    C        5.57602       -20.54753         9.50957
| 82>    C        4.86468       -19.37700         9.39902
| 83>    C        3.65804       -19.11770        10.08021
| 84>    N        2.67321       -18.83907        10.60166
| 85>    C        5.22369       -18.26671         8.60959
| 86>    N        5.44339       -17.32095         7.99412
| 87>    C        5.19618       -21.68718        10.33957
| 88>    C        6.20330       -22.68743        10.22564
| 89>    C        7.25635       -22.21739         9.30813
| 90>    O        8.26763       -22.81974         9.00055
| 91>    C        6.11740       -23.87689        10.88867
| 92>    C        4.99383       -24.13073        11.70742
| 93>    C        3.97958       -23.13779        11.82301
| 94>    C        4.10007       -21.91149        11.12873
| 95>    C        2.85877       -23.40358        12.63505
| 96>    C        2.74301       -24.59322        13.30144
| 97>    C        3.74308       -25.56987        13.18802
| 98>    C        4.84496       -25.34311        12.40855
| 99>    H        0.12464        -5.07544         7.62120
|100>    H        0.18239        -0.26405         6.30645
|101>    H        1.77370        -2.83480         1.94810
|102>    H        2.82490        -4.21750         0.07133
|103>    H        6.61594        -9.00696        -0.93694
|104>    H        8.40325       -10.64503        -0.67319
|105>    H       11.54021       -15.82872         0.58299
|106>    H        9.54424       -17.58160         4.44150
|107>    H       13.62211       -19.92131         2.46203
|108>    H       10.77014       -22.63471         7.27435
|109>    H       12.82548       -23.99202         6.48235
|110>    H        8.74351       -18.77188         6.06864
|111>    H        9.10128       -21.44241         7.53052
|112>    H        7.05538       -19.16072         7.63695
|113>    H        6.89536       -24.61897        10.78642
|114>    H        3.31385       -21.18172        11.23734
|115>    H        2.09157       -22.64800        12.71932
|116>    H        1.87954       -24.78807        13.91961
|117>    H        3.63596       -26.50309        13.72065
|118>    H        5.61809       -26.09199        12.31712
|119> *
|120>
|121>                          ****END OF INPUT****

CARTESIAN COORDINATES (ANGSTROEM)
---------------------------------
  C      0.139890   -4.045430    7.303680
  C     -0.097010   -3.047190    8.237190
  F     -0.336500   -3.390560    9.506620
  C     -0.087230   -1.696840    7.883910
  F     -0.329110   -0.768610    8.816320
  C      0.174470   -1.307040    6.580080
  C      0.422860   -2.299190    5.652250
  C      0.401120   -3.662000    5.998850
  C      0.646950   -4.454850    4.794110
  C      0.254300   -5.754810    4.612260
  C     -0.241260   -6.577670    5.644050
  N     -0.628920   -7.289670    6.456010
  C      0.210520   -6.372320    3.344810
  N      0.118830   -6.882390    2.320500
  C      1.075080   -3.538970    3.761390
  C      0.760560   -2.158870    4.216530
  O      0.821740   -1.144080    3.564920
  C      1.757530   -3.709660    2.592320
  C      2.545950   -4.785940    2.141500
  C      3.064450   -4.911130    0.857130
  C      3.882080   -6.023600    0.720030
  C      4.016850   -6.752680    1.923080
  S      3.133290   -6.068360    3.204320
  C      4.880210   -7.845610    1.693780
  C      5.303900   -7.812700    0.351750
  C      4.677590   -6.674270   -0.306690
  C      4.802250   -6.306830   -1.613730
  C      5.595810   -7.035240   -2.525610
  N      6.237610   -7.628480   -3.267220
  C      4.142530   -5.176440   -2.142190
  N      3.613500   -4.255870   -2.574170
  C      6.178580   -8.847190    0.031090
  C      6.413890   -9.678720    1.116080
  S      5.542180   -9.168090    2.550520
  C      7.251730  -10.822780    1.155150
  C      8.197600  -11.206630    0.219140
  C      8.849390  -12.381310    0.590190
  C      8.382420  -12.906150    1.810810
  S      7.162430  -11.940260    2.509930
  C      9.092290  -14.096190    2.092730
  C     10.022810  -14.319880    1.062220
  C      9.902690  -13.246400    0.085670
  C     10.636630  -13.084040   -1.051830
  C     11.645870  -13.996230   -1.426260
  N     12.466350  -14.738630   -1.726720
  C     10.443390  -11.988660   -1.920380
  N     10.293230  -11.095300   -2.622690
  C     10.775730  -15.475340    1.251180
  C     10.418860  -16.147850    2.408950
  S      9.133730  -15.319320    3.283160
  C     10.958750  -17.366920    2.908000
  C     10.413920  -18.033810    3.982870
  C     10.890430  -19.233810    4.496350
  C     12.066920  -19.892100    3.926690
  C     12.762020  -19.414410    2.869930
  S     12.366380  -17.966190    2.043070
  C     12.248540  -21.071760    4.699180
  C     11.251890  -21.168030    5.675520
  C     11.403340  -22.334040    6.460460
  C     12.477530  -23.066920    6.066160
  S     13.350540  -22.386390    4.736530
  C     10.384290  -20.020000    5.559860
  C      9.232780  -19.710270    6.302580
  C      8.663210  -20.495760    7.266550
  C      7.478970  -20.116680    7.916820
  C      6.818680  -20.878990    8.848470
  C      5.576020  -20.547530    9.509570
  C      4.864680  -19.377000    9.399020
  C      3.658040  -19.117700   10.080210
  N      2.673210  -18.839070   10.601660
  C      5.223690  -18.266710    8.609590
  N      5.443390  -17.320950    7.994120
  C      5.196180  -21.687180   10.339570
  C      6.203300  -22.687430   10.225640
  C      7.256350  -22.217390    9.308130
  O      8.267630  -22.819740    9.000550
  C      6.117400  -23.876890   10.888670
  C      4.993830  -24.130730   11.707420
  C      3.979580  -23.137790   11.823010
  C      4.100070  -21.911490   11.128730
  C      2.858770  -23.403580   12.635050
  C      2.743010  -24.593220   13.301440
  C      3.743080  -25.569870   13.188020
  C      4.844960  -25.343110   12.408550
  H      0.124640   -5.075440    7.621200
  H      0.182390   -0.264050    6.306450
  H      1.773700   -2.834800    1.948100
  H      2.824900   -4.217500    0.071330
  H      6.615940   -9.006960   -0.936940
  H      8.403250  -10.645030   -0.673190
  H     11.540210  -15.828720    0.582990
  H      9.544240  -17.581600    4.441500
  H     13.622110  -19.921310    2.462030
  H     10.770140  -22.634710    7.274350
  H     12.825480  -23.992020    6.482350
  H      8.743510  -18.771880    6.068640
  H      9.101280  -21.442410    7.530520
  H      7.055380  -19.160720    7.636950
  H      6.895360  -24.618970   10.786420
  H      3.313850  -21.181720   11.237340
  H      2.091570  -22.648000   12.719320
  H      1.879540  -24.788070   13.919610
  H      3.635960  -26.503090   13.720650
  H      5.618090  -26.091990   12.317120

 Total Charge           Charge          ....    0
 Multiplicity           Mult            ....    1
 Number of Electrons    NEL             ....  602
 Basis Dimension        Dim             .... 1300

ORBITAL ENERGIES
----------------

  NO   OCC          E(Eh)            E(eV)
   0   2.0000     -89.007128     -2422.0071
   1   2.0000     -89.006831     -2421.9990
   2   2.0000     -89.005981     -2421.9759
   3   2.0000     -89.004754     -2421.9425
   4   2.0000     -88.997619     -2421.7483
   5   2.0000     -88.965925     -2420.8859
   6   2.0000     -24.806449      -675.0178
   7   2.0000     -24.805968      -675.0047
   8   2.0000     -19.225576      -523.1545
   9   2.0000     -19.205731      -522.6145
  10   2.0000     -14.442675      -393.0052
  11   2.0000     -14.441139      -392.9634
  12   2.0000     -14.440100      -392.9351
  13   2.0000     -14.439702      -392.9243
  14   2.0000     -14.425286      -392.5320
  15   2.0000     -14.424534      -392.5115
  16   2.0000     -14.407615      -392.0511
  17   2.0000     -14.403126      -391.9290
  18   2.0000     -10.392880      -282.8047
  19   2.0000     -10.392019      -282.7812
  20   2.0000     -10.378608      -282.4163
  21   2.0000     -10.377861      -282.3960
  22   2.0000     -10.377361      -282.3824
  23   2.0000     -10.364877      -282.0426
  24   2.0000     -10.364128      -282.0223
  25   2.0000     -10.356093      -281.8036
  26   2.0000     -10.355480      -281.7869
  27   2.0000     -10.355239      -281.7804
  28   2.0000     -10.354412      -281.7579
  29   2.0000     -10.351634      -281.6823
  30   2.0000     -10.349480      -281.6237
  31   2.0000     -10.348076      -281.5855
  32   2.0000     -10.347774      -281.5772
  33   2.0000     -10.345480      -281.5148
  34   2.0000     -10.345469      -281.5145
  35   2.0000     -10.345283      -281.5095
  36   2.0000     -10.343684      -281.4659
  37   2.0000     -10.342526      -281.4344
  38   2.0000     -10.340612      -281.3824
  39   2.0000     -10.339617      -281.3553
  40   2.0000     -10.339221      -281.3445
  41   2.0000     -10.336639      -281.2742
  42   2.0000     -10.333840      -281.1981
  43   2.0000     -10.329141      -281.0702
  44   2.0000     -10.327745      -281.0322
  45   2.0000     -10.327182      -281.0169
  46   2.0000     -10.326047      -280.9860
  47   2.0000     -10.324521      -280.9445
  48   2.0000     -10.323396      -280.9139
  49   2.0000     -10.323308      -280.9115
  50   2.0000     -10.319049      -280.7956
  51   2.0000     -10.318443      -280.7791
  52   2.0000     -10.317970      -280.7662
  53   2.0000     -10.317497      -280.7534
  54   2.0000     -10.317333      -280.7489
  55   2.0000     -10.317034      -280.7408
  56   2.0000     -10.316800      -280.7344
  57   2.0000     -10.315807      -280.7074
  58   2.0000     -10.315427      -280.6970
  59   2.0000     -10.315194      -280.6907
  60   2.0000     -10.311815      -280.5987
  61   2.0000     -10.310292      -280.5573
  62   2.0000     -10.309819      -280.5444
  63   2.0000     -10.307180      -280.4726
  64   2.0000     -10.307117      -280.4709
  65   2.0000     -10.303463      -280.3715
  66   2.0000     -10.303029      -280.3597
  67   2.0000     -10.301755      -280.3250
  68   2.0000     -10.298932      -280.2482
  69   2.0000     -10.293142      -280.0906
  70   2.0000     -10.290398      -280.0160
  71   2.0000     -10.289873      -280.0017
  72   2.0000     -10.289450      -279.9902
  73   2.0000     -10.287966      -279.9498
  74   2.0000     -10.287584      -279.9394
  75   2.0000     -10.286762      -279.9170
  76   2.0000     -10.282154      -279.7916
  77   2.0000     -10.280101      -279.7358
  78   2.0000     -10.280052      -279.7344
  79   2.0000     -10.279562      -279.7211
  80   2.0000     -10.279144      -279.7097
  81   2.0000     -10.279104      -279.7086
  82   2.0000     -10.278628      -279.6957
  83   2.0000     -10.272598      -279.5316
  84   2.0000      -8.101912      -220.4642
  85   2.0000      -8.101544      -220.4542
  86   2.0000      -8.100106      -220.4151
  87   2.0000      -8.098935      -220.3832
  88   2.0000      -8.092682      -220.2131
  89   2.0000      -8.061381      -219.3613
  90   2.0000      -6.071219      -165.2063
  91   2.0000      -6.070845      -165.1961
  92   2.0000      -6.069415      -165.1572
  93   2.0000      -6.068181      -165.1236
  94   2.0000      -6.066998      -165.0914
  95   2.0000      -6.066604      -165.0807
  96   2.0000      -6.065270      -165.0444
  97   2.0000      -6.064139      -165.0136
  98   2.0000      -6.063949      -165.0084
  99   2.0000      -6.063838      -165.0054
 100   2.0000      -6.062393      -164.9661
 101   2.0000      -6.062269      -164.9627
 102   2.0000      -6.061345      -164.9376
 103   2.0000      -6.057596      -164.8356
 104   2.0000      -6.054662      -164.7557
 105   2.0000      -6.030782      -164.1059
 106   2.0000      -6.026538      -163.9904
 107   2.0000      -6.023476      -163.9071
 108   2.0000      -1.330250       -36.1980
 109   2.0000      -1.314967       -35.7821
 110   2.0000      -1.141760       -31.0689
 111   2.0000      -1.118851       -30.4455
 112   2.0000      -1.061836       -28.8940
 113   2.0000      -1.058601       -28.8060
 114   2.0000      -1.034483       -28.1497
 115   2.0000      -1.032901       -28.1067
 116   2.0000      -1.031123       -28.0583
 117   2.0000      -1.025706       -27.9109
 118   2.0000      -1.019390       -27.7390
 119   2.0000      -1.018725       -27.7209
 120   2.0000      -1.016851       -27.6699
 121   2.0000      -1.010585       -27.4994
 122   2.0000      -1.008567       -27.4445
 123   2.0000      -1.007844       -27.4248
 124   2.0000      -1.002746       -27.2861
 125   2.0000      -0.989578       -26.9278
 126   2.0000      -0.988485       -26.8980
 127   2.0000      -0.983711       -26.7681
 128   2.0000      -0.975414       -26.5424
 129   2.0000      -0.968037       -26.3416
 130   2.0000      -0.963809       -26.2266
 131   2.0000      -0.962550       -26.1923
 132   2.0000      -0.944265       -25.6948
 133   2.0000      -0.935061       -25.4443
 134   2.0000      -0.926596       -25.2140
 135   2.0000      -0.918770       -25.0010
 136   2.0000      -0.913062       -24.8457
 137   2.0000      -0.907624       -24.6977
 138   2.0000      -0.901656       -24.5353
 139   2.0000      -0.892927       -24.2978
 140   2.0000      -0.889339       -24.2001
 141   2.0000      -0.882111       -24.0035
 142   2.0000      -0.881882       -23.9972
 143   2.0000      -0.878153       -23.8957
 144   2.0000      -0.875160       -23.8143
 145   2.0000      -0.872662       -23.7463
 146   2.0000      -0.866846       -23.5881
 147   2.0000      -0.859491       -23.3879
 148   2.0000      -0.848805       -23.0971
 149   2.0000      -0.836444       -22.7608
 150   2.0000      -0.826593       -22.4927
 151   2.0000      -0.820221       -22.3194
 152   2.0000      -0.811947       -22.0942
 153   2.0000      -0.806813       -21.9545
 154   2.0000      -0.794459       -21.6183
 155   2.0000      -0.788752       -21.4630
 156   2.0000      -0.785370       -21.3710
 157   2.0000      -0.779683       -21.2162
 158   2.0000      -0.770508       -20.9666
 159   2.0000      -0.756174       -20.5765
 160   2.0000      -0.751830       -20.4583
 161   2.0000      -0.737042       -20.0559
 162   2.0000      -0.734579       -19.9889
 163   2.0000      -0.724830       -19.7236
 164   2.0000      -0.719589       -19.5810
 165   2.0000      -0.710423       -19.3316
 166   2.0000      -0.704547       -19.1717
 167   2.0000      -0.701501       -19.0888
 168   2.0000      -0.698318       -19.0022
 169   2.0000      -0.695887       -18.9360
 170   2.0000      -0.694874       -18.9085
 171   2.0000      -0.691439       -18.8150
 172   2.0000      -0.683812       -18.6075
 173   2.0000      -0.678616       -18.4661
 174   2.0000      -0.672602       -18.3024
 175   2.0000      -0.666019       -18.1233
 176   2.0000      -0.664283       -18.0761
 177   2.0000      -0.655413       -17.8347
 178   2.0000      -0.653627       -17.7861
 179   2.0000      -0.648570       -17.6485
 180   2.0000      -0.647296       -17.6138
 181   2.0000      -0.643594       -17.5131
 182   2.0000      -0.637369       -17.3437
 183   2.0000      -0.633246       -17.2315
 184   2.0000      -0.629754       -17.1365
 185   2.0000      -0.628462       -17.1013
 186   2.0000      -0.625341       -17.0164
 187   2.0000      -0.621108       -16.9012
 188   2.0000      -0.612416       -16.6647
 189   2.0000      -0.610843       -16.6219
 190   2.0000      -0.605522       -16.4771
 191   2.0000      -0.599379       -16.3099
 192   2.0000      -0.598491       -16.2858
 193   2.0000      -0.595079       -16.1929
 194   2.0000      -0.587529       -15.9875
 195   2.0000      -0.581801       -15.8316
 196   2.0000      -0.579878       -15.7793
 197   2.0000      -0.575167       -15.6511
 198   2.0000      -0.568436       -15.4679
 199   2.0000      -0.564863       -15.3707
 200   2.0000      -0.563572       -15.3356
 201   2.0000      -0.560105       -15.2412
 202   2.0000      -0.558688       -15.2027
 203   2.0000      -0.554897       -15.0995
 204   2.0000      -0.553741       -15.0681
 205   2.0000      -0.547287       -14.8924
 206   2.0000      -0.545741       -14.8504
 207   2.0000      -0.542228       -14.7548
 208   2.0000      -0.538682       -14.6583
 209   2.0000      -0.537325       -14.6214
 210   2.0000      -0.535900       -14.5826
 211   2.0000      -0.532977       -14.5030
 212   2.0000      -0.529863       -14.4183
 213   2.0000      -0.527938       -14.3659
 214   2.0000      -0.527898       -14.3648
 215   2.0000      -0.525974       -14.3125
 216   2.0000      -0.521277       -14.1847
 217   2.0000      -0.519464       -14.1353
 218   2.0000      -0.518204       -14.1010
 219   2.0000      -0.516216       -14.0470
 220   2.0000      -0.514344       -13.9960
 221   2.0000      -0.513670       -13.9777
 222   2.0000      -0.512871       -13.9559
 223   2.0000      -0.511465       -13.9177
 224   2.0000      -0.508963       -13.8496
 225   2.0000      -0.506182       -13.7739
 226   2.0000      -0.504504       -13.7283
 227   2.0000      -0.502936       -13.6856
 228   2.0000      -0.500929       -13.6310
 229   2.0000      -0.498804       -13.5731
 230   2.0000      -0.494350       -13.4519
 231   2.0000      -0.492612       -13.4047
 232   2.0000      -0.490874       -13.3574
 233   2.0000      -0.487419       -13.2633
 234   2.0000      -0.484818       -13.1926
 235   2.0000      -0.483410       -13.1542
 236   2.0000      -0.479940       -13.0598
 237   2.0000      -0.477888       -13.0040
 238   2.0000      -0.475538       -12.9400
 239   2.0000      -0.473465       -12.8836
 240   2.0000      -0.471895       -12.8409
 241   2.0000      -0.469891       -12.7864
 242   2.0000      -0.469567       -12.7776
 243   2.0000      -0.466280       -12.6881
 244   2.0000      -0.465291       -12.6612
 245   2.0000      -0.463331       -12.6079
 246   2.0000      -0.461479       -12.5575
 247   2.0000      -0.461258       -12.5515
 248   2.0000      -0.457440       -12.4476
 249   2.0000      -0.456774       -12.4295
 250   2.0000      -0.455723       -12.4009
 251   2.0000      -0.454275       -12.3614
 252   2.0000      -0.452165       -12.3040
 253   2.0000      -0.451361       -12.2822
 254   2.0000      -0.450338       -12.2543
 255   2.0000      -0.449485       -12.2311
 256   2.0000      -0.449219       -12.2239
 257   2.0000      -0.448711       -12.2101
 258   2.0000      -0.447137       -12.1672
 259   2.0000      -0.443440       -12.0666
 260   2.0000      -0.441443       -12.0123
 261   2.0000      -0.439642       -11.9633
 262   2.0000      -0.438764       -11.9394
 263   2.0000      -0.437525       -11.9057
 264   2.0000      -0.435925       -11.8621
 265   2.0000      -0.435538       -11.8516
 266   2.0000      -0.434266       -11.8170
 267   2.0000      -0.433308       -11.7909
 268   2.0000      -0.431556       -11.7432
 269   2.0000      -0.428155       -11.6507
 270   2.0000      -0.425411       -11.5760
 271   2.0000      -0.425330       -11.5738
 272   2.0000      -0.423835       -11.5331
 273   2.0000      -0.418889       -11.3986
 274   2.0000      -0.417500       -11.3607
 275   2.0000      -0.411800       -11.2056
 276   2.0000      -0.411073       -11.1859
 277   2.0000      -0.410881       -11.1806
 278   2.0000      -0.407509       -11.0889
 279   2.0000      -0.400609       -10.9011
 280   2.0000      -0.396637       -10.7930
 281   2.0000      -0.380472       -10.3532
 282   2.0000      -0.379351       -10.3227
 283   2.0000      -0.367065        -9.9884
 284   2.0000      -0.365972        -9.9586
 285   2.0000      -0.361185        -9.8283
 286   2.0000      -0.357280        -9.7221
 287   2.0000      -0.352167        -9.5830
 288   2.0000      -0.346876        -9.4390
 289   2.0000      -0.343724        -9.3532
 290   2.0000      -0.336778        -9.1642
 291   2.0000      -0.332647        -9.0518
 292   2.0000      -0.325282        -8.8514
 293   2.0000      -0.322854        -8.7853
 294   2.0000      -0.316119        -8.6020
 295   2.0000      -0.308135        -8.3848
 296   2.0000      -0.306315        -8.3352
 297   2.0000      -0.288923        -7.8620
 298   2.0000      -0.284726        -7.7478
 299   2.0000      -0.264460        -7.1963
 300   2.0000      -0.239439        -6.5155
 301   0.0000      -0.127821        -3.4782
 302   0.0000      -0.115186        -3.1344
 303   0.0000      -0.098498        -2.6803
 304   0.0000      -0.095404        -2.5961
 305   0.0000      -0.069505        -1.8913

MULLIKEN ATOMIC CHARGES
-----------------------
   0 C :   -0.088486
   1 C :    0.238038
   2 F :   -0.163278
   3 C :    0.234584
   4 F :   -0.166808
   5 C :   -0.101164
   6 C :    0.009603
   7 C :    0.027852
   8 C :    0.241152
   9 C :   -0.321918
  10 C :   -0.175544
  11 N :    0.164728
  12 C :   -0.214171
  13 N :    0.178779
  14 C :   -0.141148
  15 C :    0.141264
  16 O :   -0.135122
  17 C :    0.039186
  18 C :   -0.079141
  19 C :   -0.004218
  20 C :    0.026335
  21 C :   -0.074372
  22 S :    0.208867
  23 C :   -0.108207
  24 C :    0.023732
  25 C :    0.298151
  26 C :   -0.285887
  27 C :   -0.189667
  28 N :    0.184507
  29 C :   -0.190968
  30 N :    0.184956
  31 C :   -0.047727
  32 C :   -0.050834
  33 S :    0.202336
  34 C :   -0.063741
  35 C :   -0.038943
  36 C :    0.012332
  37 C :   -0.097329
  38 S :    0.200775
  39 C :   -0.092581
  40 C :    0.018871
  41 C :    0.300532
  42 C :   -0.288240
  43 C :   -0.184088
  44 N :    0.173584
  45 C :   -0.190548
  46 N :    0.185477
  47 C :   -0.052856
  48 C :   -0.067611
  49 S :    0.188828
  50 C :   -0.016029
  51 C :   -0.089059
  52 C :    0.070425
  53 C :    0.062968
  54 C :   -0.117227
  55 S :    0.151834
  56 C :   -0.115358
  57 C :    0.055630
  58 C :   -0.010177
  59 C :   -0.061619
  60 S :    0.134097
  61 C :    0.105266
  62 C :   -0.001760
  63 C :   -0.016903
  64 C :   -0.028489
  65 C :   -0.085658
  66 C :    0.344490
  67 C :   -0.366459
  68 C :   -0.186407
  69 N :    0.138899
  70 C :   -0.185843
  71 N :    0.125439
  72 C :    0.045698
  73 C :    0.004495
  74 C :    0.148175
  75 O :   -0.166703
  76 C :   -0.092051
  77 C :    0.103217
  78 C :    0.099322
  79 C :   -0.092935
  80 C :   -0.023287
  81 C :    0.035527
  82 C :    0.037206
  83 C :   -0.021926
  84 H :    0.019917
  85 H :    0.014888
  86 H :    0.034988
  87 H :    0.021454
  88 H :    0.016625
  89 H :    0.015606
  90 H :    0.023063
  91 H :    0.000628
  92 H :    0.044537
  93 H :    0.017244
  94 H :    0.029865
  95 H :   -0.020963
  96 H :    0.003844
  97 H :   -0.002517
  98 H :   -0.018057
  99 H :   -0.010014
 100 H :   -0.009719
 101 H :   -0.007628
 102 H :   -0.008634
 103 H :   -0.019799
Sum of atomic charges:   -0.0000000

LOEWDIN ATOMIC CHARGES
----------------------
   0 C :   -0.020292
   1 C :    0.075447
   2 F :   -0.041416
   3 C :    0.070650
   4 F :   -0.043929
   5 C :   -0.003499
   6 C :   -0.046354
   7 C :   -0.012623
   8 C :    0.060118
   9 C :   -0.142635
  10 C :   -0.023306
  11 N :   -0.041631
  12 C :   -0.039930
  13 N :   -0.042665
  14 C :   -0.107231
  15 C :    0.083833
  16 O :   -0.135935
  17 C :    0.053517
  18 C :   -0.179769
  19 C :    0.018251
  20 C :   -0.075884
  21 C :   -0.147624
  22 S :    0.514780
  23 C :   -0.191750
  24 C :   -0.047842
  25 C :    0.077249
  26 C :   -0.091607
  27 C :   -0.018471
  28 N :   -0.021523
  29 C :   -0.017471
  30 N :   -0.022272
  31 C :   -0.026410
  32 C :   -0.169492
  33 S :    0.477197
  34 C :   -0.184094
  35 C :   -0.018547
  36 C :   -0.064729
  37 C :   -0.178276
  38 S :    0.477211
  39 C :   -0.176321
  40 C :   -0.065627
  41 C :    0.079253
  42 C :   -0.093702
  43 C :   -0.015650
  44 N :   -0.027242
  45 C :   -0.019270
  46 N :   -0.020797
  47 C :   -0.034083
  48 C :   -0.181969
  49 S :    0.488972
  50 C :   -0.170784
  51 C :   -0.032592
  52 C :    0.006008
  53 C :   -0.046367
  54 C :   -0.136263
  55 S :    0.481708
  56 C :   -0.203218
  57 C :   -0.031677
  58 C :   -0.058253
  59 C :   -0.158083
  60 S :    0.428543
  61 C :   -0.057188
  62 C :    0.036355
  63 C :   -0.047079
  64 C :    0.066778
  65 C :   -0.109101
  66 C :    0.077305
  67 C :   -0.153695
  68 C :   -0.018214
  69 N :   -0.065196
  70 C :   -0.017055
  71 N :   -0.071876
  72 C :   -0.024217
  73 C :   -0.053194
  74 C :    0.084741
  75 O :   -0.162435
  76 C :    0.026919
  77 C :   -0.009299
  78 C :   -0.007462
  79 C :    0.016720
  80 C :   -0.006228
  81 C :   -0.016523
  82 C :   -0.015178
  83 C :   -0.011666
  84 H :    0.051840
  85 H :    0.053396
  86 H :    0.056582
  87 H :    0.048253
  88 H :    0.044074
  89 H :    0.044085
  90 H :    0.036328
  91 H :    0.029374
  92 H :    0.040639
  93 H :    0.039934
  94 H :    0.026091
  95 H :    0.030541
  96 H :    0.030110
  97 H :    0.038678
  98 H :    0.036690
  99 H :    0.038368
 100 H :    0.034208
 101 H :    0.031988
 102 H :    0.031426
 103 H :    0.030548

  Mayer bond orders larger than 0.100000
B(  0-C ,  1-C ) :   1.3347 B(  0-C ,  5-C ) :   0.1040 B(  0-C ,  7-C ) :   1.3196
B(  0-C , 84-H ) :   0.9961 B(  1-C ,  2-F ) :   1.1433 B(  1-C ,  3-C ) :   1.2898
B(  3-C ,  4-F ) :   1.1335 B(  3-C ,  5-C ) :   1.3204 B(  5-C ,  6-C ) :   1.3237
B(  5-C , 85-H ) :   1.0208 B(  6-C ,  7-C ) :   1.3457 B(  6-C , 15-C ) :   0.9295
B(  7-C ,  8-C ) :   1.0172 B(  8-C ,  9-C ) :   1.6547 B(  8-C , 14-C ) :   1.0435
B(  9-C , 10-C ) :   1.1274 B(  9-C , 12-C ) :   1.1541 B( 10-C , 11-N ) :   2.9989
B( 12-C , 13-N ) :   3.0235 B( 14-C , 15-C ) :   0.9481 B( 14-C , 17-C ) :   1.6113
B( 15-C , 16-O ) :   2.2722 B( 17-C , 18-C ) :   1.1808 B( 17-C , 86-H ) :   0.9438
B( 18-C , 19-C ) :   1.3815 B( 18-C , 22-S ) :   1.0722 B( 19-C , 20-C ) :   1.3136
B( 19-C , 87-H ) :   1.0018 B( 20-C , 21-C ) :   1.3812 B( 20-C , 25-C ) :   0.9945
B( 21-C , 22-S ) :   1.1688 B( 21-C , 23-C ) :   1.2240 B( 23-C , 24-C ) :   1.4274
B( 23-C , 33-S ) :   1.1078 B( 24-C , 25-C ) :   0.9908 B( 24-C , 31-C ) :   1.3045
B( 25-C , 26-C ) :   1.7217 B( 26-C , 27-C ) :   1.1341 B( 26-C , 29-C ) :   1.1337
B( 27-C , 28-N ) :   2.9902 B( 29-C , 30-N ) :   2.9939 B( 31-C , 32-C ) :   1.4694
B( 31-C , 88-H ) :   0.9932 B( 32-C , 33-S ) :   1.1159 B( 32-C , 34-C ) :   1.1193
B( 34-C , 35-C ) :   1.4787 B( 34-C , 38-S ) :   1.0992 B( 35-C , 36-C ) :   1.2951
B( 35-C , 89-H ) :   0.9937 B( 36-C , 37-C ) :   1.4328 B( 36-C , 41-C ) :   0.9941
B( 37-C , 38-S ) :   1.1261 B( 37-C , 39-C ) :   1.1965 B( 39-C , 40-C ) :   1.4386
B( 39-C , 49-S ) :   1.1296 B( 40-C , 41-C ) :   0.9981 B( 40-C , 47-C ) :   1.3125
B( 41-C , 42-C ) :   1.7174 B( 42-C , 43-C ) :   1.1323 B( 42-C , 45-C ) :   1.1329
B( 43-C , 44-N ) :   2.9874 B( 45-C , 46-N ) :   2.9920 B( 47-C , 48-C ) :   1.4488
B( 47-C , 90-H ) :   0.9797 B( 48-C , 49-S ) :   1.1057 B( 48-C , 50-C ) :   1.1644
B( 50-C , 51-C ) :   1.4982 B( 50-C , 55-S ) :   1.0776 B( 51-C , 52-C ) :   1.2823
B( 51-C , 91-H ) :   0.9585 B( 52-C , 53-C ) :   1.0646 B( 52-C , 61-C ) :   1.3272
B( 53-C , 54-C ) :   1.5921 B( 53-C , 56-C ) :   1.1757 B( 54-C , 55-S ) :   1.1465
B( 54-C , 92-H ) :   0.9405 B( 56-C , 57-C ) :   1.4501 B( 56-C , 60-S ) :   1.0834
B( 57-C , 58-C ) :   1.2221 B( 57-C , 61-C ) :   1.0725 B( 58-C , 59-C ) :   1.5851
B( 58-C , 93-H ) :   0.9990 B( 59-C , 60-S ) :   1.1546 B( 59-C , 94-H ) :   0.9627
B( 61-C , 62-C ) :   1.1830 B( 62-C , 63-C ) :   1.4724 B( 62-C , 95-H ) :   0.9747
B( 63-C , 64-C ) :   1.2149 B( 63-C , 96-H ) :   0.9943 B( 64-C , 65-C ) :   1.4618
B( 64-C , 97-H ) :   0.9643 B( 65-C , 66-C ) :   1.0884 B( 65-C , 74-C ) :   0.9613
B( 66-C , 67-C ) :   1.5954 B( 66-C , 72-C ) :   0.9805 B( 67-C , 68-C ) :   1.1503
B( 67-C , 70-C ) :   1.1539 B( 68-C , 69-N ) :   2.9594 B( 70-C , 71-N ) :   2.9523
B( 72-C , 73-C ) :   1.2168 B( 72-C , 79-C ) :   1.4561 B( 73-C , 74-C ) :   0.9419
B( 73-C , 76-C ) :   1.4745 B( 74-C , 75-O ) :   2.1820 B( 76-C , 77-C ) :   1.1736
B( 76-C , 98-H ) :   1.0161 B( 77-C , 78-C ) :   1.2591 B( 77-C , 83-C ) :   1.2459
B( 78-C , 79-C ) :   1.1999 B( 78-C , 80-C ) :   1.2426 B( 79-C , 99-H ) :   0.9892
B( 80-C , 81-C ) :   1.4878 B( 80-C ,100-H ) :   0.9967 B( 81-C , 82-C ) :   1.2619
B( 81-C ,101-H ) :   0.9879 B( 82-C , 83-C ) :   1.4879 B( 82-C ,102-H ) :   0.9878
B( 83-C ,103-H ) :   0.9969

-----------------------------------------------------------------------------
         ABSORPTION SPECTRUM VIA TRANSITION ELECTRIC DIPOLE MOMENTS
-----------------------------------------------------------------------------
State   Energy  Wavelength   fosc         T2         TX        TY        TZ
        (cm-1)    (nm)                  (au**2)     (au)      (au)      (au)
-----------------------------------------------------------------------------
   0   10409.5    960.7   0.428825008  13.56205   1.12264  -3.31773   1.13773
   1   12845.7    778.5   0.149646425   3.83516   1.31449  -1.32427  -0.59462
   2   15491.3    645.5   0.848105677  18.02343  -2.10722  -1.97964   3.10871
   3   16421.3    609.0   0.214624967   4.30276  -0.44384  -1.53067   1.32771
   4   18838.9    530.8   0.201565183   3.52238  -1.42764   0.99709   0.70003
   5   20011.0    499.7   0.763919403  12.56767  -2.59135   1.45755   1.93084
   6   22420.5    446.0   0.054226951   0.79624  -0.64879   0.60304   0.10797
   7   23101.9    432.9   0.427269017   6.08875  -2.09034   0.89520   0.95804
   8   23315.8    428.9   0.312991862   4.41935   1.44630  -1.52409   0.06862
   9   24425.6    409.4   0.039854038   0.53716   0.23236  -0.69510  -0.00084
  10   24873.6    402.0   0.189433563   2.50723  -0.23974   1.31901  -0.84259
  11   25317.5    395.0   0.014070236   0.18296  -0.32796  -0.04514   0.27085
  12   25921.0    385.8   0.259809001   3.29973   0.42661  -1.63442   0.66813
  13   26342.2    379.6   0.165215423   2.06478   1.08531  -0.81838  -0.46598
  14   26695.4    374.6   0.029984599   0.36977   0.01035   0.51895  -0.31679
  15   27287.1    366.5   0.048602468   0.58638  -0.41843   0.63807  -0.06450
  16   27568.4    362.7   0.014831937   0.17712  -0.04940  -0.32453   0.26336
  17   27599.9    362.3   0.102988553   1.22845  -0.01864   0.92550  -0.60956
  18   27941.3    357.9   0.086919674   1.02411   0.09625   0.94916   0.33754
  19   28055.2    356.4   0.121061717   1.42059   0.75356  -0.08830  -0.91921
  20   28967.3    345.2   0.098770237   1.12252   0.17575  -0.85034   0.60708
  21   29396.8    340.2   0.132189775   1.48038  -0.14303   0.45825   1.11800
  22   29757.1    336.1   0.078311561   0.86638   0.46948  -0.60307   0.53131
  23   30076.1    332.5   0.082119496   0.89888  -0.62946  -0.22696   0.67167
  24   30346.3    329.5   0.062725706   0.68048   0.02985  -0.05907  -0.82225
  25   30542.4    327.4   0.087962245   0.94813  -0.44148   0.85292  -0.16047
  26   30903.8    323.6   0.086381597   0.92021   0.40029  -0.57446   0.65572
  27   31132.6    321.2   0.208103361   2.20059   0.59562   0.24794  -1.33580
  28   31236.5    320.1   0.675047461   7.11456   1.26574   0.10601  -2.34547
  29   31670.8    315.7   0.237551144   2.46930   0.87194  -0.95352  -0.89433
  30   31942.7    313.1   0.129612572   1.33583  -0.79603  -0.43601   0.71558
  31   32194.2    310.6   0.199494493   2.03999  -0.10786  -1.29168   0.59994
  32   32624.5    306.5   0.112513665   1.13537   0.08489  -0.38785   0.98880
  33   32750.5    305.3   0.088469979   0.88931  -0.07896  -0.77052   0.53793
  34   32802.8    304.9   0.227052612   2.27872  -0.11006   1.49515  -0.17646
  35   32900.6    303.9   0.309218131   3.09412   0.28313   1.24065  -1.21439
  36   33360.9    299.8   0.110641225   1.09183   0.33928  -0.22456   0.96244
  37   33464.1    298.8   0.136206884   1.33997   0.10600   0.71058  -0.90764
  38   33628.7    297.4   0.108700698   1.06414   0.76821  -0.61342  -0.31258
  39   33991.3    294.2   0.071699297   0.69442   0.23514  -0.79346   0.09771
  40   34102.5    293.2   0.349541797   3.37434   0.70494   1.05068  -1.33171
  41   34240.4    292.1   0.129458096   1.24470   0.23686  -1.03224   0.35082
  42   34453.6    290.2   0.067175969   0.64188   0.23289   0.72636   0.24505
  43   34691.9    288.3   0.177798414   1.68724   0.39274   0.76495  -0.97357
  44   34842.5    287.0   0.032080238   0.30311  -0.03170  -0.27133  -0.47801
  45   35112.4    284.8   0.146716791   1.37561  -0.47232   0.38421   1.00245
  46   35383.5    282.6   0.000029318   0.00027  -0.00032   0.01651  -0.00032
  47   35509.5    281.6   0.061076241   0.56624  -0.09263  -0.45787  -0.58993
  48   35567.1    281.2   0.076173503   0.70507   0.19046  -0.81769  -0.01339
  49   36026.4    277.6   0.005567146   0.05087  -0.12015  -0.03299   0.18801
  50   36384.2    274.8   0.162954818   1.47445   0.76384  -0.94338   0.03198
  51   36462.2    274.3   0.072061107   0.65063  -0.35006   0.44139   0.57729
  52   36696.6    272.5   0.067154278   0.60245  -0.15160   0.72895   0.21931
  53   36759.1    272.0   0.033523686   0.30024   0.12030   0.53437   0.01460
  54   36810.0    271.7   0.079699307   0.71279   0.41080   0.73689  -0.03206
  55   36992.6    270.3   0.139543523   1.24185  -0.30932  -1.06971  -0.04341
  56   37232.6    268.6   0.013145356   0.11623   0.13699  -0.29045   0.11447
  57   37395.9    267.4   0.145887437   1.28431   0.54817  -0.84669  -0.51666
  58   37586.5    266.1   0.045269341   0.39650  -0.06286   0.62556  -0.03505
  59   37680.2    265.4   0.014841949   0.12967  -0.11735   0.33398   0.06604
  60   37771.6    264.7   0.007392431   0.06443  -0.07199   0.04799   0.23863
  61   37850.4    264.2   0.014003182   0.12180   0.00764  -0.07544  -0.34066
  62   38028.9    263.0   0.040420708   0.34992  -0.07826   0.39217  -0.43589
  63   38091.8    262.5   0.067756126   0.58559   0.42523   0.11563  -0.62562
  64   38757.4    258.0   0.000027558   0.00023  -0.00723   0.01332   0.00211
  65   39076.5    255.9   0.186634414   1.57236   0.37456  -1.14475   0.34872
  66   39267.5    254.7   0.180870610   1.51639  -1.02353   0.56443   0.38755
  67   39517.3    253.1   0.027117704   0.22591  -0.27553   0.38129   0.06791
  68   39826.9    251.1   0.099599138   0.82329   0.29092  -0.81291   0.27898
  69   39977.1    250.1   0.020758293   0.17094   0.16070  -0.30786   0.22437
  70   40007.8    250.0   0.008836035   0.07271  -0.05594   0.25453  -0.06924
  71   40153.3    249.0   0.013692885   0.11227   0.17149  -0.28199   0.05782

FINAL SINGLE POINT ENERGY     -5699.238452325692

DIPOLE MOMENT
-------------
                                X             Y             Z
Electronic contribution:    -13.51487      87.98224     -29.08672
Nuclear contribution   :     16.40671     -89.96801      30.24645
                        -----------------------------------------
Total Dipole Moment    :      2.89184      -1.98577       1.15973
                        -----------------------------------------
Magnitude (a.u.)       :      3.69473
Magnitude (Debye)      :      9.39125

Rotational constants in cm-1:     0.000601     0.000213     0.000162
Rotational constants in MHz :    18.027251     6.380656     4.851593

                             ****ORCA TERMINATED NORMALLY****
TOTAL RUN TIME: 0 days 0 hours 12 minutes 11 seconds 550 msec
