                         Program Version 4.2.0 -  RELEASE  -
|  1> # ORCA input file
|  2> # SCF done       -213.549676667127          0.000793929220
|  3> ! CAM-B3LYP def2-SVP def2/J RIJCOSX Grid4 TightSCF
|  4> %maxcore 5000
|  5> %tddft
|  6>     Mode sTDDFT
|  7>     Ethresh 5.0
|  8>     maxcore 5000
|  9> end
| 10>
| 11> %pal
| 12>   nprocs 6
| 13>   end
| 14> * xyz 0 1
| 15>    C        3.11644         0.70617        -0.45723
| 16>    C        3.34474         2.05752        -0.24341
| 17>    F        4.22359         2.69497        -1.02086
| 18>    C        2.68163         2.76234         0.76333
| 19>    F        2.92755         4.06487         0.92833
| 20>    C        1.77358         2.12392         1.59322
| 21>    C        1.55317         0.77622         1.38711
| 22>    C        2.20911         0.06187         0.36869
| 23>    C        1.72733        -1.32036         0.37522
| 24>    C        1.82988        -2.19734        -0.67287
| 25>    C        2.61868        -1.96807        -1.81913
| 26>    N        3.28908        -1.85727        -2.74384
| 27>    C        1.11881        -3.41219        -0.75214
| 28>    N        0.53969        -4.39354        -0.88591
| 29>    C        0.92302        -1.48949         1.56460
| 30>    C        0.66151        -0.13805         2.13590
| 31>    O       -0.08760         0.13306         3.04195
| 32>    C        0.45164        -2.58260         2.22601
| 33>    C        0.81139        -3.94772         2.12469
| 34>    S       -0.37769        -5.14526         2.58865
| 35>    C        0.70168        -6.42430         2.24972
| 36>    C        1.92117        -5.97539         1.83767
| 37>    C        1.99651        -4.56919         1.77041
| 38>    C        3.31847        -3.96854         1.43745
| 39>    C        4.43673        -4.64926         2.24442
| 40>    C        4.29909        -6.19388         2.37382
| 41>    O        4.09951        -6.42090         3.75554
| 42>    C        4.24980        -7.75198         4.19150
| 43>    C        3.14828        -6.75313         1.51677
| 44>    N        5.71139        -4.26697         1.68011
| 45>    C        6.89024        -4.54219         2.25546
| 46>    C        8.08603        -4.05668         1.82532
| 47>    C        9.31742        -4.33884         2.45320
| 48>    N       10.34900        -3.50418         2.33563
| 49>    C       11.29785        -3.95917         3.16557
| 50>    C       10.85357        -5.18407         3.85546
| 51>    C       11.90802        -5.70791         4.73789
| 52>    O       11.87424        -6.70887         5.42598
| 53>    C       12.98479        -4.72642         4.55406
| 54>    C       12.57714        -3.68083         3.59361
| 55>    N       13.58025        -2.79530         3.39898
| 56>    C       14.56759        -3.22161         4.15552
| 57>    C       14.26876        -4.42272         4.89324
| 58>    C        9.61325        -5.47140         3.36887
| 59>    C        8.88371        -6.68306         3.61297
| 60>    C        8.21786        -7.35566         2.65462
| 61>    C        7.58565        -8.63323         2.77017
| 62>    S        6.59802        -9.15273         1.42169
| 63>    C        6.18988       -10.60907         2.22669
| 64>    C        6.78283       -10.71407         3.44914
| 65>    C        7.59200        -9.59146         3.76370
| 66>    C        8.33427        -9.49889         5.05949
| 67>    C        8.45857       -10.86627         5.73146
| 68>    C        7.06690       -11.55627         5.78864
| 69>    O        6.10871       -10.72500         6.40199
| 70>    C        6.11960       -10.74060         7.80909
| 71>    C        6.59428       -11.87727         4.37039
| 72>    N        9.40798       -11.67506         5.01175
| 73>    C       10.13943       -12.64309         5.55599
| 74>    C       10.98517       -13.46104         4.85518
| 75>    C       11.79881       -14.45206         5.41457
| 76>    C       11.79671       -15.03840         6.66279
| 77>    C       13.04677       -15.68302         7.12393
| 78>    O       14.03601       -15.91993         6.46770
| 79>    C       12.84626       -15.94080         8.57142
| 80>    C       11.53305       -15.58799         8.92261
| 81>    C       11.10870       -15.70981        10.23482
| 82>    C       12.01780       -16.18427        11.16992
| 83>    C       13.31657       -16.54130        10.81173
| 84>    C       13.74669       -16.42304         9.49863
| 85>    F       14.15915       -17.00004        11.74642
| 86>    F       11.63291       -16.29502        12.44780
| 87>    C       10.82756       -15.14373         7.71565
| 88>    C        9.45512       -15.08561         7.60536
| 89>    C        8.77626       -14.90081         6.39138
| 90>    N        8.17121       -14.72996         5.42843
| 91>    C        8.55860       -15.22794         8.68057
| 92>    N        7.77001       -15.28367         9.51422
| 93>    H        3.65199         0.20619        -1.24789
| 94>    H        1.25909         2.66654         2.37019
| 95>    H       -0.29265        -2.35498         2.98450
| 96>    H        0.37527        -7.43936         2.36206
| 97>    H        3.33497        -2.89755         1.64633
| 98>    H        3.51443        -4.11788         0.36819
| 99>    H        4.37797        -4.28469         3.28007
|100>    H        5.23743        -6.67327         2.05268
|101>    H        4.18648        -7.72045         5.27671
|102>    H        5.22292        -8.15711         3.89988
|103>    H        3.46021        -8.40559         3.80970
|104>    H        3.01358        -7.81560         1.71198
|105>    H        3.40555        -6.62991         0.46227
|106>    H        5.71219        -3.68763         0.85334
|107>    H        6.83375        -5.16759         3.13517
|108>    H        8.11950        -3.32860         1.02706
|109>    H       15.49857        -2.68239         4.18403
|110>    H       14.93872        -4.93324         5.55677
|111>    H        9.01573        -7.09070         4.60194
|112>    H        8.14902        -6.91138         1.66871
|113>    H        5.53275       -11.31016         1.75239
|114>    H        7.79263        -8.83071         5.73450
|115>    H        9.33680        -9.09361         4.90319
|116>    H        8.83501       -10.73566         6.75191
|117>    H        7.15966       -12.49877         6.35003
|118>    H        5.24226       -10.17962         8.12467
|119>    H        7.01596       -10.26333         8.22080
|120>    H        6.05442       -11.76436         8.19452
|121>    H        5.53710       -12.14359         4.41188
|122>    H        7.13974       -12.75326         4.01003
|123>    H        9.37771       -11.60904         4.00341
|124>    H       10.10469       -12.69352         6.63620
|125>    H       11.08591       -13.28928         3.79223
|126>    H       12.62944       -14.78002         4.79628
|127>    H       10.11608       -15.44528        10.56115
|128>    H       14.75085       -16.69925         9.21944
|129> *
|130>
|131>                          ****END OF INPUT****

CARTESIAN COORDINATES (ANGSTROEM)
---------------------------------
  C      3.116440    0.706170   -0.457230
  C      3.344740    2.057520   -0.243410
  F      4.223590    2.694970   -1.020860
  C      2.681630    2.762340    0.763330
  F      2.927550    4.064870    0.928330
  C      1.773580    2.123920    1.593220
  C      1.553170    0.776220    1.387110
  C      2.209110    0.061870    0.368690
  C      1.727330   -1.320360    0.375220
  C      1.829880   -2.197340   -0.672870
  C      2.618680   -1.968070   -1.819130
  N      3.289080   -1.857270   -2.743840
  C      1.118810   -3.412190   -0.752140
  N      0.539690   -4.393540   -0.885910
  C      0.923020   -1.489490    1.564600
  C      0.661510   -0.138050    2.135900
  O     -0.087600    0.133060    3.041950
  C      0.451640   -2.582600    2.226010
  C      0.811390   -3.947720    2.124690
  S     -0.377690   -5.145260    2.588650
  C      0.701680   -6.424300    2.249720
  C      1.921170   -5.975390    1.837670
  C      1.996510   -4.569190    1.770410
  C      3.318470   -3.968540    1.437450
  C      4.436730   -4.649260    2.244420
  C      4.299090   -6.193880    2.373820
  O      4.099510   -6.420900    3.755540
  C      4.249800   -7.751980    4.191500
  C      3.148280   -6.753130    1.516770
  N      5.711390   -4.266970    1.680110
  C      6.890240   -4.542190    2.255460
  C      8.086030   -4.056680    1.825320
  C      9.317420   -4.338840    2.453200
  N     10.349000   -3.504180    2.335630
  C     11.297850   -3.959170    3.165570
  C     10.853570   -5.184070    3.855460
  C     11.908020   -5.707910    4.737890
  O     11.874240   -6.708870    5.425980
  C     12.984790   -4.726420    4.554060
  C     12.577140   -3.680830    3.593610
  N     13.580250   -2.795300    3.398980
  C     14.567590   -3.221610    4.155520
  C     14.268760   -4.422720    4.893240
  C      9.613250   -5.471400    3.368870
  C      8.883710   -6.683060    3.612970
  C      8.217860   -7.355660    2.654620
  C      7.585650   -8.633230    2.770170
  S      6.598020   -9.152730    1.421690
  C      6.189880  -10.609070    2.226690
  C      6.782830  -10.714070    3.449140
  C      7.592000   -9.591460    3.763700
  C      8.334270   -9.498890    5.059490
  C      8.458570  -10.866270    5.731460
  C      7.066900  -11.556270    5.788640
  O      6.108710  -10.725000    6.401990
  C      6.119600  -10.740600    7.809090
  C      6.594280  -11.877270    4.370390
  N      9.407980  -11.675060    5.011750
  C     10.139430  -12.643090    5.555990
  C     10.985170  -13.461040    4.855180
  C     11.798810  -14.452060    5.414570
  C     11.796710  -15.038400    6.662790
  C     13.046770  -15.683020    7.123930
  O     14.036010  -15.919930    6.467700
  C     12.846260  -15.940800    8.571420
  C     11.533050  -15.587990    8.922610
  C     11.108700  -15.709810   10.234820
  C     12.017800  -16.184270   11.169920
  C     13.316570  -16.541300   10.811730
  C     13.746690  -16.423040    9.498630
  F     14.159150  -17.000040   11.746420
  F     11.632910  -16.295020   12.447800
  C     10.827560  -15.143730    7.715650
  C      9.455120  -15.085610    7.605360
  C      8.776260  -14.900810    6.391380
  N      8.171210  -14.729960    5.428430
  C      8.558600  -15.227940    8.680570
  N      7.770010  -15.283670    9.514220
  H      3.651990    0.206190   -1.247890
  H      1.259090    2.666540    2.370190
  H     -0.292650   -2.354980    2.984500
  H      0.375270   -7.439360    2.362060
  H      3.334970   -2.897550    1.646330
  H      3.514430   -4.117880    0.368190
  H      4.377970   -4.284690    3.280070
  H      5.237430   -6.673270    2.052680
  H      4.186480   -7.720450    5.276710
  H      5.222920   -8.157110    3.899880
  H      3.460210   -8.405590    3.809700
  H      3.013580   -7.815600    1.711980
  H      3.405550   -6.629910    0.462270
  H      5.712190   -3.687630    0.853340
  H      6.833750   -5.167590    3.135170
  H      8.119500   -3.328600    1.027060
  H     15.498570   -2.682390    4.184030
  H     14.938720   -4.933240    5.556770
  H      9.015730   -7.090700    4.601940
  H      8.149020   -6.911380    1.668710
  H      5.532750  -11.310160    1.752390
  H      7.792630   -8.830710    5.734500
  H      9.336800   -9.093610    4.903190
  H      8.835010  -10.735660    6.751910
  H      7.159660  -12.498770    6.350030
  H      5.242260  -10.179620    8.124670
  H      7.015960  -10.263330    8.220800
  H      6.054420  -11.764360    8.194520
  H      5.537100  -12.143590    4.411880
  H      7.139740  -12.753260    4.010030
  H      9.377710  -11.609040    4.003410
  H     10.104690  -12.693520    6.636200
  H     11.085910  -13.289280    3.792230
  H     12.629440  -14.780020    4.796280
  H     10.116080  -15.445280   10.561150
  H     14.750850  -16.699250    9.219440

 Total Charge           Charge          ....    0
 Multiplicity           Mult            ....    1
 Number of Electrons    NEL             ....  554
 Basis Dimension        Dim             .... 1280

ORBITAL ENERGIES
----------------

  NO   OCC          E(Eh)            E(eV)
   0   2.0000     -88.976461     -2421.1726
   1   2.0000     -88.971989     -2421.0509
   2   2.0000     -24.812111      -675.1719
   3   2.0000     -24.811947      -675.1674
   4   2.0000     -24.796492      -674.7469
   5   2.0000     -24.795759      -674.7269
   6   2.0000     -19.233275      -523.3640
   7   2.0000     -19.233189      -523.3617
   8   2.0000     -19.231994      -523.3292
   9   2.0000     -19.207982      -522.6758
  10   2.0000     -19.199367      -522.4413
  11   2.0000     -14.478103      -393.9692
  12   2.0000     -14.470669      -393.7669
  13   2.0000     -14.433777      -392.7630
  14   2.0000     -14.430848      -392.6833
  15   2.0000     -14.422824      -392.4650
  16   2.0000     -14.413628      -392.2147
  17   2.0000     -14.390503      -391.5855
  18   2.0000     -14.386471      -391.4758
  19   2.0000     -10.399143      -282.9751
  20   2.0000     -10.398268      -282.9513
  21   2.0000     -10.384271      -282.5704
  22   2.0000     -10.380797      -282.4758
  23   2.0000     -10.380395      -282.4649
  24   2.0000     -10.361729      -281.9570
  25   2.0000     -10.360550      -281.9249
  26   2.0000     -10.360102      -281.9127
  27   2.0000     -10.359826      -281.9052
  28   2.0000     -10.359363      -281.8926
  29   2.0000     -10.350122      -281.6411
  30   2.0000     -10.343000      -281.4473
  31   2.0000     -10.342201      -281.4256
  32   2.0000     -10.338942      -281.3369
  33   2.0000     -10.337573      -281.2997
  34   2.0000     -10.336714      -281.2763
  35   2.0000     -10.336192      -281.2621
  36   2.0000     -10.336105      -281.2597
  37   2.0000     -10.335861      -281.2531
  38   2.0000     -10.335658      -281.2475
  39   2.0000     -10.331831      -281.1434
  40   2.0000     -10.331302      -281.1290
  41   2.0000     -10.326873      -281.0085
  42   2.0000     -10.326101      -280.9875
  43   2.0000     -10.324144      -280.9342
  44   2.0000     -10.321841      -280.8716
  45   2.0000     -10.321441      -280.8607
  46   2.0000     -10.319280      -280.8019
  47   2.0000     -10.318437      -280.7789
  48   2.0000     -10.318291      -280.7750
  49   2.0000     -10.318155      -280.7713
  50   2.0000     -10.316031      -280.7135
  51   2.0000     -10.316028      -280.7134
  52   2.0000     -10.314314      -280.6668
  53   2.0000     -10.314042      -280.6593
  54   2.0000     -10.313650      -280.6487
  55   2.0000     -10.311773      -280.5976
  56   2.0000     -10.310596      -280.5656
  57   2.0000     -10.305521      -280.4275
  58   2.0000     -10.304281      -280.3937
  59   2.0000     -10.303431      -280.3706
  60   2.0000     -10.301558      -280.3196
  61   2.0000     -10.301261      -280.3116
  62   2.0000     -10.300144      -280.2812
  63   2.0000     -10.298148      -280.2269
  64   2.0000     -10.296973      -280.1949
  65   2.0000     -10.296829      -280.1909
  66   2.0000     -10.295706      -280.1604
  67   2.0000     -10.295176      -280.1460
  68   2.0000     -10.294746      -280.1343
  69   2.0000     -10.294448      -280.1262
  70   2.0000     -10.293256      -280.0937
  71   2.0000     -10.281842      -279.7831
  72   2.0000     -10.281135      -279.7639
  73   2.0000     -10.280334      -279.7421
  74   2.0000     -10.280064      -279.7348
  75   2.0000     -10.277009      -279.6516
  76   2.0000     -10.270572      -279.4765
  77   2.0000     -10.269932      -279.4591
  78   2.0000      -8.072495      -219.6637
  79   2.0000      -8.067142      -219.5181
  80   2.0000      -6.041835      -164.4067
  81   2.0000      -6.037429      -164.2868
  82   2.0000      -6.036326      -164.2568
  83   2.0000      -6.034665      -164.2116
  84   2.0000      -6.032192      -164.1443
  85   2.0000      -6.029591      -164.0735
  86   2.0000      -1.336651       -36.3721
  87   2.0000      -1.321369       -35.9563
  88   2.0000      -1.319434       -35.9036
  89   2.0000      -1.304272       -35.4911
  90   2.0000      -1.149537       -31.2805
  91   2.0000      -1.136653       -30.9299
  92   2.0000      -1.134581       -30.8735
  93   2.0000      -1.123510       -30.5723
  94   2.0000      -1.112041       -30.2602
  95   2.0000      -1.080501       -29.4019
  96   2.0000      -1.071879       -29.1673
  97   2.0000      -1.062370       -28.9086
  98   2.0000      -1.039988       -28.2995
  99   2.0000      -1.038077       -28.2475
 100   2.0000      -1.021017       -27.7833
 101   2.0000      -1.017725       -27.6937
 102   2.0000      -1.015744       -27.6398
 103   2.0000      -1.008211       -27.4348
 104   2.0000      -1.002758       -27.2864
 105   2.0000      -1.002286       -27.2736
 106   2.0000      -0.995539       -27.0900
 107   2.0000      -0.971658       -26.4401
 108   2.0000      -0.953860       -25.9558
 109   2.0000      -0.940803       -25.6005
 110   2.0000      -0.933759       -25.4089
 111   2.0000      -0.923292       -25.1240
 112   2.0000      -0.922718       -25.1084
 113   2.0000      -0.919250       -25.0141
 114   2.0000      -0.907619       -24.6976
 115   2.0000      -0.904922       -24.6242
 116   2.0000      -0.893654       -24.3176
 117   2.0000      -0.888148       -24.1677
 118   2.0000      -0.886409       -24.1204
 119   2.0000      -0.876530       -23.8516
 120   2.0000      -0.870032       -23.6748
 121   2.0000      -0.869264       -23.6539
 122   2.0000      -0.850542       -23.1444
 123   2.0000      -0.849394       -23.1132
 124   2.0000      -0.847062       -23.0497
 125   2.0000      -0.837056       -22.7774
 126   2.0000      -0.827712       -22.5232
 127   2.0000      -0.825909       -22.4741
 128   2.0000      -0.802815       -21.8457
 129   2.0000      -0.797608       -21.7040
 130   2.0000      -0.787765       -21.4362
 131   2.0000      -0.784282       -21.3414
 132   2.0000      -0.779807       -21.2196
 133   2.0000      -0.772196       -21.0125
 134   2.0000      -0.765541       -20.8314
 135   2.0000      -0.763314       -20.7708
 136   2.0000      -0.749060       -20.3830
 137   2.0000      -0.746672       -20.3180
 138   2.0000      -0.743438       -20.2300
 139   2.0000      -0.740841       -20.1593
 140   2.0000      -0.739028       -20.1100
 141   2.0000      -0.721308       -19.6278
 142   2.0000      -0.717790       -19.5321
 143   2.0000      -0.711965       -19.3735
 144   2.0000      -0.710989       -19.3470
 145   2.0000      -0.702720       -19.1220
 146   2.0000      -0.692589       -18.8463
 147   2.0000      -0.690287       -18.7837
 148   2.0000      -0.685048       -18.6411
 149   2.0000      -0.683294       -18.5934
 150   2.0000      -0.681424       -18.5425
 151   2.0000      -0.673233       -18.3196
 152   2.0000      -0.664006       -18.0685
 153   2.0000      -0.660103       -17.9623
 154   2.0000      -0.655676       -17.8419
 155   2.0000      -0.648811       -17.6551
 156   2.0000      -0.644316       -17.5327
 157   2.0000      -0.641359       -17.4523
 158   2.0000      -0.637807       -17.3556
 159   2.0000      -0.635594       -17.2954
 160   2.0000      -0.633530       -17.2392
 161   2.0000      -0.626200       -17.0398
 162   2.0000      -0.622031       -16.9263
 163   2.0000      -0.615820       -16.7573
 164   2.0000      -0.613498       -16.6941
 165   2.0000      -0.612342       -16.6627
 166   2.0000      -0.608542       -16.5593
 167   2.0000      -0.604243       -16.4423
 168   2.0000      -0.601299       -16.3622
 169   2.0000      -0.599178       -16.3045
 170   2.0000      -0.595159       -16.1951
 171   2.0000      -0.594182       -16.1685
 172   2.0000      -0.591417       -16.0933
 173   2.0000      -0.586168       -15.9505
 174   2.0000      -0.584542       -15.9062
 175   2.0000      -0.580409       -15.7937
 176   2.0000      -0.578631       -15.7454
 177   2.0000      -0.573792       -15.6137
 178   2.0000      -0.569097       -15.4859
 179   2.0000      -0.568615       -15.4728
 180   2.0000      -0.564360       -15.3570
 181   2.0000      -0.560914       -15.2632
 182   2.0000      -0.560510       -15.2523
 183   2.0000      -0.558646       -15.2015
 184   2.0000      -0.552137       -15.0244
 185   2.0000      -0.550786       -14.9876
 186   2.0000      -0.548940       -14.9374
 187   2.0000      -0.547855       -14.9079
 188   2.0000      -0.545651       -14.8479
 189   2.0000      -0.544905       -14.8276
 190   2.0000      -0.541669       -14.7396
 191   2.0000      -0.541353       -14.7310
 192   2.0000      -0.532600       -14.4928
 193   2.0000      -0.531947       -14.4750
 194   2.0000      -0.531354       -14.4589
 195   2.0000      -0.529170       -14.3994
 196   2.0000      -0.525880       -14.3099
 197   2.0000      -0.524008       -14.2590
 198   2.0000      -0.521745       -14.1974
 199   2.0000      -0.519590       -14.1388
 200   2.0000      -0.519323       -14.1315
 201   2.0000      -0.515682       -14.0324
 202   2.0000      -0.514154       -13.9908
 203   2.0000      -0.512422       -13.9437
 204   2.0000      -0.508172       -13.8281
 205   2.0000      -0.507161       -13.8006
 206   2.0000      -0.505874       -13.7655
 207   2.0000      -0.504477       -13.7275
 208   2.0000      -0.503130       -13.6909
 209   2.0000      -0.502517       -13.6742
 210   2.0000      -0.500695       -13.6246
 211   2.0000      -0.497476       -13.5370
 212   2.0000      -0.496867       -13.5205
 213   2.0000      -0.493174       -13.4200
 214   2.0000      -0.492066       -13.3898
 215   2.0000      -0.489629       -13.3235
 216   2.0000      -0.485255       -13.2044
 217   2.0000      -0.481512       -13.1026
 218   2.0000      -0.480251       -13.0683
 219   2.0000      -0.478383       -13.0175
 220   2.0000      -0.477693       -12.9987
 221   2.0000      -0.474511       -12.9121
 222   2.0000      -0.473142       -12.8748
 223   2.0000      -0.471448       -12.8288
 224   2.0000      -0.469792       -12.7837
 225   2.0000      -0.468004       -12.7350
 226   2.0000      -0.466022       -12.6811
 227   2.0000      -0.464957       -12.6521
 228   2.0000      -0.464675       -12.6445
 229   2.0000      -0.462157       -12.5759
 230   2.0000      -0.458367       -12.4728
 231   2.0000      -0.458259       -12.4698
 232   2.0000      -0.454823       -12.3764
 233   2.0000      -0.453536       -12.3413
 234   2.0000      -0.452656       -12.3174
 235   2.0000      -0.447798       -12.1852
 236   2.0000      -0.447379       -12.1738
 237   2.0000      -0.444666       -12.1000
 238   2.0000      -0.443870       -12.0783
 239   2.0000      -0.443300       -12.0628
 240   2.0000      -0.440953       -11.9989
 241   2.0000      -0.437062       -11.8931
 242   2.0000      -0.434693       -11.8286
 243   2.0000      -0.433347       -11.7920
 244   2.0000      -0.432415       -11.7666
 245   2.0000      -0.428402       -11.6574
 246   2.0000      -0.426804       -11.6139
 247   2.0000      -0.426697       -11.6110
 248   2.0000      -0.421575       -11.4716
 249   2.0000      -0.419785       -11.4229
 250   2.0000      -0.412726       -11.2308
 251   2.0000      -0.406453       -11.0601
 252   2.0000      -0.400012       -10.8849
 253   2.0000      -0.399248       -10.8641
 254   2.0000      -0.398002       -10.8302
 255   2.0000      -0.380126       -10.3438
 256   2.0000      -0.369117       -10.0442
 257   2.0000      -0.362539        -9.8652
 258   2.0000      -0.354514        -9.6468
 259   2.0000      -0.353604        -9.6221
 260   2.0000      -0.347257        -9.4493
 261   2.0000      -0.346574        -9.4308
 262   2.0000      -0.343962        -9.3597
 263   2.0000      -0.343092        -9.3360
 264   2.0000      -0.336218        -9.1490
 265   2.0000      -0.334522        -9.1028
 266   2.0000      -0.332790        -9.0557
 267   2.0000      -0.331852        -9.0302
 268   2.0000      -0.327043        -8.8993
 269   2.0000      -0.326003        -8.8710
 270   2.0000      -0.316514        -8.6128
 271   2.0000      -0.314779        -8.5656
 272   2.0000      -0.312976        -8.5165
 273   2.0000      -0.302652        -8.2356
 274   2.0000      -0.281501        -7.6600
 275   2.0000      -0.269539        -7.3345
 276   2.0000      -0.263816        -7.1788
 277   0.0000      -0.100900        -2.7456
 278   0.0000      -0.092417        -2.5148
 279   0.0000      -0.079584        -2.1656
 280   0.0000      -0.074625        -2.0307
 281   0.0000      -0.050593        -1.3767

MULLIKEN ATOMIC CHARGES
-----------------------
   0 C :   -0.096219
   1 C :    0.239892
   2 F :   -0.160283
   3 C :    0.235172
   4 F :   -0.163907
   5 C :   -0.100456
   6 C :    0.014321
   7 C :    0.031693
   8 C :    0.252020
   9 C :   -0.350510
  10 C :   -0.185865
  11 N :    0.163069
  12 C :   -0.208285
  13 N :    0.189473
  14 C :   -0.145145
  15 C :    0.133953
  16 O :   -0.131000
  17 C :    0.071106
  18 C :   -0.194612
  19 S :    0.157423
  20 C :   -0.101524
  21 C :   -0.051450
  22 C :   -0.055654
  23 C :    0.217848
  24 C :    0.045584
  25 C :    0.103148
  26 O :   -0.392327
  27 C :    0.202012
  28 C :    0.219261
  29 N :   -0.118115
  30 C :    0.081800
  31 C :   -0.055757
  32 C :    0.039475
  33 N :   -0.052192
  34 C :    0.066309
  35 C :   -0.117642
  36 C :    0.194126
  37 O :   -0.154792
  38 C :   -0.046364
  39 C :   -0.041405
  40 N :   -0.059480
  41 C :    0.076439
  42 C :   -0.096835
  43 C :   -0.013498
  44 C :   -0.062891
  45 C :    0.042893
  46 C :   -0.188986
  47 S :    0.113952
  48 C :   -0.134900
  49 C :   -0.068042
  50 C :   -0.097590
  51 C :    0.196413
  52 C :   -0.028072
  53 C :    0.138731
  54 O :   -0.378891
  55 C :    0.181411
  56 C :    0.186011
  57 N :   -0.081394
  58 C :    0.089305
  59 C :   -0.024782
  60 C :    0.052476
  61 C :   -0.160598
  62 C :    0.130226
  63 O :   -0.149966
  64 C :    0.016277
  65 C :    0.021193
  66 C :   -0.094522
  67 C :    0.232449
  68 C :    0.231459
  69 C :   -0.105220
  70 F :   -0.171660
  71 F :   -0.169970
  72 C :    0.278630
  73 C :   -0.384406
  74 C :   -0.181755
  75 N :    0.135334
  76 C :   -0.179334
  77 N :    0.144751
  78 H :    0.016334
  79 H :    0.016374
  80 H :    0.032976
  81 H :    0.025516
  82 H :    0.022579
  83 H :    0.014479
  84 H :    0.032159
  85 H :   -0.010350
  86 H :    0.030011
  87 H :    0.017320
  88 H :    0.001226
  89 H :   -0.003488
  90 H :    0.014410
  91 H :    0.130769
  92 H :    0.051552
  93 H :   -0.006511
  94 H :   -0.003112
  95 H :   -0.016564
  96 H :    0.011933
  97 H :   -0.000977
  98 H :    0.017126
  99 H :    0.030484
 100 H :    0.049189
 101 H :    0.012729
 102 H :    0.002602
 103 H :    0.032820
 104 H :    0.004710
 105 H :    0.022228
 106 H :    0.018930
 107 H :    0.038872
 108 H :    0.143345
 109 H :    0.041958
 110 H :   -0.008730
 111 H :    0.026976
 112 H :    0.012087
 113 H :    0.008704
Sum of atomic charges:   -0.0000000

LOEWDIN ATOMIC CHARGES
----------------------
   0 C :   -0.022714
   1 C :    0.076163
   2 F :   -0.038919
   3 C :    0.071408
   4 F :   -0.040730
   5 C :   -0.001848
   6 C :   -0.047759
   7 C :   -0.015438
   8 C :    0.061443
   9 C :   -0.138632
  10 C :   -0.025377
  11 N :   -0.046136
  12 C :   -0.021385
  13 N :   -0.036708
  14 C :   -0.101439
  15 C :    0.084208
  16 O :   -0.130747
  17 C :    0.056694
  18 C :   -0.187669
  19 S :    0.468747
  20 C :   -0.155589
  21 C :   -0.055358
  22 C :   -0.024577
  23 C :   -0.026213
  24 C :    0.036052
  25 C :    0.065268
  26 O :   -0.170856
  27 C :    0.069441
  28 C :   -0.028273
  29 N :    0.025680
  30 C :    0.088469
  31 C :   -0.123582
  32 C :    0.076854
  33 N :   -0.125070
  34 C :    0.050115
  35 C :   -0.039195
  36 C :    0.063373
  37 O :   -0.165674
  38 C :   -0.052610
  39 C :   -0.003790
  40 N :   -0.099545
  41 C :    0.051388
  42 C :   -0.048688
  43 C :   -0.039274
  44 C :   -0.024316
  45 C :   -0.039232
  46 C :   -0.182412
  47 S :    0.437114
  48 C :   -0.191855
  49 C :   -0.066388
  50 C :   -0.064531
  51 C :   -0.025766
  52 C :    0.021129
  53 C :    0.062933
  54 O :   -0.167527
  55 C :    0.069588
  56 C :   -0.029472
  57 N :    0.065822
  58 C :    0.116462
  59 C :   -0.127212
  60 C :    0.084115
  61 C :   -0.144557
  62 C :    0.081090
  63 O :   -0.150384
  64 C :   -0.043640
  65 C :   -0.015830
  66 C :   -0.023723
  67 C :    0.070063
  68 C :    0.067565
  69 C :   -0.006988
  70 F :   -0.048585
  71 F :   -0.047942
  72 C :    0.072451
  73 C :   -0.179862
  74 C :   -0.004357
  75 N :   -0.069355
  76 C :   -0.027564
  77 N :   -0.069032
  78 H :    0.050768
  79 H :    0.054106
  80 H :    0.049247
  81 H :    0.028944
  82 H :    0.037629
  83 H :    0.037567
  84 H :    0.034275
  85 H :   -0.000380
  86 H :    0.026835
  87 H :    0.013714
  88 H :    0.004759
  89 H :    0.031848
  90 H :    0.039220
  91 H :    0.083300
  92 H :    0.038647
  93 H :    0.036809
  94 H :    0.018446
  95 H :    0.029561
  96 H :    0.036511
  97 H :    0.028251
  98 H :    0.024207
  99 H :    0.043061
 100 H :    0.041523
 101 H :    0.029138
 102 H :    0.013718
 103 H :    0.026194
 104 H :    0.004377
 105 H :    0.015773
 106 H :    0.042926
 107 H :    0.039481
 108 H :    0.091948
 109 H :    0.038861
 110 H :    0.031246
 111 H :    0.047885
 112 H :    0.049210
 113 H :    0.051086

  Mayer bond orders larger than 0.100000
B(  0-C ,  1-C ) :   1.3349 B(  0-C ,  5-C ) :   0.1047 B(  0-C ,  7-C ) :   1.3136
B(  0-C , 78-H ) :   0.9963 B(  1-C ,  2-F ) :   1.1478 B(  1-C ,  3-C ) :   1.2887
B(  3-C ,  4-F ) :   1.1357 B(  3-C ,  5-C ) :   1.3193 B(  5-C ,  6-C ) :   1.3187
B(  5-C , 79-H ) :   1.0210 B(  6-C ,  7-C ) :   1.3457 B(  6-C , 15-C ) :   0.9299
B(  7-C ,  8-C ) :   1.0188 B(  8-C ,  9-C ) :   1.6400 B(  8-C , 14-C ) :   1.0487
B(  9-C , 10-C ) :   1.1279 B(  9-C , 12-C ) :   1.1678 B( 10-C , 11-N ) :   2.9929
B( 12-C , 13-N ) :   3.0111 B( 14-C , 15-C ) :   0.9391 B( 14-C , 17-C ) :   1.6690
B( 15-C , 16-O ) :   2.2777 B( 17-C , 18-C ) :   1.1274 B( 17-C , 80-H ) :   0.9270
B( 18-C , 19-S ) :   1.1287 B( 18-C , 22-C ) :   1.4710 B( 19-S , 20-C ) :   1.1821
B( 20-C , 21-C ) :   1.5555 B( 20-C , 81-H ) :   0.9683 B( 21-C , 22-C ) :   1.3085
B( 21-C , 28-C ) :   1.0387 B( 22-C , 23-C ) :   1.1076 B( 23-C , 24-C ) :   1.0567
B( 23-C , 82-H ) :   0.8982 B( 23-C , 83-H ) :   0.8412 B( 24-C , 25-C ) :   0.9751
B( 24-C , 29-N ) :   0.9708 B( 24-C , 84-H ) :   0.9064 B( 25-C , 26-O ) :   1.0002
B( 25-C , 28-C ) :   1.0918 B( 25-C , 85-H ) :   0.9199 B( 26-O , 27-C ) :   0.9754
B( 27-C , 86-H ) :   0.9760 B( 27-C , 87-H ) :   0.9741 B( 27-C , 88-H ) :   0.9641
B( 28-C , 89-H ) :   0.9059 B( 28-C , 90-H ) :   0.8847 B( 29-N , 30-C ) :   1.3004
B( 29-N , 91-H ) :   0.9279 B( 30-C , 31-C ) :   1.4901 B( 30-C , 92-H ) :   0.9554
B( 31-C , 32-C ) :   1.2447 B( 31-C , 93-H ) :   0.9519 B( 32-C , 33-N ) :   1.5254
B( 32-C , 34-C ) :   0.1039 B( 32-C , 43-C ) :   0.9879 B( 33-N , 34-C ) :   1.3905
B( 34-C , 35-C ) :   1.0389 B( 34-C , 39-C ) :   1.3789 B( 35-C , 36-C ) :   0.8921
B( 35-C , 43-C ) :   1.6232 B( 36-C , 37-O ) :   2.2629 B( 36-C , 38-C ) :   0.9158
B( 38-C , 39-C ) :   1.0786 B( 38-C , 42-C ) :   1.5626 B( 39-C , 40-N ) :   1.3410
B( 40-N , 41-C ) :   1.6277 B( 41-C , 42-C ) :   1.1145 B( 41-C , 94-H ) :   0.9900
B( 42-C , 95-H ) :   1.0109 B( 43-C , 44-C ) :   1.0641 B( 44-C , 45-C ) :   1.7176
B( 44-C , 96-H ) :   0.9575 B( 45-C , 46-C ) :   1.1233 B( 45-C , 97-H ) :   0.9421
B( 46-C , 47-S ) :   1.1382 B( 46-C , 50-C ) :   1.5098 B( 47-S , 48-C ) :   1.1547
B( 48-C , 49-C ) :   1.5609 B( 48-C , 98-H ) :   0.9729 B( 49-C , 50-C ) :   1.2879
B( 49-C , 56-C ) :   1.0096 B( 50-C , 51-C ) :   1.0478 B( 51-C , 52-C ) :   1.0097
B( 51-C , 99-H ) :   0.8854 B( 51-C ,100-H ) :   0.9142 B( 52-C , 53-C ) :   0.9962
B( 52-C , 57-N ) :   0.9750 B( 52-C ,101-H ) :   0.9120 B( 53-C , 54-O ) :   1.0353
B( 53-C , 56-C ) :   1.0360 B( 53-C ,102-H ) :   0.9189 B( 54-O , 55-C ) :   0.9817
B( 55-C ,103-H ) :   0.9821 B( 55-C ,104-H ) :   0.9658 B( 55-C ,105-H ) :   0.9666
B( 56-C ,106-H ) :   0.9040 B( 56-C ,107-H ) :   0.9093 B( 57-N , 58-C ) :   1.3777
B( 57-N ,108-H ) :   0.9218 B( 58-C , 59-C ) :   1.4089 B( 58-C ,109-H ) :   0.9564
B( 59-C , 60-C ) :   1.3488 B( 59-C ,110-H ) :   0.9570 B( 60-C , 61-C ) :   1.4750
B( 60-C ,111-H ) :   0.9333 B( 61-C , 62-C ) :   0.9782 B( 61-C , 72-C ) :   1.1194
B( 62-C , 63-O ) :   2.2555 B( 62-C , 64-C ) :   0.9206 B( 64-C , 65-C ) :   1.3485
B( 64-C , 69-C ) :   1.3331 B( 65-C , 66-C ) :   1.3241 B( 65-C , 72-C ) :   1.0102
B( 66-C , 67-C ) :   1.3292 B( 66-C , 69-C ) :   0.1051 B( 66-C ,112-H ) :   0.9936
B( 67-C , 68-C ) :   1.3034 B( 67-C , 71-F ) :   1.1384 B( 68-C , 69-C ) :   1.3102
B( 68-C , 70-F ) :   1.1284 B( 69-C ,113-H ) :   1.0196 B( 72-C , 73-C ) :   1.5555
B( 73-C , 74-C ) :   1.2049 B( 73-C , 76-C ) :   1.1269 B( 74-C , 75-N ) :   2.8991
B( 76-C , 77-N ) :   2.9847

-----------------------------------------------------------------------------
         ABSORPTION SPECTRUM VIA TRANSITION ELECTRIC DIPOLE MOMENTS
-----------------------------------------------------------------------------
State   Energy  Wavelength   fosc         T2         TX        TY        TZ
        (cm-1)    (nm)                  (au**2)     (au)      (au)      (au)
-----------------------------------------------------------------------------
   0   21168.0    472.4   0.216152533   3.36167   1.44671   1.11738   0.14202
   1   21604.3    462.9   0.252082136   3.84129  -0.08217  -1.28049   1.48151
   2   22639.2    441.7   0.660304350   9.60195  -2.95837  -0.02291  -0.92168
   3   23284.9    429.5   0.009621178   0.13603   0.34022   0.07414   0.12158
   4   23931.9    417.9   0.042890217   0.59001   0.74111  -0.02050   0.20085
   5   24569.9    407.0   0.350232955   4.69277   0.50443   1.69786  -1.24723
   6   26785.5    373.3   0.047109271   0.57901   0.73639   0.06278   0.18111
   7   27073.0    369.4   0.007686379   0.09347  -0.09506  -0.28822   0.03691
   8   27671.3    361.4   0.002599350   0.03093   0.11176  -0.12722   0.04744
   9   27747.0    360.4   0.036794218   0.43656   0.22529  -0.57690   0.23018
  10   28155.8    355.2   0.248766420   2.90870   0.41584  -1.59182   0.44931
  11   28436.5    351.7   0.112847614   1.30645  -0.34484   0.88023  -0.64244
  12   29035.8    344.4   0.007633952   0.08655  -0.09423  -0.21145  -0.18156
  13   29174.3    342.8   0.000620139   0.00700   0.03659   0.06883  -0.03036
  14   29292.3    341.4   0.025046382   0.28149  -0.05697  -0.26023   0.45883
  15   29852.9    335.0   0.000067823   0.00075   0.00919  -0.00773   0.02457
  16   29913.5    334.3   0.000302586   0.00333  -0.05544   0.01590   0.00191
  17   30948.8    323.1   0.026407711   0.28091  -0.39701   0.33141  -0.11599
  18   31168.5    320.8   0.019837667   0.20953  -0.22335  -0.32279  -0.23548
  19   31278.2    319.7   0.002597331   0.02734   0.14254  -0.03722   0.07506
  20   31341.6    319.1   0.163801741   1.72057  -0.41470   1.18640  -0.37558
  21   32307.3    309.5   0.363657800   3.70568  -1.44319  -1.26307  -0.16593
  22   32672.0    306.1   0.079821971   0.80431   0.06027   0.88364  -0.14091
  23   32768.4    305.2   0.357312549   3.58979  -1.10756   1.49058  -0.37585
  24   32872.7    304.2   0.534344864   5.35133   1.34550   1.63091   0.93867
  25   33128.4    301.9   0.018225256   0.18111   0.28812   0.30598   0.06692
  26   33746.2    296.3   0.421060475   4.10766  -1.64354   0.51073  -1.07033
  27   34301.6    291.5   0.002518166   0.02417   0.13398   0.05347   0.05796
  28   34622.1    288.8   0.021088334   0.20052  -0.40455  -0.09830  -0.16493
  29   34778.7    287.5   0.015626253   0.14792   0.33206   0.06230   0.18378
  30   35402.4    282.5   0.391172854   3.63757  -1.80486  -0.44674  -0.42481
  31   35835.1    279.1   0.091992394   0.84512   0.70217   0.41724   0.42188
  32   35993.0    277.8   0.545740094   4.99165   0.34384   1.94877   1.03717
  33   36041.5    277.5   0.081486241   0.74431  -0.15845  -0.74897  -0.39781
  34   36329.9    275.3   0.057342651   0.51962   0.50137   0.22782   0.46513
  35   36645.8    272.9   0.037617950   0.33795  -0.48961   0.25208  -0.18623
  36   36817.4    271.6   0.064888324   0.58021   0.55588  -0.48490   0.18995
  37   36835.3    271.5   0.379244762   3.38947  -1.62928   0.18000  -0.83816
  38   37351.4    267.7   0.014878538   0.13114  -0.26839  -0.14880   0.19226
  39   37834.6    264.3   0.000111038   0.00097  -0.02386   0.01989   0.00096
  40   38130.6    262.3   0.005809521   0.05016   0.11408  -0.18562  -0.05187
  41   38319.2    261.0   0.019485228   0.16740   0.30618  -0.26831  -0.04085
  42   38392.9    260.5   0.009806496   0.08409   0.24000  -0.13806   0.08619
  43   38674.7    258.6   0.079136170   0.67363  -0.38996   0.41437   0.59149
  44   39005.3    256.4   0.003463511   0.02923   0.04481   0.00950  -0.16473
  45   39198.3    255.1   0.085469846   0.71783  -0.58014  -0.01933   0.61716
  46   39466.4    253.4   0.005072517   0.04231  -0.14882   0.00179   0.14199
  47   39823.8    251.1   0.001763869   0.01458  -0.11136   0.00059   0.04669
  48   40072.6    249.5   0.012559649   0.10318  -0.28731   0.13966  -0.03367
  49   40182.4    248.9   0.011091448   0.09087   0.24791   0.15544   0.07245
  50   40307.6    248.1   0.000672233   0.00549  -0.05106  -0.05024  -0.01896

FINAL SINGLE POINT ENERGY     -4275.085634610430

DIPOLE MOMENT
-------------
                                X             Y             Z
Electronic contribution:      7.31783      25.97538       2.31385
Nuclear contribution   :     -9.71136     -25.66403      -2.47361
                        -----------------------------------------
Total Dipole Moment    :     -2.39354       0.31135      -0.15976
                        -----------------------------------------
Magnitude (a.u.)       :      2.41898
Magnitude (Debye)      :      6.14857

Rotational constants in cm-1:     0.001365     0.000282     0.000251
Rotational constants in MHz :    40.915996     8.457846     7.533563

                             ****ORCA TERMINATED NORMALLY****
TOTAL RUN TIME: 0 days 0 hours 11 minutes 54 seconds 966 msec
