                         Program Version 4.2.0 -  RELEASE  -
|  1> # ORCA input file
|  2> # SCF done       -113.950937930838          0.000817171264
|  3> ! CAM-B3LYP def2-SVP def2/J RIJCOSX Grid4 TightSCF
|  4> %maxcore 5000
|  5> %tddft
|  6>     Mode sTDDFT
|  7>     Ethresh 5.0
|  8>     maxcore 5000
|  9> end
| 10>
| 11> %pal
| 12>   nprocs 6
| 13>   end
| 14> * xyz 0 1
| 15>    C       -1.35890         1.21870        -4.41632
| 16>    C       -1.14493         2.47137        -3.90679
| 17>    C       -1.94704         3.00361        -2.88796
| 18>    C       -3.00660         2.31455        -2.32462
| 19>    C       -3.25167         1.00891        -2.83351
| 20>    C       -2.41901         0.47141        -3.88040
| 21>    N       -2.78948        -0.76081        -4.23269
| 22>    S       -4.05064        -1.19609        -3.34078
| 23>    N       -4.19635         0.14580        -2.46419
| 24>    C       -3.82000         2.88348        -1.28569
| 25>    S       -3.47148         4.46791        -0.64761
| 26>    C       -4.82681         4.36929         0.44380
| 27>    C       -5.49063         3.16945         0.30000
| 28>    C       -4.92336         2.33944        -0.66733
| 29>    C       -5.12893         5.40912         1.30625
| 30>    C       -5.37388         6.33785         2.05058
| 31>    C       -5.70073         7.37064         2.91957
| 32>    C       -4.92919         8.47067         3.08112
| 33>    C       -5.23074         9.54920         3.95794
| 34>    S       -4.10007        10.86625         4.11589
| 35>    C       -5.13144        11.66896         5.26983
| 36>    C       -6.28136        10.93824         5.49504
| 37>    C       -6.33419         9.75428         4.76387
| 38>    C       -4.77092        12.87337         5.84707
| 39>    C       -4.43616        13.92428         6.35774
| 40>    C       -4.09152        15.11901         6.97518
| 41>    C       -2.91141        15.74703         6.76307
| 42>    C       -2.51579        16.96008         7.39152
| 43>    S       -0.94520        17.63016         7.04318
| 44>    C       -1.22504        18.96175         8.13339
| 45>    C       -2.47352        18.86896         8.71477
| 46>    C       -3.19349        17.75148         8.29931
| 47>    C       -0.26649        19.93832         8.34104
| 48>    C        0.58978        20.78158         8.51890
| 49>    C        1.56300        21.75061         8.73735
| 50>    C        1.42845        22.72665         9.65965
| 51>    C        2.38995        23.75786         9.94776
| 52>    C        3.58051        23.95867         9.27097
| 53>    C        4.47718        24.98465         9.60442
| 54>    C        4.23647        25.86311        10.62816
| 55>    C        3.04279        25.70939        11.35005
| 56>    C        2.11727        24.66064        11.01195
| 57>    N        1.04449        24.66854        11.80058
| 58>    S        1.18934        25.87321        12.85708
| 59>    N        2.61050        26.44635        12.37559
| 60>    H       -0.74965         0.79870        -5.19948
| 61>    H       -0.33769         3.07560        -4.29366
| 62>    H       -1.72945         3.99878        -2.52696
| 63>    H       -6.35676         2.91545         0.88478
| 64>    H       -5.29636         1.36492        -0.92299
| 65>    H       -6.62106         7.25101         3.47610
| 66>    H       -4.00914         8.55175         2.51741
| 67>    H       -7.04796        11.26730         6.17423
| 68>    H       -7.15874         9.06634         4.81793
| 69>    H       -4.82511        15.53132         7.65576
| 70>    H       -2.20046        15.30694         6.07652
| 71>    H       -2.83560        19.59844         9.41737
| 72>    H       -4.18347        17.52536         8.65255
| 73>    H        2.44910        21.67062         8.12076
| 74>    H        0.53158        22.75995        10.26340
| 75>    H        3.83940        23.30906         8.44889
| 76>    H        5.38623        25.07837         9.02840
| 77>    H        4.92383        26.65163        10.88689
| 78> *
| 79>
| 80>                          ****END OF INPUT****

CARTESIAN COORDINATES (ANGSTROEM)
---------------------------------
  C     -1.358900    1.218700   -4.416320
  C     -1.144930    2.471370   -3.906790
  C     -1.947040    3.003610   -2.887960
  C     -3.006600    2.314550   -2.324620
  C     -3.251670    1.008910   -2.833510
  C     -2.419010    0.471410   -3.880400
  N     -2.789480   -0.760810   -4.232690
  S     -4.050640   -1.196090   -3.340780
  N     -4.196350    0.145800   -2.464190
  C     -3.820000    2.883480   -1.285690
  S     -3.471480    4.467910   -0.647610
  C     -4.826810    4.369290    0.443800
  C     -5.490630    3.169450    0.300000
  C     -4.923360    2.339440   -0.667330
  C     -5.128930    5.409120    1.306250
  C     -5.373880    6.337850    2.050580
  C     -5.700730    7.370640    2.919570
  C     -4.929190    8.470670    3.081120
  C     -5.230740    9.549200    3.957940
  S     -4.100070   10.866250    4.115890
  C     -5.131440   11.668960    5.269830
  C     -6.281360   10.938240    5.495040
  C     -6.334190    9.754280    4.763870
  C     -4.770920   12.873370    5.847070
  C     -4.436160   13.924280    6.357740
  C     -4.091520   15.119010    6.975180
  C     -2.911410   15.747030    6.763070
  C     -2.515790   16.960080    7.391520
  S     -0.945200   17.630160    7.043180
  C     -1.225040   18.961750    8.133390
  C     -2.473520   18.868960    8.714770
  C     -3.193490   17.751480    8.299310
  C     -0.266490   19.938320    8.341040
  C      0.589780   20.781580    8.518900
  C      1.563000   21.750610    8.737350
  C      1.428450   22.726650    9.659650
  C      2.389950   23.757860    9.947760
  C      3.580510   23.958670    9.270970
  C      4.477180   24.984650    9.604420
  C      4.236470   25.863110   10.628160
  C      3.042790   25.709390   11.350050
  C      2.117270   24.660640   11.011950
  N      1.044490   24.668540   11.800580
  S      1.189340   25.873210   12.857080
  N      2.610500   26.446350   12.375590
  H     -0.749650    0.798700   -5.199480
  H     -0.337690    3.075600   -4.293660
  H     -1.729450    3.998780   -2.526960
  H     -6.356760    2.915450    0.884780
  H     -5.296360    1.364920   -0.922990
  H     -6.621060    7.251010    3.476100
  H     -4.009140    8.551750    2.517410
  H     -7.047960   11.267300    6.174230
  H     -7.158740    9.066340    4.817930
  H     -4.825110   15.531320    7.655760
  H     -2.200460   15.306940    6.076520
  H     -2.835600   19.598440    9.417370
  H     -4.183470   17.525360    8.652550
  H      2.449100   21.670620    8.120760
  H      0.531580   22.759950   10.263400
  H      3.839400   23.309060    8.448890
  H      5.386230   25.078370    9.028400
  H      4.923830   26.651630   10.886890

 Total Charge           Charge          ....    0
 Multiplicity           Mult            ....    1
 Number of Electrons    NEL             ....  342
 Basis Dimension        Dim             ....  740

ORBITAL ENERGIES
----------------

  NO   OCC          E(Eh)            E(eV)
   0   2.0000     -89.017611     -2422.2923
   1   2.0000     -89.016086     -2422.2508
   2   2.0000     -88.956052     -2420.6172
   3   2.0000     -88.956047     -2420.6171
   4   2.0000     -88.951615     -2420.4965
   5   2.0000     -14.432857      -392.7380
   6   2.0000     -14.431117      -392.6907
   7   2.0000     -14.430653      -392.6780
   8   2.0000     -14.428828      -392.6284
   9   2.0000     -10.318404      -280.7780
  10   2.0000     -10.315149      -280.6895
  11   2.0000     -10.314263      -280.6654
  12   2.0000     -10.313237      -280.6374
  13   2.0000     -10.311300      -280.5847
  14   2.0000     -10.311245      -280.5833
  15   2.0000     -10.308663      -280.5130
  16   2.0000     -10.302590      -280.3477
  17   2.0000     -10.302237      -280.3381
  18   2.0000     -10.298402      -280.2338
  19   2.0000     -10.297538      -280.2103
  20   2.0000     -10.290594      -280.0213
  21   2.0000     -10.290231      -280.0114
  22   2.0000     -10.290027      -280.0059
  23   2.0000     -10.289827      -280.0004
  24   2.0000     -10.288864      -279.9742
  25   2.0000     -10.288214      -279.9565
  26   2.0000     -10.283231      -279.8210
  27   2.0000     -10.283093      -279.8172
  28   2.0000     -10.282626      -279.8045
  29   2.0000     -10.282319      -279.7961
  30   2.0000     -10.279916      -279.7307
  31   2.0000     -10.279186      -279.7109
  32   2.0000     -10.279174      -279.7105
  33   2.0000     -10.277172      -279.6561
  34   2.0000     -10.277006      -279.6516
  35   2.0000     -10.274134      -279.5734
  36   2.0000     -10.273998      -279.5697
  37   2.0000     -10.273106      -279.5454
  38   2.0000     -10.272777      -279.5365
  39   2.0000     -10.271813      -279.5103
  40   2.0000     -10.270891      -279.4852
  41   2.0000     -10.270755      -279.4814
  42   2.0000     -10.270417      -279.4722
  43   2.0000     -10.269583      -279.4496
  44   2.0000     -10.263703      -279.2895
  45   2.0000      -8.109652      -220.6748
  46   2.0000      -8.107961      -220.6288
  47   2.0000      -8.051743      -219.0991
  48   2.0000      -8.051671      -219.0971
  49   2.0000      -8.047079      -218.9722
  50   2.0000      -6.080860      -165.4686
  51   2.0000      -6.079085      -165.4203
  52   2.0000      -6.073060      -165.2564
  53   2.0000      -6.072058      -165.2291
  54   2.0000      -6.071439      -165.2122
  55   2.0000      -6.070464      -165.1857
  56   2.0000      -6.020961      -163.8387
  57   2.0000      -6.020876      -163.8364
  58   2.0000      -6.016912      -163.7285
  59   2.0000      -6.016850      -163.7268
  60   2.0000      -6.016372      -163.7138
  61   2.0000      -6.013889      -163.6462
  62   2.0000      -6.013838      -163.6449
  63   2.0000      -6.012279      -163.6024
  64   2.0000      -6.009166      -163.5177
  65   2.0000      -1.117481       -30.4082
  66   2.0000      -1.115280       -30.3483
  67   2.0000      -0.984744       -26.7962
  68   2.0000      -0.983846       -26.7718
  69   2.0000      -0.983449       -26.7610
  70   2.0000      -0.970383       -26.4055
  71   2.0000      -0.969035       -26.3688
  72   2.0000      -0.954846       -25.9827
  73   2.0000      -0.950920       -25.8759
  74   2.0000      -0.910659       -24.7803
  75   2.0000      -0.905577       -24.6420
  76   2.0000      -0.899324       -24.4719
  77   2.0000      -0.875710       -23.8293
  78   2.0000      -0.866147       -23.5691
  79   2.0000      -0.855038       -23.2668
  80   2.0000      -0.853004       -23.2114
  81   2.0000      -0.850536       -23.1443
  82   2.0000      -0.841480       -22.8978
  83   2.0000      -0.831802       -22.6345
  84   2.0000      -0.830848       -22.6085
  85   2.0000      -0.828793       -22.5526
  86   2.0000      -0.818076       -22.2610
  87   2.0000      -0.804660       -21.8959
  88   2.0000      -0.787690       -21.4341
  89   2.0000      -0.772462       -21.0198
  90   2.0000      -0.744484       -20.2584
  91   2.0000      -0.738435       -20.0938
  92   2.0000      -0.728160       -19.8142
  93   2.0000      -0.716208       -19.4890
  94   2.0000      -0.708506       -19.2794
  95   2.0000      -0.700088       -19.0504
  96   2.0000      -0.695541       -18.9266
  97   2.0000      -0.693120       -18.8607
  98   2.0000      -0.671629       -18.2759
  99   2.0000      -0.670435       -18.2435
 100   2.0000      -0.655847       -17.8465
 101   2.0000      -0.642448       -17.4819
 102   2.0000      -0.627229       -17.0678
 103   2.0000      -0.622345       -16.9349
 104   2.0000      -0.619549       -16.8588
 105   2.0000      -0.604852       -16.4589
 106   2.0000      -0.602061       -16.3829
 107   2.0000      -0.598336       -16.2815
 108   2.0000      -0.597908       -16.2699
 109   2.0000      -0.589487       -16.0407
 110   2.0000      -0.586221       -15.9519
 111   2.0000      -0.585478       -15.9317
 112   2.0000      -0.576160       -15.6781
 113   2.0000      -0.569922       -15.5084
 114   2.0000      -0.564808       -15.3692
 115   2.0000      -0.557299       -15.1649
 116   2.0000      -0.553983       -15.0746
 117   2.0000      -0.541366       -14.7313
 118   2.0000      -0.538918       -14.6647
 119   2.0000      -0.525752       -14.3064
 120   2.0000      -0.518258       -14.1025
 121   2.0000      -0.516579       -14.0568
 122   2.0000      -0.510661       -13.8958
 123   2.0000      -0.501145       -13.6368
 124   2.0000      -0.497744       -13.5443
 125   2.0000      -0.491654       -13.3786
 126   2.0000      -0.485791       -13.2190
 127   2.0000      -0.483335       -13.1522
 128   2.0000      -0.482886       -13.1400
 129   2.0000      -0.482609       -13.1325
 130   2.0000      -0.480765       -13.0823
 131   2.0000      -0.479294       -13.0423
 132   2.0000      -0.478343       -13.0164
 133   2.0000      -0.466642       -12.6980
 134   2.0000      -0.462919       -12.5967
 135   2.0000      -0.458046       -12.4641
 136   2.0000      -0.455231       -12.3875
 137   2.0000      -0.451809       -12.2943
 138   2.0000      -0.450959       -12.2712
 139   2.0000      -0.450364       -12.2550
 140   2.0000      -0.448697       -12.2097
 141   2.0000      -0.443712       -12.0740
 142   2.0000      -0.440413       -11.9842
 143   2.0000      -0.434582       -11.8256
 144   2.0000      -0.423979       -11.5371
 145   2.0000      -0.420548       -11.4437
 146   2.0000      -0.419836       -11.4243
 147   2.0000      -0.416766       -11.3408
 148   2.0000      -0.416000       -11.3199
 149   2.0000      -0.408064       -11.1040
 150   2.0000      -0.400723       -10.9042
 151   2.0000      -0.389299       -10.5934
 152   2.0000      -0.387445       -10.5429
 153   2.0000      -0.378568       -10.3013
 154   2.0000      -0.361190        -9.8285
 155   2.0000      -0.361097        -9.8260
 156   2.0000      -0.358463        -9.7543
 157   2.0000      -0.342665        -9.3244
 158   2.0000      -0.340024        -9.2525
 159   2.0000      -0.337887        -9.1944
 160   2.0000      -0.335676        -9.1342
 161   2.0000      -0.328883        -8.9494
 162   2.0000      -0.326597        -8.8871
 163   2.0000      -0.324593        -8.8326
 164   2.0000      -0.324236        -8.8229
 165   2.0000      -0.318887        -8.6773
 166   2.0000      -0.314883        -8.5684
 167   2.0000      -0.294894        -8.0245
 168   2.0000      -0.271550        -7.3892
 169   2.0000      -0.246994        -6.7210
 170   2.0000      -0.225880        -6.1465
 171   0.0000      -0.071413        -1.9432
 172   0.0000      -0.063229        -1.7205
 173   0.0000      -0.048971        -1.3326
 174   0.0000      -0.027151        -0.7388
 175   0.0000      -0.001414        -0.0385

MULLIKEN ATOMIC CHARGES
-----------------------
   0 C :   -0.025996
   1 C :    0.040656
   2 C :   -0.069717
   3 C :    0.180239
   4 C :   -0.011771
   5 C :    0.049979
   6 N :   -0.267570
   7 S :    0.499963
   8 N :   -0.291632
   9 C :   -0.127815
  10 S :    0.128537
  11 C :   -0.130176
  12 C :    0.060286
  13 C :    0.003030
  14 C :    0.061061
  15 C :   -0.034586
  16 C :   -0.085785
  17 C :    0.077048
  18 C :   -0.091022
  19 S :    0.159765
  20 C :   -0.156316
  21 C :    0.059471
  22 C :    0.008751
  23 C :    0.059216
  24 C :   -0.026683
  25 C :   -0.088094
  26 C :    0.076306
  27 C :   -0.088383
  28 S :    0.159266
  29 C :   -0.162214
  30 C :    0.060954
  31 C :    0.007923
  32 C :    0.054367
  33 C :   -0.012141
  34 C :   -0.061136
  35 C :   -0.008748
  36 C :    0.082501
  37 C :   -0.044556
  38 C :    0.047737
  39 C :   -0.030991
  40 C :    0.062124
  41 C :   -0.011143
  42 N :   -0.278437
  43 S :    0.494910
  44 N :   -0.268742
  45 H :   -0.018781
  46 H :   -0.004617
  47 H :   -0.006924
  48 H :   -0.014594
  49 H :   -0.001451
  50 H :    0.023818
  51 H :   -0.002455
  52 H :   -0.011159
  53 H :   -0.013566
  54 H :    0.024757
  55 H :   -0.001827
  56 H :   -0.009119
  57 H :   -0.014221
  58 H :    0.023026
  59 H :    0.011675
  60 H :   -0.020198
  61 H :   -0.006599
  62 H :   -0.018200
Sum of atomic charges:   -0.0000000

LOEWDIN ATOMIC CHARGES
----------------------
   0 C :   -0.024362
   1 C :   -0.013025
   2 C :   -0.024432
   3 C :   -0.035011
   4 C :   -0.041097
   5 C :   -0.051651
   6 N :   -0.285206
   7 S :    0.636521
   8 N :   -0.285785
   9 C :   -0.164632
  10 S :    0.440562
  11 C :   -0.182649
  12 C :   -0.037251
  13 C :   -0.044779
  14 C :   -0.057596
  15 C :   -0.027784
  16 C :   -0.039117
  17 C :   -0.018843
  18 C :   -0.170443
  19 S :    0.449809
  20 C :   -0.188082
  21 C :   -0.033689
  22 C :   -0.053819
  23 C :   -0.059428
  24 C :   -0.026904
  25 C :   -0.039593
  26 C :   -0.018773
  27 C :   -0.170063
  28 S :    0.450011
  29 C :   -0.188126
  30 C :   -0.031912
  31 C :   -0.053810
  32 C :   -0.057649
  33 C :   -0.023860
  34 C :   -0.033679
  35 C :    0.007804
  36 C :   -0.030241
  37 C :   -0.011145
  38 C :   -0.014643
  39 C :   -0.021166
  40 C :   -0.054502
  41 C :   -0.046932
  42 N :   -0.290295
  43 S :    0.636663
  44 N :   -0.288940
  45 H :    0.036921
  46 H :    0.034150
  47 H :    0.023864
  48 H :    0.033628
  49 H :    0.030635
  50 H :    0.041853
  51 H :    0.034337
  52 H :    0.034853
  53 H :    0.029662
  54 H :    0.042134
  55 H :    0.034419
  56 H :    0.035715
  57 H :    0.029558
  58 H :    0.039527
  59 H :    0.039374
  60 H :    0.028920
  61 H :    0.033107
  62 H :    0.036890

  Mayer bond orders larger than 0.100000
B(  0-C ,  1-C ) :   1.4880 B(  0-C ,  3-C ) :   0.1070 B(  0-C ,  5-C ) :   1.2063
B(  0-C , 45-H ) :   1.0212 B(  1-C ,  2-C ) :   1.2243 B(  1-C , 46-H ) :   0.9831
B(  2-C ,  3-C ) :   1.4935 B(  2-C , 47-H ) :   0.9856 B(  3-C ,  4-C ) :   1.1842
B(  3-C ,  9-C ) :   1.0928 B(  4-C ,  5-C ) :   1.1640 B(  4-C ,  8-N ) :   1.5261
B(  5-C ,  6-N ) :   1.5113 B(  6-N ,  7-S ) :   1.2786 B(  6-N ,  8-N ) :   0.1506
B(  7-S ,  8-N ) :   1.2533 B(  9-C , 10-S ) :   1.1145 B(  9-C , 11-C ) :   0.1055
B(  9-C , 13-C ) :   1.5343 B( 10-S , 11-C ) :   1.1043 B( 11-C , 12-C ) :   1.5004
B( 11-C , 14-C ) :   0.9676 B( 12-C , 13-C ) :   1.2391 B( 12-C , 48-H ) :   1.0026
B( 13-C , 49-H ) :   0.9777 B( 14-C , 15-C ) :   2.2720 B( 15-C , 16-C ) :   1.0248
B( 16-C , 17-C ) :   1.7196 B( 16-C , 50-H ) :   0.9536 B( 17-C , 18-C ) :   1.1174
B( 17-C , 51-H ) :   0.9654 B( 18-C , 19-S ) :   1.1206 B( 18-C , 22-C ) :   1.4881
B( 19-S , 20-C ) :   1.1119 B( 20-C , 21-C ) :   1.4840 B( 20-C , 23-C ) :   0.9865
B( 21-C , 22-C ) :   1.2907 B( 21-C , 52-H ) :   1.0003 B( 22-C , 53-H ) :   0.9880
B( 23-C , 24-C ) :   2.2692 B( 24-C , 25-C ) :   1.0258 B( 25-C , 26-C ) :   1.7187
B( 25-C , 54-H ) :   0.9531 B( 26-C , 27-C ) :   1.1179 B( 26-C , 55-H ) :   0.9656
B( 27-C , 28-S ) :   1.1214 B( 27-C , 29-C ) :   0.1006 B( 27-C , 31-C ) :   1.4868
B( 28-S , 29-C ) :   1.1140 B( 29-C , 30-C ) :   1.4870 B( 29-C , 32-C ) :   0.9828
B( 30-C , 31-C ) :   1.2892 B( 30-C , 56-H ) :   1.0011 B( 31-C , 57-H ) :   0.9883
B( 32-C , 33-C ) :   2.2843 B( 33-C , 34-C ) :   1.0099 B( 34-C , 35-C ) :   1.7031
B( 34-C , 58-H ) :   0.9448 B( 35-C , 36-C ) :   1.1055 B( 35-C , 59-H ) :   0.9854
B( 36-C , 37-C ) :   1.4846 B( 36-C , 39-C ) :   0.1067 B( 36-C , 41-C ) :   1.1653
B( 37-C , 38-C ) :   1.2308 B( 37-C , 60-H ) :   0.9894 B( 38-C , 39-C ) :   1.4858
B( 38-C , 61-H ) :   0.9833 B( 39-C , 40-C ) :   1.2065 B( 39-C , 62-H ) :   1.0206
B( 40-C , 41-C ) :   1.1678 B( 40-C , 44-N ) :   1.5097 B( 41-C , 42-N ) :   1.5481
B( 42-N , 43-S ) :   1.2611 B( 42-N , 44-N ) :   0.1533 B( 43-S , 44-N ) :   1.2768

-----------------------------------------------------------------------------
         ABSORPTION SPECTRUM VIA TRANSITION ELECTRIC DIPOLE MOMENTS
-----------------------------------------------------------------------------
State   Energy  Wavelength   fosc         T2         TX        TY        TZ
        (cm-1)    (nm)                  (au**2)     (au)      (au)      (au)
-----------------------------------------------------------------------------
   0   19981.8    500.5   3.171395771  52.25058   1.57927   6.13490   3.48130
   1   22854.6    437.5   0.476208566   6.85960  -2.41691  -0.66407   0.75969
   2   25493.9    392.3   0.095325210   1.23097  -0.41264  -1.01446  -0.17768
   3   27444.4    364.4   0.043379463   0.52036  -0.67533  -0.17719   0.18136
   4   29488.2    339.1   0.126754997   1.41512   1.00897  -0.19923  -0.59783
   5   30034.4    333.0   0.193627419   2.12238   0.12413   1.14228   0.89564
   6   32783.9    305.0   0.037474274   0.37631  -0.56717  -0.15218   0.17741
   7   33177.0    301.4   0.036245226   0.35966  -0.42248  -0.42495   0.02415
   8   33978.2    294.3   0.149695673   1.45039  -0.16743  -0.96537  -0.70030
   9   35113.1    284.8   0.008205837   0.07694   0.01511  -0.22456  -0.16212
  10   36675.6    272.7   0.076400032   0.68579  -0.00314  -0.61884  -0.55029
  11   37631.1    265.7   0.000464344   0.00406   0.05674   0.02625   0.01240
  12   38174.5    262.0   0.015720934   0.13558  -0.25825   0.14108   0.22131
  13   38723.1    258.2   0.001901071   0.01616   0.08466  -0.03724  -0.08723
  14   39143.2    255.5   0.058340285   0.49067   0.41517   0.54559   0.14363
  15   39566.6    252.7   0.002535376   0.02110  -0.08926   0.05753   0.09909

FINAL SINGLE POINT ENERGY     -3589.725276033297

DIPOLE MOMENT
-------------
                                X             Y             Z
Electronic contribution:     -1.23798     -11.38954      -4.32819
Nuclear contribution   :      1.37077      11.53043       4.22337
                        -----------------------------------------
Total Dipole Moment    :      0.13279       0.14089      -0.10482
                        -----------------------------------------
Magnitude (a.u.)       :      0.22016
Magnitude (Debye)      :      0.55960

Rotational constants in cm-1:     0.005037     0.000215     0.000207
Rotational constants in MHz :   151.009133     6.459794     6.204661

                             ****ORCA TERMINATED NORMALLY****
TOTAL RUN TIME: 0 days 0 hours 3 minutes 12 seconds 502 msec
