                         Program Version 4.2.0 -  RELEASE  -
|  1> # ORCA input file
|  2> # SCF done       -180.943751748072          0.000679955991
|  3> ! CAM-B3LYP def2-SVP def2/J RIJCOSX Grid4 TightSCF
|  4> %maxcore 5000
|  5> %tddft
|  6>     Mode sTDDFT
|  7>     Ethresh 5.0
|  8>     maxcore 5000
|  9> end
| 10>
| 11> %pal
| 12>   nprocs 6
| 13>   end
| 14> * xyz 0 1
| 15>    C        1.42962        -0.61801         0.50809
| 16>    C        0.86547         0.48934        -0.10860
| 17>    F        1.66885         1.46765        -0.54661
| 18>    C       -0.51256         0.60632        -0.28505
| 19>    F       -1.01461         1.69765        -0.88024
| 20>    C       -1.36891        -0.39544         0.14472
| 21>    C       -0.80765        -1.50330         0.74724
| 22>    C        0.57997        -1.62330         0.93918
| 23>    C        0.85127        -2.88141         1.63474
| 24>    C        2.00280        -3.17350         2.32043
| 25>    C        3.17618        -2.39789         2.26028
| 26>    N        4.16956        -1.82290         2.22199
| 27>    C        2.12155        -4.24912         3.22219
| 28>    N        2.26278        -5.08612         3.99536
| 29>    C       -0.37858        -3.62987         1.66426
| 30>    C       -1.47995        -2.72009         1.26251
| 31>    O       -2.66870        -2.94073         1.30948
| 32>    C       -0.66567        -4.94415         1.90244
| 33>    C        0.17054        -6.09010         1.93859
| 34>    C       -0.28915        -7.26145         2.55351
| 35>    C        0.46287        -8.41379         2.65688
| 36>    C        1.74574        -8.53271         2.11263
| 37>    C        2.22711        -7.38821         1.41395
| 38>    C        1.45019        -6.18092         1.32794
| 39>    N        2.06037        -5.25110         0.59590
| 40>    S        3.47893        -5.81645         0.08865
| 41>    N        3.38246        -7.28004         0.75926
| 42>    C        2.52131        -9.71690         2.22520
| 43>    N        3.77801        -9.81489         1.67106
| 44>    C        4.26851       -11.05061         1.92417
| 45>    C        5.35818       -11.89062         1.72919
| 46>    C        5.02961       -13.10469         2.35104
| 47>    N        3.77350       -13.00501         2.91417
| 48>    C        3.28326       -11.76360         2.66930
| 49>    C        2.19319       -10.93102         2.85897
| 50>    C        5.74163       -14.32423         2.45798
| 51>    C        6.98139       -14.54675         1.95720
| 52>    C        7.76150       -15.73454         2.00564
| 53>    S        9.35332       -15.51635         1.31749
| 54>    C        7.58890       -17.04984         2.45036
| 55>    C        6.37572       -17.61334         3.06543
| 56>    O        5.35097       -16.99464         3.32619
| 57>    C        6.48095       -19.03109         3.36377
| 58>    C        5.53210       -19.87138         3.90563
| 59>    N        6.06421       -21.11230         4.01006
| 60>    C        5.40032       -22.25097         4.59160
| 61>    C        5.56251       -22.26515         6.11025
| 62>    C        7.34273       -21.09504         3.56189
| 63>    C        7.64207       -19.81741         3.14370
| 64>    C        8.86525       -19.28034         2.57745
| 65>    O        9.86796       -19.96255         2.41226
| 66>    C        8.75470       -17.85452         2.22833
| 67>    C        9.80462       -17.16344         1.62767
| 68>    C       11.08587       -17.65354         1.28518
| 69>    C       12.05695       -16.90630         0.70280
| 70>    C       13.34480       -17.39045         0.36911
| 71>    C       13.88529       -18.65401         0.54729
| 72>    C       15.19769       -18.76441         0.10382
| 73>    C       15.67765       -17.57041        -0.42462
| 74>    S       14.50726       -16.31314        -0.37434
| 75>    C       17.01307       -17.55492        -0.90880
| 76>    C       17.74891       -18.72418        -0.82089
| 77>   Ge       16.62597       -20.11807         0.00125
| 78>    C       17.26776       -20.71838         1.78056
| 79>    C       16.20520       -21.62945        -1.21411
| 80>    C       19.04644       -18.56276        -1.33379
| 81>    C       19.27726       -17.30226        -1.79500
| 82>    S       17.91412       -16.26512        -1.61855
| 83>    H        2.50031        -0.66628         0.62162
| 84>    H       -2.43491        -0.30627         0.00885
| 85>    H       -1.72659        -5.14617         2.02383
| 86>    H       -1.27009        -7.24008         3.00556
| 87>    H        0.04617        -9.25793         3.18188
| 88>    H        4.19880        -9.04547         1.16781
| 89>    H        6.27026       -11.67719         1.21056
| 90>    H        3.32379       -13.75329         3.41381
| 91>    H        1.28227       -11.14904         3.37775
| 92>    H        5.23538       -15.12587         2.97395
| 93>    H        7.48356       -13.72804         1.45526
| 94>    H        4.52552       -19.65636         4.20468
| 95>    H        5.82957       -23.15895         4.16112
| 96>    H        4.33963       -22.20803         4.33005
| 97>    H        6.61542       -22.31027         6.37729
| 98>    H        5.05761       -23.13021         6.53063
| 99>    H        5.13467       -21.36502         6.54460
|100>    H        7.95627       -21.97387         3.55541
|101>    H       11.26099       -18.69145         1.52314
|102>    H       11.85810       -15.86602         0.47238
|103>    H       13.33341       -19.46462         0.98892
|104>    H       17.48033       -19.86301         2.41379
|105>    H       18.17271       -21.30871         1.67589
|106>    H       16.51027       -21.32863         2.26230
|107>    H       15.86450       -21.25872        -2.17554
|108>    H       15.42428       -22.24758        -0.78235
|109>    H       17.08657       -22.24398        -1.36941
|110>    H       19.78237       -19.34749        -1.36124
|111>    H       20.17334       -16.90857        -2.23374
|112> *
|113>
|114>                          ****END OF INPUT****

CARTESIAN COORDINATES (ANGSTROEM)
---------------------------------
  C      1.429620   -0.618010    0.508090
  C      0.865470    0.489340   -0.108600
  F      1.668850    1.467650   -0.546610
  C     -0.512560    0.606320   -0.285050
  F     -1.014610    1.697650   -0.880240
  C     -1.368910   -0.395440    0.144720
  C     -0.807650   -1.503300    0.747240
  C      0.579970   -1.623300    0.939180
  C      0.851270   -2.881410    1.634740
  C      2.002800   -3.173500    2.320430
  C      3.176180   -2.397890    2.260280
  N      4.169560   -1.822900    2.221990
  C      2.121550   -4.249120    3.222190
  N      2.262780   -5.086120    3.995360
  C     -0.378580   -3.629870    1.664260
  C     -1.479950   -2.720090    1.262510
  O     -2.668700   -2.940730    1.309480
  C     -0.665670   -4.944150    1.902440
  C      0.170540   -6.090100    1.938590
  C     -0.289150   -7.261450    2.553510
  C      0.462870   -8.413790    2.656880
  C      1.745740   -8.532710    2.112630
  C      2.227110   -7.388210    1.413950
  C      1.450190   -6.180920    1.327940
  N      2.060370   -5.251100    0.595900
  S      3.478930   -5.816450    0.088650
  N      3.382460   -7.280040    0.759260
  C      2.521310   -9.716900    2.225200
  N      3.778010   -9.814890    1.671060
  C      4.268510  -11.050610    1.924170
  C      5.358180  -11.890620    1.729190
  C      5.029610  -13.104690    2.351040
  N      3.773500  -13.005010    2.914170
  C      3.283260  -11.763600    2.669300
  C      2.193190  -10.931020    2.858970
  C      5.741630  -14.324230    2.457980
  C      6.981390  -14.546750    1.957200
  C      7.761500  -15.734540    2.005640
  S      9.353320  -15.516350    1.317490
  C      7.588900  -17.049840    2.450360
  C      6.375720  -17.613340    3.065430
  O      5.350970  -16.994640    3.326190
  C      6.480950  -19.031090    3.363770
  C      5.532100  -19.871380    3.905630
  N      6.064210  -21.112300    4.010060
  C      5.400320  -22.250970    4.591600
  C      5.562510  -22.265150    6.110250
  C      7.342730  -21.095040    3.561890
  C      7.642070  -19.817410    3.143700
  C      8.865250  -19.280340    2.577450
  O      9.867960  -19.962550    2.412260
  C      8.754700  -17.854520    2.228330
  C      9.804620  -17.163440    1.627670
  C     11.085870  -17.653540    1.285180
  C     12.056950  -16.906300    0.702800
  C     13.344800  -17.390450    0.369110
  C     13.885290  -18.654010    0.547290
  C     15.197690  -18.764410    0.103820
  C     15.677650  -17.570410   -0.424620
  S     14.507260  -16.313140   -0.374340
  C     17.013070  -17.554920   -0.908800
  C     17.748910  -18.724180   -0.820890
  Ge    16.625970  -20.118070    0.001250
  C     17.267760  -20.718380    1.780560
  C     16.205200  -21.629450   -1.214110
  C     19.046440  -18.562760   -1.333790
  C     19.277260  -17.302260   -1.795000
  S     17.914120  -16.265120   -1.618550
  H      2.500310   -0.666280    0.621620
  H     -2.434910   -0.306270    0.008850
  H     -1.726590   -5.146170    2.023830
  H     -1.270090   -7.240080    3.005560
  H      0.046170   -9.257930    3.181880
  H      4.198800   -9.045470    1.167810
  H      6.270260  -11.677190    1.210560
  H      3.323790  -13.753290    3.413810
  H      1.282270  -11.149040    3.377750
  H      5.235380  -15.125870    2.973950
  H      7.483560  -13.728040    1.455260
  H      4.525520  -19.656360    4.204680
  H      5.829570  -23.158950    4.161120
  H      4.339630  -22.208030    4.330050
  H      6.615420  -22.310270    6.377290
  H      5.057610  -23.130210    6.530630
  H      5.134670  -21.365020    6.544600
  H      7.956270  -21.973870    3.555410
  H     11.260990  -18.691450    1.523140
  H     11.858100  -15.866020    0.472380
  H     13.333410  -19.464620    0.988920
  H     17.480330  -19.863010    2.413790
  H     18.172710  -21.308710    1.675890
  H     16.510270  -21.328630    2.262300
  H     15.864500  -21.258720   -2.175540
  H     15.424280  -22.247580   -0.782350
  H     17.086570  -22.243980   -1.369410
  H     19.782370  -19.347490   -1.361240
  H     20.173340  -16.908570   -2.233740

 Total Charge           Charge          ....    0
 Multiplicity           Mult            ....    1
 Number of Electrons    NEL             ....  522
 Basis Dimension        Dim             .... 1131

ORBITAL ENERGIES
----------------

  NO   OCC          E(Eh)            E(eV)
   0   2.0000    -398.765039    -10850.9484
   1   2.0000     -89.028912     -2422.5998
   2   2.0000     -88.954740     -2420.5815
   3   2.0000     -88.951706     -2420.4990
   4   2.0000     -88.949840     -2420.4482
   5   2.0000     -49.824554     -1355.7950
   6   2.0000     -44.361748     -1207.1445
   7   2.0000     -44.361039     -1207.1252
   8   2.0000     -44.360735     -1207.1170
   9   2.0000     -24.791953      -674.6233
  10   2.0000     -24.791825      -674.6199
  11   2.0000     -19.208468      -522.6890
  12   2.0000     -19.193524      -522.2823
  13   2.0000     -19.187683      -522.1234
  14   2.0000     -14.481647      -394.0656
  15   2.0000     -14.457441      -393.4070
  16   2.0000     -14.451217      -393.2376
  17   2.0000     -14.449237      -393.1837
  18   2.0000     -14.439314      -392.9137
  19   2.0000     -14.406994      -392.0342
  20   2.0000     -14.404173      -391.9575
  21   2.0000     -10.377040      -282.3736
  22   2.0000     -10.375756      -282.3387
  23   2.0000     -10.359301      -281.8909
  24   2.0000     -10.353774      -281.7405
  25   2.0000     -10.348500      -281.5970
  26   2.0000     -10.331017      -281.1213
  27   2.0000     -10.330408      -281.1047
  28   2.0000     -10.329946      -281.0921
  29   2.0000     -10.328228      -281.0454
  30   2.0000     -10.326962      -281.0109
  31   2.0000     -10.314338      -280.6674
  32   2.0000     -10.312277      -280.6113
  33   2.0000     -10.309914      -280.5470
  34   2.0000     -10.309706      -280.5414
  35   2.0000     -10.308958      -280.5210
  36   2.0000     -10.307063      -280.4695
  37   2.0000     -10.306714      -280.4599
  38   2.0000     -10.306104      -280.4433
  39   2.0000     -10.305768      -280.4342
  40   2.0000     -10.304789      -280.4076
  41   2.0000     -10.304682      -280.4047
  42   2.0000     -10.299776      -280.2711
  43   2.0000     -10.298456      -280.2352
  44   2.0000     -10.298356      -280.2325
  45   2.0000     -10.297691      -280.2144
  46   2.0000     -10.297225      -280.2017
  47   2.0000     -10.296583      -280.1843
  48   2.0000     -10.293369      -280.0968
  49   2.0000     -10.291783      -280.0536
  50   2.0000     -10.291003      -280.0324
  51   2.0000     -10.290895      -280.0295
  52   2.0000     -10.284699      -279.8609
  53   2.0000     -10.283761      -279.8354
  54   2.0000     -10.283639      -279.8320
  55   2.0000     -10.281348      -279.7697
  56   2.0000     -10.280240      -279.7395
  57   2.0000     -10.279784      -279.7271
  58   2.0000     -10.279577      -279.7215
  59   2.0000     -10.275173      -279.6017
  60   2.0000     -10.273447      -279.5547
  61   2.0000     -10.271480      -279.5012
  62   2.0000     -10.266965      -279.3783
  63   2.0000     -10.265673      -279.3432
  64   2.0000     -10.263896      -279.2948
  65   2.0000     -10.263624      -279.2874
  66   2.0000     -10.260759      -279.2094
  67   2.0000     -10.259664      -279.1797
  68   2.0000     -10.255131      -279.0563
  69   2.0000     -10.254837      -279.0483
  70   2.0000     -10.253634      -279.0156
  71   2.0000     -10.252846      -278.9941
  72   2.0000      -8.120337      -220.9656
  73   2.0000      -8.050904      -219.0762
  74   2.0000      -8.047200      -218.9755
  75   2.0000      -8.045631      -218.9328
  76   2.0000      -6.284439      -171.0083
  77   2.0000      -6.091697      -165.7635
  78   2.0000      -6.083989      -165.5537
  79   2.0000      -6.082441      -165.5116
  80   2.0000      -6.019985      -163.8121
  81   2.0000      -6.016280      -163.7113
  82   2.0000      -6.016034      -163.7046
  83   2.0000      -6.014833      -163.6719
  84   2.0000      -6.013087      -163.6244
  85   2.0000      -6.012424      -163.6064
  86   2.0000      -6.010652      -163.5582
  87   2.0000      -6.009532      -163.5277
  88   2.0000      -6.007996      -163.4859
  89   2.0000      -4.460623      -121.3797
  90   2.0000      -4.459572      -121.3511
  91   2.0000      -4.458662      -121.3264
  92   2.0000      -1.314907       -35.7805
  93   2.0000      -1.299745       -35.3679
  94   2.0000      -1.284651       -34.9571
  95   2.0000      -1.282759       -34.9057
  96   2.0000      -1.282431       -34.8967
  97   2.0000      -1.281423       -34.8693
  98   2.0000      -1.280922       -34.8557
  99   2.0000      -1.129325       -30.7305
 100   2.0000      -1.123271       -30.5657
 101   2.0000      -1.111446       -30.2440
 102   2.0000      -1.104538       -30.0560
 103   2.0000      -1.099361       -29.9151
 104   2.0000      -1.090868       -29.6840
 105   2.0000      -1.054270       -28.6882
 106   2.0000      -1.011213       -27.5165
 107   2.0000      -0.992591       -27.0098
 108   2.0000      -0.987551       -26.8726
 109   2.0000      -0.986907       -26.8551
 110   2.0000      -0.984573       -26.7916
 111   2.0000      -0.981943       -26.7200
 112   2.0000      -0.967446       -26.3255
 113   2.0000      -0.960549       -26.1379
 114   2.0000      -0.944652       -25.7053
 115   2.0000      -0.931235       -25.3402
 116   2.0000      -0.905407       -24.6374
 117   2.0000      -0.900640       -24.5077
 118   2.0000      -0.890942       -24.2438
 119   2.0000      -0.887946       -24.1622
 120   2.0000      -0.875047       -23.8112
 121   2.0000      -0.868580       -23.6353
 122   2.0000      -0.866821       -23.5874
 123   2.0000      -0.864581       -23.5264
 124   2.0000      -0.860319       -23.4105
 125   2.0000      -0.851146       -23.1609
 126   2.0000      -0.839804       -22.8522
 127   2.0000      -0.833179       -22.6720
 128   2.0000      -0.828803       -22.5529
 129   2.0000      -0.828606       -22.5475
 130   2.0000      -0.817079       -22.2338
 131   2.0000      -0.810015       -22.0416
 132   2.0000      -0.797094       -21.6900
 133   2.0000      -0.782998       -21.3065
 134   2.0000      -0.774690       -21.0804
 135   2.0000      -0.765182       -20.8217
 136   2.0000      -0.761925       -20.7330
 137   2.0000      -0.760814       -20.7028
 138   2.0000      -0.759271       -20.6608
 139   2.0000      -0.751481       -20.4489
 140   2.0000      -0.737395       -20.0655
 141   2.0000      -0.729514       -19.8511
 142   2.0000      -0.717507       -19.5244
 143   2.0000      -0.710954       -19.3460
 144   2.0000      -0.702439       -19.1143
 145   2.0000      -0.697023       -18.9669
 146   2.0000      -0.692497       -18.8438
 147   2.0000      -0.690232       -18.7822
 148   2.0000      -0.686794       -18.6886
 149   2.0000      -0.676892       -18.4192
 150   2.0000      -0.669483       -18.2176
 151   2.0000      -0.663477       -18.0541
 152   2.0000      -0.657328       -17.8868
 153   2.0000      -0.644725       -17.5439
 154   2.0000      -0.643630       -17.5141
 155   2.0000      -0.639547       -17.4029
 156   2.0000      -0.631982       -17.1971
 157   2.0000      -0.629421       -17.1274
 158   2.0000      -0.623187       -16.9578
 159   2.0000      -0.616407       -16.7733
 160   2.0000      -0.613820       -16.7029
 161   2.0000      -0.606289       -16.4980
 162   2.0000      -0.605557       -16.4780
 163   2.0000      -0.600986       -16.3536
 164   2.0000      -0.600462       -16.3394
 165   2.0000      -0.595326       -16.1997
 166   2.0000      -0.585026       -15.9194
 167   2.0000      -0.581026       -15.8105
 168   2.0000      -0.580083       -15.7849
 169   2.0000      -0.577209       -15.7067
 170   2.0000      -0.569187       -15.4884
 171   2.0000      -0.564534       -15.3618
 172   2.0000      -0.558889       -15.2081
 173   2.0000      -0.558269       -15.1913
 174   2.0000      -0.554525       -15.0894
 175   2.0000      -0.552706       -15.0399
 176   2.0000      -0.545738       -14.8503
 177   2.0000      -0.543175       -14.7805
 178   2.0000      -0.542804       -14.7705
 179   2.0000      -0.540470       -14.7069
 180   2.0000      -0.537577       -14.6282
 181   2.0000      -0.535250       -14.5649
 182   2.0000      -0.534180       -14.5358
 183   2.0000      -0.527785       -14.3618
 184   2.0000      -0.524697       -14.2777
 185   2.0000      -0.523457       -14.2440
 186   2.0000      -0.518015       -14.0959
 187   2.0000      -0.517649       -14.0860
 188   2.0000      -0.515875       -14.0377
 189   2.0000      -0.512426       -13.9438
 190   2.0000      -0.510137       -13.8815
 191   2.0000      -0.507917       -13.8211
 192   2.0000      -0.505226       -13.7479
 193   2.0000      -0.498236       -13.5577
 194   2.0000      -0.494680       -13.4609
 195   2.0000      -0.492806       -13.4099
 196   2.0000      -0.490564       -13.3489
 197   2.0000      -0.490230       -13.3398
 198   2.0000      -0.488098       -13.2818
 199   2.0000      -0.486477       -13.2377
 200   2.0000      -0.483071       -13.1450
 201   2.0000      -0.482506       -13.1296
 202   2.0000      -0.479990       -13.0612
 203   2.0000      -0.477083       -12.9821
 204   2.0000      -0.474898       -12.9226
 205   2.0000      -0.472793       -12.8654
 206   2.0000      -0.470312       -12.7979
 207   2.0000      -0.469784       -12.7835
 208   2.0000      -0.469124       -12.7655
 209   2.0000      -0.468116       -12.7381
 210   2.0000      -0.467512       -12.7216
 211   2.0000      -0.465947       -12.6791
 212   2.0000      -0.460998       -12.5444
 213   2.0000      -0.460447       -12.5294
 214   2.0000      -0.451292       -12.2803
 215   2.0000      -0.450781       -12.2664
 216   2.0000      -0.449683       -12.2365
 217   2.0000      -0.448477       -12.2037
 218   2.0000      -0.448130       -12.1942
 219   2.0000      -0.444045       -12.0831
 220   2.0000      -0.443443       -12.0667
 221   2.0000      -0.441978       -12.0268
 222   2.0000      -0.440829       -11.9956
 223   2.0000      -0.438086       -11.9209
 224   2.0000      -0.435802       -11.8588
 225   2.0000      -0.433871       -11.8062
 226   2.0000      -0.430766       -11.7217
 227   2.0000      -0.426688       -11.6108
 228   2.0000      -0.425906       -11.5895
 229   2.0000      -0.420645       -11.4463
 230   2.0000      -0.419013       -11.4019
 231   2.0000      -0.414212       -11.2713
 232   2.0000      -0.410906       -11.1813
 233   2.0000      -0.406898       -11.0722
 234   2.0000      -0.404357       -11.0031
 235   2.0000      -0.400260       -10.8916
 236   2.0000      -0.393802       -10.7159
 237   2.0000      -0.381258       -10.3746
 238   2.0000      -0.373849       -10.1729
 239   2.0000      -0.371260       -10.1025
 240   2.0000      -0.366654        -9.9772
 241   2.0000      -0.360752        -9.8166
 242   2.0000      -0.356801        -9.7090
 243   2.0000      -0.348763        -9.4903
 244   2.0000      -0.339481        -9.2378
 245   2.0000      -0.338154        -9.2016
 246   2.0000      -0.334026        -9.0893
 247   2.0000      -0.330403        -8.9907
 248   2.0000      -0.324097        -8.8191
 249   2.0000      -0.322343        -8.7714
 250   2.0000      -0.316066        -8.6006
 251   2.0000      -0.315680        -8.5901
 252   2.0000      -0.315357        -8.5813
 253   2.0000      -0.312288        -8.4978
 254   2.0000      -0.303674        -8.2634
 255   2.0000      -0.296985        -8.0814
 256   2.0000      -0.295760        -8.0481
 257   2.0000      -0.288585        -7.8528
 258   2.0000      -0.277593        -7.5537
 259   2.0000      -0.236732        -6.4418
 260   2.0000      -0.214761        -5.8439
 261   0.0000      -0.097952        -2.6654
 262   0.0000      -0.057822        -1.5734
 263   0.0000      -0.054257        -1.4764
 264   0.0000      -0.045209        -1.2302
 265   0.0000      -0.039339        -1.0705

MULLIKEN ATOMIC CHARGES
-----------------------
   0 C :   -0.100526
   1 C :    0.237342
   2 F :   -0.169643
   3 C :    0.233606
   4 F :   -0.174719
   5 C :   -0.109792
   6 C :    0.012361
   7 C :    0.030533
   8 C :    0.317646
   9 C :   -0.328364
  10 C :   -0.202378
  11 N :    0.151650
  12 C :   -0.214220
  13 N :    0.166107
  14 C :   -0.125109
  15 C :    0.130584
  16 O :   -0.146021
  17 C :   -0.013794
  18 C :    0.084458
  19 C :    0.011115
  20 C :   -0.043461
  21 C :    0.139795
  22 C :    0.073151
  23 C :    0.000034
  24 N :   -0.284494
  25 S :    0.524748
  26 N :   -0.338148
  27 C :   -0.008488
  28 N :   -0.023294
  29 C :    0.131804
  30 C :   -0.177379
  31 C :    0.107557
  32 N :   -0.029926
  33 C :    0.127171
  34 C :   -0.160345
  35 C :    0.008347
  36 C :    0.023588
  37 C :   -0.119445
  38 S :    0.112970
  39 C :    0.012693
  40 C :    0.131437
  41 O :   -0.196334
  42 C :    0.001868
  43 C :    0.000476
  44 N :   -0.133426
  45 C :    0.093919
  46 C :    0.004135
  47 C :   -0.000671
  48 C :   -0.006256
  49 C :    0.128662
  50 O :   -0.185867
  51 C :    0.004386
  52 C :   -0.117122
  53 C :   -0.017613
  54 C :    0.067201
  55 C :   -0.085602
  56 C :   -0.027884
  57 C :   -0.091471
  58 C :   -0.083601
  59 S :    0.139467
  60 C :   -0.124039
  61 C :   -0.106656
  62 Ge:    0.445782
  63 C :   -0.191893
  64 C :   -0.192835
  65 C :    0.019246
  66 C :   -0.080089
  67 S :    0.131599
  68 H :    0.014563
  69 H :    0.009673
  70 H :    0.014285
  71 H :   -0.010666
  72 H :   -0.024775
  73 H :    0.131276
  74 H :   -0.029846
  75 H :    0.130149
  76 H :   -0.033731
  77 H :   -0.002758
  78 H :   -0.021996
  79 H :   -0.001527
  80 H :    0.030919
  81 H :    0.031493
  82 H :    0.029988
  83 H :    0.028042
  84 H :    0.028521
  85 H :    0.002193
  86 H :    0.018476
  87 H :   -0.016913
  88 H :   -0.010503
  89 H :    0.055627
  90 H :    0.041964
  91 H :    0.044909
  92 H :    0.055198
  93 H :    0.044317
  94 H :    0.041782
  95 H :   -0.017237
  96 H :    0.022046
Sum of atomic charges:   -0.0000000

LOEWDIN ATOMIC CHARGES
----------------------
   0 C :   -0.023976
   1 C :    0.073093
   2 F :   -0.047703
   3 C :    0.066097
   4 F :   -0.050919
   5 C :   -0.006929
   6 C :   -0.048134
   7 C :   -0.007084
   8 C :    0.074345
   9 C :   -0.139554
  10 C :   -0.022385
  11 N :   -0.060205
  12 C :   -0.020154
  13 N :   -0.059729
  14 C :   -0.099699
  15 C :    0.084875
  16 O :   -0.145270
  17 C :    0.071121
  18 C :   -0.070780
  19 C :    0.036962
  20 C :   -0.032056
  21 C :    0.007085
  22 C :   -0.031915
  23 C :   -0.033151
  24 N :   -0.276783
  25 S :    0.644082
  26 N :   -0.284793
  27 C :   -0.002747
  28 N :    0.079180
  29 C :    0.001121
  30 C :   -0.093095
  31 C :    0.015058
  32 N :    0.073148
  33 C :   -0.017531
  34 C :   -0.072242
  35 C :   -0.010749
  36 C :   -0.057876
  37 C :   -0.116302
  38 S :    0.448840
  39 C :   -0.097362
  40 C :    0.086523
  41 O :   -0.179305
  42 C :   -0.099260
  43 C :    0.024407
  44 N :    0.088056
  45 C :    0.043870
  46 C :   -0.057279
  47 C :    0.024785
  48 C :   -0.099810
  49 C :    0.080186
  50 O :   -0.179478
  51 C :   -0.095429
  52 C :   -0.125571
  53 C :   -0.050598
  54 C :   -0.029194
  55 C :   -0.178639
  56 C :   -0.041315
  57 C :   -0.169856
  58 C :   -0.188062
  59 S :    0.433509
  60 C :   -0.198750
  61 C :   -0.173305
  62 Ge:    0.513582
  63 C :   -0.201893
  64 C :   -0.202124
  65 C :   -0.064922
  66 C :   -0.189157
  67 S :    0.430074
  68 H :    0.050030
  69 H :    0.050880
  70 H :    0.044972
  71 H :    0.037928
  72 H :    0.032106
  73 H :    0.073757
  74 H :    0.025244
  75 H :    0.093850
  76 H :    0.025133
  77 H :    0.027012
  78 H :    0.022793
  79 H :    0.026070
  80 H :    0.032980
  81 H :    0.032584
  82 H :    0.030694
  83 H :    0.032045
  84 H :    0.029747
  85 H :    0.027525
  86 H :    0.035062
  87 H :    0.018194
  88 H :    0.032667
  89 H :    0.040724
  90 H :    0.034923
  91 H :    0.036139
  92 H :    0.040545
  93 H :    0.036148
  94 H :    0.035031
  95 H :    0.027569
  96 H :    0.020724

  Mayer bond orders larger than 0.100000
B(  0-C ,  1-C ) :   1.3285 B(  0-C ,  5-C ) :   0.1061 B(  0-C ,  7-C ) :   1.3192
B(  0-C , 68-H ) :   0.9958 B(  1-C ,  2-F ) :   1.1383 B(  1-C ,  3-C ) :   1.2975
B(  3-C ,  4-F ) :   1.1240 B(  3-C ,  5-C ) :   1.3167 B(  5-C ,  6-C ) :   1.3226
B(  5-C , 69-H ) :   1.0207 B(  6-C ,  7-C ) :   1.3394 B(  6-C , 15-C ) :   0.9285
B(  7-C ,  8-C ) :   1.0201 B(  8-C ,  9-C ) :   1.6278 B(  8-C , 14-C ) :   1.0657
B(  9-C , 10-C ) :   1.1461 B(  9-C , 12-C ) :   1.1672 B( 10-C , 11-N ) :   2.9899
B( 12-C , 13-N ) :   3.0084 B( 14-C , 15-C ) :   0.9532 B( 14-C , 17-C ) :   1.6001
B( 15-C , 16-O ) :   2.2607 B( 17-C , 18-C ) :   1.1429 B( 17-C , 70-H ) :   0.9430
B( 18-C , 19-C ) :   1.3338 B( 18-C , 23-C ) :   1.1722 B( 19-C , 20-C ) :   1.3039
B( 19-C , 71-H ) :   0.9921 B( 20-C , 21-C ) :   1.3984 B( 20-C , 72-H ) :   0.9903
B( 21-C , 22-C ) :   1.1298 B( 21-C , 27-C ) :   1.1265 B( 22-C , 23-C ) :   1.1702
B( 22-C , 26-N ) :   1.4863 B( 23-C , 24-N ) :   1.5376 B( 24-N , 25-S ) :   1.2473
B( 24-N , 26-N ) :   0.1335 B( 25-S , 26-N ) :   1.2448 B( 27-C , 28-N ) :   1.2367
B( 27-C , 34-C ) :   1.3361 B( 28-N , 29-C ) :   1.1933 B( 28-N , 73-H ) :   0.8912
B( 29-C , 30-C ) :   1.2631 B( 29-C , 33-C ) :   1.2652 B( 30-C , 31-C ) :   1.3833
B( 30-C , 74-H ) :   1.0329 B( 31-C , 32-N ) :   1.1813 B( 31-C , 35-C ) :   1.1074
B( 32-N , 33-C ) :   1.1633 B( 32-N , 75-H ) :   0.9325 B( 33-C , 34-C ) :   1.3033
B( 34-C , 76-H ) :   1.0184 B( 35-C , 36-C ) :   1.6744 B( 35-C , 77-H ) :   0.9293
B( 36-C , 37-C ) :   1.1605 B( 36-C , 78-H ) :   0.9425 B( 37-C , 38-S ) :   1.1367
B( 37-C , 39-C ) :   1.4518 B( 38-S , 52-C ) :   1.1034 B( 39-C , 40-C ) :   0.9608
B( 39-C , 51-C ) :   1.1696 B( 40-C , 41-O ) :   2.1133 B( 40-C , 42-C ) :   1.0099
B( 41-O , 77-H ) :   0.1225 B( 42-C , 43-C ) :   1.4192 B( 42-C , 48-C ) :   1.2967
B( 43-C , 44-N ) :   1.2331 B( 43-C , 79-H ) :   0.9935 B( 44-N , 45-C ) :   0.9542
B( 44-N , 47-C ) :   1.2307 B( 45-C , 46-C ) :   1.1113 B( 45-C , 80-H ) :   0.9510
B( 45-C , 81-H ) :   0.9510 B( 46-C , 82-H ) :   0.9671 B( 46-C , 83-H ) :   0.9682
B( 46-C , 84-H ) :   0.9678 B( 47-C , 48-C ) :   1.4238 B( 47-C , 85-H ) :   0.9928
B( 48-C , 49-C ) :   0.9997 B( 49-C , 50-O ) :   2.1644 B( 49-C , 51-C ) :   0.9587
B( 51-C , 52-C ) :   1.4670 B( 52-C , 53-C ) :   1.1932 B( 53-C , 54-C ) :   1.6191
B( 53-C , 86-H ) :   0.9505 B( 54-C , 55-C ) :   1.1382 B( 54-C , 87-H ) :   0.9588
B( 55-C , 56-C ) :   1.4694 B( 55-C , 59-S ) :   1.0967 B( 56-C , 57-C ) :   1.2727
B( 56-C , 88-H ) :   0.9982 B( 57-C , 58-C ) :   1.5105 B( 57-C , 62-Ge) :   0.8821
B( 58-C , 59-S ) :   1.1208 B( 58-C , 60-C ) :   1.1520 B( 60-C , 61-C ) :   1.5424
B( 60-C , 67-S ) :   1.1169 B( 61-C , 62-Ge) :   0.8874 B( 61-C , 65-C ) :   1.2497
B( 62-Ge, 63-C ) :   1.0131 B( 62-Ge, 64-C ) :   1.0109 B( 63-C , 89-H ) :   0.9592
B( 63-C , 90-H ) :   0.9608 B( 63-C , 91-H ) :   0.9602 B( 64-C , 92-H ) :   0.9596
B( 64-C , 93-H ) :   0.9610 B( 64-C , 94-H ) :   0.9610 B( 65-C , 66-C ) :   1.5567
B( 65-C , 95-H ) :   0.9981 B( 66-C , 67-S ) :   1.1544 B( 66-C , 96-H ) :   0.9719

-----------------------------------------------------------------------------
         ABSORPTION SPECTRUM VIA TRANSITION ELECTRIC DIPOLE MOMENTS
-----------------------------------------------------------------------------
State   Energy  Wavelength   fosc         T2         TX        TY        TZ
        (cm-1)    (nm)                  (au**2)     (au)      (au)      (au)
-----------------------------------------------------------------------------
   0   12154.9    822.7   1.545076523  41.84810   3.32225  -5.54831   0.16429
   1   19812.2    504.7   0.494196848   8.21189  -2.76092   0.05609   0.76555
   2   20877.6    479.0   0.762379976  12.02169  -3.27336   0.30287   1.10231
   3   21646.2    462.0   0.192915158   2.93400   0.04901  -1.54208   0.74403
   4   22666.0    441.2   0.190204761   2.76263   0.29727  -1.63442  -0.05399
   5   24081.3    415.3   0.015375145   0.21019   0.07669  -0.29986   0.33823
   6   25037.6    399.4   0.139569021   1.83515  -0.40689   1.28911  -0.08826
   7   25382.2    394.0   0.054515210   0.70707   0.71093  -0.31658   0.31849
   8   26127.9    382.7   0.178862277   2.25366   1.40093   0.09549  -0.53097
   9   27326.1    365.9   0.024823318   0.29906  -0.03788  -0.52155   0.16001
  10   28168.2    355.0   0.038629289   0.45147   0.07406  -0.62355   0.23911
  11   30114.4    332.1   0.000179616   0.00196   0.04043  -0.01732  -0.00538
  12   30220.5    330.9   0.000334999   0.00365  -0.04353   0.04032   0.01136
  13   30846.0    324.2   0.023527410   0.25110   0.01455  -0.47852   0.14801
  14   31133.8    321.2   0.050998427   0.53926   0.66773   0.30554   0.00643
  15   31316.2    319.3   0.069384894   0.72941   0.73850  -0.12444  -0.41054
  16   32033.5    312.2   0.028028060   0.28805   0.33073   0.36966  -0.20499
  17   32982.3    303.2   0.039145860   0.39073  -0.33831   0.47744  -0.21984
  18   33111.5    302.0   0.046387077   0.46120  -0.59861   0.29508  -0.12568
  19   33406.6    299.3   0.111317122   1.09700  -0.06976  -0.89349   0.54205
  20   33949.7    294.6   0.062652208   0.60754  -0.22659   0.64051   0.38202
  21   34684.4    288.3   0.024083457   0.22859   0.40898   0.05444  -0.24158
  22   34808.3    287.3   0.275320039   2.60394   1.48274  -0.63298   0.06894
  23   35071.8    285.1   0.010404368   0.09766   0.16415   0.26395  -0.03238
  24   35154.8    284.5   0.016860874   0.15790   0.18313  -0.07142   0.34534
  25   35291.5    283.4   0.069791054   0.65104  -0.72062   0.35976   0.04821
  26   35907.7    278.5   0.054585113   0.50045   0.49601  -0.44603   0.23556
  27   35971.9    278.0   0.025547751   0.23381  -0.33324   0.31139  -0.16062
  28   36425.4    274.5   0.383719466   3.46805  -1.24819   1.02433  -0.92781
  29   36621.1    273.1   0.090045105   0.80948  -0.36195  -0.69470   0.44256
  30   36795.5    271.8   0.004192709   0.03751   0.17152  -0.05507  -0.07113
  31   37017.4    270.1   0.035507004   0.31578  -0.26034  -0.01357  -0.49781
  32   37438.0    267.1   0.001439410   0.01266  -0.01221  -0.08362   0.07428
  33   37753.5    264.9   0.019366968   0.16888   0.38455  -0.01523   0.14413
  34   38012.6    263.1   0.019535205   0.16919  -0.19521  -0.19767  -0.30333
  35   38105.5    262.4   0.001541883   0.01332  -0.01226   0.09764  -0.06031
  36   38252.4    261.4   0.026315579   0.22648   0.44359   0.16845   0.03656
  37   38380.7    260.5   0.093340200   0.80063  -0.03241   0.83163  -0.32859
  38   38749.7    258.1   0.031944167   0.27139   0.47352   0.02244  -0.21602
  39   38821.7    257.6   0.088890679   0.75380  -0.69942   0.51073  -0.06144
  40   39221.7    255.0   0.006238824   0.05237   0.14114  -0.17711   0.03285
  41   39265.3    254.7   0.111599769   0.93569  -0.45282  -0.77579   0.35886
  42   39868.4    250.8   0.026447191   0.21839   0.03230   0.42083  -0.20062
  43   40022.7    249.9   0.007826212   0.06438   0.17511   0.14795  -0.10873
  44   40051.6    249.7   0.003053846   0.02510  -0.09855  -0.09992   0.07352
  45   40290.9    248.2   0.027332143   0.22333  -0.25234  -0.31402   0.24707

FINAL SINGLE POINT ENERGY     -6435.163750886631

DIPOLE MOMENT
-------------
                                X             Y             Z
Electronic contribution:     32.64089      64.04417     -34.51023
Nuclear contribution   :    -32.49956     -69.46434      34.62421
                        -----------------------------------------
Total Dipole Moment    :      0.14133      -5.42017       0.11398
                        -----------------------------------------
Magnitude (a.u.)       :      5.42321
Magnitude (Debye)      :     13.78469

Rotational constants in cm-1:     0.001290     0.000194     0.000170
Rotational constants in MHz :    38.676999     5.814848     5.109258

                             ****ORCA TERMINATED NORMALLY****
TOTAL RUN TIME: 0 days 0 hours 8 minutes 47 seconds 604 msec
