                         Program Version 4.2.0 -  RELEASE  -
|  1> # ORCA input file
|  2> # SCF done       -215.264755891002          0.000685722682
|  3> ! CAM-B3LYP def2-SVP def2/J RIJCOSX Grid4 TightSCF
|  4> %maxcore 5000
|  5> %tddft
|  6>     Mode sTDDFT
|  7>     Ethresh 5.0
|  8>     maxcore 5000
|  9> end
| 10>
| 11> %pal
| 12>   nprocs 6
| 13>   end
| 14> * xyz 0 1
| 15>    C       -4.43214        -1.77681        -0.95296
| 16>    C       -4.59151        -2.47445         0.21692
| 17>    C       -4.24330        -3.83187         0.38205
| 18>    N       -3.98398        -4.93129         0.58765
| 19>    C       -5.11157        -1.96447         1.42479
| 20>    N       -5.51877        -1.63871         2.44884
| 21>    C       -3.87671        -2.32049        -2.18675
| 22>    C       -3.84042        -1.29298        -3.16277
| 23>    C       -3.36742        -1.49441        -4.43685
| 24>    C       -2.90923        -2.77284        -4.76801
| 25>    C       -2.95010        -3.79439        -3.78872
| 26>    C       -3.42663        -3.58971        -2.49929
| 27>    S       -2.33779        -5.29153        -4.41730
| 28>    C       -2.03997        -4.55351        -5.95256
| 29>    C       -2.37891        -3.24661        -6.00076
| 30>    C       -4.37912        -0.05261        -2.58352
| 31>    O       -4.48217         1.01928        -3.14807
| 32>    C       -4.76459        -0.38269        -1.19868
| 33>    C       -5.35816         0.46259        -0.30543
| 34>    C       -5.73609         1.81647        -0.43301
| 35>    C       -6.35688         2.48826         0.60457
| 36>    C       -6.67146         3.82499         0.31955
| 37>    C       -7.34309         4.76526         1.14030
| 38>    C       -7.72042         4.47875         2.50682
| 39>    C       -8.82767         4.91167         3.18339
| 40>    C       -8.84222         4.49401         4.52971
| 41>    C       -7.75430         3.75948         4.90739
| 42>    S       -6.68391         3.55895         3.56654
| 43>    C       -7.46038         3.15507         6.23104
| 44>   Cl      -10.12473         4.88766         5.60786
| 45>    C       -7.60054         6.00353         0.56724
| 46>    C       -7.19639         6.35705        -0.74758
| 47>    C       -6.53204         5.41909        -1.56074
| 48>    C       -6.27771         4.17064        -1.00095
| 49>    S       -5.51775         2.84455        -1.83116
| 50>    C       -6.15153         5.73921        -2.92210
| 51>    C       -6.88715         6.39396        -3.86871
| 52>    C       -6.20272         6.51838        -5.09627
| 53>    C       -4.95038         5.97497        -5.10082
| 54>    S       -4.59747         5.27857        -3.55768
| 55>    C       -3.95805         5.94130        -6.20499
| 56>   Cl       -6.90367         7.28905        -6.46746
| 57>    C       -7.49535         7.70591        -1.05205
| 58>    C       -8.12768         8.36716        -0.03667
| 59>    S       -8.38040         7.34562         1.36328
| 60>    C       -8.58648         9.71504        -0.01908
| 61>    C       -8.43204        10.69135        -0.98291
| 62>    F       -7.77557        10.49799        -2.13400
| 63>    C       -9.02576        11.91632        -0.64972
| 64>    F       -8.98133        12.98477        -1.46079
| 65>    C       -9.65935        11.91652         0.57746
| 66>    S       -9.49203        10.35535         1.31914
| 67>    C      -10.37338        12.97133         1.21239
| 68>    C      -10.55908        14.24712         0.76333
| 69>    C      -11.33792        15.06489         1.62138
| 70>    C      -11.77154        14.34141         2.78354
| 71>    S      -11.15534        12.69541         2.74719
| 72>    C      -12.57528        14.89200         3.76616
| 73>    O      -13.05587        14.32862         4.90584
| 74>    C      -12.77345        12.98951         5.23295
| 75>    C      -12.96716        16.23537         3.57893
| 76>    C      -12.52834        16.94798         2.45076
| 77>    C      -11.71590        16.41047         1.45903
| 78>    O      -11.42187        17.28447         0.46119
| 79>    C      -10.45493        17.02060        -0.52498
| 80>    S      -13.12775        18.57834         2.44894
| 81>    C      -13.96941        18.29645         3.96214
| 82>    C      -13.78464        17.02200         4.42312
| 83>    C      -14.73511        19.33669         4.56436
| 84>    C      -15.48493        19.27504         5.71639
| 85>    C      -16.10569        20.49370         6.00736
| 86>    C      -15.83292        21.49903         5.07732
| 87>    S      -14.79418        20.92671         3.82395
| 88>    C      -16.47471        22.70168         5.40672
| 89>    C      -17.23152        22.60343         6.58318
| 90>    S      -17.15891        21.01804         7.30039
| 91>    C      -17.81973        23.85522         6.81351
| 92>    C      -17.40243        24.65974         5.77866
| 93>    N      -16.58821        23.96992         4.93082
| 94>    C      -15.97849        24.45989         3.72770
| 95>    H       -3.35413        -0.68905        -5.15472
| 96>    H       -3.43658        -4.40221        -1.79245
| 97>    H       -1.62181        -5.15401        -6.73690
| 98>    H       -2.26423        -2.62614        -6.87101
| 99>    H       -5.59796         0.05530         0.66941
|100>    H       -6.58571         1.99909         1.53390
|101>    H       -9.62789         5.47336         2.73914
|102>    H       -7.86623         3.78107         7.02314
|103>    H       -6.38822         3.04274         6.37090
|104>    H       -7.91955         2.16857         6.30919
|105>    H       -7.89417         6.73726        -3.71961
|106>    H       -4.44853         6.17146        -7.14772
|107>    H       -3.49486         4.95908        -6.26980
|108>    H       -3.17028         6.67588        -6.03560
|109>    H       -7.22974         8.17190        -1.98161
|110>    H      -10.14707        14.56749        -0.17173
|111>    H      -13.27937        12.81695         6.18233
|112>    H      -11.70159        12.81847         5.36241
|113>    H      -13.16795        12.29581         4.48600
|114>    H      -10.31144        17.97072        -1.03975
|115>    H      -10.80629        16.27861        -1.24807
|116>    H       -9.50460        16.70347        -0.08750
|117>    H      -14.20885        16.64191         5.33271
|118>    H      -15.58108        18.39038         6.31687
|119>    H      -18.46059        24.13511         7.62412
|120>    H      -17.63374        25.69066         5.59406
|121>    H      -16.05354        25.54536         3.69850
|122>    H      -16.47276        24.04433         2.84531
|123>    H      -14.92677        24.16995         3.69863
|124> *
|125>
|126>                          ****END OF INPUT****

CARTESIAN COORDINATES (ANGSTROEM)
---------------------------------
  C     -4.432140   -1.776810   -0.952960
  C     -4.591510   -2.474450    0.216920
  C     -4.243300   -3.831870    0.382050
  N     -3.983980   -4.931290    0.587650
  C     -5.111570   -1.964470    1.424790
  N     -5.518770   -1.638710    2.448840
  C     -3.876710   -2.320490   -2.186750
  C     -3.840420   -1.292980   -3.162770
  C     -3.367420   -1.494410   -4.436850
  C     -2.909230   -2.772840   -4.768010
  C     -2.950100   -3.794390   -3.788720
  C     -3.426630   -3.589710   -2.499290
  S     -2.337790   -5.291530   -4.417300
  C     -2.039970   -4.553510   -5.952560
  C     -2.378910   -3.246610   -6.000760
  C     -4.379120   -0.052610   -2.583520
  O     -4.482170    1.019280   -3.148070
  C     -4.764590   -0.382690   -1.198680
  C     -5.358160    0.462590   -0.305430
  C     -5.736090    1.816470   -0.433010
  C     -6.356880    2.488260    0.604570
  C     -6.671460    3.824990    0.319550
  C     -7.343090    4.765260    1.140300
  C     -7.720420    4.478750    2.506820
  C     -8.827670    4.911670    3.183390
  C     -8.842220    4.494010    4.529710
  C     -7.754300    3.759480    4.907390
  S     -6.683910    3.558950    3.566540
  C     -7.460380    3.155070    6.231040
  Cl   -10.124730    4.887660    5.607860
  C     -7.600540    6.003530    0.567240
  C     -7.196390    6.357050   -0.747580
  C     -6.532040    5.419090   -1.560740
  C     -6.277710    4.170640   -1.000950
  S     -5.517750    2.844550   -1.831160
  C     -6.151530    5.739210   -2.922100
  C     -6.887150    6.393960   -3.868710
  C     -6.202720    6.518380   -5.096270
  C     -4.950380    5.974970   -5.100820
  S     -4.597470    5.278570   -3.557680
  C     -3.958050    5.941300   -6.204990
  Cl    -6.903670    7.289050   -6.467460
  C     -7.495350    7.705910   -1.052050
  C     -8.127680    8.367160   -0.036670
  S     -8.380400    7.345620    1.363280
  C     -8.586480    9.715040   -0.019080
  C     -8.432040   10.691350   -0.982910
  F     -7.775570   10.497990   -2.134000
  C     -9.025760   11.916320   -0.649720
  F     -8.981330   12.984770   -1.460790
  C     -9.659350   11.916520    0.577460
  S     -9.492030   10.355350    1.319140
  C    -10.373380   12.971330    1.212390
  C    -10.559080   14.247120    0.763330
  C    -11.337920   15.064890    1.621380
  C    -11.771540   14.341410    2.783540
  S    -11.155340   12.695410    2.747190
  C    -12.575280   14.892000    3.766160
  O    -13.055870   14.328620    4.905840
  C    -12.773450   12.989510    5.232950
  C    -12.967160   16.235370    3.578930
  C    -12.528340   16.947980    2.450760
  C    -11.715900   16.410470    1.459030
  O    -11.421870   17.284470    0.461190
  C    -10.454930   17.020600   -0.524980
  S    -13.127750   18.578340    2.448940
  C    -13.969410   18.296450    3.962140
  C    -13.784640   17.022000    4.423120
  C    -14.735110   19.336690    4.564360
  C    -15.484930   19.275040    5.716390
  C    -16.105690   20.493700    6.007360
  C    -15.832920   21.499030    5.077320
  S    -14.794180   20.926710    3.823950
  C    -16.474710   22.701680    5.406720
  C    -17.231520   22.603430    6.583180
  S    -17.158910   21.018040    7.300390
  C    -17.819730   23.855220    6.813510
  C    -17.402430   24.659740    5.778660
  N    -16.588210   23.969920    4.930820
  C    -15.978490   24.459890    3.727700
  H     -3.354130   -0.689050   -5.154720
  H     -3.436580   -4.402210   -1.792450
  H     -1.621810   -5.154010   -6.736900
  H     -2.264230   -2.626140   -6.871010
  H     -5.597960    0.055300    0.669410
  H     -6.585710    1.999090    1.533900
  H     -9.627890    5.473360    2.739140
  H     -7.866230    3.781070    7.023140
  H     -6.388220    3.042740    6.370900
  H     -7.919550    2.168570    6.309190
  H     -7.894170    6.737260   -3.719610
  H     -4.448530    6.171460   -7.147720
  H     -3.494860    4.959080   -6.269800
  H     -3.170280    6.675880   -6.035600
  H     -7.229740    8.171900   -1.981610
  H    -10.147070   14.567490   -0.171730
  H    -13.279370   12.816950    6.182330
  H    -11.701590   12.818470    5.362410
  H    -13.167950   12.295810    4.486000
  H    -10.311440   17.970720   -1.039750
  H    -10.806290   16.278610   -1.248070
  H     -9.504600   16.703470   -0.087500
  H    -14.208850   16.641910    5.332710
  H    -15.581080   18.390380    6.316870
  H    -18.460590   24.135110    7.624120
  H    -17.633740   25.690660    5.594060
  H    -16.053540   25.545360    3.698500
  H    -16.472760   24.044330    2.845310
  H    -14.926770   24.169950    3.698630

 Total Charge           Charge          ....    0
 Multiplicity           Mult            ....    1
 Number of Electrons    NEL             ....  646
 Basis Dimension        Dim             .... 1313

ORBITAL ENERGIES
----------------

  NO   OCC          E(Eh)            E(eV)
   0   2.0000    -101.583781     -2764.2352
   1   2.0000    -101.580101     -2764.1351
   2   2.0000     -88.977725     -2421.2070
   3   2.0000     -88.966642     -2420.9054
   4   2.0000     -88.960670     -2420.7429
   5   2.0000     -88.958359     -2420.6800
   6   2.0000     -88.953535     -2420.5487
   7   2.0000     -88.951130     -2420.4833
   8   2.0000     -88.950210     -2420.4583
   9   2.0000     -88.949616     -2420.4421
  10   2.0000     -88.940071     -2420.1824
  11   2.0000     -88.937336     -2420.1080
  12   2.0000     -24.804233      -674.9575
  13   2.0000     -24.803574      -674.9396
  14   2.0000     -19.246702      -523.7294
  15   2.0000     -19.243593      -523.6448
  16   2.0000     -19.218573      -522.9640
  17   2.0000     -14.459150      -393.4535
  18   2.0000     -14.416323      -392.2881
  19   2.0000     -14.412937      -392.1960
  20   2.0000     -10.375660      -282.3361
  21   2.0000     -10.372568      -282.2519
  22   2.0000     -10.367729      -282.1203
  23   2.0000     -10.340851      -281.3889
  24   2.0000     -10.340144      -281.3696
  25   2.0000     -10.334396      -281.2132
  26   2.0000     -10.332164      -281.1525
  27   2.0000     -10.326290      -280.9926
  28   2.0000     -10.324259      -280.9374
  29   2.0000     -10.323719      -280.9227
  30   2.0000     -10.322073      -280.8779
  31   2.0000     -10.320749      -280.8419
  32   2.0000     -10.320552      -280.8365
  33   2.0000     -10.320218      -280.8274
  34   2.0000     -10.319347      -280.8037
  35   2.0000     -10.318335      -280.7762
  36   2.0000     -10.316187      -280.7177
  37   2.0000     -10.314924      -280.6833
  38   2.0000     -10.314226      -280.6644
  39   2.0000     -10.314130      -280.6617
  40   2.0000     -10.312107      -280.6067
  41   2.0000     -10.311512      -280.5905
  42   2.0000     -10.310769      -280.5703
  43   2.0000     -10.308706      -280.5142
  44   2.0000     -10.305698      -280.4323
  45   2.0000     -10.305670      -280.4315
  46   2.0000     -10.305159      -280.4176
  47   2.0000     -10.302617      -280.3485
  48   2.0000     -10.302607      -280.3482
  49   2.0000     -10.302519      -280.3458
  50   2.0000     -10.302354      -280.3413
  51   2.0000     -10.301531      -280.3189
  52   2.0000     -10.299590      -280.2661
  53   2.0000     -10.298938      -280.2484
  54   2.0000     -10.298747      -280.2431
  55   2.0000     -10.297371      -280.2057
  56   2.0000     -10.297345      -280.2050
  57   2.0000     -10.296959      -280.1945
  58   2.0000     -10.294595      -280.1302
  59   2.0000     -10.293126      -280.0902
  60   2.0000     -10.292057      -280.0611
  61   2.0000     -10.291004      -280.0325
  62   2.0000     -10.290899      -280.0296
  63   2.0000     -10.289677      -279.9964
  64   2.0000     -10.289127      -279.9814
  65   2.0000     -10.288354      -279.9603
  66   2.0000     -10.286378      -279.9066
  67   2.0000     -10.286211      -279.9020
  68   2.0000     -10.285109      -279.8720
  69   2.0000     -10.281505      -279.7740
  70   2.0000     -10.279839      -279.7286
  71   2.0000     -10.278721      -279.6982
  72   2.0000     -10.276092      -279.6267
  73   2.0000     -10.275971      -279.6234
  74   2.0000     -10.273037      -279.5435
  75   2.0000     -10.272789      -279.5368
  76   2.0000     -10.272326      -279.5242
  77   2.0000     -10.271873      -279.5119
  78   2.0000     -10.261112      -279.2191
  79   2.0000     -10.252261      -278.9782
  80   2.0000      -9.538522      -259.5564
  81   2.0000      -9.534894      -259.4577
  82   2.0000      -8.073029      -219.6783
  83   2.0000      -8.062822      -219.4005
  84   2.0000      -8.056114      -219.2180
  85   2.0000      -8.053724      -219.1530
  86   2.0000      -8.049210      -219.0301
  87   2.0000      -8.046011      -218.9431
  88   2.0000      -8.045532      -218.9300
  89   2.0000      -8.043267      -218.8684
  90   2.0000      -8.035383      -218.6539
  91   2.0000      -8.032298      -218.5699
  92   2.0000      -7.308778      -198.8820
  93   2.0000      -7.305120      -198.7824
  94   2.0000      -7.298675      -198.6071
  95   2.0000      -7.298439      -198.6006
  96   2.0000      -7.294996      -198.5069
  97   2.0000      -7.294878      -198.5037
  98   2.0000      -6.042539      -164.4258
  99   2.0000      -6.038591      -164.3184
 100   2.0000      -6.034442      -164.2055
 101   2.0000      -6.032328      -164.1480
 102   2.0000      -6.028029      -164.0310
 103   2.0000      -6.025364      -163.9585
 104   2.0000      -6.024532      -163.9358
 105   2.0000      -6.023524      -163.9084
 106   2.0000      -6.021279      -163.8473
 107   2.0000      -6.019243      -163.7919
 108   2.0000      -6.018444      -163.7702
 109   2.0000      -6.018251      -163.7649
 110   2.0000      -6.015604      -163.6929
 111   2.0000      -6.015516      -163.6905
 112   2.0000      -6.014881      -163.6732
 113   2.0000      -6.014317      -163.6579
 114   2.0000      -6.013013      -163.6224
 115   2.0000      -6.011536      -163.5822
 116   2.0000      -6.011361      -163.5774
 117   2.0000      -6.011214      -163.5734
 118   2.0000      -6.008470      -163.4988
 119   2.0000      -6.007585      -163.4747
 120   2.0000      -6.006373      -163.4417
 121   2.0000      -6.005077      -163.4064
 122   2.0000      -6.004656      -163.3950
 123   2.0000      -6.002176      -163.3275
 124   2.0000      -6.000935      -163.2938
 125   2.0000      -5.998348      -163.2233
 126   2.0000      -5.996667      -163.1776
 127   2.0000      -5.993056      -163.0793
 128   2.0000      -1.321755       -35.9668
 129   2.0000      -1.309956       -35.6457
 130   2.0000      -1.149749       -31.2863
 131   2.0000      -1.147460       -31.2240
 132   2.0000      -1.134542       -30.8725
 133   2.0000      -1.082988       -29.4696
 134   2.0000      -1.019717       -27.7479
 135   2.0000      -1.018497       -27.7147
 136   2.0000      -1.011218       -27.5166
 137   2.0000      -1.008177       -27.4339
 138   2.0000      -1.001397       -27.2494
 139   2.0000      -0.994389       -27.0587
 140   2.0000      -0.993165       -27.0254
 141   2.0000      -0.992561       -27.0089
 142   2.0000      -0.987438       -26.8696
 143   2.0000      -0.984689       -26.7947
 144   2.0000      -0.980069       -26.6690
 145   2.0000      -0.967879       -26.3373
 146   2.0000      -0.944799       -25.7093
 147   2.0000      -0.940943       -25.6044
 148   2.0000      -0.931230       -25.3401
 149   2.0000      -0.929409       -25.2905
 150   2.0000      -0.920643       -25.0520
 151   2.0000      -0.904820       -24.6214
 152   2.0000      -0.900906       -24.5149
 153   2.0000      -0.896982       -24.4081
 154   2.0000      -0.880986       -23.9728
 155   2.0000      -0.878040       -23.8927
 156   2.0000      -0.872238       -23.7348
 157   2.0000      -0.870358       -23.6837
 158   2.0000      -0.863458       -23.4959
 159   2.0000      -0.856286       -23.3007
 160   2.0000      -0.850766       -23.1505
 161   2.0000      -0.847443       -23.0601
 162   2.0000      -0.844810       -22.9885
 163   2.0000      -0.840868       -22.8812
 164   2.0000      -0.834820       -22.7166
 165   2.0000      -0.822991       -22.3947
 166   2.0000      -0.819921       -22.3112
 167   2.0000      -0.810255       -22.0482
 168   2.0000      -0.806198       -21.9378
 169   2.0000      -0.805743       -21.9254
 170   2.0000      -0.803620       -21.8676
 171   2.0000      -0.802366       -21.8335
 172   2.0000      -0.797591       -21.7035
 173   2.0000      -0.793228       -21.5848
 174   2.0000      -0.782313       -21.2878
 175   2.0000      -0.773469       -21.0472
 176   2.0000      -0.762800       -20.7568
 177   2.0000      -0.759377       -20.6637
 178   2.0000      -0.757597       -20.6153
 179   2.0000      -0.745879       -20.2964
 180   2.0000      -0.744079       -20.2474
 181   2.0000      -0.733606       -19.9624
 182   2.0000      -0.719772       -19.5860
 183   2.0000      -0.701924       -19.1003
 184   2.0000      -0.697101       -18.9691
 185   2.0000      -0.693433       -18.8693
 186   2.0000      -0.689569       -18.7641
 187   2.0000      -0.685559       -18.6550
 188   2.0000      -0.678066       -18.4511
 189   2.0000      -0.668700       -18.1963
 190   2.0000      -0.666203       -18.1283
 191   2.0000      -0.662684       -18.0325
 192   2.0000      -0.661561       -18.0020
 193   2.0000      -0.651353       -17.7242
 194   2.0000      -0.650981       -17.7141
 195   2.0000      -0.648460       -17.6455
 196   2.0000      -0.643169       -17.5015
 197   2.0000      -0.637515       -17.3477
 198   2.0000      -0.631998       -17.1975
 199   2.0000      -0.631016       -17.1708
 200   2.0000      -0.623470       -16.9655
 201   2.0000      -0.620651       -16.8888
 202   2.0000      -0.620201       -16.8765
 203   2.0000      -0.618544       -16.8314
 204   2.0000      -0.607121       -16.5206
 205   2.0000      -0.604577       -16.4514
 206   2.0000      -0.604362       -16.4455
 207   2.0000      -0.595598       -16.2070
 208   2.0000      -0.592634       -16.1264
 209   2.0000      -0.590550       -16.0697
 210   2.0000      -0.587810       -15.9951
 211   2.0000      -0.583525       -15.8785
 212   2.0000      -0.581877       -15.8337
 213   2.0000      -0.578559       -15.7434
 214   2.0000      -0.575787       -15.6680
 215   2.0000      -0.568611       -15.4727
 216   2.0000      -0.562648       -15.3104
 217   2.0000      -0.558625       -15.2010
 218   2.0000      -0.555293       -15.1103
 219   2.0000      -0.552892       -15.0450
 220   2.0000      -0.551661       -15.0115
 221   2.0000      -0.551434       -15.0053
 222   2.0000      -0.550025       -14.9669
 223   2.0000      -0.543384       -14.7862
 224   2.0000      -0.539938       -14.6925
 225   2.0000      -0.539752       -14.6874
 226   2.0000      -0.535955       -14.5841
 227   2.0000      -0.532659       -14.4944
 228   2.0000      -0.530219       -14.4280
 229   2.0000      -0.527901       -14.3649
 230   2.0000      -0.524392       -14.2694
 231   2.0000      -0.523287       -14.2394
 232   2.0000      -0.521141       -14.1810
 233   2.0000      -0.517699       -14.0873
 234   2.0000      -0.517273       -14.0757
 235   2.0000      -0.515881       -14.0378
 236   2.0000      -0.514274       -13.9941
 237   2.0000      -0.512699       -13.9512
 238   2.0000      -0.509585       -13.8665
 239   2.0000      -0.507440       -13.8081
 240   2.0000      -0.502343       -13.6695
 241   2.0000      -0.501037       -13.6339
 242   2.0000      -0.499671       -13.5967
 243   2.0000      -0.497941       -13.5497
 244   2.0000      -0.496072       -13.4988
 245   2.0000      -0.494825       -13.4649
 246   2.0000      -0.492871       -13.4117
 247   2.0000      -0.491843       -13.3837
 248   2.0000      -0.491313       -13.3693
 249   2.0000      -0.490463       -13.3462
 250   2.0000      -0.488721       -13.2988
 251   2.0000      -0.485759       -13.2182
 252   2.0000      -0.479286       -13.0420
 253   2.0000      -0.477455       -12.9922
 254   2.0000      -0.475169       -12.9300
 255   2.0000      -0.473235       -12.8774
 256   2.0000      -0.471621       -12.8334
 257   2.0000      -0.470497       -12.8029
 258   2.0000      -0.469926       -12.7873
 259   2.0000      -0.466966       -12.7068
 260   2.0000      -0.463265       -12.6061
 261   2.0000      -0.461795       -12.5661
 262   2.0000      -0.461030       -12.5453
 263   2.0000      -0.458886       -12.4869
 264   2.0000      -0.458549       -12.4778
 265   2.0000      -0.455756       -12.4017
 266   2.0000      -0.453378       -12.3371
 267   2.0000      -0.449970       -12.2443
 268   2.0000      -0.448512       -12.2046
 269   2.0000      -0.446036       -12.1373
 270   2.0000      -0.445813       -12.1312
 271   2.0000      -0.442776       -12.0486
 272   2.0000      -0.442246       -12.0341
 273   2.0000      -0.439660       -11.9638
 274   2.0000      -0.437066       -11.8932
 275   2.0000      -0.435477       -11.8499
 276   2.0000      -0.433234       -11.7889
 277   2.0000      -0.432380       -11.7657
 278   2.0000      -0.429898       -11.6981
 279   2.0000      -0.426887       -11.6162
 280   2.0000      -0.425948       -11.5906
 281   2.0000      -0.424191       -11.5428
 282   2.0000      -0.423100       -11.5131
 283   2.0000      -0.421288       -11.4638
 284   2.0000      -0.418777       -11.3955
 285   2.0000      -0.416185       -11.3250
 286   2.0000      -0.415587       -11.3087
 287   2.0000      -0.412555       -11.2262
 288   2.0000      -0.410243       -11.1633
 289   2.0000      -0.407034       -11.0759
 290   2.0000      -0.405372       -11.0307
 291   2.0000      -0.398638       -10.8475
 292   2.0000      -0.396694       -10.7946
 293   2.0000      -0.393641       -10.7115
 294   2.0000      -0.391967       -10.6660
 295   2.0000      -0.388617       -10.5748
 296   2.0000      -0.383430       -10.4337
 297   2.0000      -0.381930       -10.3929
 298   2.0000      -0.378458       -10.2984
 299   2.0000      -0.376818       -10.2537
 300   2.0000      -0.373619       -10.1667
 301   2.0000      -0.365215        -9.9380
 302   2.0000      -0.352295        -9.5864
 303   2.0000      -0.342312        -9.3148
 304   2.0000      -0.339755        -9.2452
 305   2.0000      -0.332664        -9.0523
 306   2.0000      -0.332105        -9.0370
 307   2.0000      -0.326260        -8.8780
 308   2.0000      -0.321322        -8.7436
 309   2.0000      -0.318463        -8.6658
 310   2.0000      -0.314835        -8.5671
 311   2.0000      -0.313908        -8.5419
 312   2.0000      -0.310624        -8.4525
 313   2.0000      -0.303784        -8.2664
 314   2.0000      -0.300452        -8.1757
 315   2.0000      -0.294952        -8.0261
 316   2.0000      -0.292027        -7.9465
 317   2.0000      -0.284722        -7.7477
 318   2.0000      -0.267196        -7.2708
 319   2.0000      -0.263271        -7.1640
 320   2.0000      -0.244484        -6.6528
 321   2.0000      -0.240626        -6.5478
 322   2.0000      -0.217378        -5.9152
 323   0.0000      -0.095563        -2.6004
 324   0.0000      -0.063548        -1.7292
 325   0.0000      -0.049828        -1.3559
 326   0.0000      -0.027845        -0.7577
 327   0.0000      -0.014282        -0.3886

MULLIKEN ATOMIC CHARGES
-----------------------
   0 C :    0.331828
   1 C :   -0.362909
   2 C :   -0.188051
   3 N :    0.150913
   4 C :   -0.185253
   5 N :    0.144988
   6 C :    0.013760
   7 C :   -0.012508
   8 C :   -0.070700
   9 C :    0.115427
  10 C :   -0.095098
  11 C :   -0.025717
  12 S :    0.141622
  13 C :   -0.048675
  14 C :    0.025797
  15 C :    0.160385
  16 O :   -0.164482
  17 C :   -0.076531
  18 C :   -0.037642
  19 C :   -0.022490
  20 C :   -0.071145
  21 C :    0.099469
  22 C :    0.167891
  23 C :   -0.218399
  24 C :    0.033451
  25 C :    0.086403
  26 C :   -0.265680
  27 S :    0.142989
  28 C :    0.122258
  29 Cl:   -0.088376
  30 C :   -0.145064
  31 C :    0.106649
  32 C :    0.121710
  33 C :   -0.126684
  34 S :    0.169354
  35 C :   -0.213873
  36 C :    0.037912
  37 C :    0.080223
  38 C :   -0.265053
  39 S :    0.158189
  40 C :    0.121360
  41 Cl:   -0.091586
  42 C :   -0.104698
  43 C :    0.007863
  44 S :    0.106686
  45 C :   -0.122064
  46 C :    0.199852
  47 F :   -0.167452
  48 C :    0.187648
  49 F :   -0.175367
  50 C :   -0.111247
  51 S :    0.173498
  52 C :    0.013162
  53 C :   -0.115526
  54 C :    0.058833
  55 C :   -0.121495
  56 S :    0.060383
  57 C :    0.106415
  58 O :   -0.311556
  59 C :    0.170536
  60 C :    0.069020
  61 C :   -0.111041
  62 C :    0.125953
  63 O :   -0.314199
  64 C :    0.187205
  65 S :    0.128932
  66 C :   -0.002475
  67 C :   -0.087401
  68 C :   -0.036151
  69 C :   -0.049104
  70 C :   -0.055036
  71 C :   -0.059828
  72 S :    0.127923
  73 C :    0.017651
  74 C :   -0.045281
  75 S :    0.127353
  76 C :   -0.090225
  77 C :    0.070310
  78 N :   -0.162632
  79 C :    0.120339
  80 H :   -0.011695
  81 H :   -0.006831
  82 H :    0.038431
  83 H :   -0.006728
  84 H :    0.007558
  85 H :    0.007215
  86 H :   -0.004664
  87 H :    0.032376
  88 H :    0.023938
  89 H :    0.049027
  90 H :   -0.012427
  91 H :    0.024896
  92 H :    0.027722
  93 H :    0.040981
  94 H :   -0.004432
  95 H :   -0.031457
  96 H :    0.037028
  97 H :    0.035716
  98 H :    0.035625
  99 H :    0.035601
 100 H :    0.035435
 101 H :    0.029870
 102 H :   -0.025827
 103 H :   -0.019017
 104 H :   -0.025283
 105 H :   -0.008403
 106 H :    0.036474
 107 H :    0.043534
 108 H :    0.041894
Sum of atomic charges:   -0.0000000

LOEWDIN ATOMIC CHARGES
----------------------
   0 C :    0.078441
   1 C :   -0.143378
   2 C :   -0.017751
   3 N :   -0.055083
   4 C :   -0.020779
   5 N :   -0.055340
   6 C :   -0.022333
   7 C :   -0.052967
   8 C :    0.023379
   9 C :   -0.034982
  10 C :   -0.145299
  11 C :   -0.008296
  12 S :    0.430647
  13 C :   -0.149115
  14 C :   -0.058027
  15 C :    0.083972
  16 O :   -0.155498
  17 C :   -0.102796
  18 C :    0.059944
  19 C :   -0.175486
  20 C :   -0.015976
  21 C :   -0.054510
  22 C :   -0.042763
  23 C :   -0.176822
  24 C :   -0.073911
  25 C :   -0.178378
  26 C :   -0.195826
  27 S :    0.457189
  28 C :   -0.059414
  29 Cl:    0.127745
  30 C :   -0.144025
  31 C :   -0.024151
  32 C :   -0.059818
  33 C :   -0.150433
  34 S :    0.463028
  35 C :   -0.176684
  36 C :   -0.067159
  37 C :   -0.179351
  38 C :   -0.198515
  39 S :    0.447205
  40 C :   -0.061122
  41 Cl:    0.125664
  42 C :   -0.054656
  43 C :   -0.161355
  44 S :    0.407919
  45 C :   -0.223177
  46 C :    0.034108
  47 F :   -0.042972
  48 C :    0.023496
  49 F :   -0.049932
  50 C :   -0.206022
  51 S :    0.455872
  52 C :   -0.186422
  53 C :   -0.047360
  54 C :   -0.078219
  55 C :   -0.181244
  56 S :    0.382905
  57 C :    0.023007
  58 O :   -0.104659
  59 C :    0.063739
  60 C :   -0.054512
  61 C :   -0.175510
  62 C :    0.028137
  63 O :   -0.106792
  64 C :    0.079641
  65 S :    0.404322
  66 C :   -0.163252
  67 C :   -0.054359
  68 C :   -0.187204
  69 C :   -0.055993
  70 C :   -0.196482
  71 C :   -0.213895
  72 S :    0.404551
  73 C :   -0.059195
  74 C :   -0.195924
  75 S :    0.381135
  76 C :   -0.097038
  77 C :   -0.007365
  78 N :    0.047978
  79 C :    0.036594
  80 H :    0.040253
  81 H :    0.040748
  82 H :    0.029485
  83 H :    0.035226
  84 H :    0.050401
  85 H :    0.023508
  86 H :    0.025723
  87 H :    0.037793
  88 H :    0.035749
  89 H :    0.044960
  90 H :    0.033287
  91 H :    0.033972
  92 H :    0.036836
  93 H :    0.040737
  94 H :    0.031607
  95 H :    0.024904
  96 H :    0.030616
  97 H :    0.011913
  98 H :    0.012438
  99 H :    0.030410
 100 H :    0.017355
 101 H :    0.018325
 102 H :    0.029142
 103 H :    0.032538
 104 H :    0.025923
 105 H :    0.018187
 106 H :    0.035255
 107 H :    0.030324
 108 H :    0.031290

  Mayer bond orders larger than 0.100000
B(  0-C ,  1-C ) :   1.6191 B(  0-C ,  6-C ) :   1.0022 B(  0-C , 17-C ) :   1.0746
B(  1-C ,  2-C ) :   1.1486 B(  1-C ,  4-C ) :   1.1473 B(  2-C ,  3-N ) :   2.9678
B(  4-C ,  5-N ) :   2.9578 B(  6-C ,  7-C ) :   1.2702 B(  6-C , 11-C ) :   1.4096
B(  7-C ,  8-C ) :   1.4211 B(  7-C , 15-C ) :   0.9591 B(  8-C ,  9-C ) :   1.2432
B(  8-C , 80-H ) :   1.0178 B(  9-C , 10-C ) :   1.3012 B(  9-C , 14-C ) :   1.1741
B( 10-C , 11-C ) :   1.3236 B( 10-C , 12-S ) :   1.1000 B( 11-C , 81-H ) :   0.9828
B( 12-S , 13-C ) :   1.1278 B( 13-C , 14-C ) :   1.6260 B( 13-C , 82-H ) :   0.9688
B( 14-C , 83-H ) :   0.9992 B( 15-C , 16-O ) :   2.1634 B( 15-C , 17-C ) :   0.9520
B( 17-C , 18-C ) :   1.5280 B( 18-C , 19-C ) :   1.2175 B( 18-C , 84-H ) :   0.9416
B( 19-C , 20-C ) :   1.4420 B( 19-C , 34-S ) :   1.0626 B( 20-C , 21-C ) :   1.2060
B( 20-C , 85-H ) :   0.9880 B( 21-C , 22-C ) :   1.2533 B( 21-C , 33-C ) :   1.2451
B( 22-C , 23-C ) :   1.0053 B( 22-C , 30-C ) :   1.4494 B( 23-C , 24-C ) :   1.5357
B( 23-C , 27-S ) :   1.1308 B( 24-C , 25-C ) :   1.2351 B( 24-C , 86-H ) :   0.9914
B( 25-C , 26-C ) :   1.5907 B( 25-C , 29-Cl) :   1.0235 B( 26-C , 27-S ) :   1.1391
B( 26-C , 28-C ) :   1.0871 B( 28-C , 87-H ) :   0.9469 B( 28-C , 88-H ) :   0.9447
B( 28-C , 89-H ) :   0.9491 B( 30-C , 31-C ) :   1.2487 B( 30-C , 44-S ) :   1.0523
B( 31-C , 32-C ) :   1.3258 B( 31-C , 42-C ) :   1.1671 B( 32-C , 33-C ) :   1.3899
B( 32-C , 35-C ) :   0.9807 B( 33-C , 34-S ) :   1.0441 B( 35-C , 36-C ) :   1.5434
B( 35-C , 39-S ) :   1.1423 B( 36-C , 37-C ) :   1.2222 B( 36-C , 90-H ) :   1.0074
B( 37-C , 38-C ) :   1.5969 B( 37-C , 41-Cl) :   1.0081 B( 38-C , 39-S ) :   1.1357
B( 38-C , 40-C ) :   1.0848 B( 40-C , 91-H ) :   0.9452 B( 40-C , 92-H ) :   0.9467
B( 40-C , 93-H ) :   0.9496 B( 42-C , 43-C ) :   1.5770 B( 42-C , 94-H ) :   0.9954
B( 43-C , 44-S ) :   1.0558 B( 43-C , 45-C ) :   1.1180 B( 45-C , 46-C ) :   1.4841
B( 45-C , 50-C ) :   0.1477 B( 45-C , 51-S ) :   1.0964 B( 46-C , 47-F ) :   1.1434
B( 46-C , 48-C ) :   1.2285 B( 48-C , 49-F ) :   1.1294 B( 48-C , 50-C ) :   1.4832
B( 50-C , 51-S ) :   1.1098 B( 50-C , 52-C ) :   1.1133 B( 52-C , 53-C ) :   1.6030
B( 52-C , 56-S ) :   1.0398 B( 53-C , 54-C ) :   1.1428 B( 53-C , 95-H ) :   0.9946
B( 54-C , 55-C ) :   1.2562 B( 54-C , 62-C ) :   1.2371 B( 55-C , 56-S ) :   1.0027
B( 55-C , 57-C ) :   1.4067 B( 57-C , 58-O ) :   1.2201 B( 57-C , 60-C ) :   1.2635
B( 58-O , 59-C ) :   0.9483 B( 59-C , 96-H ) :   0.9755 B( 59-C , 97-H ) :   0.9662
B( 59-C , 98-H ) :   0.9670 B( 60-C , 61-C ) :   1.3818 B( 60-C , 67-C ) :   1.1734
B( 61-C , 62-C ) :   1.3880 B( 61-C , 65-S ) :   1.0386 B( 62-C , 63-O ) :   1.2572
B( 63-O , 64-C ) :   0.9495 B( 64-C , 99-H ) :   0.9733 B( 64-C ,100-H ) :   0.9680
B( 64-C ,101-H ) :   0.9679 B( 65-S , 66-C ) :   1.0631 B( 66-C , 67-C ) :   1.5685
B( 66-C , 68-C ) :   1.1045 B( 67-C ,102-H ) :   1.0096 B( 68-C , 69-C ) :   1.5534
B( 68-C , 72-S ) :   1.0700 B( 69-C , 70-C ) :   1.2587 B( 69-C ,103-H ) :   1.0005
B( 70-C , 71-C ) :   1.4605 B( 70-C , 75-S ) :   1.0515 B( 71-C , 72-S ) :   1.0505
B( 71-C , 73-C ) :   1.2550 B( 73-C , 74-C ) :   1.4203 B( 73-C , 78-N ) :   1.2013
B( 74-C , 75-S ) :   1.0228 B( 74-C , 76-C ) :   1.3171 B( 76-C , 77-C ) :   1.4923
B( 76-C ,104-H ) :   1.0139 B( 77-C , 78-N ) :   1.1861 B( 77-C ,105-H ) :   0.9860
B( 78-N , 79-C ) :   0.9707 B( 79-C ,106-H ) :   0.9731 B( 79-C ,107-H ) :   0.9730
B( 79-C ,108-H ) :   0.9723

-----------------------------------------------------------------------------
         ABSORPTION SPECTRUM VIA TRANSITION ELECTRIC DIPOLE MOMENTS
-----------------------------------------------------------------------------
State   Energy  Wavelength   fosc         T2         TX        TY        TZ
        (cm-1)    (nm)                  (au**2)     (au)      (au)      (au)
-----------------------------------------------------------------------------
   0   16754.2    596.9   1.521477816  29.89630  -2.30230   4.65221   1.71832
   1   19033.5    525.4   0.252326874   4.36437   0.74565  -1.93678   0.23925
   2   22919.7    436.3   0.337003523   4.84062  -1.15904   1.53334   1.07057
   3   23500.8    425.5   1.433732228  20.08451  -1.58049   4.18188   0.31372
   4   24598.7    406.5   0.174722513   2.33837  -0.79755   0.52205   1.19572
   5   24913.9    401.4   0.087467777   1.15580  -0.56100   0.91139   0.10216
   6   26651.7    375.2   0.030485570   0.37657   0.34474  -0.31049  -0.40165
   7   27401.4    364.9   0.094701521   1.13778  -0.52115   0.56705   0.73800
   8   27726.0    360.7   0.219367012   2.60471  -0.55139   0.63577   1.37713
   9   28117.9    355.6   0.033298069   0.38986   0.28139  -0.44825  -0.33128
  10   28222.3    354.3   0.072630062   0.84723  -0.31467   0.85941  -0.09808
  11   28474.9    351.2   0.326078983   3.76996  -1.10041   1.26189   0.98320
  12   29407.3    340.1   0.015721685   0.17600  -0.02557   0.23553  -0.34623
  13   29852.1    335.0   0.086276723   0.95147   0.41275  -0.80736  -0.35956
  14   29966.6    333.7   0.008691741   0.09549   0.01452   0.28455  -0.11962
  15   30163.0    331.5   0.147121205   1.60574  -0.01940   0.89429  -0.89756
  16   30456.9    328.3   0.118139312   1.27698  -0.09301  -0.77678   0.81544
  17   31416.7    318.3   0.158979657   1.66593  -0.59439   1.01072   0.53952
  18   31551.1    316.9   0.018684356   0.19496   0.05032  -0.40001   0.18004
  19   31923.3    313.3   0.101856985   1.05041   0.42455  -0.57838  -0.73188
  20   32237.3    310.2   0.095902260   0.97937   0.16115   0.26376  -0.94012
  21   32814.1    304.7   0.017542189   0.17599  -0.10925   0.15899   0.37253
  22   32986.5    303.2   0.016271693   0.16239  -0.21221  -0.12682   0.31824
  23   33300.2    300.3   0.098354304   0.97235   0.52194  -0.81941  -0.16883
  24   33700.6    296.7   0.226610337   2.21370  -0.50257   0.41078   1.33880
  25   33982.2    294.3   0.306965682   2.97382   0.59993  -0.07853  -1.61485
  26   34769.4    287.6   0.007653236   0.07246   0.00977   0.21331  -0.16391
  27   34857.4    286.9   0.130252865   1.23018   0.42547   0.35743  -0.95989
  28   35039.6    285.4   0.048691004   0.45747   0.06215   0.23435  -0.63142
  29   35212.0    284.0   0.016211130   0.15156   0.21689  -0.31285   0.08155
  30   35733.8    279.8   0.221436338   2.04007  -0.63456   1.15106   0.55898
  31   35920.5    278.4   0.029528630   0.27063   0.18922  -0.43952  -0.20408
  32   36884.4    271.1   0.181521176   1.62017   0.23460   0.64854  -1.06983
  33   37076.7    269.7   0.039381289   0.34968   0.20781   0.06911  -0.54928
  34   37666.0    265.5   0.070668142   0.61766  -0.24872   0.73638   0.11639
  35   37780.8    264.7   0.006730990   0.05865  -0.04774  -0.16221   0.17338
  36   37917.2    263.7   0.059103298   0.51316   0.39731  -0.19000  -0.56498
  37   38338.3    260.8   0.138145931   1.18626  -0.55941   0.62775   0.69228
  38   38454.9    260.0   0.007778323   0.06659  -0.00755   0.15542  -0.20586
  39   38797.7    257.7   0.136866427   1.16136   0.01051   0.84014  -0.67485
  40   38930.5    256.9   0.135241900   1.14366  -0.22319  -0.55103   0.88894
  41   39073.7    255.9   0.068400016   0.57630  -0.12997   0.68766  -0.29415
  42   39473.6    253.3   0.046390136   0.38690  -0.30312  -0.12223   0.52922
  43   39477.4    253.3   0.059020310   0.49219  -0.33167   0.09078   0.61151
  44   39686.8    252.0   0.048022267   0.39836  -0.00008   0.56300  -0.28528
  45   39886.1    250.7   0.053641594   0.44275   0.03598   0.43018  -0.50636
  46   40137.9    249.1   0.033336181   0.27342   0.34720  -0.13162  -0.36818
  47   40312.5    248.1   0.016297608   0.13309  -0.21888  -0.00140   0.29186

FINAL SINGLE POINT ENERGY     -7790.652274371432

DIPOLE MOMENT
-------------
                                X             Y             Z
Electronic contribution:     16.73330     -42.73741     -15.01677
Nuclear contribution   :    -15.96812      44.21260      13.05739
                        -----------------------------------------
Total Dipole Moment    :      0.76518       1.47519      -1.95938
                        -----------------------------------------
Magnitude (a.u.)       :      2.56921
Magnitude (Debye)      :      6.53042

Rotational constants in cm-1:     0.001561     0.000142     0.000131
Rotational constants in MHz :    46.799145     4.263980     3.931075

                             ****ORCA TERMINATED NORMALLY****
TOTAL RUN TIME: 0 days 0 hours 16 minutes 50 seconds 440 msec
