                         Program Version 4.2.0 -  RELEASE  -
|  1> # ORCA input file
|  2> # SCF done       -180.982777849741          0.000955929408
|  3> ! CAM-B3LYP def2-SVP def2/J RIJCOSX Grid4 TightSCF
|  4> %maxcore 5000
|  5> %tddft
|  6>     Mode sTDDFT
|  7>     Ethresh 5.0
|  8>     maxcore 5000
|  9> end
| 10>
| 11> %pal
| 12>   nprocs 6
| 13>   end
| 14> * xyz 0 1
| 15>    C        1.40089         6.79530         2.49845
| 16>    C        0.29184         7.52180         2.16158
| 17>    C        0.24945         8.92789         2.10471
| 18>    N        0.11178        10.06775         2.08681
| 19>    C       -0.97067         6.93595         1.92621
| 20>    N       -2.00107         6.47753         1.71454
| 21>    C        2.70915         7.33197         2.82564
| 22>    C        3.38737         6.39938         3.66747
| 23>    C        4.64493         6.65150         4.13749
| 24>    C        5.30003         7.84107         3.74340
| 25>    C        4.64890         8.73941         2.84677
| 26>    C        3.33105         8.47542         2.40594
| 27>    C        5.33467         9.89553         2.41773
| 28>    C        6.59627        10.16646         2.87407
| 29>    C        7.22921         9.29362         3.77247
| 30>    C        6.59749         8.15471         4.19507
| 31>    C        2.55115         5.19919         3.83946
| 32>    O        2.73363         4.23816         4.54119
| 33>    C        1.43032         5.38356         2.85088
| 34>    C        0.77728         4.31617         2.34786
| 35>    C        0.01618         4.29958         1.12290
| 36>    C       -1.05639         3.50301         0.91363
| 37>    C       -1.88367         3.52843        -0.25265
| 38>    C       -2.93888         2.63775        -0.36751
| 39>    C       -3.80561         2.63828        -1.47525
| 40>    N       -4.51546         2.64313        -2.37731
| 41>    C       -3.20407         1.66101         0.60885
| 42>    N       -3.41671         0.85997         1.40321
| 43>    C       -1.67259         4.51866        -1.26709
| 44>    C       -0.63029         5.37519        -1.30453
| 45>    S        0.66108         5.35631        -0.12413
| 46>    C       -0.46494         6.43198        -2.29216
| 47>    C       -0.84420         6.32605        -3.58306
| 48>    C       -0.69893         7.35441        -4.56817
| 49>    C       -1.11358         7.12662        -5.86971
| 50>    C       -1.01572         8.11017        -6.87045
| 51>    N       -0.94425         8.91682        -7.68402
| 52>    C       -1.65489         5.89495        -6.27998
| 53>    N       -2.08633         4.88512        -6.61433
| 54>    C       -0.13843         8.62213        -4.21011
| 55>    C        0.32389         8.95777        -2.98597
| 56>    S        0.30096         7.86299        -1.61783
| 57>    C        0.83799        10.28393        -2.66720
| 58>    C        1.51793        11.04187        -3.55789
| 59>    C        1.97371        12.37527        -3.31536
| 60>    C        2.76598        13.02136        -4.25093
| 61>    C        3.22750        14.33476        -4.05781
| 62>    N        3.61004        15.40530        -3.89662
| 63>    C        3.18885        12.39433        -5.43578
| 64>    N        3.54264        11.87245        -6.39543
| 65>    C        1.56356        13.05612        -2.12587
| 66>    C        0.94022        12.48195        -1.07488
| 67>    S        0.49060        10.79070        -1.02531
| 68>    C        0.47417        13.24936         0.06960
| 69>    C        0.72555        12.95539         1.35822
| 70>    C        0.16653        13.59559         2.54543
| 71>    C       -0.86616        14.48953         2.56787
| 72>    C       -1.39094        15.06632         3.74619
| 73>    N       -1.85362        15.57626         4.66358
| 74>    C       -1.56053        14.95283         1.42854
| 75>    N       -2.17103        15.35921         0.54589
| 76>    C        0.86214        13.05430         3.70165
| 77>    C        1.82196        12.09546         3.26231
| 78>    C        1.77366        11.98450         1.79849
| 79>    O        2.50349        11.34231         1.07182
| 80>    C        2.62226        11.43213         4.14869
| 81>    C        2.49014        11.68606         5.53025
| 82>    C        1.53100        12.64039         5.97655
| 83>    C        0.72359        13.32218         5.03966
| 84>    C        1.41019        12.88527         7.36005
| 85>    C        2.19714        12.21768         8.25856
| 86>    C        3.14082        11.27693         7.81720
| 87>    C        3.28498        11.01635         6.48153
| 88>    H        5.14275         5.94707         4.78693
| 89>    H        2.85661         9.17149         1.72948
| 90>    H        4.83558        10.56089         1.72834
| 91>    H        7.11370        11.05453         2.54434
| 92>    H        8.22360         9.52434         4.12347
| 93>    H        7.08589         7.47569         4.87830
| 94>    H        0.89423         3.37338         2.87042
| 95>    H       -1.36304         2.84614         1.71773
| 96>    H       -2.43686         4.60438        -2.02835
| 97>    H       -1.28127         5.39314        -3.91472
| 98>    H       -0.10962         9.37166        -4.99018
| 99>    H        1.74589        10.62074        -4.52845
|100>    H        1.80112        14.11052        -2.05908
|101>    H       -0.13778        14.10609        -0.18478
|102>    H        3.35290        10.71629         3.80910
|103>    H        0.01211        14.04557         5.40491
|104>    H        0.68265        13.60928         7.69575
|105>    H        2.09740        12.41040         9.31596
|106>    H        3.75262        10.76058         8.54146
|107>    H        4.01015        10.29424         6.13327
|108> *
|109>
|110>                          ****END OF INPUT****

CARTESIAN COORDINATES (ANGSTROEM)
---------------------------------
  C      1.400890    6.795300    2.498450
  C      0.291840    7.521800    2.161580
  C      0.249450    8.927890    2.104710
  N      0.111780   10.067750    2.086810
  C     -0.970670    6.935950    1.926210
  N     -2.001070    6.477530    1.714540
  C      2.709150    7.331970    2.825640
  C      3.387370    6.399380    3.667470
  C      4.644930    6.651500    4.137490
  C      5.300030    7.841070    3.743400
  C      4.648900    8.739410    2.846770
  C      3.331050    8.475420    2.405940
  C      5.334670    9.895530    2.417730
  C      6.596270   10.166460    2.874070
  C      7.229210    9.293620    3.772470
  C      6.597490    8.154710    4.195070
  C      2.551150    5.199190    3.839460
  O      2.733630    4.238160    4.541190
  C      1.430320    5.383560    2.850880
  C      0.777280    4.316170    2.347860
  C      0.016180    4.299580    1.122900
  C     -1.056390    3.503010    0.913630
  C     -1.883670    3.528430   -0.252650
  C     -2.938880    2.637750   -0.367510
  C     -3.805610    2.638280   -1.475250
  N     -4.515460    2.643130   -2.377310
  C     -3.204070    1.661010    0.608850
  N     -3.416710    0.859970    1.403210
  C     -1.672590    4.518660   -1.267090
  C     -0.630290    5.375190   -1.304530
  S      0.661080    5.356310   -0.124130
  C     -0.464940    6.431980   -2.292160
  C     -0.844200    6.326050   -3.583060
  C     -0.698930    7.354410   -4.568170
  C     -1.113580    7.126620   -5.869710
  C     -1.015720    8.110170   -6.870450
  N     -0.944250    8.916820   -7.684020
  C     -1.654890    5.894950   -6.279980
  N     -2.086330    4.885120   -6.614330
  C     -0.138430    8.622130   -4.210110
  C      0.323890    8.957770   -2.985970
  S      0.300960    7.862990   -1.617830
  C      0.837990   10.283930   -2.667200
  C      1.517930   11.041870   -3.557890
  C      1.973710   12.375270   -3.315360
  C      2.765980   13.021360   -4.250930
  C      3.227500   14.334760   -4.057810
  N      3.610040   15.405300   -3.896620
  C      3.188850   12.394330   -5.435780
  N      3.542640   11.872450   -6.395430
  C      1.563560   13.056120   -2.125870
  C      0.940220   12.481950   -1.074880
  S      0.490600   10.790700   -1.025310
  C      0.474170   13.249360    0.069600
  C      0.725550   12.955390    1.358220
  C      0.166530   13.595590    2.545430
  C     -0.866160   14.489530    2.567870
  C     -1.390940   15.066320    3.746190
  N     -1.853620   15.576260    4.663580
  C     -1.560530   14.952830    1.428540
  N     -2.171030   15.359210    0.545890
  C      0.862140   13.054300    3.701650
  C      1.821960   12.095460    3.262310
  C      1.773660   11.984500    1.798490
  O      2.503490   11.342310    1.071820
  C      2.622260   11.432130    4.148690
  C      2.490140   11.686060    5.530250
  C      1.531000   12.640390    5.976550
  C      0.723590   13.322180    5.039660
  C      1.410190   12.885270    7.360050
  C      2.197140   12.217680    8.258560
  C      3.140820   11.276930    7.817200
  C      3.284980   11.016350    6.481530
  H      5.142750    5.947070    4.786930
  H      2.856610    9.171490    1.729480
  H      4.835580   10.560890    1.728340
  H      7.113700   11.054530    2.544340
  H      8.223600    9.524340    4.123470
  H      7.085890    7.475690    4.878300
  H      0.894230    3.373380    2.870420
  H     -1.363040    2.846140    1.717730
  H     -2.436860    4.604380   -2.028350
  H     -1.281270    5.393140   -3.914720
  H     -0.109620    9.371660   -4.990180
  H      1.745890   10.620740   -4.528450
  H      1.801120   14.110520   -2.059080
  H     -0.137780   14.106090   -0.184780
  H      3.352900   10.716290    3.809100
  H      0.012110   14.045570    5.404910
  H      0.682650   13.609280    7.695750
  H      2.097400   12.410400    9.315960
  H      3.752620   10.760580    8.541460
  H      4.010150   10.294240    6.133270

 Total Charge           Charge          ....    0
 Multiplicity           Mult            ....    1
 Number of Electrons    NEL             ....  502
 Basis Dimension        Dim             .... 1134

ORBITAL ENERGIES
----------------

  NO   OCC          E(Eh)            E(eV)
   0   2.0000     -89.017299     -2422.2838
   1   2.0000     -89.010592     -2422.1014
   2   2.0000     -89.004549     -2421.9369
   3   2.0000     -19.250806      -523.8411
   4   2.0000     -19.248003      -523.7648
   5   2.0000     -14.455778      -393.3617
   6   2.0000     -14.448988      -393.1770
   7   2.0000     -14.438665      -392.8960
   8   2.0000     -14.436765      -392.8443
   9   2.0000     -14.424186      -392.5021
  10   2.0000     -14.423058      -392.4714
  11   2.0000     -14.421345      -392.4248
  12   2.0000     -14.421241      -392.4219
  13   2.0000     -14.416612      -392.2959
  14   2.0000     -14.416088      -392.2817
  15   2.0000     -10.402867      -283.0764
  16   2.0000     -10.400757      -283.0190
  17   2.0000     -10.382107      -282.5115
  18   2.0000     -10.380645      -282.4717
  19   2.0000     -10.380211      -282.4599
  20   2.0000     -10.378916      -282.4247
  21   2.0000     -10.377546      -282.3874
  22   2.0000     -10.374853      -282.3141
  23   2.0000     -10.374811      -282.3130
  24   2.0000     -10.369380      -282.1652
  25   2.0000     -10.369374      -282.1650
  26   2.0000     -10.363836      -282.0143
  27   2.0000     -10.361736      -281.9572
  28   2.0000     -10.361341      -281.9464
  29   2.0000     -10.359755      -281.9033
  30   2.0000     -10.357246      -281.8350
  31   2.0000     -10.355065      -281.7757
  32   2.0000     -10.354580      -281.7624
  33   2.0000     -10.351962      -281.6912
  34   2.0000     -10.349907      -281.6353
  35   2.0000     -10.348535      -281.5980
  36   2.0000     -10.344954      -281.5005
  37   2.0000     -10.343889      -281.4715
  38   2.0000     -10.341608      -281.4095
  39   2.0000     -10.340800      -281.3875
  40   2.0000     -10.340129      -281.3692
  41   2.0000     -10.339820      -281.3608
  42   2.0000     -10.339511      -281.3524
  43   2.0000     -10.338037      -281.3123
  44   2.0000     -10.335715      -281.2491
  45   2.0000     -10.333950      -281.2011
  46   2.0000     -10.333905      -281.1999
  47   2.0000     -10.330304      -281.1019
  48   2.0000     -10.327734      -281.0319
  49   2.0000     -10.326298      -280.9929
  50   2.0000     -10.325744      -280.9778
  51   2.0000     -10.325208      -280.9632
  52   2.0000     -10.324785      -280.9517
  53   2.0000     -10.323945      -280.9288
  54   2.0000     -10.323647      -280.9207
  55   2.0000     -10.322305      -280.8842
  56   2.0000     -10.322202      -280.8814
  57   2.0000     -10.321424      -280.8602
  58   2.0000     -10.318555      -280.7822
  59   2.0000     -10.317797      -280.7615
  60   2.0000     -10.317026      -280.7406
  61   2.0000     -10.316829      -280.7352
  62   2.0000     -10.316589      -280.7287
  63   2.0000     -10.315827      -280.7079
  64   2.0000     -10.312226      -280.6099
  65   2.0000     -10.311482      -280.5897
  66   2.0000     -10.311360      -280.5864
  67   2.0000     -10.310173      -280.5541
  68   2.0000     -10.307714      -280.4871
  69   2.0000     -10.305031      -280.4142
  70   2.0000     -10.304524      -280.4003
  71   2.0000     -10.303627      -280.3759
  72   2.0000     -10.303103      -280.3617
  73   2.0000      -8.112427      -220.7504
  74   2.0000      -8.105841      -220.5711
  75   2.0000      -8.099702      -220.4041
  76   2.0000      -6.082306      -165.5080
  77   2.0000      -6.077691      -165.3824
  78   2.0000      -6.075739      -165.3293
  79   2.0000      -6.073599      -165.2710
  80   2.0000      -6.071159      -165.2046
  81   2.0000      -6.069518      -165.1600
  82   2.0000      -6.066912      -165.0891
  83   2.0000      -6.064946      -165.0356
  84   2.0000      -6.060821      -164.9233
  85   2.0000      -1.167257       -31.7627
  86   2.0000      -1.163590       -31.6629
  87   2.0000      -1.058157       -28.7939
  88   2.0000      -1.050933       -28.5973
  89   2.0000      -1.041742       -28.3472
  90   2.0000      -1.038134       -28.2491
  91   2.0000      -1.032863       -28.1056
  92   2.0000      -1.029166       -28.0050
  93   2.0000      -1.026500       -27.9325
  94   2.0000      -1.020179       -27.7605
  95   2.0000      -1.018236       -27.7076
  96   2.0000      -1.015558       -27.6348
  97   2.0000      -1.013261       -27.5722
  98   2.0000      -1.006451       -27.3869
  99   2.0000      -1.001392       -27.2493
 100   2.0000      -1.000717       -27.2309
 101   2.0000      -0.999262       -27.1913
 102   2.0000      -0.994714       -27.0675
 103   2.0000      -0.992581       -27.0095
 104   2.0000      -0.972882       -26.4735
 105   2.0000      -0.965186       -26.2640
 106   2.0000      -0.964402       -26.2427
 107   2.0000      -0.957334       -26.0504
 108   2.0000      -0.951906       -25.9027
 109   2.0000      -0.942908       -25.6578
 110   2.0000      -0.932074       -25.3630
 111   2.0000      -0.923436       -25.1280
 112   2.0000      -0.915038       -24.8995
 113   2.0000      -0.910222       -24.7684
 114   2.0000      -0.901193       -24.5227
 115   2.0000      -0.898616       -24.4526
 116   2.0000      -0.885155       -24.0863
 117   2.0000      -0.883137       -24.0314
 118   2.0000      -0.875418       -23.8213
 119   2.0000      -0.872596       -23.7445
 120   2.0000      -0.865078       -23.5400
 121   2.0000      -0.856649       -23.3106
 122   2.0000      -0.848405       -23.0863
 123   2.0000      -0.829922       -22.5833
 124   2.0000      -0.821336       -22.3497
 125   2.0000      -0.803116       -21.8539
 126   2.0000      -0.800322       -21.7779
 127   2.0000      -0.794034       -21.6068
 128   2.0000      -0.785501       -21.3746
 129   2.0000      -0.774888       -21.0858
 130   2.0000      -0.766143       -20.8478
 131   2.0000      -0.750623       -20.4255
 132   2.0000      -0.742564       -20.2062
 133   2.0000      -0.738339       -20.0912
 134   2.0000      -0.729449       -19.8493
 135   2.0000      -0.725878       -19.7522
 136   2.0000      -0.721680       -19.6379
 137   2.0000      -0.715688       -19.4749
 138   2.0000      -0.712868       -19.3981
 139   2.0000      -0.709089       -19.2953
 140   2.0000      -0.697775       -18.9874
 141   2.0000      -0.696267       -18.9464
 142   2.0000      -0.689112       -18.7517
 143   2.0000      -0.676328       -18.4038
 144   2.0000      -0.668833       -18.1999
 145   2.0000      -0.666691       -18.1416
 146   2.0000      -0.660646       -17.9771
 147   2.0000      -0.651802       -17.7364
 148   2.0000      -0.646944       -17.6042
 149   2.0000      -0.639358       -17.3978
 150   2.0000      -0.636708       -17.3257
 151   2.0000      -0.634449       -17.2642
 152   2.0000      -0.629009       -17.1162
 153   2.0000      -0.626525       -17.0486
 154   2.0000      -0.622717       -16.9450
 155   2.0000      -0.616670       -16.7804
 156   2.0000      -0.612204       -16.6589
 157   2.0000      -0.603820       -16.4308
 158   2.0000      -0.599812       -16.3217
 159   2.0000      -0.593020       -16.1369
 160   2.0000      -0.589053       -16.0289
 161   2.0000      -0.584070       -15.8934
 162   2.0000      -0.581630       -15.8269
 163   2.0000      -0.578054       -15.7297
 164   2.0000      -0.576311       -15.6822
 165   2.0000      -0.573394       -15.6028
 166   2.0000      -0.572450       -15.5772
 167   2.0000      -0.569733       -15.5032
 168   2.0000      -0.567859       -15.4522
 169   2.0000      -0.566194       -15.4069
 170   2.0000      -0.562444       -15.3049
 171   2.0000      -0.558905       -15.2086
 172   2.0000      -0.555453       -15.1146
 173   2.0000      -0.550266       -14.9735
 174   2.0000      -0.548498       -14.9254
 175   2.0000      -0.546027       -14.8581
 176   2.0000      -0.542548       -14.7635
 177   2.0000      -0.537984       -14.6393
 178   2.0000      -0.535421       -14.5695
 179   2.0000      -0.534688       -14.5496
 180   2.0000      -0.532393       -14.4871
 181   2.0000      -0.530232       -14.4283
 182   2.0000      -0.528531       -14.3821
 183   2.0000      -0.526485       -14.3264
 184   2.0000      -0.523162       -14.2360
 185   2.0000      -0.520267       -14.1572
 186   2.0000      -0.513871       -13.9831
 187   2.0000      -0.510829       -13.9004
 188   2.0000      -0.504856       -13.7378
 189   2.0000      -0.500285       -13.6135
 190   2.0000      -0.495516       -13.4837
 191   2.0000      -0.494091       -13.4449
 192   2.0000      -0.492610       -13.4046
 193   2.0000      -0.490779       -13.3548
 194   2.0000      -0.489272       -13.3138
 195   2.0000      -0.483679       -13.1616
 196   2.0000      -0.483027       -13.1438
 197   2.0000      -0.479430       -13.0459
 198   2.0000      -0.475528       -12.9398
 199   2.0000      -0.473618       -12.8878
 200   2.0000      -0.468841       -12.7578
 201   2.0000      -0.467268       -12.7150
 202   2.0000      -0.464670       -12.6443
 203   2.0000      -0.463733       -12.6188
 204   2.0000      -0.463092       -12.6014
 205   2.0000      -0.460223       -12.5233
 206   2.0000      -0.459363       -12.4999
 207   2.0000      -0.456897       -12.4328
 208   2.0000      -0.454354       -12.3636
 209   2.0000      -0.453607       -12.3433
 210   2.0000      -0.452585       -12.3155
 211   2.0000      -0.452073       -12.3015
 212   2.0000      -0.450503       -12.2588
 213   2.0000      -0.449523       -12.2322
 214   2.0000      -0.448362       -12.2006
 215   2.0000      -0.448201       -12.1962
 216   2.0000      -0.447219       -12.1695
 217   2.0000      -0.444938       -12.1074
 218   2.0000      -0.444138       -12.0856
 219   2.0000      -0.441118       -12.0034
 220   2.0000      -0.440590       -11.9891
 221   2.0000      -0.438134       -11.9222
 222   2.0000      -0.435940       -11.8625
 223   2.0000      -0.434876       -11.8336
 224   2.0000      -0.432724       -11.7750
 225   2.0000      -0.432153       -11.7595
 226   2.0000      -0.431437       -11.7400
 227   2.0000      -0.428939       -11.6720
 228   2.0000      -0.428333       -11.6555
 229   2.0000      -0.423132       -11.5140
 230   2.0000      -0.421478       -11.4690
 231   2.0000      -0.419525       -11.4159
 232   2.0000      -0.416147       -11.3239
 233   2.0000      -0.414667       -11.2837
 234   2.0000      -0.412891       -11.2353
 235   2.0000      -0.407873       -11.0988
 236   2.0000      -0.404002       -10.9935
 237   2.0000      -0.398313       -10.8386
 238   2.0000      -0.394991       -10.7482
 239   2.0000      -0.383182       -10.4269
 240   2.0000      -0.372332       -10.1317
 241   2.0000      -0.367127        -9.9900
 242   2.0000      -0.358234        -9.7480
 243   2.0000      -0.352549        -9.5933
 244   2.0000      -0.345449        -9.4002
 245   2.0000      -0.335461        -9.1283
 246   2.0000      -0.323613        -8.8060
 247   2.0000      -0.312624        -8.5069
 248   2.0000      -0.307209        -8.3596
 249   2.0000      -0.298517        -8.1230
 250   2.0000      -0.292464        -7.9583
 251   0.0000      -0.134022        -3.6469
 252   0.0000      -0.119848        -3.2612
 253   0.0000      -0.110242        -2.9998
 254   0.0000      -0.097462        -2.6521
 255   0.0000      -0.087100        -2.3701

MULLIKEN ATOMIC CHARGES
-----------------------
   0 C :    0.231488
   1 C :   -0.305122
   2 C :   -0.123112
   3 N :    0.130256
   4 C :   -0.191087
   5 N :    0.180448
   6 C :    0.051324
   7 C :    0.018982
   8 C :   -0.079943
   9 C :    0.088208
  10 C :    0.053343
  11 C :   -0.085135
  12 C :   -0.000054
  13 C :    0.042582
  14 C :    0.040709
  15 C :   -0.018884
  16 C :    0.145983
  17 O :   -0.116946
  18 C :   -0.123783
  19 C :    0.068157
  20 C :   -0.089374
  21 C :   -0.001848
  22 C :    0.244580
  23 C :   -0.313919
  24 C :   -0.169737
  25 N :    0.158666
  26 C :   -0.166139
  27 N :    0.149390
  28 C :   -0.032554
  29 C :   -0.028737
  30 S :    0.135171
  31 C :   -0.009303
  32 C :   -0.050253
  33 C :    0.233737
  34 C :   -0.323027
  35 C :   -0.166957
  36 N :    0.156503
  37 C :   -0.168839
  38 N :    0.157151
  39 C :   -0.058059
  40 C :   -0.007634
  41 S :    0.136392
  42 C :   -0.026867
  43 C :   -0.066374
  44 C :    0.243022
  45 C :   -0.324239
  46 C :   -0.170120
  47 N :    0.145070
  48 C :   -0.171727
  49 N :    0.148184
  50 C :   -0.034267
  51 C :   -0.039404
  52 S :    0.194748
  53 C :   -0.037147
  54 C :   -0.032773
  55 C :    0.313636
  56 C :   -0.323856
  57 C :   -0.181003
  58 N :    0.167788
  59 C :   -0.201595
  60 N :    0.172628
  61 C :    0.047415
  62 C :    0.037768
  63 C :    0.174377
  64 O :   -0.170748
  65 C :   -0.052005
  66 C :    0.108761
  67 C :    0.086316
  68 C :   -0.075346
  69 C :   -0.014381
  70 C :    0.038429
  71 C :    0.040384
  72 C :   -0.023482
  73 H :   -0.003246
  74 H :   -0.002567
  75 H :    0.001509
  76 H :    0.004718
  77 H :    0.003651
  78 H :   -0.010505
  79 H :    0.050345
  80 H :    0.036710
  81 H :    0.042280
  82 H :    0.041052
  83 H :    0.042204
  84 H :    0.038413
  85 H :    0.033937
  86 H :    0.064289
  87 H :   -0.080430
  88 H :   -0.006689
  89 H :   -0.003823
  90 H :    0.001780
  91 H :   -0.001481
  92 H :   -0.017963
Sum of atomic charges:   -0.0000000

LOEWDIN ATOMIC CHARGES
----------------------
   0 C :    0.059652
   1 C :   -0.134367
   2 C :    0.006868
   3 N :   -0.047538
   4 C :   -0.031907
   5 N :   -0.037554
   6 C :   -0.027782
   7 C :   -0.059816
   8 C :    0.038675
   9 C :   -0.009833
  10 C :   -0.011795
  11 C :    0.019153
  12 C :   -0.007643
  13 C :   -0.005910
  14 C :   -0.005579
  15 C :   -0.009432
  16 C :    0.087882
  17 O :   -0.117716
  18 C :   -0.058575
  19 C :    0.038727
  20 C :   -0.136170
  21 C :    0.006605
  22 C :    0.043273
  23 C :   -0.129388
  24 C :   -0.031243
  25 N :   -0.034504
  26 C :   -0.028737
  27 N :   -0.041384
  28 C :   -0.007608
  29 C :   -0.146286
  30 S :    0.446342
  31 C :   -0.144771
  32 C :   -0.010744
  33 C :    0.038178
  34 C :   -0.137779
  35 C :   -0.031764
  36 N :   -0.037992
  37 C :   -0.032099
  38 N :   -0.037834
  39 C :   -0.012359
  40 C :   -0.145046
  41 S :    0.424958
  42 C :   -0.150520
  43 C :   -0.018585
  44 C :    0.042738
  45 C :   -0.148329
  46 C :   -0.030068
  47 N :   -0.050779
  48 C :   -0.031774
  49 N :   -0.046911
  50 C :   -0.016482
  51 C :   -0.122781
  52 S :    0.470821
  53 C :    0.038673
  54 C :   -0.047342
  55 C :    0.074992
  56 C :   -0.115897
  57 C :   -0.016747
  58 N :   -0.034735
  59 C :   -0.022049
  60 N :   -0.032722
  61 C :   -0.021547
  62 C :   -0.053843
  63 C :    0.090897
  64 O :   -0.156812
  65 C :    0.030492
  66 C :   -0.005470
  67 C :   -0.004033
  68 C :    0.024787
  69 C :   -0.002368
  70 C :   -0.008057
  71 C :   -0.007845
  72 C :   -0.010167
  73 H :    0.042905
  74 H :    0.036938
  75 H :    0.036580
  76 H :    0.037473
  77 H :    0.036560
  78 H :    0.034484
  79 H :    0.059017
  80 H :    0.055439
  81 H :    0.054504
  82 H :    0.055039
  83 H :    0.054282
  84 H :    0.052148
  85 H :    0.053447
  86 H :    0.057902
  87 H :    0.036420
  88 H :    0.040554
  89 H :    0.036951
  90 H :    0.035895
  91 H :    0.034564
  92 H :    0.032204

  Mayer bond orders larger than 0.100000
B(  0-C ,  1-C ) :   1.6727 B(  0-C ,  6-C ) :   0.9978 B(  0-C , 18-C ) :   1.0122
B(  1-C ,  2-C ) :   1.1625 B(  1-C ,  4-C ) :   1.1454 B(  2-C ,  3-N ) :   2.9021
B(  4-C ,  5-N ) :   3.0029 B(  6-C ,  7-C ) :   1.2014 B(  6-C , 11-C ) :   1.4374
B(  7-C ,  8-C ) :   1.4661 B(  7-C , 16-C ) :   0.9190 B(  8-C ,  9-C ) :   1.1905
B(  8-C , 73-H ) :   1.0166 B(  9-C , 10-C ) :   1.2561 B(  9-C , 15-C ) :   1.2450
B( 10-C , 11-C ) :   1.2094 B( 10-C , 12-C ) :   1.2350 B( 11-C , 74-H ) :   0.9959
B( 12-C , 13-C ) :   1.4805 B( 12-C , 75-H ) :   0.9876 B( 13-C , 14-C ) :   1.2556
B( 13-C , 76-H ) :   0.9927 B( 14-C , 15-C ) :   1.4864 B( 14-C , 77-H ) :   0.9893
B( 15-C , 78-H ) :   0.9977 B( 16-C , 17-O ) :   2.2984 B( 16-C , 18-C ) :   0.9032
B( 18-C , 19-C ) :   1.7544 B( 19-C , 20-C ) :   1.0320 B( 19-C , 79-H ) :   0.9517
B( 20-C , 21-C ) :   1.6244 B( 20-C , 30-S ) :   1.0517 B( 21-C , 22-C ) :   1.1003
B( 21-C , 80-H ) :   0.9750 B( 22-C , 23-C ) :   1.5710 B( 22-C , 28-C ) :   1.1114
B( 23-C , 24-C ) :   1.1239 B( 23-C , 26-C ) :   1.1281 B( 24-C , 25-N ) :   3.0049
B( 26-C , 27-N ) :   3.0019 B( 28-C , 29-C ) :   1.6878 B( 28-C , 81-H ) :   0.9642
B( 29-C , 30-S ) :   1.0482 B( 29-C , 31-C ) :   0.9974 B( 31-C , 32-C ) :   1.6736
B( 31-C , 41-S ) :   1.0481 B( 32-C , 33-C ) :   1.1129 B( 32-C , 82-H ) :   0.9652
B( 33-C , 34-C ) :   1.5714 B( 33-C , 39-C ) :   1.1118 B( 34-C , 35-C ) :   1.1238
B( 34-C , 37-C ) :   1.1254 B( 35-C , 36-N ) :   3.0033 B( 37-C , 38-N ) :   3.0032
B( 39-C , 40-C ) :   1.6800 B( 39-C , 83-H ) :   0.9634 B( 40-C , 41-S ) :   1.0455
B( 40-C , 42-C ) :   1.0008 B( 42-C , 43-C ) :   1.6552 B( 42-C , 52-S ) :   1.0702
B( 43-C , 44-C ) :   1.1234 B( 43-C , 84-H ) :   0.9664 B( 44-C , 45-C ) :   1.5636
B( 44-C , 50-C ) :   1.1026 B( 45-C , 46-C ) :   1.1299 B( 45-C , 48-C ) :   1.1272
B( 46-C , 47-N ) :   3.0041 B( 48-C , 49-N ) :   3.0032 B( 50-C , 51-C ) :   1.6465
B( 50-C , 85-H ) :   0.9710 B( 51-C , 52-S ) :   1.0726 B( 51-C , 53-C ) :   0.9968
B( 53-C , 54-C ) :   1.7863 B( 53-C , 86-H ) :   0.9340 B( 54-C , 55-C ) :   1.0219
B( 54-C , 63-C ) :   0.9368 B( 55-C , 56-C ) :   1.6742 B( 55-C , 61-C ) :   1.0094
B( 56-C , 57-C ) :   1.1386 B( 56-C , 59-C ) :   1.1394 B( 57-C , 58-N ) :   2.9690
B( 59-C , 60-N ) :   2.9770 B( 61-C , 62-C ) :   1.2059 B( 61-C , 68-C ) :   1.4372
B( 62-C , 63-C ) :   0.9460 B( 62-C , 65-C ) :   1.4608 B( 63-C , 64-O ) :   2.1023
B( 65-C , 66-C ) :   1.2154 B( 65-C , 87-H ) :   1.0118 B( 66-C , 67-C ) :   1.2408
B( 66-C , 72-C ) :   1.2383 B( 67-C , 68-C ) :   1.2108 B( 67-C , 69-C ) :   1.2373
B( 68-C , 88-H ) :   0.9892 B( 69-C , 70-C ) :   1.4912 B( 69-C , 89-H ) :   0.9978
B( 70-C , 71-C ) :   1.2574 B( 70-C , 90-H ) :   0.9888 B( 71-C , 72-C ) :   1.4911
B( 71-C , 91-H ) :   0.9886 B( 72-C , 92-H ) :   0.9971

-----------------------------------------------------------------------------
         ABSORPTION SPECTRUM VIA TRANSITION ELECTRIC DIPOLE MOMENTS
-----------------------------------------------------------------------------
State   Energy  Wavelength   fosc         T2         TX        TY        TZ
        (cm-1)    (nm)                  (au**2)     (au)      (au)      (au)
-----------------------------------------------------------------------------
   0   19708.6    507.4   0.261916719   4.37505  -1.53034  -1.41969  -0.13266
   1   21326.3    468.9   0.090148219   1.39161   0.86577   0.75127  -0.27867
   2   21568.1    463.6   0.085566791   1.30608  -0.06209   0.00607  -1.14113
   3   22882.3    437.0   0.063971266   0.92037  -0.05813  -0.44600   0.84739
   4   24079.7    415.3   0.171490091   2.34457   1.01807   1.10264   0.30378
   5   24328.8    411.0   0.041421918   0.56051  -0.70374  -0.15171   0.20552
   6   24653.1    405.6   0.188121730   2.51214   0.79568   0.96436  -0.97418
   7   25220.3    396.5   0.034247542   0.44705  -0.08559   0.63306  -0.19737
   8   25585.7    390.8   0.096630350   1.24335  -0.72912  -0.65766  -0.52840
   9   25973.1    385.0   0.007801026   0.09888  -0.12535   0.26155   0.12149
  10   26800.7    373.1   0.334234675   4.10564  -0.29907  -0.12633  -2.00006
  11   27032.6    369.9   0.043527411   0.53009  -0.17015   0.59319   0.38635
  12   27736.7    360.5   0.064596974   0.76671   0.50537  -0.41621  -0.58145
  13   28133.8    355.4   0.071831213   0.84054  -0.50860  -0.28843  -0.70618
  14   28392.8    352.2   0.010604842   0.12296  -0.26566  -0.22841  -0.01467
  15   28476.6    351.2   0.115681845   1.33737   0.78527   0.32807   0.78300
  16   28559.3    350.1   0.089539860   1.03216  -0.46900  -0.32260  -0.84150
  17   28789.5    347.3   0.059118604   0.67603  -0.67616  -0.35590   0.30360
  18   29589.9    338.0   0.058451557   0.65032  -0.43496  -0.64268   0.21931
  19   29918.1    334.2   0.049520507   0.54491  -0.32392  -0.65779   0.08547
  20   30327.5    329.7   0.102771471   1.11561  -0.28034  -0.18745  -1.00094
  21   30396.6    329.0   0.052599177   0.56968  -0.09579  -0.46318   0.58819
  22   30514.7    327.7   0.068513362   0.73916  -0.69667  -0.38638  -0.32330
  23   31130.2    321.2   0.072306971   0.76467   0.08861   0.45442   0.74184
  24   31962.1    312.9   0.206159125   2.12345  -0.78315  -0.35202  -1.17738
  25   32241.2    310.2   0.188878754   1.92862   1.18677   0.56283  -0.45104
  26   32334.6    309.3   0.155789074   1.58615   0.48631  -0.81747   0.82547
  27   32784.6    305.0   0.286312446   2.87505   1.08679  -0.86620   0.97140
  28   33097.6    302.1   0.397570916   3.95451  -1.91542   0.16731  -0.50763
  29   33374.6    299.6   0.120221152   1.18588  -0.49847  -0.34810  -0.90345
  30   33541.5    298.1   0.229714220   2.25466  -1.09187  -0.91531  -0.47402
  31   33914.9    294.9   0.631492848   6.12990  -0.17790   0.42553  -2.43252
  32   34365.2    291.0   0.611122917   5.85443  -1.78410  -1.59591   0.35284
  33   34487.1    290.0   0.244413355   2.33316  -0.06282  -0.04317   1.52557
  34   34739.8    287.9   0.063218196   0.59909   0.64129   0.13739   0.41104
  35   35020.1    285.6   0.004244841   0.03990  -0.10147   0.09792  -0.14149
  36   35064.3    285.2   0.078653750   0.73846   0.43516   0.02118   0.74071
  37   35258.8    283.6   0.067803042   0.63308   0.73799  -0.25133  -0.15902
  38   35374.7    282.7   0.053119057   0.49435  -0.54971  -0.14249  -0.41456
  39   35506.7    281.6   0.063947122   0.59291   0.30673   0.70168   0.08039
  40   35845.8    279.0   0.012195810   0.11201  -0.07438   0.23091   0.23056
  41   36088.7    277.1   0.019163431   0.17481   0.33040   0.02768   0.25472
  42   36395.4    274.8   0.095315444   0.86217  -0.01764   0.90729   0.19668
  43   36607.9    273.2   0.057542684   0.51748  -0.55561   0.45691   0.00320
  44   36762.1    272.0   0.155281049   1.39057   0.03960   0.51172   1.06167
  45   36962.1    270.5   0.177139609   1.57774   0.29423   0.83730  -0.88887
  46   37034.5    270.0   0.004995409   0.04441  -0.06793  -0.00100  -0.19947
  47   37428.1    267.2   0.067863244   0.59692  -0.08528  -0.60768  -0.46943
  48   37512.5    266.6   0.084346366   0.74023   0.48955  -0.59842  -0.37744
  49   37683.1    265.4   0.252485085   2.20579   1.26088  -0.69880   0.35727
  50   38389.7    260.5   0.011230819   0.09631  -0.03627  -0.26397   0.15911
  51   38479.5    259.9   0.100747120   0.86194  -0.32652   0.66349   0.56134
  52   38533.3    259.5   0.056165566   0.47985   0.12998  -0.13976  -0.66590
  53   38661.9    258.7   0.055864829   0.47570  -0.62183   0.14296  -0.26189
  54   38930.2    256.9   0.033537549   0.28361   0.01509   0.35821  -0.39379
  55   39263.7    254.7   0.018968578   0.15904   0.17849   0.22307  -0.27826
  56   39435.6    253.6   0.055416076   0.46262   0.55840   0.32937  -0.20573
  57   39626.4    252.4   0.153089221   1.27185   0.13464   0.82507   0.75696
  58   39740.9    251.6   0.058974711   0.48854  -0.58160   0.38766  -0.00265
  59   40119.3    249.3   0.237256088   1.94688   0.32915   1.05642  -0.85001
  60   40243.5    248.5   0.076218292   0.62350  -0.47036   0.63423   0.00415

FINAL SINGLE POINT ENERGY     -4110.411751686309

DIPOLE MOMENT
-------------
                                X             Y             Z
Electronic contribution:    -23.79658      -9.01468     -29.10583
Nuclear contribution   :     28.41254       8.99072      35.25282
                        -----------------------------------------
Total Dipole Moment    :      4.61596      -0.02396       6.14699
                        -----------------------------------------
Magnitude (a.u.)       :      7.68720
Magnitude (Debye)      :     19.53932

Rotational constants in cm-1:     0.001045     0.000786     0.000582
Rotational constants in MHz :    31.326415    23.551496    17.442177

                             ****ORCA TERMINATED NORMALLY****
TOTAL RUN TIME: 0 days 0 hours 15 minutes 12 seconds 988 msec
