                         Program Version 4.2.0 -  RELEASE  -
|  1> # ORCA input file
|  2> # SCF done       -180.535220753085          0.000632334678
|  3> ! CAM-B3LYP def2-SVP def2/J RIJCOSX Grid4 TightSCF
|  4> %maxcore 5000
|  5> %tddft
|  6>     Mode sTDDFT
|  7>     Ethresh 5.0
|  8>     maxcore 5000
|  9> end
| 10>
| 11> %pal
| 12>   nprocs 6
| 13>   end
| 14> * xyz 0 1
| 15>    C      -11.02255        -0.28745         3.68331
| 16>    C      -11.93761         0.14836         4.59934
| 17>    C      -12.77640        -0.70458         5.35009
| 18>    N      -13.48024        -1.34505         5.99107
| 19>    C      -12.19911         1.50141         4.90926
| 20>    N      -12.48455         2.57217         5.20738
| 21>    C      -10.78662        -1.66979         3.29804
| 22>    C       -9.84481        -1.70218         2.23720
| 23>    C       -9.42984        -2.87540         1.65240
| 24>    C       -9.96747        -4.07243         2.13258
| 25>    C      -10.90437        -4.03125         3.19471
| 26>    C      -11.32354        -2.84749         3.78765
| 27>    S      -11.43256        -5.62622         3.62831
| 28>    C      -10.41955        -6.31926         2.41043
| 29>    C       -9.71378        -5.40657         1.70723
| 30>    C       -9.42160        -0.33271         1.90870
| 31>    O       -8.61102        -0.00202         1.07085
| 32>    C      -10.15384         0.55308         2.86118
| 33>    C       -9.96124         1.87891         2.95432
| 34>    C       -9.13290         2.63814         1.97880
| 35>    C       -9.85644         2.79537         0.67148
| 36>    N      -10.80818         2.00584         0.23441
| 37>    S      -11.30575         2.53063        -1.22119
| 38>    N      -10.30612         3.80844        -1.31565
| 39>    C       -9.57053         3.85387        -0.23103
| 40>    C       -8.50943         4.87694         0.04603
| 41>    C       -8.45853         5.06136         1.52924
| 42>    C       -8.74389         4.00485         2.43410
| 43>    N       -8.63002         4.37482         3.68841
| 44>    S       -8.19075         5.93778         3.74308
| 45>    N       -8.14020         6.17924         2.13691
| 46>    C       -7.21809         4.28388        -0.42345
| 47>    N       -6.51468         3.47425         0.29340
| 48>    C       -5.45427         3.03300        -0.40327
| 49>    C       -5.33642         3.50564        -1.71065
| 50>    S       -6.63843         4.57356        -2.06078
| 51>    N       -4.28211         3.05446        -2.41103
| 52>    C       -3.57627         2.25483        -1.69417
| 53>    S       -4.15126         1.97159        -0.04841
| 54>    C       -2.33400         1.58702        -2.17464
| 55>    C       -1.12594         2.08278        -1.43806
| 56>    N       -0.98256         3.32491        -1.03039
| 57>    S        0.44066         3.47267        -0.26870
| 58>    N        0.90826         1.93134        -0.44215
| 59>    C       -0.02120         1.26518        -1.09048
| 60>    C        0.08565        -0.18722        -1.42883
| 61>    C       -1.30605        -0.71254        -1.61712
| 62>    C       -2.40520         0.10217        -1.99538
| 63>    N       -3.51443        -0.58758        -2.14338
| 64>    S       -3.22297        -2.14916        -1.82944
| 65>    N       -1.64255        -1.97826        -1.49881
| 66>    C        0.84983        -0.37089        -2.71052
| 67>    C        0.98628        -1.47088        -3.46423
| 68>    C        0.56153        -2.85839        -3.30886
| 69>    C        0.54127        -3.58635        -2.15464
| 70>    C        0.14596        -4.93910        -2.08338
| 71>    N       -0.17949        -6.03350        -1.97279
| 72>    C        0.99245        -3.08951        -0.91626
| 73>    N        1.40360        -2.72082         0.08951
| 74>    C        0.36485        -3.39127        -4.64938
| 75>    C        0.92535        -2.48892        -5.59177
| 76>    C        1.42961        -1.29861        -4.89153
| 77>    O        2.00903        -0.34497        -5.35000
| 78>    C        0.93150        -2.74666        -6.94314
| 79>    C        0.34753        -3.93702        -7.38413
| 80>    C       -0.22608        -4.82129        -6.43649
| 81>    C       -0.22428        -4.56831        -5.07037
| 82>    S       -0.90247        -6.21836        -7.20955
| 83>    C       -0.41884        -5.62497        -8.76061
| 84>    C        0.21856        -4.43505        -8.71152
| 85>    H       -8.71231        -2.86628         0.84661
| 86>    H      -12.03496        -2.86898         4.59620
| 87>    H      -10.41430        -7.38568         2.29432
| 88>    H       -9.03309        -5.65354         0.91279
| 89>    H      -10.43430         2.46736         3.72715
| 90>    H       -8.21605         2.06918         1.74917
| 91>    H       -8.70854         5.81131        -0.48189
| 92>    H       -2.23662         1.83034        -3.24215
| 93>    H        0.58605        -0.71914        -0.61127
| 94>    H        1.26277         0.53680        -3.13872
| 95>    H        1.37250        -2.04819        -7.63717
| 96>    H       -0.67754        -5.26497        -4.38470
| 97>    H       -0.64644        -6.21391        -9.62777
| 98>    H        0.59012        -3.91472        -9.57551
| 99> *
|100>
|101>                          ****END OF INPUT****

CARTESIAN COORDINATES (ANGSTROEM)
---------------------------------
  C    -11.022550   -0.287450    3.683310
  C    -11.937610    0.148360    4.599340
  C    -12.776400   -0.704580    5.350090
  N    -13.480240   -1.345050    5.991070
  C    -12.199110    1.501410    4.909260
  N    -12.484550    2.572170    5.207380
  C    -10.786620   -1.669790    3.298040
  C     -9.844810   -1.702180    2.237200
  C     -9.429840   -2.875400    1.652400
  C     -9.967470   -4.072430    2.132580
  C    -10.904370   -4.031250    3.194710
  C    -11.323540   -2.847490    3.787650
  S    -11.432560   -5.626220    3.628310
  C    -10.419550   -6.319260    2.410430
  C     -9.713780   -5.406570    1.707230
  C     -9.421600   -0.332710    1.908700
  O     -8.611020   -0.002020    1.070850
  C    -10.153840    0.553080    2.861180
  C     -9.961240    1.878910    2.954320
  C     -9.132900    2.638140    1.978800
  C     -9.856440    2.795370    0.671480
  N    -10.808180    2.005840    0.234410
  S    -11.305750    2.530630   -1.221190
  N    -10.306120    3.808440   -1.315650
  C     -9.570530    3.853870   -0.231030
  C     -8.509430    4.876940    0.046030
  C     -8.458530    5.061360    1.529240
  C     -8.743890    4.004850    2.434100
  N     -8.630020    4.374820    3.688410
  S     -8.190750    5.937780    3.743080
  N     -8.140200    6.179240    2.136910
  C     -7.218090    4.283880   -0.423450
  N     -6.514680    3.474250    0.293400
  C     -5.454270    3.033000   -0.403270
  C     -5.336420    3.505640   -1.710650
  S     -6.638430    4.573560   -2.060780
  N     -4.282110    3.054460   -2.411030
  C     -3.576270    2.254830   -1.694170
  S     -4.151260    1.971590   -0.048410
  C     -2.334000    1.587020   -2.174640
  C     -1.125940    2.082780   -1.438060
  N     -0.982560    3.324910   -1.030390
  S      0.440660    3.472670   -0.268700
  N      0.908260    1.931340   -0.442150
  C     -0.021200    1.265180   -1.090480
  C      0.085650   -0.187220   -1.428830
  C     -1.306050   -0.712540   -1.617120
  C     -2.405200    0.102170   -1.995380
  N     -3.514430   -0.587580   -2.143380
  S     -3.222970   -2.149160   -1.829440
  N     -1.642550   -1.978260   -1.498810
  C      0.849830   -0.370890   -2.710520
  C      0.986280   -1.470880   -3.464230
  C      0.561530   -2.858390   -3.308860
  C      0.541270   -3.586350   -2.154640
  C      0.145960   -4.939100   -2.083380
  N     -0.179490   -6.033500   -1.972790
  C      0.992450   -3.089510   -0.916260
  N      1.403600   -2.720820    0.089510
  C      0.364850   -3.391270   -4.649380
  C      0.925350   -2.488920   -5.591770
  C      1.429610   -1.298610   -4.891530
  O      2.009030   -0.344970   -5.350000
  C      0.931500   -2.746660   -6.943140
  C      0.347530   -3.937020   -7.384130
  C     -0.226080   -4.821290   -6.436490
  C     -0.224280   -4.568310   -5.070370
  S     -0.902470   -6.218360   -7.209550
  C     -0.418840   -5.624970   -8.760610
  C      0.218560   -4.435050   -8.711520
  H     -8.712310   -2.866280    0.846610
  H    -12.034960   -2.868980    4.596200
  H    -10.414300   -7.385680    2.294320
  H     -9.033090   -5.653540    0.912790
  H    -10.434300    2.467360    3.727150
  H     -8.216050    2.069180    1.749170
  H     -8.708540    5.811310   -0.481890
  H     -2.236620    1.830340   -3.242150
  H      0.586050   -0.719140   -0.611270
  H      1.262770    0.536800   -3.138720
  H      1.372500   -2.048190   -7.637170
  H     -0.677540   -5.264970   -4.384700
  H     -0.646440   -6.213910   -9.627770
  H      0.590120   -3.914720   -9.575510

 Total Charge           Charge          ....    0
 Multiplicity           Mult            ....    1
 Number of Electrons    NEL             ....  532
 Basis Dimension        Dim             .... 1082

ORBITAL ENERGIES
----------------

  NO   OCC          E(Eh)            E(eV)
   0   2.0000     -89.025738     -2422.5135
   1   2.0000     -89.020090     -2422.3598
   2   2.0000     -89.010282     -2422.0929
   3   2.0000     -89.006597     -2421.9926
   4   2.0000     -88.974651     -2421.1234
   5   2.0000     -88.974543     -2421.1204
   6   2.0000     -88.970388     -2421.0073
   7   2.0000     -88.969223     -2420.9756
   8   2.0000     -19.226308      -523.1744
   9   2.0000     -19.220341      -523.0121
  10   2.0000     -14.453235      -393.2925
  11   2.0000     -14.452789      -393.2804
  12   2.0000     -14.447898      -393.1473
  13   2.0000     -14.447617      -393.1396
  14   2.0000     -14.440947      -392.9581
  15   2.0000     -14.439522      -392.9194
  16   2.0000     -14.438152      -392.8821
  17   2.0000     -14.436845      -392.8465
  18   2.0000     -14.430756      -392.6808
  19   2.0000     -14.426136      -392.5551
  20   2.0000     -14.426062      -392.5531
  21   2.0000     -14.423850      -392.4929
  22   2.0000     -14.416969      -392.3057
  23   2.0000     -14.415711      -392.2714
  24   2.0000     -10.377138      -282.3763
  25   2.0000     -10.369510      -282.1687
  26   2.0000     -10.355325      -281.7827
  27   2.0000     -10.354141      -281.7505
  28   2.0000     -10.351866      -281.6886
  29   2.0000     -10.348251      -281.5902
  30   2.0000     -10.346323      -281.5378
  31   2.0000     -10.345225      -281.5079
  32   2.0000     -10.343886      -281.4714
  33   2.0000     -10.342363      -281.4300
  34   2.0000     -10.339830      -281.3611
  35   2.0000     -10.338308      -281.3196
  36   2.0000     -10.332528      -281.1624
  37   2.0000     -10.332167      -281.1525
  38   2.0000     -10.331440      -281.1328
  39   2.0000     -10.329759      -281.0870
  40   2.0000     -10.329571      -281.0819
  41   2.0000     -10.328917      -281.0641
  42   2.0000     -10.327962      -281.0381
  43   2.0000     -10.327534      -281.0265
  44   2.0000     -10.327083      -281.0142
  45   2.0000     -10.326580      -281.0005
  46   2.0000     -10.325529      -280.9719
  47   2.0000     -10.323436      -280.9150
  48   2.0000     -10.322406      -280.8869
  49   2.0000     -10.321500      -280.8623
  50   2.0000     -10.320510      -280.8354
  51   2.0000     -10.319271      -280.8016
  52   2.0000     -10.317718      -280.7594
  53   2.0000     -10.316865      -280.7362
  54   2.0000     -10.316480      -280.7257
  55   2.0000     -10.315008      -280.6856
  56   2.0000     -10.311749      -280.5970
  57   2.0000     -10.311638      -280.5939
  58   2.0000     -10.310026      -280.5501
  59   2.0000     -10.308970      -280.5213
  60   2.0000     -10.308533      -280.5094
  61   2.0000     -10.306694      -280.4594
  62   2.0000     -10.305742      -280.4335
  63   2.0000     -10.304717      -280.4056
  64   2.0000     -10.301727      -280.3242
  65   2.0000     -10.300616      -280.2940
  66   2.0000     -10.298979      -280.2495
  67   2.0000     -10.296438      -280.1803
  68   2.0000     -10.292975      -280.0861
  69   2.0000     -10.291524      -280.0466
  70   2.0000      -8.118294      -220.9100
  71   2.0000      -8.112873      -220.7625
  72   2.0000      -8.102939      -220.4922
  73   2.0000      -8.099447      -220.3972
  74   2.0000      -8.070777      -219.6170
  75   2.0000      -8.070647      -219.6135
  76   2.0000      -8.066369      -219.4971
  77   2.0000      -8.065414      -219.4711
  78   2.0000      -6.089951      -165.7160
  79   2.0000      -6.084460      -165.5666
  80   2.0000      -6.082274      -165.5071
  81   2.0000      -6.079500      -165.4316
  82   2.0000      -6.076824      -165.3588
  83   2.0000      -6.074654      -165.2997
  84   2.0000      -6.074110      -165.2849
  85   2.0000      -6.071150      -165.2044
  86   2.0000      -6.067046      -165.0927
  87   2.0000      -6.063965      -165.0089
  88   2.0000      -6.063541      -164.9973
  89   2.0000      -6.060422      -164.9125
  90   2.0000      -6.040296      -164.3648
  91   2.0000      -6.039671      -164.3478
  92   2.0000      -6.036048      -164.2492
  93   2.0000      -6.035976      -164.2473
  94   2.0000      -6.035449      -164.2329
  95   2.0000      -6.034931      -164.2188
  96   2.0000      -6.032564      -164.1544
  97   2.0000      -6.032465      -164.1517
  98   2.0000      -6.031837      -164.1346
  99   2.0000      -6.030616      -164.1014
 100   2.0000      -6.028179      -164.0351
 101   2.0000      -6.027110      -164.0060
 102   2.0000      -1.142454       -31.0878
 103   2.0000      -1.139281       -31.0014
 104   2.0000      -1.135091       -30.8874
 105   2.0000      -1.131870       -30.7997
 106   2.0000      -1.125256       -30.6198
 107   2.0000      -1.118922       -30.4474
 108   2.0000      -1.099922       -29.9304
 109   2.0000      -1.061140       -28.8751
 110   2.0000      -1.029691       -28.0193
 111   2.0000      -1.021479       -27.7959
 112   2.0000      -1.016836       -27.6695
 113   2.0000      -1.010142       -27.4873
 114   2.0000      -1.004687       -27.3389
 115   2.0000      -0.999694       -27.2030
 116   2.0000      -0.994859       -27.0715
 117   2.0000      -0.992997       -27.0208
 118   2.0000      -0.989629       -26.9292
 119   2.0000      -0.985758       -26.8238
 120   2.0000      -0.984436       -26.7879
 121   2.0000      -0.974037       -26.5049
 122   2.0000      -0.972601       -26.4658
 123   2.0000      -0.961893       -26.1744
 124   2.0000      -0.937689       -25.5158
 125   2.0000      -0.931645       -25.3514
 126   2.0000      -0.920848       -25.0576
 127   2.0000      -0.913012       -24.8443
 128   2.0000      -0.904881       -24.6231
 129   2.0000      -0.892149       -24.2766
 130   2.0000      -0.889840       -24.2138
 131   2.0000      -0.885253       -24.0890
 132   2.0000      -0.883845       -24.0506
 133   2.0000      -0.880023       -23.9466
 134   2.0000      -0.876256       -23.8441
 135   2.0000      -0.861898       -23.4534
 136   2.0000      -0.856864       -23.3164
 137   2.0000      -0.844845       -22.9894
 138   2.0000      -0.831540       -22.6273
 139   2.0000      -0.825562       -22.4647
 140   2.0000      -0.816474       -22.2174
 141   2.0000      -0.804494       -21.8914
 142   2.0000      -0.780764       -21.2457
 143   2.0000      -0.779188       -21.2028
 144   2.0000      -0.770694       -20.9717
 145   2.0000      -0.761548       -20.7228
 146   2.0000      -0.758466       -20.6389
 147   2.0000      -0.737310       -20.0632
 148   2.0000      -0.722347       -19.6561
 149   2.0000      -0.716309       -19.4918
 150   2.0000      -0.704613       -19.1735
 151   2.0000      -0.700886       -19.0721
 152   2.0000      -0.694913       -18.9095
 153   2.0000      -0.693594       -18.8736
 154   2.0000      -0.692864       -18.8538
 155   2.0000      -0.686340       -18.6763
 156   2.0000      -0.680891       -18.5280
 157   2.0000      -0.677374       -18.4323
 158   2.0000      -0.675274       -18.3751
 159   2.0000      -0.670509       -18.2455
 160   2.0000      -0.669771       -18.2254
 161   2.0000      -0.663497       -18.0547
 162   2.0000      -0.662320       -18.0226
 163   2.0000      -0.650933       -17.7128
 164   2.0000      -0.641862       -17.4660
 165   2.0000      -0.632967       -17.2239
 166   2.0000      -0.629614       -17.1327
 167   2.0000      -0.627769       -17.0825
 168   2.0000      -0.622036       -16.9265
 169   2.0000      -0.621140       -16.9021
 170   2.0000      -0.611925       -16.6513
 171   2.0000      -0.605059       -16.4645
 172   2.0000      -0.602890       -16.4055
 173   2.0000      -0.596582       -16.2338
 174   2.0000      -0.590523       -16.0689
 175   2.0000      -0.583777       -15.8854
 176   2.0000      -0.581080       -15.8120
 177   2.0000      -0.569912       -15.5081
 178   2.0000      -0.565624       -15.3914
 179   2.0000      -0.559134       -15.2148
 180   2.0000      -0.556815       -15.1517
 181   2.0000      -0.553593       -15.0640
 182   2.0000      -0.551351       -15.0030
 183   2.0000      -0.547371       -14.8947
 184   2.0000      -0.545064       -14.8319
 185   2.0000      -0.544259       -14.8100
 186   2.0000      -0.542064       -14.7503
 187   2.0000      -0.537721       -14.6321
 188   2.0000      -0.536435       -14.5971
 189   2.0000      -0.534723       -14.5506
 190   2.0000      -0.534053       -14.5323
 191   2.0000      -0.529788       -14.4163
 192   2.0000      -0.526123       -14.3165
 193   2.0000      -0.523755       -14.2521
 194   2.0000      -0.518682       -14.1140
 195   2.0000      -0.516851       -14.0642
 196   2.0000      -0.514408       -13.9978
 197   2.0000      -0.512662       -13.9502
 198   2.0000      -0.508964       -13.8496
 199   2.0000      -0.508538       -13.8380
 200   2.0000      -0.505144       -13.7457
 201   2.0000      -0.502326       -13.6690
 202   2.0000      -0.500982       -13.6324
 203   2.0000      -0.497995       -13.5511
 204   2.0000      -0.496642       -13.5143
 205   2.0000      -0.494607       -13.4589
 206   2.0000      -0.493067       -13.4170
 207   2.0000      -0.490670       -13.3518
 208   2.0000      -0.489319       -13.3150
 209   2.0000      -0.485717       -13.2170
 210   2.0000      -0.474575       -12.9138
 211   2.0000      -0.472797       -12.8655
 212   2.0000      -0.471255       -12.8235
 213   2.0000      -0.463826       -12.6214
 214   2.0000      -0.461920       -12.5695
 215   2.0000      -0.458993       -12.4898
 216   2.0000      -0.457545       -12.4504
 217   2.0000      -0.455401       -12.3921
 218   2.0000      -0.451739       -12.2925
 219   2.0000      -0.449926       -12.2431
 220   2.0000      -0.449008       -12.2181
 221   2.0000      -0.443815       -12.0768
 222   2.0000      -0.442272       -12.0348
 223   2.0000      -0.441049       -12.0016
 224   2.0000      -0.437070       -11.8933
 225   2.0000      -0.436988       -11.8911
 226   2.0000      -0.434789       -11.8312
 227   2.0000      -0.432084       -11.7576
 228   2.0000      -0.431168       -11.7327
 229   2.0000      -0.427712       -11.6386
 230   2.0000      -0.423590       -11.5265
 231   2.0000      -0.422097       -11.4858
 232   2.0000      -0.421178       -11.4608
 233   2.0000      -0.413893       -11.2626
 234   2.0000      -0.411653       -11.2017
 235   2.0000      -0.408011       -11.1025
 236   2.0000      -0.406012       -11.0481
 237   2.0000      -0.403112       -10.9692
 238   2.0000      -0.399504       -10.8711
 239   2.0000      -0.396440       -10.7877
 240   2.0000      -0.392225       -10.6730
 241   2.0000      -0.391077       -10.6418
 242   2.0000      -0.388824       -10.5804
 243   2.0000      -0.383849       -10.4451
 244   2.0000      -0.383065       -10.4237
 245   2.0000      -0.380160       -10.3447
 246   2.0000      -0.379877       -10.3370
 247   2.0000      -0.377691       -10.2775
 248   2.0000      -0.374560       -10.1923
 249   2.0000      -0.369502       -10.0546
 250   2.0000      -0.365990        -9.9591
 251   2.0000      -0.357434        -9.7263
 252   2.0000      -0.353813        -9.6277
 253   2.0000      -0.351479        -9.5642
 254   2.0000      -0.344814        -9.3829
 255   2.0000      -0.344485        -9.3739
 256   2.0000      -0.337595        -9.1864
 257   2.0000      -0.337112        -9.1733
 258   2.0000      -0.335759        -9.1365
 259   2.0000      -0.329659        -8.9705
 260   2.0000      -0.323090        -8.7917
 261   2.0000      -0.320355        -8.7173
 262   2.0000      -0.315677        -8.5900
 263   2.0000      -0.301196        -8.1960
 264   2.0000      -0.295983        -8.0541
 265   2.0000      -0.295798        -8.0491
 266   0.0000      -0.088213        -2.4004
 267   0.0000      -0.082779        -2.2525
 268   0.0000      -0.059928        -1.6307
 269   0.0000      -0.052800        -1.4368
 270   0.0000      -0.041763        -1.1364

MULLIKEN ATOMIC CHARGES
-----------------------
   0 C :    0.321559
   1 C :   -0.341024
   2 C :   -0.190780
   3 N :    0.157444
   4 C :   -0.199044
   5 N :    0.165640
   6 C :    0.014014
   7 C :   -0.013244
   8 C :   -0.064325
   9 C :    0.114071
  10 C :   -0.093103
  11 C :   -0.024151
  12 S :    0.143644
  13 C :   -0.048631
  14 C :    0.025397
  15 C :    0.149507
  16 O :   -0.151168
  17 C :    0.009487
  18 C :   -0.105947
  19 C :    0.305848
  20 C :   -0.120230
  21 N :   -0.270196
  22 S :    0.458768
  23 N :   -0.261578
  24 C :   -0.054258
  25 C :    0.265022
  26 C :   -0.062292
  27 C :   -0.115516
  28 N :   -0.280070
  29 S :    0.460421
  30 N :   -0.252957
  31 C :   -0.163595
  32 N :   -0.049365
  33 C :   -0.051462
  34 C :   -0.078324
  35 S :    0.172663
  36 N :   -0.020485
  37 C :   -0.152724
  38 S :    0.141092
  39 C :    0.412938
  40 C :   -0.169377
  41 N :   -0.253321
  42 S :    0.479276
  43 N :   -0.256547
  44 C :   -0.096792
  45 C :    0.230752
  46 C :   -0.047759
  47 C :   -0.194142
  48 N :   -0.251058
  49 S :    0.477374
  50 N :   -0.284109
  51 C :   -0.066643
  52 C :   -0.041249
  53 C :    0.244514
  54 C :   -0.277374
  55 C :   -0.198255
  56 N :    0.164642
  57 C :   -0.139523
  58 N :    0.142488
  59 C :    0.007520
  60 C :   -0.009380
  61 C :    0.137353
  62 O :   -0.132069
  63 C :   -0.061543
  64 C :    0.105022
  65 C :   -0.090520
  66 C :   -0.024763
  67 S :    0.143276
  68 C :   -0.050328
  69 C :    0.031961
  70 H :   -0.011758
  71 H :   -0.005270
  72 H :    0.041073
  73 H :   -0.006019
  74 H :    0.035488
  75 H :    0.080601
  76 H :    0.014688
  77 H :    0.050860
  78 H :    0.062441
  79 H :    0.040412
  80 H :   -0.007619
  81 H :   -0.004053
  82 H :    0.041253
  83 H :   -0.004570
Sum of atomic charges:   -0.0000000

LOEWDIN ATOMIC CHARGES
----------------------
   0 C :    0.078776
   1 C :   -0.128775
   2 C :   -0.017142
   3 N :   -0.048433
   4 C :   -0.020370
   5 N :   -0.042139
   6 C :   -0.021934
   7 C :   -0.052468
   8 C :    0.024716
   9 C :   -0.033626
  10 C :   -0.143999
  11 C :   -0.007195
  12 S :    0.432228
  13 C :   -0.147449
  14 C :   -0.057869
  15 C :    0.091990
  16 O :   -0.137486
  17 C :   -0.073232
  18 C :    0.099690
  19 C :   -0.039248
  20 C :   -0.033886
  21 N :   -0.264050
  22 S :    0.587531
  23 N :   -0.266209
  24 C :   -0.051985
  25 C :   -0.038024
  26 C :   -0.047094
  27 C :   -0.042461
  28 N :   -0.268182
  29 S :    0.588839
  30 N :   -0.260912
  31 C :   -0.111288
  32 N :   -0.100494
  33 C :   -0.207687
  34 C :   -0.214029
  35 S :    0.434722
  36 N :   -0.089092
  37 C :   -0.098295
  38 S :    0.421835
  39 C :   -0.041380
  40 C :   -0.064442
  41 N :   -0.260026
  42 S :    0.607350
  43 N :   -0.260623
  44 C :   -0.056665
  45 C :   -0.035903
  46 C :   -0.043251
  47 C :   -0.062836
  48 N :   -0.257608
  49 S :    0.601300
  50 N :   -0.261643
  51 C :    0.073993
  52 C :   -0.069556
  53 C :    0.062285
  54 C :   -0.113215
  55 C :   -0.016138
  56 N :   -0.043583
  57 C :   -0.005950
  58 N :   -0.043990
  59 C :   -0.018125
  60 C :   -0.059556
  61 C :    0.087768
  62 O :   -0.132520
  63 C :    0.027745
  64 C :   -0.035438
  65 C :   -0.142591
  66 C :   -0.012823
  67 S :    0.431921
  68 C :   -0.147505
  69 C :   -0.055973
  70 H :    0.040302
  71 H :    0.041085
  72 H :    0.030294
  73 H :    0.035540
  74 H :    0.043944
  75 H :    0.069968
  76 H :    0.056504
  77 H :    0.071993
  78 H :    0.069791
  79 H :    0.044782
  80 H :    0.042159
  81 H :    0.040382
  82 H :    0.030575
  83 H :    0.036388

  Mayer bond orders larger than 0.100000
B(  0-C ,  1-C ) :   1.6693 B(  0-C ,  6-C ) :   1.0155 B(  0-C , 17-C ) :   1.0252
B(  1-C ,  2-C ) :   1.1363 B(  1-C ,  4-C ) :   1.1479 B(  2-C ,  3-N ) :   2.9761
B(  4-C ,  5-N ) :   2.9776 B(  6-C ,  7-C ) :   1.2691 B(  6-C , 11-C ) :   1.4001
B(  7-C ,  8-C ) :   1.4203 B(  7-C , 15-C ) :   0.9586 B(  8-C ,  9-C ) :   1.2511
B(  8-C , 70-H ) :   1.0167 B(  9-C , 10-C ) :   1.2947 B(  9-C , 14-C ) :   1.1723
B( 10-C , 11-C ) :   1.3323 B( 10-C , 12-S ) :   1.0998 B( 11-C , 71-H ) :   0.9831
B( 12-S , 13-C ) :   1.1269 B( 13-C , 14-C ) :   1.6264 B( 13-C , 72-H ) :   0.9688
B( 14-C , 73-H ) :   0.9999 B( 15-C , 16-O ) :   2.1944 B( 15-C , 17-C ) :   0.9184
B( 17-C , 18-C ) :   1.7243 B( 18-C , 19-C ) :   1.0245 B( 18-C , 74-H ) :   0.9591
B( 19-C , 20-C ) :   0.9807 B( 19-C , 27-C ) :   0.9433 B( 19-C , 75-H ) :   0.7737
B( 20-C , 21-N ) :   1.6788 B( 20-C , 24-C ) :   1.2155 B( 21-N , 22-S ) :   1.1953
B( 21-N , 23-N ) :   0.1201 B( 22-S , 23-N ) :   1.2064 B( 23-N , 24-C ) :   1.7047
B( 24-C , 25-C ) :   0.9961 B( 25-C , 26-C ) :   1.0018 B( 25-C , 31-C ) :   1.0164
B( 25-C , 76-H ) :   0.8399 B( 26-C , 27-C ) :   1.1882 B( 26-C , 30-N ) :   1.7120
B( 27-C , 28-N ) :   1.6981 B( 28-N , 29-S ) :   1.1943 B( 28-N , 30-N ) :   0.1164
B( 29-S , 30-N ) :   1.2093 B( 31-C , 32-N ) :   1.7503 B( 31-C , 35-S ) :   1.1306
B( 32-N , 33-C ) :   1.3504 B( 32-N , 35-S ) :   0.1092 B( 33-C , 34-C ) :   1.3588
B( 33-C , 38-S ) :   1.1128 B( 34-C , 35-S ) :   1.0974 B( 34-C , 36-N ) :   1.3476
B( 36-N , 37-C ) :   1.7818 B( 36-N , 38-S ) :   0.1052 B( 37-C , 38-S ) :   1.0993
B( 37-C , 39-C ) :   1.0303 B( 39-C , 40-C ) :   0.9868 B( 39-C , 47-C ) :   0.9598
B( 39-C , 77-H ) :   0.8016 B( 40-C , 41-N ) :   1.6828 B( 40-C , 44-C ) :   1.2271
B( 41-N , 42-S ) :   1.2155 B( 41-N , 43-N ) :   0.1228 B( 42-S , 43-N ) :   1.2171
B( 43-N , 44-C ) :   1.6984 B( 44-C , 45-C ) :   0.9819 B( 45-C , 46-C ) :   0.9987
B( 45-C , 51-C ) :   1.0174 B( 45-C , 78-H ) :   0.7876 B( 46-C , 47-C ) :   1.2253
B( 46-C , 50-N ) :   1.6527 B( 47-C , 48-N ) :   1.6893 B( 48-N , 49-S ) :   1.2152
B( 48-N , 50-N ) :   0.1204 B( 49-S , 50-N ) :   1.2040 B( 51-C , 52-C ) :   1.8250
B( 51-C , 79-H ) :   0.9416 B( 52-C , 53-C ) :   0.9762 B( 52-C , 61-C ) :   0.9184
B( 53-C , 54-C ) :   1.7041 B( 53-C , 59-C ) :   1.0252 B( 54-C , 55-C ) :   1.1331
B( 54-C , 57-C ) :   1.1521 B( 55-C , 56-N ) :   2.9956 B( 57-C , 58-N ) :   2.9263
B( 59-C , 60-C ) :   1.2647 B( 59-C , 66-C ) :   1.4103 B( 60-C , 61-C ) :   0.9281
B( 60-C , 63-C ) :   1.4205 B( 61-C , 62-O ) :   2.2721 B( 63-C , 64-C ) :   1.2582
B( 63-C , 80-H ) :   1.0162 B( 64-C , 65-C ) :   1.2962 B( 64-C , 69-C ) :   1.1732
B( 65-C , 66-C ) :   1.3253 B( 65-C , 67-S ) :   1.1001 B( 66-C , 81-H ) :   0.9866
B( 67-S , 68-C ) :   1.1257 B( 68-C , 69-C ) :   1.6308 B( 68-C , 82-H ) :   0.9683
B( 69-C , 83-H ) :   0.9993

-----------------------------------------------------------------------------
         ABSORPTION SPECTRUM VIA TRANSITION ELECTRIC DIPOLE MOMENTS
-----------------------------------------------------------------------------
State   Energy  Wavelength   fosc         T2         TX        TY        TZ
        (cm-1)    (nm)                  (au**2)     (au)      (au)      (au)
-----------------------------------------------------------------------------
   0   28860.5    346.5   0.217664356   2.48290   0.38086   0.38763   1.47905
   1   29146.7    343.1   0.211390685   2.38766   0.36030  -1.43564  -0.44360
   2   30620.7    326.6   0.041974457   0.45128  -0.09445   0.27713  -0.60462
   3   30658.7    326.2   0.014603672   0.15681  -0.22515  -0.25980   0.19654
   4   31392.2    318.6   0.094944419   0.99569  -0.36623   0.80896   0.45514
   5   32263.5    309.9   0.047471350   0.48439  -0.50662   0.14234   0.45548
   6   32395.9    308.7   0.022833772   0.23204  -0.01092  -0.39794  -0.27123
   7   32873.8    304.2   0.004543272   0.04550   0.19462  -0.01128  -0.08657
   8   33462.6    298.8   0.004335321   0.04265  -0.17436  -0.05146   0.09800
   9   33949.3    294.6   0.506961358   4.91609  -0.01734   0.17533  -2.21021
  10   34836.1    287.1   0.677410774   6.40175  -1.10694   1.84583   1.33017
  11   35030.4    285.5   0.238214927   2.23872   0.06243   0.43812   1.42929
  12   35905.0    278.5   0.102675263   0.94143  -0.40998  -0.82939   0.29231
  13   36020.2    277.6   0.058017861   0.53026  -0.24208   0.68253   0.07628
  14   37164.9    269.1   0.000003291   0.00003  -0.00371  -0.00379   0.00099
  15   37239.3    268.5   0.000642005   0.00568   0.04636   0.05306   0.02666
  16   38016.5    263.0   0.001759509   0.01524  -0.05804  -0.08262  -0.07101
  17   38247.6    261.5   0.013109439   0.11284   0.24259  -0.18945  -0.13452
  18   38488.8    259.8   0.003112391   0.02662  -0.13645   0.07386   0.05047
  19   38561.9    259.3   0.056128645   0.47918  -0.16370  -0.66951   0.06435
  20   39353.4    254.1   0.097486737   0.81553   0.51709   0.73684  -0.07224
  21   40081.0    249.5   0.061956656   0.50889  -0.51479  -0.38675   0.30709
  22   40165.7    249.0   0.279245437   2.28879   0.88409   0.79334  -0.93690

FINAL SINGLE POINT ENERGY     -5859.394982037272

DIPOLE MOMENT
-------------
                                X             Y             Z
Electronic contribution:     -5.55647      20.24355      12.12409
Nuclear contribution   :      6.42987     -22.04656     -15.82213
                        -----------------------------------------
Total Dipole Moment    :      0.87340      -1.80301      -3.69803
                        -----------------------------------------
Magnitude (a.u.)       :      4.20584
Magnitude (Debye)      :     10.69041

Rotational constants in cm-1:     0.001121     0.000437     0.000360
Rotational constants in MHz :    33.602583    13.099996    10.807346

                             ****ORCA TERMINATED NORMALLY****
TOTAL RUN TIME: 0 days 0 hours 8 minutes 28 seconds 569 msec
