                         Program Version 4.2.0 -  RELEASE  -
|  1> # ORCA input file
|  2> # SCF done       -181.019343223340          0.004913331147
|  3> ! CAM-B3LYP def2-SVP def2/J RIJCOSX Grid4 TightSCF
|  4> %maxcore 5000
|  5> %tddft
|  6>     Mode sTDDFT
|  7>     Ethresh 5.0
|  8>     maxcore 5000
|  9> end
| 10>
| 11> %pal
| 12>   nprocs 6
| 13>   end
| 14> * xyz 0 1
| 15>    C       -7.34443        -6.97953         4.66183
| 16>    C       -7.23558        -8.35050         4.45797
| 17>    C       -6.35967        -8.85738         3.51365
| 18>    C       -5.55835        -8.01690         2.74613
| 19>    C       -5.64291        -6.65321         2.95090
| 20>    C       -6.54265        -6.14185         3.91208
| 21>    C       -6.45310        -4.69230         3.85768
| 22>    C       -7.35243        -3.76425         4.37281
| 23>    C       -8.30457        -4.03635         5.36345
| 24>    N       -9.06960        -4.21744         6.20317
| 25>    C       -7.43782        -2.53319         3.71805
| 26>    N       -7.54425        -1.61528         3.02409
| 27>    C       -5.42113        -4.34188         2.93870
| 28>    C       -4.93400        -5.52814         2.32362
| 29>    C       -3.93640        -5.66358         1.36640
| 30>    C       -3.31686        -4.57279         0.75843
| 31>    N       -2.88991        -3.65636         0.19905
| 32>    C       -3.48244        -6.89100         0.85463
| 33>    N       -3.05838        -7.85569         0.39489
| 34>    C       -4.92729        -3.00006         2.92111
| 35>    C       -4.66539        -2.18541         1.87406
| 36>    C       -4.05037        -0.88532         1.86417
| 37>    C       -4.06225        -0.33705         0.51207
| 38>    C       -4.62089        -1.14748        -0.41412
| 39>    S       -5.27252        -2.61937         0.25529
| 40>    O       -6.84816        -2.25980         0.44427
| 41>    O       -3.55443         0.86411         0.25516
| 42>    C       -3.45931        -0.32104         2.96295
| 43>    C       -2.81808         0.93267         3.01501
| 44>    C       -2.14292         1.38109         4.10726
| 45>    C       -1.43179         2.60352         4.14310
| 46>    C       -0.66775         3.11289         5.17996
| 47>    C       -0.05495         4.32601         4.88542
| 48>    C       -0.34006         4.78554         3.61343
| 49>    S       -1.38923         3.67870         2.77510
| 50>    C        0.14550         5.94432         2.95537
| 51>    C        1.16887         6.79570         3.32711
| 52>    C        1.44814         7.76863         2.37236
| 53>    C        0.67432         7.67415         1.22769
| 54>    S       -0.50565         6.40125         1.41246
| 55>    C        0.84448         8.48695         0.07142
| 56>    C        0.56151         8.25900        -1.23533
| 57>    C        0.12642         7.12571        -2.01810
| 58>    C       -0.12157         7.51345        -3.38897
| 59>    C        0.28725         8.77176        -3.70154
| 60>    S        1.10066         9.54575        -2.37104
| 61>    O        2.64117         9.17402        -2.54761
| 62>    O       -0.71151         6.66183        -4.22934
| 63>    C        0.31257         5.84177        -1.57056
| 64>    C        0.33878         4.63522        -2.27570
| 65>    C        0.75291         3.48604        -1.65882
| 66>    C        1.26605         3.33284        -0.33851
| 67>    C        0.90101         2.19143         0.45089
| 68>    C       -0.03409         1.22954         0.12646
| 69>    C       -0.87916         1.25715        -0.99070
| 70>    N       -1.68530         1.22022        -1.81581
| 71>    C       -0.34889         0.12498         0.94022
| 72>    N       -0.66510        -0.79184         1.55661
| 73>    C        1.58146         2.29701         1.73618
| 74>    C        2.33795         3.48596         1.72418
| 75>    C        3.03696         3.87033         2.85345
| 76>    C        2.99290         3.05524         3.97796
| 77>    C        2.26409         1.87929         3.97962
| 78>    C        1.54306         1.49072         2.85785
| 79>    C        2.18655         4.12178         0.40884
| 80>    C        2.96941         5.21069         0.02462
| 81>    C        3.91764         5.83668         0.85719
| 82>    N        4.69082         6.44326         1.45585
| 83>    C        2.99009         5.93294        -1.16226
| 84>    N        3.13259         6.67633        -2.03924
| 85>    H       -8.03098        -6.58475         5.39487
| 86>    H       -7.84426        -9.02394         5.04274
| 87>    H       -6.29462        -9.92492         3.36404
| 88>    H       -4.89354        -8.43738         2.00973
| 89>    H       -4.81383        -2.56022         3.90945
| 90>    H       -4.65831        -0.98141        -1.47245
| 91>    H       -7.10683        -1.82252         1.29320
| 92>    H       -3.44419         1.01469        -0.70165
| 93>    H       -3.45344        -0.90030         3.87651
| 94>    H       -2.83939         1.55649         2.13433
| 95>    H       -2.10079         0.78008         5.00648
| 96>    H       -0.56120         2.60293         6.12083
| 97>    H        0.57485         4.86243         5.57131
| 98>    H        1.71305         6.68869         4.24682
| 99>    H        2.23744         8.49102         2.47601
|100>    H        1.34762         9.42504         0.28274
|101>    H        0.17735         9.27699        -4.64032
|102>    H        2.89271         8.18644        -2.43725
|103>    H       -0.78991         7.04145        -5.11392
|104>    H        0.55925         5.74969        -0.52845
|105>    H        0.01795         4.60041        -3.30401
|106>    H        0.62832         2.56073        -2.20873
|107>    H        3.60412         4.78508         2.88377
|108>    H        3.54016         3.34838         4.86132
|109>    H        2.24969         1.25607         4.86084
|110>    H        0.97180         0.57695         2.87310
|111> *
|112>
|113>                          ****END OF INPUT****

CARTESIAN COORDINATES (ANGSTROEM)
---------------------------------
  C     -7.344430   -6.979530    4.661830
  C     -7.235580   -8.350500    4.457970
  C     -6.359670   -8.857380    3.513650
  C     -5.558350   -8.016900    2.746130
  C     -5.642910   -6.653210    2.950900
  C     -6.542650   -6.141850    3.912080
  C     -6.453100   -4.692300    3.857680
  C     -7.352430   -3.764250    4.372810
  C     -8.304570   -4.036350    5.363450
  N     -9.069600   -4.217440    6.203170
  C     -7.437820   -2.533190    3.718050
  N     -7.544250   -1.615280    3.024090
  C     -5.421130   -4.341880    2.938700
  C     -4.934000   -5.528140    2.323620
  C     -3.936400   -5.663580    1.366400
  C     -3.316860   -4.572790    0.758430
  N     -2.889910   -3.656360    0.199050
  C     -3.482440   -6.891000    0.854630
  N     -3.058380   -7.855690    0.394890
  C     -4.927290   -3.000060    2.921110
  C     -4.665390   -2.185410    1.874060
  C     -4.050370   -0.885320    1.864170
  C     -4.062250   -0.337050    0.512070
  C     -4.620890   -1.147480   -0.414120
  S     -5.272520   -2.619370    0.255290
  O     -6.848160   -2.259800    0.444270
  O     -3.554430    0.864110    0.255160
  C     -3.459310   -0.321040    2.962950
  C     -2.818080    0.932670    3.015010
  C     -2.142920    1.381090    4.107260
  C     -1.431790    2.603520    4.143100
  C     -0.667750    3.112890    5.179960
  C     -0.054950    4.326010    4.885420
  C     -0.340060    4.785540    3.613430
  S     -1.389230    3.678700    2.775100
  C      0.145500    5.944320    2.955370
  C      1.168870    6.795700    3.327110
  C      1.448140    7.768630    2.372360
  C      0.674320    7.674150    1.227690
  S     -0.505650    6.401250    1.412460
  C      0.844480    8.486950    0.071420
  C      0.561510    8.259000   -1.235330
  C      0.126420    7.125710   -2.018100
  C     -0.121570    7.513450   -3.388970
  C      0.287250    8.771760   -3.701540
  S      1.100660    9.545750   -2.371040
  O      2.641170    9.174020   -2.547610
  O     -0.711510    6.661830   -4.229340
  C      0.312570    5.841770   -1.570560
  C      0.338780    4.635220   -2.275700
  C      0.752910    3.486040   -1.658820
  C      1.266050    3.332840   -0.338510
  C      0.901010    2.191430    0.450890
  C     -0.034090    1.229540    0.126460
  C     -0.879160    1.257150   -0.990700
  N     -1.685300    1.220220   -1.815810
  C     -0.348890    0.124980    0.940220
  N     -0.665100   -0.791840    1.556610
  C      1.581460    2.297010    1.736180
  C      2.337950    3.485960    1.724180
  C      3.036960    3.870330    2.853450
  C      2.992900    3.055240    3.977960
  C      2.264090    1.879290    3.979620
  C      1.543060    1.490720    2.857850
  C      2.186550    4.121780    0.408840
  C      2.969410    5.210690    0.024620
  C      3.917640    5.836680    0.857190
  N      4.690820    6.443260    1.455850
  C      2.990090    5.932940   -1.162260
  N      3.132590    6.676330   -2.039240
  H     -8.030980   -6.584750    5.394870
  H     -7.844260   -9.023940    5.042740
  H     -6.294620   -9.924920    3.364040
  H     -4.893540   -8.437380    2.009730
  H     -4.813830   -2.560220    3.909450
  H     -4.658310   -0.981410   -1.472450
  H     -7.106830   -1.822520    1.293200
  H     -3.444190    1.014690   -0.701650
  H     -3.453440   -0.900300    3.876510
  H     -2.839390    1.556490    2.134330
  H     -2.100790    0.780080    5.006480
  H     -0.561200    2.602930    6.120830
  H      0.574850    4.862430    5.571310
  H      1.713050    6.688690    4.246820
  H      2.237440    8.491020    2.476010
  H      1.347620    9.425040    0.282740
  H      0.177350    9.276990   -4.640320
  H      2.892710    8.186440   -2.437250
  H     -0.789910    7.041450   -5.113920
  H      0.559250    5.749690   -0.528450
  H      0.017950    4.600410   -3.304010
  H      0.628320    2.560730   -2.208730
  H      3.604120    4.785080    2.883770
  H      3.540160    3.348380    4.861320
  H      2.249690    1.256070    4.860840
  H      0.971800    0.576950    2.873100

 Total Charge           Charge          ....    0
 Multiplicity           Mult            ....    1
 Number of Electrons    NEL             ....  502
 Basis Dimension        Dim             .... 1126

ORBITAL ENERGIES
----------------

  NO   OCC          E(Eh)            E(eV)
   0   2.0000     -89.099762     -2424.5278
   1   2.0000     -89.075141     -2423.8578
   2   2.0000     -88.982810     -2421.3454
   3   2.0000     -88.971260     -2421.0311
   4   2.0000     -19.310478      -525.4648
   5   2.0000     -19.276842      -524.5495
   6   2.0000     -19.263513      -524.1868
   7   2.0000     -19.243477      -523.6416
   8   2.0000     -14.429000      -392.6330
   9   2.0000     -14.416236      -392.2857
  10   2.0000     -14.404601      -391.9691
  11   2.0000     -14.404063      -391.9545
  12   2.0000     -14.402791      -391.9199
  13   2.0000     -14.399991      -391.8437
  14   2.0000     -14.390222      -391.5778
  15   2.0000     -14.388126      -391.5208
  16   2.0000     -10.403630      -283.0972
  17   2.0000     -10.376966      -282.3716
  18   2.0000     -10.346547      -281.5439
  19   2.0000     -10.344313      -281.4831
  20   2.0000     -10.336104      -281.2597
  21   2.0000     -10.335969      -281.2560
  22   2.0000     -10.334108      -281.2054
  23   2.0000     -10.328850      -281.0623
  24   2.0000     -10.328013      -281.0395
  25   2.0000     -10.327273      -281.0194
  26   2.0000     -10.326400      -280.9956
  27   2.0000     -10.324206      -280.9359
  28   2.0000     -10.323637      -280.9204
  29   2.0000     -10.319005      -280.7944
  30   2.0000     -10.318357      -280.7768
  31   2.0000     -10.318109      -280.7700
  32   2.0000     -10.317803      -280.7617
  33   2.0000     -10.313974      -280.6575
  34   2.0000     -10.313789      -280.6525
  35   2.0000     -10.312917      -280.6287
  36   2.0000     -10.311510      -280.5905
  37   2.0000     -10.311348      -280.5860
  38   2.0000     -10.310610      -280.5660
  39   2.0000     -10.310287      -280.5572
  40   2.0000     -10.308679      -280.5134
  41   2.0000     -10.308668      -280.5131
  42   2.0000     -10.307377      -280.4780
  43   2.0000     -10.306245      -280.4472
  44   2.0000     -10.305660      -280.4313
  45   2.0000     -10.303903      -280.3835
  46   2.0000     -10.296928      -280.1937
  47   2.0000     -10.296419      -280.1798
  48   2.0000     -10.296134      -280.1721
  49   2.0000     -10.295736      -280.1612
  50   2.0000     -10.295194      -280.1465
  51   2.0000     -10.294524      -280.1282
  52   2.0000     -10.294109      -280.1169
  53   2.0000     -10.293971      -280.1132
  54   2.0000     -10.292412      -280.0708
  55   2.0000     -10.290185      -280.0102
  56   2.0000     -10.285454      -279.8814
  57   2.0000     -10.285174      -279.8738
  58   2.0000     -10.285026      -279.8698
  59   2.0000     -10.284819      -279.8641
  60   2.0000     -10.284556      -279.8570
  61   2.0000     -10.283685      -279.8333
  62   2.0000     -10.283518      -279.8287
  63   2.0000     -10.281516      -279.7743
  64   2.0000     -10.279479      -279.7189
  65   2.0000     -10.273773      -279.5636
  66   2.0000     -10.272332      -279.5244
  67   2.0000     -10.271869      -279.5118
  68   2.0000     -10.271149      -279.4922
  69   2.0000     -10.270785      -279.4823
  70   2.0000      -8.183814      -222.6929
  71   2.0000      -8.158021      -221.9910
  72   2.0000      -8.077577      -219.8020
  73   2.0000      -8.066127      -219.4905
  74   2.0000      -6.154527      -167.4732
  75   2.0000      -6.150602      -167.3664
  76   2.0000      -6.144993      -167.2138
  77   2.0000      -6.129326      -166.7874
  78   2.0000      -6.124390      -166.6531
  79   2.0000      -6.118812      -166.5013
  80   2.0000      -6.046919      -164.5450
  81   2.0000      -6.042720      -164.4308
  82   2.0000      -6.039700      -164.3486
  83   2.0000      -6.035425      -164.2323
  84   2.0000      -6.031346      -164.1213
  85   2.0000      -6.028280      -164.0378
  86   2.0000      -1.208763       -32.8921
  87   2.0000      -1.177885       -32.0519
  88   2.0000      -1.175125       -31.9768
  89   2.0000      -1.146492       -31.1976
  90   2.0000      -1.027247       -27.9528
  91   2.0000      -1.019597       -27.7447
  92   2.0000      -1.015954       -27.6455
  93   2.0000      -1.010400       -27.4944
  94   2.0000      -1.009058       -27.4579
  95   2.0000      -1.001738       -27.2587
  96   2.0000      -1.000789       -27.2328
  97   2.0000      -0.992786       -27.0151
  98   2.0000      -0.989625       -26.9291
  99   2.0000      -0.987652       -26.8754
 100   2.0000      -0.986562       -26.8457
 101   2.0000      -0.983560       -26.7640
 102   2.0000      -0.974245       -26.5105
 103   2.0000      -0.971167       -26.4268
 104   2.0000      -0.946857       -25.7653
 105   2.0000      -0.930646       -25.3242
 106   2.0000      -0.928444       -25.2642
 107   2.0000      -0.925545       -25.1854
 108   2.0000      -0.923931       -25.1415
 109   2.0000      -0.916621       -24.9425
 110   2.0000      -0.908892       -24.7322
 111   2.0000      -0.889639       -24.2083
 112   2.0000      -0.883975       -24.0542
 113   2.0000      -0.881420       -23.9846
 114   2.0000      -0.880304       -23.9543
 115   2.0000      -0.866117       -23.5682
 116   2.0000      -0.864922       -23.5357
 117   2.0000      -0.854959       -23.2646
 118   2.0000      -0.851625       -23.1739
 119   2.0000      -0.839367       -22.8403
 120   2.0000      -0.837868       -22.7995
 121   2.0000      -0.833976       -22.6936
 122   2.0000      -0.823919       -22.4200
 123   2.0000      -0.816221       -22.2105
 124   2.0000      -0.799553       -21.7569
 125   2.0000      -0.782035       -21.2803
 126   2.0000      -0.779847       -21.2207
 127   2.0000      -0.766806       -20.8659
 128   2.0000      -0.759645       -20.6710
 129   2.0000      -0.755924       -20.5698
 130   2.0000      -0.748281       -20.3618
 131   2.0000      -0.728607       -19.8264
 132   2.0000      -0.725548       -19.7432
 133   2.0000      -0.715518       -19.4702
 134   2.0000      -0.703909       -19.1543
 135   2.0000      -0.697509       -18.9802
 136   2.0000      -0.693318       -18.8662
 137   2.0000      -0.688197       -18.7268
 138   2.0000      -0.686920       -18.6920
 139   2.0000      -0.682601       -18.5745
 140   2.0000      -0.676142       -18.3988
 141   2.0000      -0.668721       -18.1968
 142   2.0000      -0.663085       -18.0435
 143   2.0000      -0.653294       -17.7770
 144   2.0000      -0.651827       -17.7371
 145   2.0000      -0.648288       -17.6408
 146   2.0000      -0.645484       -17.5645
 147   2.0000      -0.644169       -17.5287
 148   2.0000      -0.639829       -17.4106
 149   2.0000      -0.638135       -17.3645
 150   2.0000      -0.634683       -17.2706
 151   2.0000      -0.632202       -17.2031
 152   2.0000      -0.627422       -17.0730
 153   2.0000      -0.622648       -16.9431
 154   2.0000      -0.615419       -16.7464
 155   2.0000      -0.608381       -16.5549
 156   2.0000      -0.592795       -16.1308
 157   2.0000      -0.590620       -16.0716
 158   2.0000      -0.586003       -15.9460
 159   2.0000      -0.575342       -15.6558
 160   2.0000      -0.573659       -15.6101
 161   2.0000      -0.568434       -15.4679
 162   2.0000      -0.563376       -15.3303
 163   2.0000      -0.560469       -15.2511
 164   2.0000      -0.554780       -15.0963
 165   2.0000      -0.553353       -15.0575
 166   2.0000      -0.548310       -14.9203
 167   2.0000      -0.544522       -14.8172
 168   2.0000      -0.542807       -14.7705
 169   2.0000      -0.539489       -14.6803
 170   2.0000      -0.534500       -14.5445
 171   2.0000      -0.531741       -14.4694
 172   2.0000      -0.530165       -14.4265
 173   2.0000      -0.529061       -14.3965
 174   2.0000      -0.523231       -14.2378
 175   2.0000      -0.518539       -14.1102
 176   2.0000      -0.517127       -14.0718
 177   2.0000      -0.514628       -14.0037
 178   2.0000      -0.513741       -13.9796
 179   2.0000      -0.511432       -13.9168
 180   2.0000      -0.511249       -13.9118
 181   2.0000      -0.509697       -13.8696
 182   2.0000      -0.508312       -13.8319
 183   2.0000      -0.505306       -13.7501
 184   2.0000      -0.503367       -13.6973
 185   2.0000      -0.502874       -13.6839
 186   2.0000      -0.498692       -13.5701
 187   2.0000      -0.496919       -13.5219
 188   2.0000      -0.491973       -13.3873
 189   2.0000      -0.487080       -13.2541
 190   2.0000      -0.485945       -13.2232
 191   2.0000      -0.483699       -13.1621
 192   2.0000      -0.482981       -13.1426
 193   2.0000      -0.477489       -12.9931
 194   2.0000      -0.475875       -12.9492
 195   2.0000      -0.474939       -12.9238
 196   2.0000      -0.467681       -12.7263
 197   2.0000      -0.461317       -12.5531
 198   2.0000      -0.460012       -12.5176
 199   2.0000      -0.459129       -12.4935
 200   2.0000      -0.455794       -12.4028
 201   2.0000      -0.453233       -12.3331
 202   2.0000      -0.452690       -12.3183
 203   2.0000      -0.451670       -12.2906
 204   2.0000      -0.447656       -12.1813
 205   2.0000      -0.445282       -12.1168
 206   2.0000      -0.443072       -12.0566
 207   2.0000      -0.441091       -12.0027
 208   2.0000      -0.439511       -11.9597
 209   2.0000      -0.438138       -11.9223
 210   2.0000      -0.437352       -11.9009
 211   2.0000      -0.435375       -11.8471
 212   2.0000      -0.432659       -11.7733
 213   2.0000      -0.430909       -11.7256
 214   2.0000      -0.429197       -11.6790
 215   2.0000      -0.428644       -11.6640
 216   2.0000      -0.424904       -11.5622
 217   2.0000      -0.423842       -11.5333
 218   2.0000      -0.422627       -11.5003
 219   2.0000      -0.420202       -11.4343
 220   2.0000      -0.418103       -11.3772
 221   2.0000      -0.417116       -11.3503
 222   2.0000      -0.414213       -11.2713
 223   2.0000      -0.411524       -11.1981
 224   2.0000      -0.410667       -11.1748
 225   2.0000      -0.408895       -11.1266
 226   2.0000      -0.408243       -11.1089
 227   2.0000      -0.403942       -10.9918
 228   2.0000      -0.401449       -10.9240
 229   2.0000      -0.400910       -10.9093
 230   2.0000      -0.396279       -10.7833
 231   2.0000      -0.394187       -10.7264
 232   2.0000      -0.387261       -10.5379
 233   2.0000      -0.385176       -10.4812
 234   2.0000      -0.377225       -10.2648
 235   2.0000      -0.376385       -10.2420
 236   2.0000      -0.369076       -10.0431
 237   2.0000      -0.356308        -9.6956
 238   2.0000      -0.349283        -9.5045
 239   2.0000      -0.348578        -9.4853
 240   2.0000      -0.340190        -9.2570
 241   2.0000      -0.337774        -9.1913
 242   2.0000      -0.323284        -8.7970
 243   2.0000      -0.319106        -8.6833
 244   2.0000      -0.310186        -8.4406
 245   2.0000      -0.305381        -8.3098
 246   2.0000      -0.297987        -8.1086
 247   2.0000      -0.288979        -7.8635
 248   2.0000      -0.260423        -7.0865
 249   2.0000      -0.248260        -6.7555
 250   2.0000      -0.234696        -6.3864
 251   0.0000      -0.097030        -2.6403
 252   0.0000      -0.084355        -2.2954
 253   0.0000      -0.072031        -1.9601
 254   0.0000      -0.067980        -1.8498
 255   0.0000      -0.056103        -1.5267

MULLIKEN ATOMIC CHARGES
-----------------------
   0 C :   -0.042275
   1 C :    0.041749
   2 C :    0.041086
   3 C :   -0.047042
   4 C :    0.003881
   5 C :    0.020712
   6 C :    0.240555
   7 C :   -0.350724
   8 C :   -0.164679
   9 N :    0.121868
  10 C :   -0.103462
  11 N :    0.008269
  12 C :   -0.169937
  13 C :    0.309739
  14 C :   -0.357837
  15 C :   -0.148090
  16 N :    0.059532
  17 C :   -0.175735
  18 N :    0.130343
  19 C :   -0.023735
  20 C :   -0.198583
  21 C :    0.238234
  22 C :    0.220021
  23 C :   -0.163497
  24 S :    0.565747
  25 O :   -0.393696
  26 O :   -0.160608
  27 C :   -0.045207
  28 C :    0.016613
  29 C :    0.026002
  30 C :   -0.043135
  31 C :    0.023645
  32 C :    0.032851
  33 C :   -0.041886
  34 S :    0.113322
  35 C :   -0.033857
  36 C :    0.001087
  37 C :    0.075585
  38 C :   -0.136715
  39 S :    0.129249
  40 C :    0.109531
  41 C :   -0.226965
  42 C :    0.130777
  43 C :    0.185221
  44 C :   -0.218084
  45 S :    0.549439
  46 O :   -0.402781
  47 O :   -0.134632
  48 C :   -0.030656
  49 C :    0.029337
  50 C :   -0.007427
  51 C :   -0.138392
  52 C :    0.326885
  53 C :   -0.382662
  54 C :   -0.158068
  55 N :    0.069554
  56 C :   -0.198131
  57 N :    0.145630
  58 C :    0.006233
  59 C :    0.005781
  60 C :   -0.055072
  61 C :    0.041791
  62 C :    0.055731
  63 C :   -0.044397
  64 C :    0.322019
  65 C :   -0.390941
  66 C :   -0.218442
  67 N :    0.123893
  68 C :   -0.105733
  69 N :    0.051491
  70 H :   -0.002745
  71 H :   -0.007313
  72 H :   -0.006152
  73 H :   -0.001798
  74 H :    0.036169
  75 H :    0.030214
  76 H :    0.224233
  77 H :    0.203586
  78 H :   -0.013125
  79 H :    0.026879
  80 H :   -0.009961
  81 H :   -0.015382
  82 H :   -0.014622
  83 H :   -0.009654
  84 H :    0.004062
  85 H :    0.018840
  86 H :    0.021476
  87 H :    0.227953
  88 H :    0.202960
  89 H :    0.035553
  90 H :   -0.011982
  91 H :    0.035017
  92 H :   -0.005014
  93 H :   -0.013918
  94 H :   -0.012107
  95 H :   -0.003494
Sum of atomic charges:   -0.0000000

LOEWDIN ATOMIC CHARGES
----------------------
   0 C :   -0.003007
   1 C :   -0.009650
   2 C :   -0.009821
   3 C :   -0.002157
   4 C :   -0.011653
   5 C :   -0.015842
   6 C :    0.081819
   7 C :   -0.190107
   8 C :   -0.028126
   9 N :   -0.076660
  10 C :    0.033672
  11 N :   -0.117056
  12 C :   -0.147998
  13 C :    0.077498
  14 C :   -0.187334
  15 C :   -0.004027
  16 N :   -0.115640
  17 C :   -0.023165
  18 N :   -0.077361
  19 C :    0.020549
  20 C :   -0.176280
  21 C :   -0.052704
  22 C :    0.092719
  23 C :   -0.261409
  24 S :    0.969773
  25 O :   -0.272014
  26 O :   -0.000613
  27 C :    0.030526
  28 C :   -0.018814
  29 C :   -0.024782
  30 C :   -0.154563
  31 C :   -0.047313
  32 C :   -0.034091
  33 C :   -0.189122
  34 S :    0.447486
  35 C :   -0.157758
  36 C :   -0.057319
  37 C :   -0.007150
  38 C :   -0.200802
  39 S :    0.467601
  40 C :   -0.022980
  41 C :   -0.171929
  42 C :   -0.130758
  43 C :    0.095575
  44 C :   -0.318289
  45 S :    0.926472
  46 O :   -0.282105
  47 O :    0.005042
  48 C :    0.054181
  49 C :   -0.063839
  50 C :    0.050086
  51 C :   -0.126381
  52 C :    0.082235
  53 C :   -0.172010
  54 C :    0.007701
  55 N :   -0.112116
  56 C :   -0.019683
  57 N :   -0.063588
  58 C :   -0.019424
  59 C :   -0.011957
  60 C :   -0.005823
  61 C :   -0.012775
  62 C :   -0.006388
  63 C :    0.000146
  64 C :    0.071748
  65 C :   -0.203490
  66 C :   -0.019172
  67 N :   -0.093816
  68 C :    0.065877
  69 N :   -0.087477
  70 H :    0.038496
  71 H :    0.032298
  72 H :    0.032746
  73 H :    0.038717
  74 H :    0.044459
  75 H :    0.032686
  76 H :    0.055684
  77 H :    0.094762
  78 H :    0.034719
  79 H :    0.020842
  80 H :    0.035601
  81 H :    0.032086
  82 H :    0.031299
  83 H :    0.033882
  84 H :    0.039972
  85 H :    0.043964
  86 H :    0.025905
  87 H :    0.033824
  88 H :    0.113538
  89 H :    0.014682
  90 H :    0.029107
  91 H :    0.044147
  92 H :    0.035468
  93 H :    0.030085
  94 H :    0.030743
  95 H :    0.037918

  Mayer bond orders larger than 0.100000
B(  0-C ,  1-C ) :   1.3299 B(  0-C ,  5-C ) :   1.4124 B(  0-C , 70-H ) :   0.9891
B(  1-C ,  2-C ) :   1.4149 B(  1-C , 71-H ) :   0.9855 B(  2-C ,  3-C ) :   1.3344
B(  2-C , 72-H ) :   0.9851 B(  3-C ,  4-C ) :   1.4180 B(  3-C , 73-H ) :   0.9840
B(  4-C ,  5-C ) :   1.3207 B(  4-C , 13-C ) :   0.9719 B(  5-C ,  6-C ) :   1.0025
B(  6-C ,  7-C ) :   1.4603 B(  6-C , 12-C ) :   1.2206 B(  7-C ,  8-C ) :   1.1348
B(  7-C , 10-C ) :   1.2038 B(  8-C ,  9-N ) :   2.9811 B( 10-C , 11-N ) :   2.8083
B( 11-N , 76-H ) :   0.1359 B( 12-C , 13-C ) :   1.2263 B( 12-C , 19-C ) :   1.0887
B( 13-C , 14-C ) :   1.5007 B( 14-C , 15-C ) :   1.1999 B( 14-C , 17-C ) :   1.1371
B( 15-C , 16-N ) :   2.8609 B( 17-C , 18-N ) :   2.9656 B( 19-C , 20-C ) :   1.7424
B( 19-C , 74-H ) :   0.9365 B( 20-C , 21-C ) :   1.0083 B( 20-C , 24-S ) :   1.0044
B( 21-C , 22-C ) :   1.0536 B( 21-C , 27-C ) :   1.5973 B( 22-C , 23-C ) :   1.5795
B( 22-C , 26-O ) :   1.2791 B( 23-C , 24-S ) :   1.0173 B( 23-C , 75-H ) :   0.9685
B( 24-S , 25-O ) :   0.9686 B( 25-O , 76-H ) :   0.8725 B( 26-O , 77-H ) :   0.8992
B( 27-C , 28-C ) :   1.1648 B( 27-C , 78-H ) :   0.9676 B( 28-C , 29-C ) :   1.5941
B( 28-C , 79-H ) :   0.9594 B( 29-C , 30-C ) :   1.1521 B( 29-C , 80-H ) :   0.9882
B( 30-C , 31-C ) :   1.4494 B( 30-C , 33-C ) :   0.1042 B( 30-C , 34-S ) :   1.1202
B( 31-C , 32-C ) :   1.2732 B( 31-C , 81-H ) :   1.0036 B( 32-C , 33-C ) :   1.5052
B( 32-C , 82-H ) :   0.9944 B( 33-C , 34-S ) :   1.1157 B( 33-C , 35-C ) :   1.1210
B( 35-C , 36-C ) :   1.4841 B( 35-C , 39-S ) :   1.1378 B( 36-C , 37-C ) :   1.2983
B( 36-C , 83-H ) :   0.9958 B( 37-C , 38-C ) :   1.4416 B( 37-C , 84-H ) :   0.9971
B( 38-C , 39-S ) :   1.0938 B( 38-C , 40-C ) :   1.1778 B( 40-C , 41-C ) :   1.6854
B( 40-C , 85-H ) :   0.9344 B( 41-C , 42-C ) :   1.0067 B( 41-C , 45-S ) :   1.0177
B( 42-C , 43-C ) :   1.0970 B( 42-C , 48-C ) :   1.5607 B( 43-C , 44-C ) :   1.5087
B( 43-C , 47-O ) :   1.3037 B( 44-C , 45-S ) :   1.0247 B( 44-C , 86-H ) :   0.9775
B( 45-S , 46-O ) :   1.0345 B( 46-O , 87-H ) :   0.8013 B( 47-O , 88-H ) :   0.9466
B( 48-C , 49-C ) :   1.2348 B( 48-C , 89-H ) :   0.9298 B( 49-C , 50-C ) :   1.6056
B( 49-C , 90-H ) :   0.9742 B( 50-C , 51-C ) :   1.1170 B( 50-C , 91-H ) :   0.9398
B( 51-C , 52-C ) :   1.1991 B( 51-C , 64-C ) :   1.2479 B( 52-C , 53-C ) :   1.5111
B( 52-C , 58-C ) :   0.9603 B( 53-C , 54-C ) :   1.1742 B( 53-C , 56-C ) :   1.1740
B( 54-C , 55-N ) :   2.8783 B( 56-C , 57-N ) :   2.9100 B( 58-C , 59-C ) :   1.3305
B( 58-C , 63-C ) :   1.4100 B( 59-C , 60-C ) :   1.4014 B( 59-C , 64-C ) :   0.9682
B( 60-C , 61-C ) :   1.3362 B( 60-C , 92-H ) :   0.9756 B( 61-C , 62-C ) :   1.4025
B( 61-C , 93-H ) :   0.9890 B( 62-C , 63-C ) :   1.3348 B( 62-C , 94-H ) :   0.9845
B( 63-C , 95-H ) :   0.9811 B( 64-C , 65-C ) :   1.3912 B( 65-C , 66-C ) :   1.1664
B( 65-C , 68-C ) :   1.2380 B( 66-C , 67-N ) :   2.9415 B( 68-C , 69-N ) :   2.7479
B( 69-N , 87-H ) :   0.2311

-----------------------------------------------------------------------------
         ABSORPTION SPECTRUM VIA TRANSITION ELECTRIC DIPOLE MOMENTS
-----------------------------------------------------------------------------
State   Energy  Wavelength   fosc         T2         TX        TY        TZ
        (cm-1)    (nm)                  (au**2)     (au)      (au)      (au)
-----------------------------------------------------------------------------
   0   13507.7    740.3   0.065867330   1.60533  -1.26619  -0.04146   0.01948
   1   16178.5    618.1   0.512705026  10.43289   0.98227   3.05330  -0.38129
   2   17010.7    587.9   0.163839824   3.17083  -1.21075  -1.29814   0.14052
   3   18617.6    537.1   0.163545092   2.89195  -0.42796   1.01843   1.29290
   4   18803.3    531.8   0.262750268   4.60030  -1.83543  -0.70164   0.85976
   5   19934.6    501.6   0.033543246   0.55395   0.07825   0.73828   0.05260
   6   20996.2    476.3   0.343739816   5.38971  -0.13534  -1.96715   1.22544
   7   23011.0    434.6   0.240574332   3.44183  -1.17434  -1.43586  -0.03264
   8   24255.3    412.3   0.131367515   1.78302   0.51829   1.22095  -0.15390
   9   24919.9    401.3   0.034059967   0.44996   0.20311   0.18950   0.61057
  10   25242.9    396.2   0.306252782   3.99407  -0.92313  -1.72302  -0.41608
  11   25550.7    391.4   0.144578069   1.86284   0.18301   1.21064  -0.60306
  12   26503.2    377.3   0.066779476   0.82951   0.61845  -0.41655  -0.52299
  13   26800.3    373.1   0.093155469   1.14431   0.98125  -0.42427  -0.03819
  14   27770.7    360.1   0.346022426   4.10198  -0.75446  -1.64315  -0.91258
  15   28117.5    355.7   0.117298056   1.37338  -0.51984  -0.78881   0.69349
  16   29277.1    341.6   0.209078195   2.35102   0.46678   1.08082  -0.98233
  17   30042.2    332.9   0.172797079   1.89356  -1.34953   0.18487   0.19534
  18   30300.5    330.0   0.109743334   1.19235   0.78666   0.74762   0.12072
  19   30458.6    328.3   0.123254846   1.33220  -0.40303  -1.05098   0.25536
  20   30642.5    326.3   0.053465177   0.57441  -0.47288  -0.58522  -0.09117
  21   30810.5    324.6   0.323906284   3.46095   0.42275  -1.10804  -1.43335
  22   31522.0    317.2   0.106320471   1.11040   0.42345   0.01265  -0.96485
  23   31596.3    316.5   0.102419210   1.06714  -0.87215  -0.49400  -0.24992
  24   32189.6    310.7   0.001578793   0.01615  -0.12293   0.02841  -0.01506
  25   32413.5    308.5   0.068090689   0.69157   0.30893   0.44149   0.63342
  26   33134.7    301.8   0.116240160   1.15491   0.45750  -0.96808   0.09177
  27   33334.8    300.0   0.072228727   0.71332   0.22549  -0.27116   0.76743
  28   33569.6    297.9   0.081657327   0.80080  -0.49903  -0.44522   0.59460
  29   33997.9    294.1   0.268415257   2.59915   0.35993  -0.76722   1.37148
  30   34264.0    291.9   0.018571843   0.17844  -0.02860   0.35469  -0.22763
  31   34574.4    289.2   0.202004040   1.92345  -0.04969   0.63650  -1.23120
  32   34731.2    287.9   0.064952075   0.61567  -0.34949   0.56119  -0.42260
  33   35202.1    284.1   0.169604220   1.58615  -0.03960   0.87284  -0.90705
  34   35689.7    280.2   0.015342241   0.14152  -0.02760   0.03264  -0.37376
  35   35814.3    279.2   0.011188737   0.10285   0.16129   0.26821   0.06998
  36   36210.5    276.2   0.045825109   0.41662  -0.18146   0.10206  -0.61097
  37   36514.9    273.9   0.104060763   0.93819  -0.24612  -0.64578   0.67867
  38   36639.0    272.9   0.013131675   0.11799   0.06694   0.29113  -0.16958
  39   36678.0    272.6   0.195699723   1.75655  -0.48256  -0.94262  -0.79696
  40   36949.6    270.6   0.023936786   0.21327  -0.20399  -0.39817  -0.11453
  41   37084.7    269.7   0.005806460   0.05155   0.15553  -0.06020   0.15405
  42   37289.9    268.2   0.019754486   0.17440  -0.29082   0.18053  -0.23924
  43   37397.9    267.4   0.005899328   0.05193  -0.04668  -0.20025  -0.09825
  44   37577.6    266.1   0.021109313   0.18494   0.18465   0.17316   0.34764
  45   37968.2    263.4   0.035610642   0.30877   0.17633  -0.26065   0.45797
  46   38147.5    262.1   0.022197467   0.19156  -0.16365  -0.29976  -0.27373
  47   38284.2    261.2   0.075581627   0.64994  -0.15341  -0.74192  -0.27562
  48   38876.3    257.2   0.015936353   0.13495  -0.13443   0.32961  -0.09075
  49   38979.6    256.5   0.043886062   0.37065   0.01675  -0.00869   0.60852
  50   39019.3    256.3   0.047556655   0.40124  -0.04479   0.47779  -0.41346
  51   39248.9    254.8   0.018447051   0.15473  -0.05773   0.18884  -0.34020
  52   39400.0    253.8   0.057231101   0.47820  -0.35734  -0.37192  -0.46063
  53   39842.8    251.0   0.154134804   1.27358   0.54528   0.38467   0.91010
  54   40000.4    250.0   0.025983682   0.21385   0.07528   0.13071  -0.43715

FINAL SINGLE POINT ENERGY     -4400.622914588568

DIPOLE MOMENT
-------------
                                X             Y             Z
Electronic contribution:     -6.12063       0.73696     -12.70014
Nuclear contribution   :      7.68272       5.65075      11.23826
                        -----------------------------------------
Total Dipole Moment    :      1.56209       6.38770      -1.46187
                        -----------------------------------------
Magnitude (a.u.)       :      6.73646
Magnitude (Debye)      :     17.12273

Rotational constants in cm-1:     0.002400     0.000438     0.000424
Rotational constants in MHz :    71.958139    13.122477    12.719657

                             ****ORCA TERMINATED NORMALLY****
TOTAL RUN TIME: 0 days 0 hours 12 minutes 19 seconds 92 msec
