                         Program Version 4.2.0 -  RELEASE  -
|  1> # ORCA input file
|  2> # SCF done       -206.749392392494          0.000657451534
|  3> ! CAM-B3LYP def2-SVP def2/J RIJCOSX Grid4 TightSCF
|  4> %maxcore 5000
|  5> %tddft
|  6>     Mode sTDDFT
|  7>     Ethresh 5.0
|  8>     maxcore 5000
|  9> end
| 10>
| 11> %pal
| 12>   nprocs 6
| 13>   end
| 14> * xyz 0 1
| 15>    C        1.67950        -2.71944         0.60484
| 16>    C        1.87010        -2.10497         1.80456
| 17>    C        1.50331        -0.74634         1.74813
| 18>    C        1.03809        -0.37073         0.48244
| 19>    S        1.05149        -1.66977        -0.62366
| 20>    C        0.68884         1.01027         0.51728
| 21>    C        0.93731         1.49749         1.80617
| 22>    C        1.45830         0.40847         2.62470
| 23>    C        1.82098         0.47219         3.93837
| 24>    C        1.72746         1.66506         4.68522
| 25>    N        1.65240         2.63350         5.29501
| 26>    C        2.31243        -0.64922         4.63884
| 27>    N        2.71282        -1.55691         5.21414
| 28>    C        0.62071         2.84979         1.94799
| 29>    C        0.13213         3.39046         0.77413
| 30>    S        0.06587         2.21044        -0.52601
| 31>    C       -0.30203         4.72338         0.55271
| 32>    C       -0.81347         5.26913        -0.60842
| 33>    C       -1.15441         6.61373        -0.44706
| 34>    C       -0.89611         7.09034         0.84664
| 35>    S       -0.23439         5.89162         1.86568
| 36>    C       -1.29053         8.45312         0.91396
| 37>    C       -1.79880         8.83539        -0.33450
| 38>    C       -1.72640         7.69617        -1.23514
| 39>    C       -2.11437         7.64815        -2.54204
| 40>    C       -2.66400         8.76687        -3.20211
| 41>    N       -3.11148         9.67542        -3.74036
| 42>    C       -1.99177         6.47709        -3.31855
| 43>    N       -1.89446         5.52585        -3.95176
| 44>    C       -2.22956        10.16675        -0.36031
| 45>    C       -2.05095        10.79973         0.85055
| 46>    S       -1.33191         9.72678         2.04535
| 47>    C       -2.38362        12.15334         1.22110
| 48>    C       -1.90989        12.68308         2.43022
| 49>    C       -2.24400        13.96415         2.78781
| 50>    C       -3.06209        14.74964         1.95694
| 51>    C       -3.53203        14.23692         0.75619
| 52>    C       -3.19046        12.94877         0.39610
| 53>    C       -3.25563        16.03682         2.58919
| 54>    C       -2.54729        16.04853         3.80423
| 55>    C       -1.84794        14.72829         4.02774
| 56>    C       -0.32042        14.90708         4.11092
| 57>    C        0.26202        15.59895         2.88435
| 58>    C       -2.35628        14.02997         5.30284
| 59>    C       -3.86405        13.80909         5.29530
| 60>    C       -2.55123        17.15808         4.61081
| 61>    C       -3.27675        18.29570         4.22261
| 62>    C       -3.99524        18.25955         3.01811
| 63>    C       -3.98668        17.14965         2.19820
| 64>    C       -3.31090        19.50282         5.01160
| 65>    C       -2.51996        19.77649         6.06981
| 66>    C       -2.55267        20.98302         6.82503
| 67>    C       -3.40078        22.07133         6.72874
| 68>    C       -3.08468        23.06897         7.65232
| 69>    C       -1.98443        22.74087         8.46046
| 70>    S       -1.34811        21.20335         8.08785
| 71>    C       -1.73559        23.81939         9.34745
| 72>    C       -2.68091        24.82842         9.10362
| 73>    C       -3.56322        24.38976         8.03419
| 74>    C       -4.61696        25.07225         7.50072
| 75>    C       -4.98969        26.35359         7.95781
| 76>    N       -5.29464        27.39542         8.32749
| 77>    C       -5.40309        24.54130         6.45702
| 78>    N       -6.04299        24.11189         5.60762
| 79>    C       -2.50690        25.94500         9.92412
| 80>    C       -1.43737        25.79249        10.78438
| 81>    S       -0.63462        24.23976        10.58252
| 82>    C       -0.94976        26.71725        11.74385
| 83>    C        0.13925        26.56515        12.58069
| 84>    C        0.33696        27.68741        13.38706
| 85>    C       -0.60826        28.69561        13.16203
| 86>    S       -1.74365        28.26998        11.95912
| 87>    C       -0.31467        29.78968        14.02615
| 88>    C        0.81332        29.46637        14.78957
| 89>    C        1.26424        28.13867        14.41870
| 90>    C        2.33059        27.45062        14.91958
| 91>    C        3.16931        27.98588        15.91945
| 92>    N        3.85552        28.41550        16.73158
| 93>    C        2.66670        26.15675        14.46967
| 94>    N        2.94277        25.10486        14.10532
| 95>    C        1.17734        30.49959        15.67480
| 96>    C        0.33509        31.56360        15.56700
| 97>    S       -0.92001        31.34252        14.39159
| 98>    H        1.87010        -3.74341         0.35327
| 99>    H        2.25193        -2.60291         2.67695
|100>    H        0.73223         3.42239         2.85125
|101>    H       -0.92956         4.70379        -1.51570
|102>    H       -2.64124        10.64882        -1.22743
|103>    H       -1.28154        12.07686         3.06756
|104>    H       -4.16026        14.83173         0.11068
|105>    H       -3.56466        12.54314        -0.53060
|106>    H        0.14064        13.92390         4.22607
|107>    H       -0.08521        15.49198         5.00255
|108>    H        0.05782        15.02304         1.98440
|109>    H        1.33950        15.70197         2.98970
|110>    H       -0.16823        16.59046         2.76126
|111>    H       -2.08392        14.63905         6.16726
|112>    H       -1.84930        13.06763         5.39978
|113>    H       -4.39141        14.75744         5.21906
|114>    H       -4.17391        13.31570         6.21353
|115>    H       -4.15739        13.18531         4.45380
|116>    H       -2.01093        17.15061         5.54471
|117>    H       -4.56037        19.13277         2.72522
|118>    H       -4.54105        17.14860         1.27177
|119>    H       -4.02375        20.24885         4.68696
|120>    H       -1.77331        19.06278         6.38902
|121>    H       -4.20815        22.12877         6.02277
|122>    H       -3.11649        26.83061         9.90425
|123>    H        0.74820        25.67898        12.58935
|124>    H        2.01082        30.46352        16.35217
|125>    H        0.36776        32.48556        16.11202
|126> *
|127>
|128>                          ****END OF INPUT****

CARTESIAN COORDINATES (ANGSTROEM)
---------------------------------
  C      1.679500   -2.719440    0.604840
  C      1.870100   -2.104970    1.804560
  C      1.503310   -0.746340    1.748130
  C      1.038090   -0.370730    0.482440
  S      1.051490   -1.669770   -0.623660
  C      0.688840    1.010270    0.517280
  C      0.937310    1.497490    1.806170
  C      1.458300    0.408470    2.624700
  C      1.820980    0.472190    3.938370
  C      1.727460    1.665060    4.685220
  N      1.652400    2.633500    5.295010
  C      2.312430   -0.649220    4.638840
  N      2.712820   -1.556910    5.214140
  C      0.620710    2.849790    1.947990
  C      0.132130    3.390460    0.774130
  S      0.065870    2.210440   -0.526010
  C     -0.302030    4.723380    0.552710
  C     -0.813470    5.269130   -0.608420
  C     -1.154410    6.613730   -0.447060
  C     -0.896110    7.090340    0.846640
  S     -0.234390    5.891620    1.865680
  C     -1.290530    8.453120    0.913960
  C     -1.798800    8.835390   -0.334500
  C     -1.726400    7.696170   -1.235140
  C     -2.114370    7.648150   -2.542040
  C     -2.664000    8.766870   -3.202110
  N     -3.111480    9.675420   -3.740360
  C     -1.991770    6.477090   -3.318550
  N     -1.894460    5.525850   -3.951760
  C     -2.229560   10.166750   -0.360310
  C     -2.050950   10.799730    0.850550
  S     -1.331910    9.726780    2.045350
  C     -2.383620   12.153340    1.221100
  C     -1.909890   12.683080    2.430220
  C     -2.244000   13.964150    2.787810
  C     -3.062090   14.749640    1.956940
  C     -3.532030   14.236920    0.756190
  C     -3.190460   12.948770    0.396100
  C     -3.255630   16.036820    2.589190
  C     -2.547290   16.048530    3.804230
  C     -1.847940   14.728290    4.027740
  C     -0.320420   14.907080    4.110920
  C      0.262020   15.598950    2.884350
  C     -2.356280   14.029970    5.302840
  C     -3.864050   13.809090    5.295300
  C     -2.551230   17.158080    4.610810
  C     -3.276750   18.295700    4.222610
  C     -3.995240   18.259550    3.018110
  C     -3.986680   17.149650    2.198200
  C     -3.310900   19.502820    5.011600
  C     -2.519960   19.776490    6.069810
  C     -2.552670   20.983020    6.825030
  C     -3.400780   22.071330    6.728740
  C     -3.084680   23.068970    7.652320
  C     -1.984430   22.740870    8.460460
  S     -1.348110   21.203350    8.087850
  C     -1.735590   23.819390    9.347450
  C     -2.680910   24.828420    9.103620
  C     -3.563220   24.389760    8.034190
  C     -4.616960   25.072250    7.500720
  C     -4.989690   26.353590    7.957810
  N     -5.294640   27.395420    8.327490
  C     -5.403090   24.541300    6.457020
  N     -6.042990   24.111890    5.607620
  C     -2.506900   25.945000    9.924120
  C     -1.437370   25.792490   10.784380
  S     -0.634620   24.239760   10.582520
  C     -0.949760   26.717250   11.743850
  C      0.139250   26.565150   12.580690
  C      0.336960   27.687410   13.387060
  C     -0.608260   28.695610   13.162030
  S     -1.743650   28.269980   11.959120
  C     -0.314670   29.789680   14.026150
  C      0.813320   29.466370   14.789570
  C      1.264240   28.138670   14.418700
  C      2.330590   27.450620   14.919580
  C      3.169310   27.985880   15.919450
  N      3.855520   28.415500   16.731580
  C      2.666700   26.156750   14.469670
  N      2.942770   25.104860   14.105320
  C      1.177340   30.499590   15.674800
  C      0.335090   31.563600   15.567000
  S     -0.920010   31.342520   14.391590
  H      1.870100   -3.743410    0.353270
  H      2.251930   -2.602910    2.676950
  H      0.732230    3.422390    2.851250
  H     -0.929560    4.703790   -1.515700
  H     -2.641240   10.648820   -1.227430
  H     -1.281540   12.076860    3.067560
  H     -4.160260   14.831730    0.110680
  H     -3.564660   12.543140   -0.530600
  H      0.140640   13.923900    4.226070
  H     -0.085210   15.491980    5.002550
  H      0.057820   15.023040    1.984400
  H      1.339500   15.701970    2.989700
  H     -0.168230   16.590460    2.761260
  H     -2.083920   14.639050    6.167260
  H     -1.849300   13.067630    5.399780
  H     -4.391410   14.757440    5.219060
  H     -4.173910   13.315700    6.213530
  H     -4.157390   13.185310    4.453800
  H     -2.010930   17.150610    5.544710
  H     -4.560370   19.132770    2.725220
  H     -4.541050   17.148600    1.271770
  H     -4.023750   20.248850    4.686960
  H     -1.773310   19.062780    6.389020
  H     -4.208150   22.128770    6.022770
  H     -3.116490   26.830610    9.904250
  H      0.748200   25.678980   12.589350
  H      2.010820   30.463520   16.352170
  H      0.367760   32.485560   16.112020

 Total Charge           Charge          ....    0
 Multiplicity           Mult            ....    1
 Number of Electrons    NEL             ....  614
 Basis Dimension        Dim             .... 1334

ORBITAL ENERGIES
----------------

  NO   OCC          E(Eh)            E(eV)
   0   2.0000     -88.990427     -2421.5526
   1   2.0000     -88.990368     -2421.5510
   2   2.0000     -88.990063     -2421.5427
   3   2.0000     -88.990039     -2421.5421
   4   2.0000     -88.986857     -2421.4555
   5   2.0000     -88.986591     -2421.4482
   6   2.0000     -88.985637     -2421.4223
   7   2.0000     -88.985471     -2421.4178
   8   2.0000     -14.430323      -392.6690
   9   2.0000     -14.430249      -392.6670
  10   2.0000     -14.429982      -392.6598
  11   2.0000     -14.429784      -392.6544
  12   2.0000     -14.429740      -392.6532
  13   2.0000     -14.429453      -392.6454
  14   2.0000     -14.428526      -392.6202
  15   2.0000     -14.428296      -392.6139
  16   2.0000     -10.363521      -282.0058
  17   2.0000     -10.363349      -282.0011
  18   2.0000     -10.362631      -281.9815
  19   2.0000     -10.362375      -281.9746
  20   2.0000     -10.351230      -281.6713
  21   2.0000     -10.351085      -281.6673
  22   2.0000     -10.350431      -281.6496
  23   2.0000     -10.350149      -281.6419
  24   2.0000     -10.331543      -281.1356
  25   2.0000     -10.331043      -281.1220
  26   2.0000     -10.330882      -281.1176
  27   2.0000     -10.330795      -281.1152
  28   2.0000     -10.330533      -281.1081
  29   2.0000     -10.330419      -281.1050
  30   2.0000     -10.330248      -281.1003
  31   2.0000     -10.330124      -281.0970
  32   2.0000     -10.329892      -281.0907
  33   2.0000     -10.329578      -281.0821
  34   2.0000     -10.328984      -281.0660
  35   2.0000     -10.328914      -281.0640
  36   2.0000     -10.328899      -281.0636
  37   2.0000     -10.328691      -281.0580
  38   2.0000     -10.328678      -281.0576
  39   2.0000     -10.328627      -281.0562
  40   2.0000     -10.328611      -281.0558
  41   2.0000     -10.328158      -281.0435
  42   2.0000     -10.327399      -281.0228
  43   2.0000     -10.326966      -281.0110
  44   2.0000     -10.319333      -280.8033
  45   2.0000     -10.318439      -280.7790
  46   2.0000     -10.310464      -280.5620
  47   2.0000     -10.310204      -280.5549
  48   2.0000     -10.301967      -280.3308
  49   2.0000     -10.301807      -280.3264
  50   2.0000     -10.301724      -280.3242
  51   2.0000     -10.301546      -280.3193
  52   2.0000     -10.301542      -280.3192
  53   2.0000     -10.301284      -280.3122
  54   2.0000     -10.301046      -280.3057
  55   2.0000     -10.300755      -280.2978
  56   2.0000     -10.300588      -280.2932
  57   2.0000     -10.299011      -280.2503
  58   2.0000     -10.297942      -280.2213
  59   2.0000     -10.297611      -280.2122
  60   2.0000     -10.296630      -280.1856
  61   2.0000     -10.296398      -280.1792
  62   2.0000     -10.295296      -280.1493
  63   2.0000     -10.294977      -280.1406
  64   2.0000     -10.294942      -280.1396
  65   2.0000     -10.289823      -280.0003
  66   2.0000     -10.284758      -279.8625
  67   2.0000     -10.284337      -279.8510
  68   2.0000     -10.283292      -279.8226
  69   2.0000     -10.280027      -279.7338
  70   2.0000     -10.279488      -279.7191
  71   2.0000     -10.279053      -279.7073
  72   2.0000     -10.277331      -279.6604
  73   2.0000     -10.276417      -279.6355
  74   2.0000     -10.276002      -279.6242
  75   2.0000     -10.275939      -279.6225
  76   2.0000     -10.275149      -279.6010
  77   2.0000     -10.274777      -279.5909
  78   2.0000     -10.273645      -279.5601
  79   2.0000     -10.268593      -279.4226
  80   2.0000     -10.268381      -279.4168
  81   2.0000     -10.250596      -278.9329
  82   2.0000     -10.250437      -278.9286
  83   2.0000      -8.084838      -219.9996
  84   2.0000      -8.084781      -219.9981
  85   2.0000      -8.084512      -219.9908
  86   2.0000      -8.084496      -219.9903
  87   2.0000      -8.081826      -219.9177
  88   2.0000      -8.081532      -219.9097
  89   2.0000      -8.080368      -219.8780
  90   2.0000      -8.079823      -219.8632
  91   2.0000      -6.054142      -164.7416
  92   2.0000      -6.054091      -164.7402
  93   2.0000      -6.053800      -164.7323
  94   2.0000      -6.053785      -164.7319
  95   2.0000      -6.051049      -164.6574
  96   2.0000      -6.050781      -164.6501
  97   2.0000      -6.049968      -164.6280
  98   2.0000      -6.049901      -164.6262
  99   2.0000      -6.049655      -164.6195
 100   2.0000      -6.049646      -164.6192
 101   2.0000      -6.049522      -164.6159
 102   2.0000      -6.048987      -164.6013
 103   2.0000      -6.047119      -164.5505
 104   2.0000      -6.047067      -164.5491
 105   2.0000      -6.046774      -164.5411
 106   2.0000      -6.046759      -164.5407
 107   2.0000      -6.046645      -164.5376
 108   2.0000      -6.046329      -164.5290
 109   2.0000      -6.045406      -164.5039
 110   2.0000      -6.044867      -164.4892
 111   2.0000      -6.044472      -164.4784
 112   2.0000      -6.044191      -164.4708
 113   2.0000      -6.042902      -164.4357
 114   2.0000      -6.042388      -164.4217
 115   2.0000      -1.044228       -28.4149
 116   2.0000      -1.044017       -28.4091
 117   2.0000      -1.041019       -28.3276
 118   2.0000      -1.040809       -28.3218
 119   2.0000      -1.021870       -27.8065
 120   2.0000      -1.021831       -27.8054
 121   2.0000      -1.020375       -27.7658
 122   2.0000      -1.020183       -27.7606
 123   2.0000      -1.007870       -27.4255
 124   2.0000      -1.007697       -27.4208
 125   2.0000      -1.006773       -27.3957
 126   2.0000      -1.006531       -27.3891
 127   2.0000      -1.002813       -27.2879
 128   2.0000      -1.001723       -27.2583
 129   2.0000      -0.994685       -27.0668
 130   2.0000      -0.987839       -26.8805
 131   2.0000      -0.987339       -26.8669
 132   2.0000      -0.962463       -26.1900
 133   2.0000      -0.960262       -26.1301
 134   2.0000      -0.953580       -25.9482
 135   2.0000      -0.952489       -25.9186
 136   2.0000      -0.948686       -25.8151
 137   2.0000      -0.927863       -25.2484
 138   2.0000      -0.918235       -24.9864
 139   2.0000      -0.914175       -24.8760
 140   2.0000      -0.904727       -24.6189
 141   2.0000      -0.900849       -24.5134
 142   2.0000      -0.891855       -24.2686
 143   2.0000      -0.874992       -23.8098
 144   2.0000      -0.867938       -23.6178
 145   2.0000      -0.866925       -23.5902
 146   2.0000      -0.866627       -23.5821
 147   2.0000      -0.862859       -23.4796
 148   2.0000      -0.854681       -23.2570
 149   2.0000      -0.853006       -23.2115
 150   2.0000      -0.848994       -23.1023
 151   2.0000      -0.848156       -23.0795
 152   2.0000      -0.841944       -22.9105
 153   2.0000      -0.839877       -22.8542
 154   2.0000      -0.836749       -22.7691
 155   2.0000      -0.835282       -22.7292
 156   2.0000      -0.822039       -22.3688
 157   2.0000      -0.810587       -22.0572
 158   2.0000      -0.785304       -21.3692
 159   2.0000      -0.778461       -21.1830
 160   2.0000      -0.775014       -21.0892
 161   2.0000      -0.773599       -21.0507
 162   2.0000      -0.772888       -21.0314
 163   2.0000      -0.766312       -20.8524
 164   2.0000      -0.764661       -20.8075
 165   2.0000      -0.750025       -20.4092
 166   2.0000      -0.730051       -19.8657
 167   2.0000      -0.725871       -19.7520
 168   2.0000      -0.714487       -19.4422
 169   2.0000      -0.707072       -19.2404
 170   2.0000      -0.702002       -19.1025
 171   2.0000      -0.701774       -19.0962
 172   2.0000      -0.695641       -18.9294
 173   2.0000      -0.689298       -18.7568
 174   2.0000      -0.687938       -18.7197
 175   2.0000      -0.683183       -18.5904
 176   2.0000      -0.680283       -18.5114
 177   2.0000      -0.678988       -18.4762
 178   2.0000      -0.674590       -18.3565
 179   2.0000      -0.671279       -18.2664
 180   2.0000      -0.670074       -18.2336
 181   2.0000      -0.663531       -18.0556
 182   2.0000      -0.656515       -17.8647
 183   2.0000      -0.650302       -17.6956
 184   2.0000      -0.635552       -17.2942
 185   2.0000      -0.632273       -17.2050
 186   2.0000      -0.627516       -17.0756
 187   2.0000      -0.627369       -17.0716
 188   2.0000      -0.621830       -16.9209
 189   2.0000      -0.620535       -16.8856
 190   2.0000      -0.618286       -16.8244
 191   2.0000      -0.617107       -16.7923
 192   2.0000      -0.613324       -16.6894
 193   2.0000      -0.611096       -16.6288
 194   2.0000      -0.609501       -16.5854
 195   2.0000      -0.606460       -16.5026
 196   2.0000      -0.598572       -16.2880
 197   2.0000      -0.586311       -15.9543
 198   2.0000      -0.578067       -15.7300
 199   2.0000      -0.570106       -15.5134
 200   2.0000      -0.566454       -15.4140
 201   2.0000      -0.557059       -15.1584
 202   2.0000      -0.554134       -15.0788
 203   2.0000      -0.548609       -14.9284
 204   2.0000      -0.547254       -14.8915
 205   2.0000      -0.547172       -14.8893
 206   2.0000      -0.544504       -14.8167
 207   2.0000      -0.543113       -14.7789
 208   2.0000      -0.542935       -14.7740
 209   2.0000      -0.539733       -14.6869
 210   2.0000      -0.537312       -14.6210
 211   2.0000      -0.531892       -14.4735
 212   2.0000      -0.527201       -14.3459
 213   2.0000      -0.523244       -14.2382
 214   2.0000      -0.522240       -14.2109
 215   2.0000      -0.519964       -14.1489
 216   2.0000      -0.515787       -14.0353
 217   2.0000      -0.511026       -13.9057
 218   2.0000      -0.509599       -13.8669
 219   2.0000      -0.507929       -13.8214
 220   2.0000      -0.507787       -13.8176
 221   2.0000      -0.502327       -13.6690
 222   2.0000      -0.501810       -13.6549
 223   2.0000      -0.501326       -13.6418
 224   2.0000      -0.501043       -13.6341
 225   2.0000      -0.496535       -13.5114
 226   2.0000      -0.496201       -13.5023
 227   2.0000      -0.493798       -13.4369
 228   2.0000      -0.492206       -13.3936
 229   2.0000      -0.491555       -13.3759
 230   2.0000      -0.490944       -13.3593
 231   2.0000      -0.488629       -13.2963
 232   2.0000      -0.485489       -13.2108
 233   2.0000      -0.484909       -13.1950
 234   2.0000      -0.481374       -13.0989
 235   2.0000      -0.479038       -13.0353
 236   2.0000      -0.477706       -12.9990
 237   2.0000      -0.475560       -12.9406
 238   2.0000      -0.474714       -12.9176
 239   2.0000      -0.471905       -12.8412
 240   2.0000      -0.469114       -12.7652
 241   2.0000      -0.466956       -12.7065
 242   2.0000      -0.465922       -12.6784
 243   2.0000      -0.462718       -12.5912
 244   2.0000      -0.461632       -12.5617
 245   2.0000      -0.461491       -12.5578
 246   2.0000      -0.460765       -12.5381
 247   2.0000      -0.460523       -12.5315
 248   2.0000      -0.458032       -12.4637
 249   2.0000      -0.457771       -12.4566
 250   2.0000      -0.456579       -12.4242
 251   2.0000      -0.456341       -12.4177
 252   2.0000      -0.455611       -12.3978
 253   2.0000      -0.452732       -12.3195
 254   2.0000      -0.451887       -12.2965
 255   2.0000      -0.448765       -12.2115
 256   2.0000      -0.446758       -12.1569
 257   2.0000      -0.443006       -12.0548
 258   2.0000      -0.441767       -12.0211
 259   2.0000      -0.440948       -11.9988
 260   2.0000      -0.440581       -11.9888
 261   2.0000      -0.440338       -11.9822
 262   2.0000      -0.439994       -11.9729
 263   2.0000      -0.439809       -11.9678
 264   2.0000      -0.439470       -11.9586
 265   2.0000      -0.439254       -11.9527
 266   2.0000      -0.438268       -11.9259
 267   2.0000      -0.437434       -11.9032
 268   2.0000      -0.436983       -11.8909
 269   2.0000      -0.435660       -11.8549
 270   2.0000      -0.435258       -11.8440
 271   2.0000      -0.429489       -11.6870
 272   2.0000      -0.429011       -11.6740
 273   2.0000      -0.427804       -11.6411
 274   2.0000      -0.426849       -11.6151
 275   2.0000      -0.425055       -11.5663
 276   2.0000      -0.424385       -11.5481
 277   2.0000      -0.423623       -11.5274
 278   2.0000      -0.421119       -11.4592
 279   2.0000      -0.420780       -11.4500
 280   2.0000      -0.411814       -11.2060
 281   2.0000      -0.408525       -11.1165
 282   2.0000      -0.406340       -11.0571
 283   2.0000      -0.401519       -10.9259
 284   2.0000      -0.395314       -10.7570
 285   2.0000      -0.393371       -10.7042
 286   2.0000      -0.388350       -10.5675
 287   2.0000      -0.387674       -10.5492
 288   2.0000      -0.383012       -10.4223
 289   2.0000      -0.370466       -10.0809
 290   2.0000      -0.353898        -9.6300
 291   2.0000      -0.349365        -9.5067
 292   2.0000      -0.348845        -9.4926
 293   2.0000      -0.344905        -9.3853
 294   2.0000      -0.344703        -9.3799
 295   2.0000      -0.335733        -9.1357
 296   2.0000      -0.327948        -8.9239
 297   2.0000      -0.321689        -8.7536
 298   2.0000      -0.321455        -8.7472
 299   2.0000      -0.320481        -8.7207
 300   2.0000      -0.319782        -8.7017
 301   2.0000      -0.319588        -8.6964
 302   2.0000      -0.310388        -8.4461
 303   2.0000      -0.288972        -7.8633
 304   2.0000      -0.269707        -7.3391
 305   2.0000      -0.245962        -6.6930
 306   2.0000      -0.234879        -6.3914
 307   0.0000      -0.104917        -2.8549
 308   0.0000      -0.103712        -2.8221
 309   0.0000      -0.100067        -2.7230
 310   0.0000      -0.099864        -2.7174
 311   0.0000      -0.054940        -1.4950

MULLIKEN ATOMIC CHARGES
-----------------------
   0 C :   -0.082219
   1 C :    0.036484
   2 C :   -0.031755
   3 C :   -0.117375
   4 S :    0.184330
   5 C :   -0.100646
   6 C :    0.014646
   7 C :    0.298671
   8 C :   -0.301099
   9 C :   -0.186468
  10 N :    0.166956
  11 C :   -0.189296
  12 N :    0.175219
  13 C :   -0.068815
  14 C :   -0.049434
  15 S :    0.191719
  16 C :   -0.049543
  17 C :   -0.068478
  18 C :    0.013920
  19 C :   -0.095641
  20 S :    0.189770
  21 C :   -0.096132
  22 C :    0.010136
  23 C :    0.302823
  24 C :   -0.302721
  25 C :   -0.183828
  26 N :    0.170350
  27 C :   -0.188069
  28 N :    0.169000
  29 C :   -0.043544
  30 C :   -0.071136
  31 S :    0.162165
  32 C :    0.154982
  33 C :   -0.131440
  34 C :    0.014057
  35 C :    0.109857
  36 C :   -0.046517
  37 C :   -0.035139
  38 C :    0.108638
  39 C :    0.012253
  40 C :   -0.140566
  41 C :    0.067965
  42 C :    0.026212
  43 C :    0.070965
  44 C :    0.026176
  45 C :   -0.089430
  46 C :    0.121722
  47 C :   -0.019320
  48 C :   -0.046440
  49 C :   -0.015064
  50 C :    0.062612
  51 C :   -0.072830
  52 C :   -0.036933
  53 C :    0.001036
  54 C :   -0.104379
  55 S :    0.182468
  56 C :   -0.097123
  57 C :    0.010254
  58 C :    0.302441
  59 C :   -0.298989
  60 C :   -0.188535
  61 N :    0.174283
  62 C :   -0.184580
  63 N :    0.166077
  64 C :   -0.064275
  65 C :   -0.053424
  66 S :    0.189425
  67 C :   -0.052156
  68 C :   -0.066254
  69 C :    0.013351
  70 C :   -0.101631
  71 S :    0.191355
  72 C :   -0.116150
  73 C :   -0.032623
  74 C :    0.298568
  75 C :   -0.297335
  76 C :   -0.190992
  77 N :    0.171488
  78 C :   -0.186854
  79 N :    0.171696
  80 C :    0.034930
  81 C :   -0.082458
  82 S :    0.183267
  83 H :    0.036338
  84 H :    0.011605
  85 H :    0.009777
  86 H :    0.008670
  87 H :    0.004189
  88 H :   -0.026715
  89 H :   -0.029463
  90 H :   -0.021454
  91 H :   -0.001976
  92 H :   -0.004918
  93 H :    0.021567
  94 H :    0.011233
  95 H :    0.021887
  96 H :   -0.002724
  97 H :   -0.003694
  98 H :    0.023116
  99 H :    0.009911
 100 H :    0.020618
 101 H :   -0.044212
 102 H :   -0.023900
 103 H :   -0.033260
 104 H :   -0.012449
 105 H :   -0.021975
 106 H :    0.004639
 107 H :    0.009273
 108 H :    0.010146
 109 H :    0.012791
 110 H :    0.036350
Sum of atomic charges:   -0.0000000

LOEWDIN ATOMIC CHARGES
----------------------
   0 C :   -0.178566
   1 C :   -0.033804
   2 C :   -0.078885
   3 C :   -0.183184
   4 S :    0.479454
   5 C :   -0.181283
   6 C :   -0.069014
   7 C :    0.084398
   8 C :   -0.104817
   9 C :   -0.015496
  10 N :   -0.037253
  11 C :   -0.017113
  12 N :   -0.033213
  13 C :   -0.041743
  14 C :   -0.180570
  15 S :    0.482963
  16 C :   -0.180922
  17 C :   -0.039926
  18 C :   -0.071404
  19 C :   -0.177621
  20 S :    0.482704
  21 C :   -0.185509
  22 C :   -0.071366
  23 C :    0.084883
  24 C :   -0.104645
  25 C :   -0.015657
  26 N :   -0.035045
  27 C :   -0.015936
  28 N :   -0.036080
  29 C :   -0.033567
  30 C :   -0.149968
  31 S :    0.477242
  32 C :   -0.038622
  33 C :   -0.034074
  34 C :    0.007937
  35 C :   -0.016678
  36 C :   -0.012100
  37 C :   -0.013064
  38 C :   -0.016394
  39 C :    0.005624
  40 C :   -0.036019
  41 C :   -0.011383
  42 C :   -0.057498
  43 C :   -0.011244
  44 C :   -0.057205
  45 C :   -0.017638
  46 C :   -0.024793
  47 C :   -0.015221
  48 C :   -0.016859
  49 C :   -0.004026
  50 C :   -0.051795
  51 C :   -0.157864
  52 C :   -0.031930
  53 C :   -0.067385
  54 C :   -0.190937
  55 S :    0.474166
  56 C :   -0.175727
  57 C :   -0.073115
  58 C :    0.084765
  59 C :   -0.104468
  60 C :   -0.016198
  61 N :   -0.035539
  62 C :   -0.015415
  63 N :   -0.035652
  64 C :   -0.039601
  65 C :   -0.181525
  66 S :    0.481942
  67 C :   -0.180525
  68 C :   -0.041756
  69 C :   -0.068921
  70 C :   -0.181702
  71 S :    0.482659
  72 C :   -0.182895
  73 C :   -0.078938
  74 C :    0.084423
  75 C :   -0.104708
  76 C :   -0.017004
  77 N :   -0.033438
  78 C :   -0.015805
  79 N :   -0.036956
  80 C :   -0.033908
  81 C :   -0.178893
  82 S :    0.478976
  83 H :    0.027615
  84 H :    0.042489
  85 H :    0.034434
  86 H :    0.035112
  87 H :    0.038450
  88 H :    0.014949
  89 H :    0.029824
  90 H :    0.030219
  91 H :    0.019993
  92 H :    0.019259
  93 H :    0.025669
  94 H :    0.024888
  95 H :    0.025774
  96 H :    0.019913
  97 H :    0.019567
  98 H :    0.026196
  99 H :    0.024691
 100 H :    0.025181
 101 H :    0.021962
 102 H :    0.028069
 103 H :    0.028188
 104 H :    0.030820
 105 H :    0.024442
 106 H :    0.038403
 107 H :    0.035104
 108 H :    0.034423
 109 H :    0.042594
 110 H :    0.027644

  Mayer bond orders larger than 0.100000
B(  0-C ,  1-C ) :   1.5505 B(  0-C ,  4-S ) :   1.1482 B(  0-C , 83-H ) :   0.9639
B(  1-C ,  2-C ) :   1.2772 B(  1-C , 84-H ) :   0.9955 B(  2-C ,  3-C ) :   1.4571
B(  2-C ,  7-C ) :   1.0177 B(  3-C ,  4-S ) :   1.1400 B(  3-C ,  5-C ) :   1.1782
B(  5-C ,  6-C ) :   1.4683 B(  5-C , 15-S ) :   1.1193 B(  6-C ,  7-C ) :   0.9925
B(  6-C , 13-C ) :   1.2921 B(  7-C ,  8-C ) :   1.7090 B(  8-C ,  9-C ) :   1.1331
B(  8-C , 11-C ) :   1.1312 B(  9-C , 10-N ) :   2.9895 B( 11-C , 12-N ) :   3.0030
B( 13-C , 14-C ) :   1.4673 B( 13-C , 85-H ) :   0.9871 B( 14-C , 15-S ) :   1.1121
B( 14-C , 16-C ) :   1.1615 B( 16-C , 17-C ) :   1.4689 B( 16-C , 20-S ) :   1.1071
B( 17-C , 18-C ) :   1.2914 B( 17-C , 86-H ) :   0.9882 B( 18-C , 19-C ) :   1.4565
B( 18-C , 23-C ) :   0.9925 B( 19-C , 20-S ) :   1.1204 B( 19-C , 21-C ) :   1.1721
B( 21-C , 22-C ) :   1.4567 B( 21-C , 31-S ) :   1.1207 B( 22-C , 23-C ) :   0.9998
B( 22-C , 29-C ) :   1.2682 B( 23-C , 24-C ) :   1.7095 B( 24-C , 25-C ) :   1.1347
B( 24-C , 27-C ) :   1.1324 B( 25-C , 26-N ) :   2.9896 B( 27-C , 28-N ) :   2.9919
B( 29-C , 30-C ) :   1.5008 B( 29-C , 87-H ) :   0.9907 B( 30-C , 31-S ) :   1.1070
B( 30-C , 32-C ) :   1.0535 B( 32-C , 33-C ) :   1.2831 B( 32-C , 37-C ) :   1.3571
B( 33-C , 34-C ) :   1.4200 B( 33-C , 88-H ) :   0.9879 B( 34-C , 35-C ) :   1.3659
B( 34-C , 40-C ) :   0.9143 B( 35-C , 36-C ) :   1.3353 B( 35-C , 38-C ) :   0.9920
B( 36-C , 37-C ) :   1.3908 B( 36-C , 89-H ) :   0.9914 B( 37-C , 90-H ) :   0.9894
B( 38-C , 39-C ) :   1.3569 B( 38-C , 48-C ) :   1.3437 B( 39-C , 40-C ) :   0.9142
B( 39-C , 45-C ) :   1.4132 B( 40-C , 41-C ) :   1.0365 B( 40-C , 43-C ) :   1.0387
B( 41-C , 42-C ) :   1.1030 B( 41-C , 91-H ) :   0.9391 B( 41-C , 92-H ) :   0.9387
B( 42-C , 93-H ) :   0.9642 B( 42-C , 94-H ) :   0.9635 B( 42-C , 95-H ) :   0.9638
B( 43-C , 44-C ) :   1.1003 B( 43-C , 96-H ) :   0.9389 B( 43-C , 97-H ) :   0.9383
B( 44-C , 98-H ) :   0.9645 B( 44-C , 99-H ) :   0.9641 B( 44-C ,100-H ) :   0.9643
B( 45-C , 46-C ) :   1.2953 B( 45-C ,101-H ) :   0.9977 B( 46-C , 47-C ) :   1.3355
B( 46-C , 49-C ) :   1.0724 B( 47-C , 48-C ) :   1.3765 B( 47-C ,102-H ) :   0.9933
B( 48-C ,103-H ) :   0.9914 B( 49-C , 50-C ) :   1.7104 B( 49-C ,104-H ) :   0.9827
B( 50-C , 51-C ) :   1.1030 B( 50-C ,105-H ) :   0.9514 B( 51-C , 52-C ) :   1.4684
B( 51-C , 55-S ) :   1.1102 B( 52-C , 53-C ) :   1.2973 B( 52-C ,106-H ) :   0.9923
B( 53-C , 54-C ) :   1.4426 B( 53-C , 58-C ) :   0.9956 B( 54-C , 55-S ) :   1.1184
B( 54-C , 56-C ) :   1.1858 B( 56-C , 57-C ) :   1.4515 B( 56-C , 66-S ) :   1.1224
B( 57-C , 58-C ) :   0.9969 B( 57-C , 64-C ) :   1.2931 B( 58-C , 59-C ) :   1.7122
B( 59-C , 60-C ) :   1.1321 B( 59-C , 62-C ) :   1.1330 B( 60-C , 61-N ) :   2.9940
B( 62-C , 63-N ) :   2.9885 B( 64-C , 65-C ) :   1.4700 B( 64-C ,107-H ) :   0.9871
B( 65-C , 66-S ) :   1.1035 B( 65-C , 67-C ) :   1.1635 B( 67-C , 68-C ) :   1.4661
B( 67-C , 71-S ) :   1.1111 B( 68-C , 69-C ) :   1.2953 B( 68-C ,108-H ) :   0.9863
B( 69-C , 70-C ) :   1.4676 B( 69-C , 74-C ) :   0.9917 B( 70-C , 71-S ) :   1.1195
B( 70-C , 72-C ) :   1.1805 B( 72-C , 73-C ) :   1.4569 B( 72-C , 82-S ) :   1.1391
B( 73-C , 74-C ) :   1.0157 B( 73-C , 80-C ) :   1.2762 B( 74-C , 75-C ) :   1.7114
B( 75-C , 76-C ) :   1.1290 B( 75-C , 78-C ) :   1.1330 B( 76-C , 77-N ) :   3.0028
B( 78-C , 79-N ) :   2.9912 B( 80-C , 81-C ) :   1.5511 B( 80-C ,109-H ) :   0.9962
B( 81-C , 82-S ) :   1.1475 B( 81-C ,110-H ) :   0.9640

-----------------------------------------------------------------------------
         ABSORPTION SPECTRUM VIA TRANSITION ELECTRIC DIPOLE MOMENTS
-----------------------------------------------------------------------------
State   Energy  Wavelength   fosc         T2         TX        TY        TZ
        (cm-1)    (nm)                  (au**2)     (au)      (au)      (au)
-----------------------------------------------------------------------------
   0   11270.3    887.3   0.207023258   6.04728   0.31951   1.98842   1.41117
   1   11834.2    845.0   0.138108574   3.84201   0.56727  -1.87610  -0.02117
   2   13360.8    748.5   0.088406923   2.17835   0.42531   1.01096   0.98763
   3   13513.2    740.0   0.077792465   1.89520  -0.35625   1.32941  -0.03068
   4   20910.3    478.2   0.227243637   3.57772  -0.03047   1.62960   0.95978
   5   21073.4    474.5   0.050597841   0.79045  -0.04316   0.78120   0.42226
   6   22853.0    437.6   0.428163581   6.16797  -0.22753  -2.07351  -1.34787
   7   23159.3    431.8   0.163069173   2.31804   0.28239  -1.46640  -0.29660
   8   23997.1    416.7   1.435790831  19.69734   0.07220   3.90392   2.10987
   9   24749.0    404.1   0.020923143   0.27832   0.11333   0.35572   0.37274
  10   25412.9    393.5   1.221209435  15.82016   0.18197   3.43954   1.98912
  11   26179.6    382.0   0.154212265   1.93924  -0.80017   0.41941  -1.05975
  12   26772.0    373.5   0.079544282   0.97815   0.42198  -0.89194   0.06724
  13   27481.0    363.9   0.797623307   9.55523  -1.75726   1.90411  -1.68572
  14   29211.3    342.3   0.005440476   0.06131  -0.15294  -0.13241  -0.14280
  15   29470.1    339.3   0.086448815   0.96572  -0.53055   0.49972  -0.65918
  16   30224.7    330.9   0.106144746   1.15615   0.89205   0.46774  -0.37630
  17   31503.5    317.4   0.003315921   0.03465  -0.00812  -0.12375  -0.13882
  18   31522.4    317.2   0.007586599   0.07923   0.01291   0.27370  -0.06446
  19   31754.5    314.9   0.547572148   5.67690  -1.33171   0.38576  -1.93769
  20   32109.7    311.4   0.042749204   0.43830  -0.30822   0.05458  -0.58337
  21   32215.8    310.4   0.078425587   0.80143   0.27356   0.32008   0.79003
  22   32492.3    307.8   0.624201722   6.32441  -0.09146   1.40563   2.08333
  23   32580.8    306.9   1.066581955  10.77727  -2.33303   2.06742  -1.02957
  24   33037.2    302.7   0.607779443   6.05645  -0.89961   0.14521  -2.28606
  25   33440.8    299.0   0.065037026   0.64027   0.58340   0.46963   0.28171
  26   33843.1    295.5   0.161444567   1.57047   0.59629   0.58987   0.93110
  27   33979.3    294.3   0.226991378   2.19923  -0.81405   0.84283  -0.90895
  28   34049.3    293.7   0.234021306   2.26268  -0.02175  -1.40024  -0.54913
  29   34352.6    291.1   0.054192078   0.51934  -0.55734   0.09811  -0.44619
  30   34388.0    290.8   0.009835211   0.09416  -0.09798  -0.14053   0.25457
  31   34759.8    287.7   0.013202350   0.12504  -0.08453  -0.15238  -0.30769
  32   34916.1    286.4   0.045566033   0.42963   0.42871  -0.17894   0.46240
  33   34998.5    285.7   0.066945811   0.62972  -0.45133   0.48708  -0.43448
  34   35349.1    282.9   0.026177446   0.24379   0.07100   0.48159  -0.08261
  35   35495.9    281.7   0.013008802   0.12065  -0.12742   0.30276  -0.11293
  36   35645.5    280.5   0.214571975   1.98173  -0.20689   1.31352   0.46215
  37   35739.0    279.8   0.099557394   0.91708   0.01881  -0.82018  -0.49399
  38   36546.5    273.6   0.010926425   0.09843   0.06650  -0.16793   0.25652
  39   36639.0    272.9   0.038815928   0.34877   0.40110  -0.09510   0.42290
  40   36884.8    271.1   0.009011012   0.08043   0.00354   0.23825   0.15379
  41   37492.0    266.7   0.066956764   0.58794  -0.22145   0.71647   0.15989
  42   37770.0    264.8   0.015896092   0.13855  -0.05328   0.34361   0.13285
  43   38027.0    263.0   0.089907193   0.77836  -0.08449  -0.57374  -0.66486
  44   38503.6    259.7   0.017242495   0.14743  -0.28381   0.15824  -0.20454
  45   38947.1    256.8   0.003320322   0.02807  -0.02659   0.16534   0.00452
  46   39466.1    253.4   0.005612550   0.04682   0.09370  -0.08836   0.17387
  47   39704.9    251.9   0.004207880   0.03489  -0.06427  -0.00451  -0.17532
  48   39947.9    250.3   0.006064023   0.04997   0.12420  -0.18536   0.01375
  49   40006.3    250.0   0.016355771   0.13459   0.09755  -0.17867  -0.30521
  50   40062.1    249.6   0.028488926   0.23411   0.33088  -0.15037   0.31940
  51   40134.2    249.2   0.005135571   0.04213   0.00741   0.19370   0.06747
  52   40308.8    248.1   0.002873152   0.02347  -0.03184   0.05149   0.14072

FINAL SINGLE POINT ENERGY     -6188.496148225804

DIPOLE MOMENT
-------------
                                X             Y             Z
Electronic contribution:     14.09211      -1.10842      18.88225
Nuclear contribution   :    -14.21270       1.12548     -19.02168
                        -----------------------------------------
Total Dipole Moment    :     -0.12059       0.01706      -0.13943
                        -----------------------------------------
Magnitude (a.u.)       :      0.18513
Magnitude (Debye)      :      0.47057

Rotational constants in cm-1:     0.001221     0.000105     0.000098
Rotational constants in MHz :    36.617296     3.155771     2.934957

                             ****ORCA TERMINATED NORMALLY****
TOTAL RUN TIME: 0 days 0 hours 12 minutes 4 seconds 682 msec
