                         Program Version 4.2.0 -  RELEASE  -
|  1> # ORCA input file
|  2> # SCF done       -183.479607029389          0.000212628639
|  3> ! CAM-B3LYP def2-SVP def2/J RIJCOSX Grid4 TightSCF
|  4> %maxcore 5000
|  5> %tddft
|  6>     Mode sTDDFT
|  7>     Ethresh 5.0
|  8>     maxcore 5000
|  9> end
| 10>
| 11> %pal
| 12>   nprocs 6
| 13>   end
| 14> * xyz 0 1
| 15>    C       -6.34500        -2.74688         1.09066
| 16>    C       -6.43399        -3.55827         2.18978
| 17>    C       -6.38629        -4.96694         2.14087
| 18>    N       -6.34456        -6.11382         2.15849
| 19>    C       -6.64485        -3.08521         3.50209
| 20>    N       -6.85455        -2.76120         4.58352
| 21>    C       -6.28475        -3.17621        -0.29663
| 22>    C       -6.44037        -2.04072        -1.13196
| 23>    C       -6.43695        -2.13069        -2.50345
| 24>    C       -6.27466        -3.39543        -3.07639
| 25>    C       -6.11539        -4.52215        -2.23297
| 26>    C       -6.11794        -4.43386        -0.84671
| 27>    S       -5.92058        -5.97740        -3.15828
| 28>    C       -6.05409        -5.08566        -4.63399
| 29>    C       -6.23535        -3.75937        -4.45185
| 30>    C       -6.56940        -0.82424        -0.30731
| 31>    O       -6.66808         0.31161        -0.71219
| 32>    C       -6.42873        -1.29504         1.10322
| 33>    C       -6.21948        -0.47603         2.15883
| 34>    C       -6.45106         0.95405         2.10405
| 35>    C       -7.67406         1.43354         1.60104
| 36>    O       -8.67750         0.52731         1.29732
| 37>    C       -9.32417        -0.00399         2.43457
| 38>    C       -7.87281         2.80747         1.45127
| 39>    O       -8.97240         3.39328         0.91303
| 40>    C       -9.80658         2.65802         0.04055
| 41>    C       -6.85334         3.69213         1.85700
| 42>    C       -5.68073         3.20368         2.41424
| 43>    C       -5.47772         1.84572         2.54297
| 44>    C       -7.04462         5.14759         1.71305
| 45>    C       -6.13752         5.90414         0.95902
| 46>    O       -5.08774         5.27691         0.30461
| 47>    C       -5.44993         4.42491        -0.76459
| 48>    C       -6.27325         7.29889         0.89745
| 49>    O       -5.48146         8.16472         0.21497
| 50>    C       -4.45739         7.73269        -0.65166
| 51>    C       -7.33315         7.91255         1.59718
| 52>    C       -8.23653         7.13880         2.31156
| 53>    C       -8.09689         5.76854         2.36961
| 54>    C       -7.48285         9.37833         1.58877
| 55>    C       -8.72055         9.95852         1.29730
| 56>    O       -9.78197         9.16307         0.89599
| 57>    C       -9.62951         8.63398        -0.40935
| 58>    C       -8.89278        11.34937         1.37582
| 59>    O      -10.06608        12.00572         1.24201
| 60>    C      -11.30914        11.33350         1.22914
| 61>    C       -7.77175        12.17193         1.65149
| 62>    C       -6.54775        11.55714         1.95285
| 63>    C       -6.40444        10.19533         1.92872
| 64>    C       -7.81750        13.60151         1.70822
| 65>    C       -8.63584        14.54693         1.17464
| 66>    C       -9.68667        14.55572         0.18322
| 67>    C       -9.85071        13.67458        -0.85391
| 68>    C      -10.89245        13.74825        -1.80003
| 69>    N      -11.73040        13.73195        -2.58537
| 70>    C       -8.97979        12.60724        -1.13986
| 71>    N       -8.30666        11.72421        -1.43385
| 72>    C      -10.44288        15.79278         0.35496
| 73>    C       -9.75279        16.62743         1.26996
| 74>    C       -8.55468        15.92077         1.75491
| 75>    O       -7.69584        16.34011         2.49803
| 76>    C      -10.20456        17.87835         1.61454
| 77>    C      -11.39961        18.32245         1.04030
| 78>    C      -12.08817        17.47694         0.13875
| 79>    C      -11.62623        16.21517        -0.21862
| 80>    S      -13.54526        18.22567        -0.43576
| 81>    C      -13.22400        19.63661         0.51314
| 82>    C      -12.08245        19.55756         1.23016
| 83>    H       -6.55715        -1.24977        -3.11485
| 84>    H       -5.98469        -5.31714        -0.24411
| 85>    H       -5.98663        -5.61897        -5.56228
| 86>    H       -6.33804        -3.05002        -5.25298
| 87>    H       -5.83109        -0.87291         3.08911
| 88>    H      -10.07566        -0.69641         2.05872
| 89>    H       -9.81212         0.78460         3.01890
| 90>    H       -8.62478        -0.54316         3.08412
| 91>    H       -9.22255         2.00982        -0.61507
| 92>    H      -10.33481         3.40700        -0.55050
| 93>    H      -10.53363         2.05417         0.58889
| 94>    H       -4.92150         3.90284         2.72809
| 95>    H       -4.54977         1.46389         2.94021
| 96>    H       -4.51322         4.12441        -1.23140
| 97>    H       -6.07002         4.95307        -1.49773
| 98>    H       -5.98294         3.53399        -0.42377
| 99>    H       -4.01272         8.65242        -1.03227
|100>    H       -4.85230         7.15437        -1.49087
|101>    H       -3.70089         7.14434        -0.12926
|102>    H       -9.04504         7.62624         2.83285
|103>    H       -8.78727         5.17046         2.94183
|104>    H      -10.57382         8.14565        -0.64417
|105>    H       -8.81900         7.90152        -0.45060
|106>    H       -9.42885         9.43202        -1.13184
|107>    H      -11.37483        10.59421         2.02804
|108>    H      -11.49507        10.84639         0.26976
|109>    H      -12.05331        12.11603         1.38591
|110>    H       -5.70165        12.18558         2.18651
|111>    H       -5.45834         9.74040         2.17098
|112>    H       -7.05305        14.03409         2.35124
|113>    H       -9.65353        18.49437         2.30819
|114>    H      -12.18899        15.60586        -0.90640
|115>    H      -13.92256        20.44968         0.47374
|116>    H      -11.72210        20.33725         1.87662
|117> *
|118>
|119>                          ****END OF INPUT****

CARTESIAN COORDINATES (ANGSTROEM)
---------------------------------
  C     -6.345000   -2.746880    1.090660
  C     -6.433990   -3.558270    2.189780
  C     -6.386290   -4.966940    2.140870
  N     -6.344560   -6.113820    2.158490
  C     -6.644850   -3.085210    3.502090
  N     -6.854550   -2.761200    4.583520
  C     -6.284750   -3.176210   -0.296630
  C     -6.440370   -2.040720   -1.131960
  C     -6.436950   -2.130690   -2.503450
  C     -6.274660   -3.395430   -3.076390
  C     -6.115390   -4.522150   -2.232970
  C     -6.117940   -4.433860   -0.846710
  S     -5.920580   -5.977400   -3.158280
  C     -6.054090   -5.085660   -4.633990
  C     -6.235350   -3.759370   -4.451850
  C     -6.569400   -0.824240   -0.307310
  O     -6.668080    0.311610   -0.712190
  C     -6.428730   -1.295040    1.103220
  C     -6.219480   -0.476030    2.158830
  C     -6.451060    0.954050    2.104050
  C     -7.674060    1.433540    1.601040
  O     -8.677500    0.527310    1.297320
  C     -9.324170   -0.003990    2.434570
  C     -7.872810    2.807470    1.451270
  O     -8.972400    3.393280    0.913030
  C     -9.806580    2.658020    0.040550
  C     -6.853340    3.692130    1.857000
  C     -5.680730    3.203680    2.414240
  C     -5.477720    1.845720    2.542970
  C     -7.044620    5.147590    1.713050
  C     -6.137520    5.904140    0.959020
  O     -5.087740    5.276910    0.304610
  C     -5.449930    4.424910   -0.764590
  C     -6.273250    7.298890    0.897450
  O     -5.481460    8.164720    0.214970
  C     -4.457390    7.732690   -0.651660
  C     -7.333150    7.912550    1.597180
  C     -8.236530    7.138800    2.311560
  C     -8.096890    5.768540    2.369610
  C     -7.482850    9.378330    1.588770
  C     -8.720550    9.958520    1.297300
  O     -9.781970    9.163070    0.895990
  C     -9.629510    8.633980   -0.409350
  C     -8.892780   11.349370    1.375820
  O    -10.066080   12.005720    1.242010
  C    -11.309140   11.333500    1.229140
  C     -7.771750   12.171930    1.651490
  C     -6.547750   11.557140    1.952850
  C     -6.404440   10.195330    1.928720
  C     -7.817500   13.601510    1.708220
  C     -8.635840   14.546930    1.174640
  C     -9.686670   14.555720    0.183220
  C     -9.850710   13.674580   -0.853910
  C    -10.892450   13.748250   -1.800030
  N    -11.730400   13.731950   -2.585370
  C     -8.979790   12.607240   -1.139860
  N     -8.306660   11.724210   -1.433850
  C    -10.442880   15.792780    0.354960
  C     -9.752790   16.627430    1.269960
  C     -8.554680   15.920770    1.754910
  O     -7.695840   16.340110    2.498030
  C    -10.204560   17.878350    1.614540
  C    -11.399610   18.322450    1.040300
  C    -12.088170   17.476940    0.138750
  C    -11.626230   16.215170   -0.218620
  S    -13.545260   18.225670   -0.435760
  C    -13.224000   19.636610    0.513140
  C    -12.082450   19.557560    1.230160
  H     -6.557150   -1.249770   -3.114850
  H     -5.984690   -5.317140   -0.244110
  H     -5.986630   -5.618970   -5.562280
  H     -6.338040   -3.050020   -5.252980
  H     -5.831090   -0.872910    3.089110
  H    -10.075660   -0.696410    2.058720
  H     -9.812120    0.784600    3.018900
  H     -8.624780   -0.543160    3.084120
  H     -9.222550    2.009820   -0.615070
  H    -10.334810    3.407000   -0.550500
  H    -10.533630    2.054170    0.588890
  H     -4.921500    3.902840    2.728090
  H     -4.549770    1.463890    2.940210
  H     -4.513220    4.124410   -1.231400
  H     -6.070020    4.953070   -1.497730
  H     -5.982940    3.533990   -0.423770
  H     -4.012720    8.652420   -1.032270
  H     -4.852300    7.154370   -1.490870
  H     -3.700890    7.144340   -0.129260
  H     -9.045040    7.626240    2.832850
  H     -8.787270    5.170460    2.941830
  H    -10.573820    8.145650   -0.644170
  H     -8.819000    7.901520   -0.450600
  H     -9.428850    9.432020   -1.131840
  H    -11.374830   10.594210    2.028040
  H    -11.495070   10.846390    0.269760
  H    -12.053310   12.116030    1.385910
  H     -5.701650   12.185580    2.186510
  H     -5.458340    9.740400    2.170980
  H     -7.053050   14.034090    2.351240
  H     -9.653530   18.494370    2.308190
  H    -12.188990   15.605860   -0.906400
  H    -13.922560   20.449680    0.473740
  H    -11.722100   20.337250    1.876620

 Total Charge           Charge          ....    0
 Multiplicity           Mult            ....    1
 Number of Electrons    NEL             ....  482
 Basis Dimension        Dim             .... 1130

ORBITAL ENERGIES
----------------

  NO   OCC          E(Eh)            E(eV)
   0   2.0000     -88.970269     -2421.0041
   1   2.0000     -88.958441     -2420.6822
   2   2.0000     -19.251889      -523.8705
   3   2.0000     -19.240980      -523.5737
   4   2.0000     -19.237026      -523.4661
   5   2.0000     -19.236199      -523.4436
   6   2.0000     -19.228921      -523.2455
   7   2.0000     -19.225530      -523.1533
   8   2.0000     -19.218278      -522.9559
   9   2.0000     -19.202118      -522.5162
  10   2.0000     -14.419117      -392.3641
  11   2.0000     -14.418778      -392.3549
  12   2.0000     -14.406272      -392.0146
  13   2.0000     -14.403893      -391.9499
  14   2.0000     -10.369477      -282.1678
  15   2.0000     -10.351815      -281.6872
  16   2.0000     -10.346176      -281.5338
  17   2.0000     -10.343719      -281.4669
  18   2.0000     -10.340116      -281.3689
  19   2.0000     -10.334225      -281.2086
  20   2.0000     -10.331069      -281.1227
  21   2.0000     -10.329006      -281.0666
  22   2.0000     -10.327933      -281.0374
  23   2.0000     -10.324882      -280.9543
  24   2.0000     -10.324491      -280.9437
  25   2.0000     -10.321959      -280.8748
  26   2.0000     -10.321260      -280.8558
  27   2.0000     -10.320269      -280.8288
  28   2.0000     -10.320158      -280.8258
  29   2.0000     -10.319235      -280.8007
  30   2.0000     -10.317959      -280.7659
  31   2.0000     -10.317090      -280.7423
  32   2.0000     -10.315120      -280.6887
  33   2.0000     -10.311729      -280.5964
  34   2.0000     -10.311124      -280.5799
  35   2.0000     -10.309913      -280.5470
  36   2.0000     -10.309495      -280.5356
  37   2.0000     -10.308876      -280.5188
  38   2.0000     -10.307862      -280.4912
  39   2.0000     -10.307360      -280.4775
  40   2.0000     -10.306498      -280.4541
  41   2.0000     -10.306045      -280.4418
  42   2.0000     -10.305885      -280.4374
  43   2.0000     -10.302400      -280.3426
  44   2.0000     -10.300622      -280.2942
  45   2.0000     -10.300047      -280.2785
  46   2.0000     -10.298926      -280.2480
  47   2.0000     -10.295766      -280.1620
  48   2.0000     -10.293895      -280.1111
  49   2.0000     -10.292816      -280.0818
  50   2.0000     -10.292747      -280.0799
  51   2.0000     -10.291966      -280.0586
  52   2.0000     -10.289677      -279.9963
  53   2.0000     -10.286406      -279.9074
  54   2.0000     -10.281665      -279.7783
  55   2.0000     -10.281464      -279.7729
  56   2.0000     -10.280031      -279.7339
  57   2.0000     -10.279379      -279.7161
  58   2.0000     -10.279360      -279.7156
  59   2.0000     -10.277532      -279.6659
  60   2.0000     -10.275629      -279.6141
  61   2.0000     -10.274016      -279.5702
  62   2.0000     -10.270561      -279.4762
  63   2.0000     -10.269956      -279.4597
  64   2.0000     -10.268465      -279.4191
  65   2.0000     -10.260085      -279.1911
  66   2.0000     -10.258809      -279.1564
  67   2.0000     -10.256782      -279.1012
  68   2.0000      -8.066522      -219.5012
  69   2.0000      -8.054754      -219.1810
  70   2.0000      -6.036033      -164.2488
  71   2.0000      -6.031730      -164.1317
  72   2.0000      -6.028187      -164.0353
  73   2.0000      -6.024264      -163.9286
  74   2.0000      -6.019994      -163.8124
  75   2.0000      -6.016397      -163.7145
  76   2.0000      -1.158912       -31.5356
  77   2.0000      -1.153793       -31.3963
  78   2.0000      -1.145938       -31.1825
  79   2.0000      -1.135255       -30.8919
  80   2.0000      -1.129170       -30.7263
  81   2.0000      -1.124145       -30.5895
  82   2.0000      -1.122784       -30.5525
  83   2.0000      -1.116960       -30.3940
  84   2.0000      -1.023413       -27.8485
  85   2.0000      -1.011779       -27.5319
  86   2.0000      -1.008561       -27.4443
  87   2.0000      -0.998715       -27.1764
  88   2.0000      -0.997561       -27.1450
  89   2.0000      -0.988163       -26.8893
  90   2.0000      -0.984199       -26.7814
  91   2.0000      -0.972945       -26.4752
  92   2.0000      -0.962080       -26.1795
  93   2.0000      -0.953954       -25.9584
  94   2.0000      -0.939790       -25.5730
  95   2.0000      -0.932299       -25.3692
  96   2.0000      -0.917917       -24.9778
  97   2.0000      -0.907509       -24.6946
  98   2.0000      -0.893557       -24.3149
  99   2.0000      -0.885442       -24.0941
 100   2.0000      -0.883431       -24.0394
 101   2.0000      -0.872707       -23.7476
 102   2.0000      -0.870822       -23.6963
 103   2.0000      -0.852388       -23.1947
 104   2.0000      -0.844576       -22.9821
 105   2.0000      -0.841347       -22.8942
 106   2.0000      -0.836135       -22.7524
 107   2.0000      -0.829002       -22.5583
 108   2.0000      -0.826579       -22.4924
 109   2.0000      -0.814200       -22.1555
 110   2.0000      -0.813168       -22.1274
 111   2.0000      -0.796814       -21.6824
 112   2.0000      -0.788534       -21.4571
 113   2.0000      -0.785539       -21.3756
 114   2.0000      -0.774196       -21.0670
 115   2.0000      -0.761374       -20.7180
 116   2.0000      -0.758707       -20.6455
 117   2.0000      -0.756995       -20.5989
 118   2.0000      -0.752502       -20.4766
 119   2.0000      -0.750262       -20.4157
 120   2.0000      -0.743271       -20.2254
 121   2.0000      -0.726437       -19.7674
 122   2.0000      -0.707228       -19.2447
 123   2.0000      -0.694194       -18.8900
 124   2.0000      -0.691399       -18.8139
 125   2.0000      -0.684769       -18.6335
 126   2.0000      -0.682798       -18.5799
 127   2.0000      -0.679115       -18.4796
 128   2.0000      -0.676140       -18.3987
 129   2.0000      -0.671696       -18.2778
 130   2.0000      -0.668192       -18.1824
 131   2.0000      -0.665265       -18.1028
 132   2.0000      -0.659110       -17.9353
 133   2.0000      -0.651494       -17.7281
 134   2.0000      -0.648755       -17.6535
 135   2.0000      -0.623544       -16.9675
 136   2.0000      -0.622027       -16.9262
 137   2.0000      -0.617366       -16.7994
 138   2.0000      -0.611940       -16.6517
 139   2.0000      -0.608632       -16.5617
 140   2.0000      -0.604948       -16.4615
 141   2.0000      -0.601714       -16.3735
 142   2.0000      -0.597264       -16.2524
 143   2.0000      -0.591784       -16.1033
 144   2.0000      -0.588478       -16.0133
 145   2.0000      -0.584769       -15.9124
 146   2.0000      -0.582719       -15.8566
 147   2.0000      -0.576077       -15.6758
 148   2.0000      -0.569719       -15.5028
 149   2.0000      -0.563294       -15.3280
 150   2.0000      -0.562114       -15.2959
 151   2.0000      -0.559242       -15.2177
 152   2.0000      -0.557329       -15.1657
 153   2.0000      -0.554762       -15.0958
 154   2.0000      -0.551289       -15.0013
 155   2.0000      -0.548676       -14.9302
 156   2.0000      -0.543326       -14.7847
 157   2.0000      -0.541041       -14.7225
 158   2.0000      -0.538555       -14.6548
 159   2.0000      -0.537112       -14.6156
 160   2.0000      -0.536232       -14.5916
 161   2.0000      -0.533607       -14.5202
 162   2.0000      -0.530183       -14.4270
 163   2.0000      -0.528904       -14.3922
 164   2.0000      -0.525607       -14.3025
 165   2.0000      -0.522935       -14.2298
 166   2.0000      -0.521989       -14.2041
 167   2.0000      -0.521745       -14.1974
 168   2.0000      -0.521423       -14.1887
 169   2.0000      -0.515411       -14.0251
 170   2.0000      -0.514397       -13.9975
 171   2.0000      -0.512221       -13.9383
 172   2.0000      -0.508994       -13.8504
 173   2.0000      -0.506403       -13.7799
 174   2.0000      -0.504120       -13.7178
 175   2.0000      -0.502822       -13.6825
 176   2.0000      -0.498513       -13.5652
 177   2.0000      -0.495033       -13.4705
 178   2.0000      -0.493751       -13.4357
 179   2.0000      -0.490487       -13.3468
 180   2.0000      -0.488725       -13.2989
 181   2.0000      -0.487445       -13.2641
 182   2.0000      -0.482805       -13.1378
 183   2.0000      -0.480223       -13.0675
 184   2.0000      -0.476703       -12.9717
 185   2.0000      -0.470353       -12.7989
 186   2.0000      -0.466367       -12.6905
 187   2.0000      -0.464398       -12.6369
 188   2.0000      -0.458454       -12.4752
 189   2.0000      -0.456022       -12.4090
 190   2.0000      -0.454661       -12.3720
 191   2.0000      -0.451936       -12.2978
 192   2.0000      -0.451669       -12.2906
 193   2.0000      -0.449522       -12.2321
 194   2.0000      -0.447049       -12.1648
 195   2.0000      -0.446283       -12.1440
 196   2.0000      -0.443919       -12.0796
 197   2.0000      -0.442417       -12.0388
 198   2.0000      -0.441352       -12.0098
 199   2.0000      -0.438218       -11.9245
 200   2.0000      -0.436622       -11.8811
 201   2.0000      -0.436230       -11.8704
 202   2.0000      -0.433016       -11.7830
 203   2.0000      -0.430559       -11.7161
 204   2.0000      -0.426136       -11.5957
 205   2.0000      -0.424365       -11.5475
 206   2.0000      -0.423905       -11.5350
 207   2.0000      -0.421754       -11.4765
 208   2.0000      -0.420518       -11.4429
 209   2.0000      -0.415044       -11.2939
 210   2.0000      -0.414847       -11.2886
 211   2.0000      -0.413373       -11.2484
 212   2.0000      -0.411961       -11.2100
 213   2.0000      -0.410407       -11.1677
 214   2.0000      -0.407490       -11.0884
 215   2.0000      -0.405045       -11.0218
 216   2.0000      -0.402681       -10.9575
 217   2.0000      -0.398964       -10.8564
 218   2.0000      -0.393835       -10.7168
 219   2.0000      -0.391312       -10.6481
 220   2.0000      -0.386118       -10.5068
 221   2.0000      -0.382012       -10.3951
 222   2.0000      -0.378802       -10.3077
 223   2.0000      -0.367271        -9.9939
 224   2.0000      -0.355383        -9.6705
 225   2.0000      -0.354343        -9.6422
 226   2.0000      -0.346683        -9.4337
 227   2.0000      -0.345104        -9.3908
 228   2.0000      -0.342143        -9.3102
 229   2.0000      -0.339386        -9.2352
 230   2.0000      -0.324415        -8.8278
 231   2.0000      -0.317281        -8.6336
 232   2.0000      -0.311136        -8.4665
 233   2.0000      -0.304377        -8.2825
 234   2.0000      -0.298931        -8.1343
 235   2.0000      -0.291865        -7.9421
 236   2.0000      -0.289422        -7.8756
 237   2.0000      -0.285212        -7.7610
 238   2.0000      -0.280494        -7.6326
 239   2.0000      -0.276782        -7.5316
 240   2.0000      -0.263818        -7.1789
 241   0.0000      -0.088026        -2.3953
 242   0.0000      -0.070375        -1.9150
 243   0.0000      -0.057992        -1.5780
 244   0.0000      -0.042937        -1.1684
 245   0.0000      -0.008249        -0.2245

MULLIKEN ATOMIC CHARGES
-----------------------
   0 C :    0.290559
   1 C :   -0.334436
   2 C :   -0.187074
   3 N :    0.152869
   4 C :   -0.192102
   5 N :    0.152325
   6 C :    0.018806
   7 C :   -0.021699
   8 C :   -0.062961
   9 C :    0.114443
  10 C :   -0.095411
  11 C :   -0.021539
  12 S :    0.142439
  13 C :   -0.048894
  14 C :    0.025241
  15 C :    0.171735
  16 O :   -0.143187
  17 C :   -0.065755
  18 C :   -0.071691
  19 C :    0.062515
  20 C :    0.092926
  21 O :   -0.362475
  22 C :    0.200598
  23 C :    0.175690
  24 O :   -0.306983
  25 C :    0.199265
  26 C :   -0.087701
  27 C :    0.036245
  28 C :   -0.035208
  29 C :    0.050815
  30 C :    0.050832
  31 O :   -0.357095
  32 C :    0.200653
  33 C :    0.169960
  34 O :   -0.308105
  35 C :    0.203091
  36 C :   -0.078073
  37 C :    0.021045
  38 C :   -0.002407
  39 C :    0.067095
  40 C :    0.063185
  41 O :   -0.368092
  42 C :    0.199558
  43 C :    0.144424
  44 O :   -0.313770
  45 C :    0.207952
  46 C :    0.056571
  47 C :   -0.015331
  48 C :    0.018873
  49 C :    0.000491
  50 C :   -0.103167
  51 C :    0.319478
  52 C :   -0.348391
  53 C :   -0.197060
  54 N :    0.148925
  55 C :   -0.175875
  56 N :    0.150082
  57 C :    0.008068
  58 C :    0.004712
  59 C :    0.126674
  60 O :   -0.153169
  61 C :   -0.072655
  62 C :    0.110014
  63 C :   -0.089664
  64 C :   -0.037809
  65 S :    0.131886
  66 C :   -0.052727
  67 C :    0.024742
  68 H :   -0.013679
  69 H :   -0.004972
  70 H :    0.040204
  71 H :   -0.005308
  72 H :    0.042785
  73 H :    0.033501
  74 H :    0.015489
  75 H :    0.027039
  76 H :    0.034337
  77 H :    0.024901
  78 H :    0.011151
  79 H :   -0.014818
  80 H :   -0.026783
  81 H :    0.025244
  82 H :    0.009596
  83 H :    0.044590
  84 H :    0.027642
  85 H :    0.004863
  86 H :    0.031591
  87 H :   -0.020656
  88 H :   -0.032568
  89 H :    0.020755
  90 H :    0.030133
  91 H :    0.028568
  92 H :    0.035784
  93 H :    0.024000
  94 H :    0.026597
  95 H :   -0.021797
  96 H :   -0.027753
  97 H :    0.019580
  98 H :   -0.013771
  99 H :   -0.007923
 100 H :    0.036392
 101 H :   -0.008982
Sum of atomic charges:   -0.0000000

LOEWDIN ATOMIC CHARGES
----------------------
   0 C :    0.076645
   1 C :   -0.138165
   2 C :   -0.019290
   3 N :   -0.049988
   4 C :   -0.022304
   5 N :   -0.053039
   6 C :   -0.023548
   7 C :   -0.051626
   8 C :    0.023523
   9 C :   -0.033737
  10 C :   -0.145139
  11 C :   -0.007876
  12 S :    0.430864
  13 C :   -0.147811
  14 C :   -0.057859
  15 C :    0.090772
  16 O :   -0.134363
  17 C :   -0.079827
  18 C :    0.081126
  19 C :   -0.051236
  20 C :    0.030563
  21 O :   -0.129394
  22 C :    0.076494
  23 C :    0.041386
  24 O :   -0.099454
  25 C :    0.078954
  26 C :   -0.025810
  27 C :   -0.008010
  28 C :   -0.019040
  29 C :   -0.027118
  30 C :    0.010022
  31 O :   -0.135112
  32 C :    0.077573
  33 C :    0.045403
  34 O :   -0.094524
  35 C :    0.078154
  36 C :   -0.048312
  37 C :   -0.006445
  38 C :   -0.023260
  39 C :   -0.000177
  40 C :    0.014474
  41 O :   -0.133940
  42 C :    0.076771
  43 C :    0.064300
  44 O :   -0.072437
  45 C :    0.081858
  46 C :   -0.064806
  47 C :    0.000511
  48 C :   -0.018331
  49 C :    0.078148
  50 C :   -0.094923
  51 C :    0.072060
  52 C :   -0.140001
  53 C :   -0.020089
  54 N :   -0.063868
  55 C :   -0.010198
  56 N :   -0.058824
  57 C :   -0.016241
  58 C :   -0.056116
  59 C :    0.085530
  60 O :   -0.148616
  61 C :    0.022523
  62 C :   -0.039347
  63 C :   -0.145050
  64 C :   -0.017784
  65 S :    0.422381
  66 C :   -0.154070
  67 C :   -0.058050
  68 H :    0.039798
  69 H :    0.041001
  70 H :    0.030070
  71 H :    0.035679
  72 H :    0.045879
  73 H :    0.025183
  74 H :    0.013678
  75 H :    0.013434
  76 H :    0.020857
  77 H :    0.020568
  78 H :    0.012200
  79 H :    0.035207
  80 H :    0.029771
  81 H :    0.023567
  82 H :    0.007751
  83 H :    0.019260
  84 H :    0.023196
  85 H :    0.011673
  86 H :    0.016456
  87 H :    0.031234
  88 H :    0.027925
  89 H :    0.020120
  90 H :    0.015913
  91 H :    0.015574
  92 H :    0.021721
  93 H :    0.018266
  94 H :    0.021770
  95 H :    0.031644
  96 H :    0.029824
  97 H :    0.045386
  98 H :    0.039455
  99 H :    0.038773
 100 H :    0.027951
 101 H :    0.034335

  Mayer bond orders larger than 0.100000
B(  0-C ,  1-C ) :   1.6555 B(  0-C ,  6-C ) :   1.0167 B(  0-C , 17-C ) :   1.0417
B(  1-C ,  2-C ) :   1.1333 B(  1-C ,  4-C ) :   1.1510 B(  2-C ,  3-N ) :   2.9800
B(  4-C ,  5-N ) :   2.9571 B(  6-C ,  7-C ) :   1.2659 B(  6-C , 11-C ) :   1.4052
B(  7-C ,  8-C ) :   1.4264 B(  7-C , 15-C ) :   0.9505 B(  8-C ,  9-C ) :   1.2489
B(  8-C , 68-H ) :   1.0164 B(  9-C , 10-C ) :   1.2965 B(  9-C , 14-C ) :   1.1726
B( 10-C , 11-C ) :   1.3296 B( 10-C , 12-S ) :   1.0980 B( 11-C , 69-H ) :   0.9839
B( 12-S , 13-C ) :   1.1267 B( 13-C , 14-C ) :   1.6269 B( 13-C , 70-H ) :   0.9690
B( 14-C , 71-H ) :   0.9997 B( 15-C , 16-O ) :   2.2045 B( 15-C , 17-C ) :   0.9232
B( 17-C , 18-C ) :   1.7062 B( 18-C , 19-C ) :   1.0209 B( 18-C , 72-H ) :   0.9511
B( 19-C , 20-C ) :   1.3344 B( 19-C , 26-C ) :   0.1054 B( 19-C , 28-C ) :   1.3285
B( 20-C , 21-O ) :   1.0741 B( 20-C , 23-C ) :   1.3430 B( 21-O , 22-C ) :   0.9430
B( 22-C , 73-H ) :   0.9811 B( 22-C , 74-H ) :   0.9631 B( 22-C , 75-H ) :   0.9615
B( 23-C , 24-O ) :   1.2208 B( 23-C , 26-C ) :   1.3508 B( 24-O , 25-C ) :   0.9390
B( 25-C , 76-H ) :   0.9717 B( 25-C , 77-H ) :   0.9770 B( 25-C , 78-H ) :   0.9758
B( 26-C , 27-C ) :   1.4178 B( 26-C , 29-C ) :   0.9119 B( 27-C , 28-C ) :   1.3254
B( 27-C , 79-H ) :   1.0030 B( 28-C , 80-H ) :   1.0058 B( 29-C , 30-C ) :   1.3886
B( 29-C , 36-C ) :   0.1118 B( 29-C , 38-C ) :   1.3746 B( 30-C , 31-O ) :   1.1066
B( 30-C , 33-C ) :   1.3053 B( 31-O , 32-C ) :   0.9386 B( 32-C , 81-H ) :   0.9814
B( 32-C , 82-H ) :   0.9592 B( 32-C , 83-H ) :   0.9637 B( 33-C , 34-O ) :   1.2062
B( 33-C , 36-C ) :   1.3638 B( 34-O , 35-C ) :   0.9390 B( 35-C , 84-H ) :   0.9760
B( 35-C , 85-H ) :   0.9736 B( 35-C , 86-H ) :   0.9728 B( 36-C , 37-C ) :   1.4033
B( 36-C , 39-C ) :   0.9245 B( 37-C , 38-C ) :   1.3365 B( 37-C , 87-H ) :   1.0033
B( 38-C , 88-H ) :   1.0003 B( 39-C , 40-C ) :   1.4114 B( 39-C , 48-C ) :   1.3332
B( 40-C , 41-O ) :   1.1054 B( 40-C , 43-C ) :   1.2882 B( 41-O , 42-C ) :   0.9296
B( 42-C , 89-H ) :   0.9788 B( 42-C , 90-H ) :   0.9672 B( 42-C , 91-H ) :   0.9578
B( 43-C , 44-O ) :   1.1984 B( 43-C , 46-C ) :   1.3027 B( 44-O , 45-C ) :   0.9166
B( 45-C , 92-H ) :   0.9749 B( 45-C , 93-H ) :   0.9759 B( 45-C , 94-H ) :   0.9752
B( 46-C , 47-C ) :   1.2915 B( 46-C , 49-C ) :   1.1042 B( 47-C , 48-C ) :   1.3894
B( 47-C , 95-H ) :   1.0037 B( 48-C , 96-H ) :   0.9941 B( 49-C , 50-C ) :   1.6532
B( 49-C , 97-H ) :   0.9309 B( 50-C , 51-C ) :   1.0384 B( 50-C , 59-C ) :   0.9422
B( 51-C , 52-C ) :   1.6324 B( 51-C , 57-C ) :   1.0133 B( 52-C , 53-C ) :   1.1388
B( 52-C , 55-C ) :   1.1844 B( 53-C , 54-N ) :   2.9823 B( 55-C , 56-N ) :   2.9264
B( 57-C , 58-C ) :   1.2677 B( 57-C , 64-C ) :   1.4168 B( 58-C , 59-C ) :   0.9274
B( 58-C , 61-C ) :   1.4261 B( 59-C , 60-O ) :   2.2423 B( 61-C , 62-C ) :   1.2503
B( 61-C , 98-H ) :   1.0164 B( 62-C , 63-C ) :   1.3084 B( 62-C , 67-C ) :   1.1689
B( 63-C , 64-C ) :   1.3154 B( 63-C , 65-S ) :   1.0961 B( 64-C , 99-H ) :   0.9852
B( 65-S , 66-C ) :   1.1228 B( 66-C , 67-C ) :   1.6332 B( 66-C ,100-H ) :   0.9683
B( 67-C ,101-H ) :   0.9992

-----------------------------------------------------------------------------
         ABSORPTION SPECTRUM VIA TRANSITION ELECTRIC DIPOLE MOMENTS
-----------------------------------------------------------------------------
State   Energy  Wavelength   fosc         T2         TX        TY        TZ
        (cm-1)    (nm)                  (au**2)     (au)      (au)      (au)
-----------------------------------------------------------------------------
   0   23937.1    417.8   0.733626650  10.08974   0.72532  -3.08863   0.15494
   1   24424.5    409.4   0.293791243   3.95994  -0.58967   1.83304  -0.50220
   2   25007.4    399.9   0.083557410   1.10000   0.37804   0.81956   0.53424
   3   26654.0    375.2   0.089543307   1.10598  -0.71799   0.33826  -0.68997
   4   28077.7    356.2   0.028588491   0.33520  -0.09605   0.24147   0.51737
   5   28490.5    351.0   0.020096141   0.23221  -0.10300  -0.41975   0.21310
   6   28675.0    348.7   0.163378571   1.87571  -0.12051   0.41062   1.30099
   7   29953.7    333.8   0.070248759   0.77208   0.82095  -0.29998  -0.09018
   8   30340.2    329.6   0.080258639   0.87086  -0.03668   0.93208   0.02732
   9   30456.1    328.3   0.036999698   0.39994   0.08909   0.00358  -0.62610
  10   30653.9    326.2   0.058025882   0.62318  -0.17489   0.61708   0.46022
  11   30688.3    325.9   0.045827447   0.49162   0.19488  -0.62375  -0.25411
  12   31031.6    322.3   0.125062188   1.32677   0.04983  -0.26957  -1.11876
  13   31498.0    317.5   0.176724131   1.84709   0.39420  -1.21759   0.45736
  14   32004.0    312.5   0.017811683   0.18322   0.06800  -0.25101  -0.33999
  15   32899.5    304.0   0.298067158   2.98264   0.28981  -1.50567  -0.79475
  16   33267.8    300.6   0.208949483   2.06773   0.28760  -1.35483  -0.38659
  17   33355.7    299.8   0.008480113   0.08370   0.12727   0.04458   0.25595
  18   34020.5    293.9   0.559779609   5.41692   0.76720  -2.13501  -0.51965
  19   34264.3    291.8   0.625566702   6.01045   0.06324   0.16579  -2.44519
  20   34523.4    289.7   0.005430383   0.05178   0.15727   0.16041  -0.03632
  21   34993.9    285.8   0.043363072   0.40795   0.31358  -0.40411  -0.38250
  22   35307.3    283.2   0.143951301   1.34223  -0.70414   0.91880  -0.04715
  23   36107.6    277.0   0.010769679   0.09819   0.12870  -0.19726  -0.20669
  24   36281.0    275.6   0.228069331   2.06949   0.29431  -1.17546  -0.77535
  25   36635.0    273.0   0.034652543   0.31140  -0.00166   0.46233   0.31248
  26   37207.0    268.8   0.048182050   0.42632  -0.17457   0.37278   0.50683
  27   37724.3    265.1   0.002203940   0.01923   0.10328  -0.09255   0.00088
  28   38006.7    263.1   0.009828551   0.08513  -0.11824   0.24365  -0.10857
  29   38279.0    261.2   0.010936189   0.09405   0.01765   0.14003   0.27228
  30   39349.0    254.1   0.145779235   1.21966  -0.18279   1.07811  -0.15470
  31   39486.8    253.2   0.059741717   0.49808  -0.48546  -0.43722  -0.26693
  32   39583.8    252.6   0.010328054   0.08590  -0.01906  -0.29075   0.03157
  33   40317.4    248.0   0.148394771   1.21172  -0.73479   0.52282  -0.63123

FINAL SINGLE POINT ENERGY     -3691.389178848131

DIPOLE MOMENT
-------------
                                X             Y             Z
Electronic contribution:     -0.03945       0.16214       0.22426
Nuclear contribution   :     -0.38309      -0.64751      -1.77534
                        -----------------------------------------
Total Dipole Moment    :     -0.42254      -0.48537      -1.55108
                        -----------------------------------------
Magnitude (a.u.)       :      1.67928
Magnitude (Debye)      :      4.26838

Rotational constants in cm-1:     0.003261     0.000275     0.000269
Rotational constants in MHz :    97.755783     8.229689     8.066579

                             ****ORCA TERMINATED NORMALLY****
TOTAL RUN TIME: 0 days 0 hours 15 minutes 9 seconds 97 msec
