                         Program Version 4.2.0 -  RELEASE  -
|  1> # ORCA input file
|  2> # SCF done       -177.941298616043          0.000836516245
|  3> ! CAM-B3LYP def2-SVP def2/J RIJCOSX Grid4 TightSCF
|  4> %maxcore 5000
|  5> %tddft
|  6>     Mode sTDDFT
|  7>     Ethresh 5.0
|  8>     maxcore 5000
|  9> end
| 10>
| 11> %pal
| 12>   nprocs 6
| 13>   end
| 14> * xyz 0 1
| 15>    C        6.80234         0.86925         9.70805
| 16>    C        6.22250         1.76657        10.56122
| 17>    F        6.49693         1.70170        11.87698
| 18>    C        5.34339         2.76413        10.11886
| 19>    C        5.05283         2.84561         8.78524
| 20>    C        5.62174         1.94565         7.86120
| 21>    C        6.51188         0.93668         8.33179
| 22>    C        7.08487         0.01347         7.42580
| 23>    C        6.77708         0.10116         6.09582
| 24>    C        5.90011         1.12257         5.62796
| 25>    C        5.32888         2.02211         6.48058
| 26>    C        5.76144         1.01225         4.16270
| 27>    O        5.06252         1.67118         3.42737
| 28>    C        6.71693        -0.05691         3.76097
| 29>    C        7.16905        -0.72533         4.95837
| 30>    C        7.62259        -2.01914         5.03900
| 31>    C        7.68588        -2.88534         3.92951
| 32>    N        7.69419        -3.62754         3.05264
| 33>    C        7.97709        -2.65274         6.24548
| 34>    N        8.29600        -3.20977         7.19742
| 35>    C        7.04624        -0.20874         2.44614
| 36>    C        8.17586        -0.85210         1.87488
| 37>    C        8.14380        -1.33409         0.58311
| 38>    C        9.17655        -2.03401        -0.02582
| 39>    C       10.44575        -2.27088         0.66492
| 40>    C       10.73147        -1.82057         1.90635
| 41>    S        9.62960        -0.93314         2.86816
| 42>    C       11.22805        -3.03892        -0.23897
| 43>    C       10.50447        -3.28705        -1.41065
| 44>    C       11.26897        -4.02629        -2.34361
| 45>    C       12.50529        -4.31871        -1.86332
| 46>    S       12.80412        -3.71269        -0.26992
| 47>    C        9.21124        -2.66669        -1.29214
| 48>    C        8.14463        -2.67246        -2.21582
| 49>    C        8.04805        -3.48376        -3.30508
| 50>    C        6.96344        -3.48039        -4.21069
| 51>    C        5.89374        -2.59871        -4.30429
| 52>    C        5.01856        -2.93874        -5.32906
| 53>    C        5.40788        -4.09760        -6.02915
| 54>    S        6.86830        -4.74915        -5.42916
| 55>    C        4.44578        -4.36396        -7.02853
| 56>    C        3.45054        -3.36859        -6.97610
| 57>    C        3.77946        -2.43979        -5.90861
| 58>    C        3.07893        -1.33369        -5.52617
| 59>    C        3.50712        -0.51328        -4.46163
| 60>    N        3.85921         0.14864        -3.59391
| 61>    C        1.88680        -0.94044        -6.16978
| 62>    N        0.92079        -0.61408        -6.69415
| 63>    C        2.44732        -3.55303        -7.92310
| 64>    C        2.65540        -4.68647        -8.69326
| 65>    S        4.13281        -5.52951        -8.23806
| 66>    C        1.82458        -5.16615        -9.73005
| 67>    S        0.45493        -4.22774       -10.25327
| 68>    C       -0.02424        -5.40658       -11.45396
| 69>    C        0.85437        -6.46708       -11.42471
| 70>    C        1.90160        -6.34929       -10.46110
| 71>    C        2.75326        -7.47844       -10.46139
| 72>    C        2.37260        -8.40869       -11.38094
| 73>    C        2.97734        -9.70973       -11.66773
| 74>    O        2.57525       -10.47423       -12.50941
| 75>    O        4.03317        -9.95358       -10.87436
| 76>    C        4.67121       -11.20659       -11.07632
| 77>    S        0.95810        -7.95888       -12.30785
| 78>    C       -1.17941        -5.18348       -12.27420
| 79>    C       -1.59016        -6.06736       -13.28470
| 80>    N       -2.65663        -5.84308       -14.02399
| 81>    C       -3.34224        -4.73902       -13.78435
| 82>    N       -3.05572        -3.83094       -12.86639
| 83>    C       -1.99240        -4.04921       -12.12277
| 84>    H        7.47164         0.11147        10.08440
| 85>    H        4.91583         3.44409        10.83851
| 86>    H        4.37830         3.60564         8.42063
| 87>    H        7.75993        -0.73685         7.80621
| 88>    H        4.65865         2.78226         6.10814
| 89>    H        6.37693         0.28390         1.74693
| 90>    H        7.21252        -1.20361         0.04863
| 91>    H       11.68089        -1.99762         2.38658
| 92>    H       10.94768        -4.32200        -3.32509
| 93>    H       13.28578        -4.86548        -2.35536
| 94>    H        7.32721        -1.99761        -2.00446
| 95>    H        8.81352        -4.22231        -3.48773
| 96>    H        5.77538        -1.74854        -3.65887
| 97>    H        1.59400        -2.91295        -8.05828
| 98>    H        3.60237        -7.61447        -9.81808
| 99>    H        5.49907       -11.24091       -10.37314
|100>    H        5.03340       -11.28726       -12.10319
|101>    H        3.97108       -12.02286       -10.88677
|102>    H       -1.04258        -6.97496       -13.50128
|103>    H       -4.21720        -4.56127       -14.39460
|104>    H       -1.76764        -3.30024       -11.37219
|105> *
|106>
|107>                          ****END OF INPUT****

CARTESIAN COORDINATES (ANGSTROEM)
---------------------------------
  C      6.802340    0.869250    9.708050
  C      6.222500    1.766570   10.561220
  F      6.496930    1.701700   11.876980
  C      5.343390    2.764130   10.118860
  C      5.052830    2.845610    8.785240
  C      5.621740    1.945650    7.861200
  C      6.511880    0.936680    8.331790
  C      7.084870    0.013470    7.425800
  C      6.777080    0.101160    6.095820
  C      5.900110    1.122570    5.627960
  C      5.328880    2.022110    6.480580
  C      5.761440    1.012250    4.162700
  O      5.062520    1.671180    3.427370
  C      6.716930   -0.056910    3.760970
  C      7.169050   -0.725330    4.958370
  C      7.622590   -2.019140    5.039000
  C      7.685880   -2.885340    3.929510
  N      7.694190   -3.627540    3.052640
  C      7.977090   -2.652740    6.245480
  N      8.296000   -3.209770    7.197420
  C      7.046240   -0.208740    2.446140
  C      8.175860   -0.852100    1.874880
  C      8.143800   -1.334090    0.583110
  C      9.176550   -2.034010   -0.025820
  C     10.445750   -2.270880    0.664920
  C     10.731470   -1.820570    1.906350
  S      9.629600   -0.933140    2.868160
  C     11.228050   -3.038920   -0.238970
  C     10.504470   -3.287050   -1.410650
  C     11.268970   -4.026290   -2.343610
  C     12.505290   -4.318710   -1.863320
  S     12.804120   -3.712690   -0.269920
  C      9.211240   -2.666690   -1.292140
  C      8.144630   -2.672460   -2.215820
  C      8.048050   -3.483760   -3.305080
  C      6.963440   -3.480390   -4.210690
  C      5.893740   -2.598710   -4.304290
  C      5.018560   -2.938740   -5.329060
  C      5.407880   -4.097600   -6.029150
  S      6.868300   -4.749150   -5.429160
  C      4.445780   -4.363960   -7.028530
  C      3.450540   -3.368590   -6.976100
  C      3.779460   -2.439790   -5.908610
  C      3.078930   -1.333690   -5.526170
  C      3.507120   -0.513280   -4.461630
  N      3.859210    0.148640   -3.593910
  C      1.886800   -0.940440   -6.169780
  N      0.920790   -0.614080   -6.694150
  C      2.447320   -3.553030   -7.923100
  C      2.655400   -4.686470   -8.693260
  S      4.132810   -5.529510   -8.238060
  C      1.824580   -5.166150   -9.730050
  S      0.454930   -4.227740  -10.253270
  C     -0.024240   -5.406580  -11.453960
  C      0.854370   -6.467080  -11.424710
  C      1.901600   -6.349290  -10.461100
  C      2.753260   -7.478440  -10.461390
  C      2.372600   -8.408690  -11.380940
  C      2.977340   -9.709730  -11.667730
  O      2.575250  -10.474230  -12.509410
  O      4.033170   -9.953580  -10.874360
  C      4.671210  -11.206590  -11.076320
  S      0.958100   -7.958880  -12.307850
  C     -1.179410   -5.183480  -12.274200
  C     -1.590160   -6.067360  -13.284700
  N     -2.656630   -5.843080  -14.023990
  C     -3.342240   -4.739020  -13.784350
  N     -3.055720   -3.830940  -12.866390
  C     -1.992400   -4.049210  -12.122770
  H      7.471640    0.111470   10.084400
  H      4.915830    3.444090   10.838510
  H      4.378300    3.605640    8.420630
  H      7.759930   -0.736850    7.806210
  H      4.658650    2.782260    6.108140
  H      6.376930    0.283900    1.746930
  H      7.212520   -1.203610    0.048630
  H     11.680890   -1.997620    2.386580
  H     10.947680   -4.322000   -3.325090
  H     13.285780   -4.865480   -2.355360
  H      7.327210   -1.997610   -2.004460
  H      8.813520   -4.222310   -3.487730
  H      5.775380   -1.748540   -3.658870
  H      1.594000   -2.912950   -8.058280
  H      3.602370   -7.614470   -9.818080
  H      5.499070  -11.240910  -10.373140
  H      5.033400  -11.287260  -12.103190
  H      3.971080  -12.022860  -10.886770
  H     -1.042580   -6.974960  -13.501280
  H     -4.217200   -4.561270  -14.394600
  H     -1.767640   -3.300240  -11.372190

 Total Charge           Charge          ....    0
 Multiplicity           Mult            ....    1
 Number of Electrons    NEL             ....  510
 Basis Dimension        Dim             .... 1095

ORBITAL ENERGIES
----------------

  NO   OCC          E(Eh)            E(eV)
   0   2.0000     -88.995284     -2421.6848
   1   2.0000     -88.989824     -2421.5362
   2   2.0000     -88.980009     -2421.2691
   3   2.0000     -88.978454     -2421.2268
   4   2.0000     -88.967219     -2420.9211
   5   2.0000     -88.965455     -2420.8731
   6   2.0000     -24.784684      -674.4255
   7   2.0000     -19.267599      -524.2980
   8   2.0000     -19.212367      -522.7951
   9   2.0000     -19.211860      -522.7813
  10   2.0000     -14.433217      -392.7478
  11   2.0000     -14.432561      -392.7300
  12   2.0000     -14.414463      -392.2375
  13   2.0000     -14.411883      -392.1673
  14   2.0000     -14.410770      -392.1370
  15   2.0000     -14.410164      -392.1205
  16   2.0000     -10.411288      -283.3055
  17   2.0000     -10.368336      -282.1368
  18   2.0000     -10.367259      -282.1074
  19   2.0000     -10.364021      -282.0194
  20   2.0000     -10.354338      -281.7559
  21   2.0000     -10.341120      -281.3962
  22   2.0000     -10.338955      -281.3373
  23   2.0000     -10.335874      -281.2534
  24   2.0000     -10.335717      -281.2492
  25   2.0000     -10.333606      -281.1917
  26   2.0000     -10.332737      -281.1681
  27   2.0000     -10.332730      -281.1679
  28   2.0000     -10.331910      -281.1456
  29   2.0000     -10.331592      -281.1369
  30   2.0000     -10.330700      -281.1126
  31   2.0000     -10.328899      -281.0636
  32   2.0000     -10.328331      -281.0482
  33   2.0000     -10.324278      -280.9379
  34   2.0000     -10.323501      -280.9167
  35   2.0000     -10.322952      -280.9018
  36   2.0000     -10.321774      -280.8697
  37   2.0000     -10.321039      -280.8498
  38   2.0000     -10.318360      -280.7768
  39   2.0000     -10.317061      -280.7415
  40   2.0000     -10.316972      -280.7391
  41   2.0000     -10.314689      -280.6770
  42   2.0000     -10.314519      -280.6723
  43   2.0000     -10.306154      -280.4447
  44   2.0000     -10.306003      -280.4406
  45   2.0000     -10.305511      -280.4272
  46   2.0000     -10.305440      -280.4253
  47   2.0000     -10.305209      -280.4190
  48   2.0000     -10.304793      -280.4077
  49   2.0000     -10.304550      -280.4011
  50   2.0000     -10.304481      -280.3992
  51   2.0000     -10.302698      -280.3507
  52   2.0000     -10.301283      -280.3122
  53   2.0000     -10.301121      -280.3077
  54   2.0000     -10.300247      -280.2840
  55   2.0000     -10.299638      -280.2674
  56   2.0000     -10.298483      -280.2360
  57   2.0000     -10.296981      -280.1951
  58   2.0000     -10.296578      -280.1841
  59   2.0000     -10.296468      -280.1811
  60   2.0000     -10.296302      -280.1766
  61   2.0000     -10.295368      -280.1512
  62   2.0000     -10.294419      -280.1254
  63   2.0000     -10.293125      -280.0902
  64   2.0000     -10.292842      -280.0825
  65   2.0000     -10.288409      -279.9618
  66   2.0000     -10.287696      -279.9424
  67   2.0000     -10.286276      -279.9038
  68   2.0000     -10.285909      -279.8938
  69   2.0000      -8.089420      -220.1243
  70   2.0000      -8.084482      -219.9899
  71   2.0000      -8.074833      -219.7274
  72   2.0000      -8.073046      -219.6787
  73   2.0000      -8.062830      -219.4007
  74   2.0000      -8.060271      -219.3311
  75   2.0000      -6.058779      -164.8678
  76   2.0000      -6.054553      -164.7528
  77   2.0000      -6.053665      -164.7286
  78   2.0000      -6.051689      -164.6748
  79   2.0000      -6.049565      -164.6170
  80   2.0000      -6.046952      -164.5459
  81   2.0000      -6.044438      -164.4775
  82   2.0000      -6.042468      -164.4239
  83   2.0000      -6.039884      -164.3536
  84   2.0000      -6.038265      -164.3095
  85   2.0000      -6.036674      -164.2663
  86   2.0000      -6.035079      -164.2229
  87   2.0000      -6.032206      -164.1447
  88   2.0000      -6.030146      -164.0886
  89   2.0000      -6.027971      -164.0294
  90   2.0000      -6.025835      -163.9713
  91   2.0000      -6.024902      -163.9459
  92   2.0000      -6.021342      -163.8490
  93   2.0000      -1.299527       -35.3619
  94   2.0000      -1.198667       -32.6174
  95   2.0000      -1.127551       -30.6822
  96   2.0000      -1.105599       -30.0849
  97   2.0000      -1.082130       -29.4462
  98   2.0000      -1.046787       -28.4845
  99   2.0000      -1.025901       -27.9162
 100   2.0000      -1.021933       -27.8082
 101   2.0000      -1.019650       -27.7461
 102   2.0000      -1.014952       -27.6182
 103   2.0000      -1.010468       -27.4962
 104   2.0000      -0.998777       -27.1781
 105   2.0000      -0.997960       -27.1559
 106   2.0000      -0.993052       -27.0223
 107   2.0000      -0.981972       -26.7208
 108   2.0000      -0.977910       -26.6103
 109   2.0000      -0.973063       -26.4784
 110   2.0000      -0.965926       -26.2842
 111   2.0000      -0.958293       -26.0765
 112   2.0000      -0.941366       -25.6159
 113   2.0000      -0.927541       -25.2397
 114   2.0000      -0.923515       -25.1301
 115   2.0000      -0.914066       -24.8730
 116   2.0000      -0.907377       -24.6910
 117   2.0000      -0.893289       -24.3076
 118   2.0000      -0.887974       -24.1630
 119   2.0000      -0.883359       -24.0374
 120   2.0000      -0.872001       -23.7283
 121   2.0000      -0.864115       -23.5138
 122   2.0000      -0.860615       -23.4185
 123   2.0000      -0.858658       -23.3653
 124   2.0000      -0.850378       -23.1399
 125   2.0000      -0.847885       -23.0721
 126   2.0000      -0.833321       -22.6758
 127   2.0000      -0.827151       -22.5079
 128   2.0000      -0.818101       -22.2617
 129   2.0000      -0.809836       -22.0368
 130   2.0000      -0.804597       -21.8942
 131   2.0000      -0.789697       -21.4888
 132   2.0000      -0.780693       -21.2437
 133   2.0000      -0.773749       -21.0548
 134   2.0000      -0.760074       -20.6827
 135   2.0000      -0.754459       -20.5299
 136   2.0000      -0.746049       -20.3010
 137   2.0000      -0.734153       -19.9773
 138   2.0000      -0.730358       -19.8741
 139   2.0000      -0.724409       -19.7122
 140   2.0000      -0.716888       -19.5075
 141   2.0000      -0.707793       -19.2600
 142   2.0000      -0.706047       -19.2125
 143   2.0000      -0.700730       -19.0678
 144   2.0000      -0.685792       -18.6613
 145   2.0000      -0.682028       -18.5589
 146   2.0000      -0.678772       -18.4703
 147   2.0000      -0.674121       -18.3438
 148   2.0000      -0.661140       -17.9905
 149   2.0000      -0.655757       -17.8440
 150   2.0000      -0.645805       -17.5732
 151   2.0000      -0.644000       -17.5241
 152   2.0000      -0.638157       -17.3651
 153   2.0000      -0.636043       -17.3076
 154   2.0000      -0.635012       -17.2796
 155   2.0000      -0.629181       -17.1209
 156   2.0000      -0.622817       -16.9477
 157   2.0000      -0.619768       -16.8647
 158   2.0000      -0.617324       -16.7982
 159   2.0000      -0.611957       -16.6522
 160   2.0000      -0.605050       -16.4642
 161   2.0000      -0.601108       -16.3570
 162   2.0000      -0.598314       -16.2810
 163   2.0000      -0.589605       -16.0440
 164   2.0000      -0.583469       -15.8770
 165   2.0000      -0.579011       -15.7557
 166   2.0000      -0.577997       -15.7281
 167   2.0000      -0.571161       -15.5421
 168   2.0000      -0.569993       -15.5103
 169   2.0000      -0.562705       -15.3120
 170   2.0000      -0.560346       -15.2478
 171   2.0000      -0.557093       -15.1593
 172   2.0000      -0.556086       -15.1319
 173   2.0000      -0.549905       -14.9637
 174   2.0000      -0.548244       -14.9185
 175   2.0000      -0.544502       -14.8167
 176   2.0000      -0.543448       -14.7880
 177   2.0000      -0.538115       -14.6429
 178   2.0000      -0.532533       -14.4910
 179   2.0000      -0.530772       -14.4430
 180   2.0000      -0.526922       -14.3383
 181   2.0000      -0.523154       -14.2358
 182   2.0000      -0.522232       -14.2107
 183   2.0000      -0.519956       -14.1487
 184   2.0000      -0.519029       -14.1235
 185   2.0000      -0.514009       -13.9869
 186   2.0000      -0.513666       -13.9776
 187   2.0000      -0.512345       -13.9416
 188   2.0000      -0.508893       -13.8477
 189   2.0000      -0.505904       -13.7663
 190   2.0000      -0.504849       -13.7376
 191   2.0000      -0.502372       -13.6702
 192   2.0000      -0.499822       -13.6009
 193   2.0000      -0.499305       -13.5868
 194   2.0000      -0.498490       -13.5646
 195   2.0000      -0.492833       -13.4107
 196   2.0000      -0.489558       -13.3216
 197   2.0000      -0.488221       -13.2852
 198   2.0000      -0.485079       -13.1997
 199   2.0000      -0.482710       -13.1352
 200   2.0000      -0.481150       -13.0928
 201   2.0000      -0.479667       -13.0524
 202   2.0000      -0.476302       -12.9608
 203   2.0000      -0.471009       -12.8168
 204   2.0000      -0.465731       -12.6732
 205   2.0000      -0.464047       -12.6274
 206   2.0000      -0.463042       -12.6000
 207   2.0000      -0.460223       -12.5233
 208   2.0000      -0.455464       -12.3938
 209   2.0000      -0.453325       -12.3356
 210   2.0000      -0.448414       -12.2020
 211   2.0000      -0.447331       -12.1725
 212   2.0000      -0.444782       -12.1031
 213   2.0000      -0.443110       -12.0576
 214   2.0000      -0.442525       -12.0417
 215   2.0000      -0.441383       -12.0106
 216   2.0000      -0.440989       -11.9999
 217   2.0000      -0.440796       -11.9947
 218   2.0000      -0.439291       -11.9537
 219   2.0000      -0.437357       -11.9011
 220   2.0000      -0.435699       -11.8560
 221   2.0000      -0.432043       -11.7565
 222   2.0000      -0.430327       -11.7098
 223   2.0000      -0.428597       -11.6627
 224   2.0000      -0.426929       -11.6173
 225   2.0000      -0.425935       -11.5903
 226   2.0000      -0.424816       -11.5598
 227   2.0000      -0.423717       -11.5299
 228   2.0000      -0.421400       -11.4669
 229   2.0000      -0.415910       -11.3175
 230   2.0000      -0.413586       -11.2542
 231   2.0000      -0.402623       -10.9559
 232   2.0000      -0.402126       -10.9424
 233   2.0000      -0.392178       -10.6717
 234   2.0000      -0.387206       -10.5364
 235   2.0000      -0.385105       -10.4792
 236   2.0000      -0.383073       -10.4239
 237   2.0000      -0.376187       -10.2366
 238   2.0000      -0.372417       -10.1340
 239   2.0000      -0.365650        -9.9499
 240   2.0000      -0.356229        -9.6935
 241   2.0000      -0.352572        -9.5940
 242   2.0000      -0.343668        -9.3517
 243   2.0000      -0.340094        -9.2544
 244   2.0000      -0.336894        -9.1674
 245   2.0000      -0.329484        -8.9657
 246   2.0000      -0.325331        -8.8527
 247   2.0000      -0.321188        -8.7400
 248   2.0000      -0.320792        -8.7292
 249   2.0000      -0.311437        -8.4746
 250   2.0000      -0.301439        -8.2026
 251   2.0000      -0.297261        -8.0889
 252   2.0000      -0.282518        -7.6877
 253   2.0000      -0.256407        -6.9772
 254   2.0000      -0.228250        -6.2110
 255   0.0000      -0.112581        -3.0635
 256   0.0000      -0.099497        -2.7075
 257   0.0000      -0.069642        -1.8951
 258   0.0000      -0.057197        -1.5564
 259   0.0000      -0.048967        -1.3325

MULLIKEN ATOMIC CHARGES
-----------------------
   0 C :   -0.099258
   1 C :    0.303597
   2 F :   -0.191129
   3 C :   -0.028243
   4 C :   -0.009969
   5 C :    0.098999
   6 C :    0.101592
   7 C :   -0.088118
   8 C :    0.044587
   9 C :    0.010120
  10 C :   -0.080529
  11 C :    0.139317
  12 O :   -0.140292
  13 C :   -0.131005
  14 C :    0.257584
  15 C :   -0.324052
  16 C :   -0.212116
  17 N :    0.169485
  18 C :   -0.174748
  19 N :    0.149803
  20 C :    0.031260
  21 C :   -0.106479
  22 C :    0.008903
  23 C :    0.062664
  24 C :    0.074672
  25 C :   -0.115554
  26 S :    0.146976
  27 C :   -0.099495
  28 C :    0.046433
  29 C :   -0.002193
  30 C :   -0.067481
  31 S :    0.141915
  32 C :    0.105768
  33 C :   -0.026274
  34 C :    0.042747
  35 C :   -0.075724
  36 C :   -0.036708
  37 C :    0.007230
  38 C :   -0.100317
  39 S :    0.183549
  40 C :   -0.089621
  41 C :    0.021163
  42 C :    0.303890
  43 C :   -0.296148
  44 C :   -0.181575
  45 N :    0.165082
  46 C :   -0.188001
  47 N :    0.178728
  48 C :   -0.067714
  49 C :   -0.069319
  50 S :    0.166461
  51 C :   -0.069029
  52 S :    0.143582
  53 C :   -0.116189
  54 C :   -0.036013
  55 C :    0.094384
  56 C :   -0.009089
  57 C :   -0.133916
  58 C :    0.209118
  59 O :   -0.197097
  60 O :   -0.304827
  61 C :    0.189923
  62 S :    0.154349
  63 C :    0.017562
  64 C :    0.008856
  65 N :   -0.086773
  66 C :    0.064794
  67 N :   -0.081613
  68 C :   -0.004204
  69 H :   -0.002718
  70 H :    0.003260
  71 H :   -0.008968
  72 H :   -0.005060
  73 H :   -0.011098
  74 H :    0.035849
  75 H :   -0.005744
  76 H :    0.039672
  77 H :   -0.013338
  78 H :    0.029892
  79 H :   -0.020894
  80 H :   -0.029997
  81 H :    0.006154
  82 H :    0.015041
  83 H :    0.006751
  84 H :    0.034595
  85 H :    0.036102
  86 H :    0.036343
  87 H :    0.009936
  88 H :    0.020687
  89 H :    0.019254
Sum of atomic charges:   -0.0000000

LOEWDIN ATOMIC CHARGES
----------------------
   0 C :   -0.042851
   1 C :    0.093229
   2 F :   -0.065434
   3 C :   -0.037661
   4 C :    0.004789
   5 C :   -0.019377
   6 C :    0.003669
   7 C :    0.008375
   8 C :   -0.015692
   9 C :   -0.059704
  10 C :    0.034544
  11 C :    0.082421
  12 O :   -0.143449
  13 C :   -0.101646
  14 C :    0.057106
  15 C :   -0.144385
  16 C :   -0.035803
  17 N :   -0.055243
  18 C :   -0.019238
  19 N :   -0.054257
  20 C :    0.045347
  21 C :   -0.183133
  22 C :    0.029326
  23 C :   -0.025831
  24 C :   -0.052109
  25 C :   -0.125856
  26 S :    0.480795
  27 C :   -0.183458
  28 C :   -0.043400
  29 C :   -0.064381
  30 C :   -0.162494
  31 S :    0.435647
  32 C :   -0.019551
  33 C :   -0.008670
  34 C :   -0.046939
  35 C :   -0.157473
  36 C :   -0.029622
  37 C :   -0.064290
  38 C :   -0.190140
  39 S :    0.470779
  40 C :   -0.177068
  41 C :   -0.070444
  42 C :    0.083247
  43 C :   -0.100637
  44 C :   -0.014181
  45 N :   -0.034208
  46 C :   -0.017246
  47 N :   -0.030094
  48 C :   -0.031897
  49 C :   -0.180695
  50 S :    0.480710
  51 C :   -0.177103
  52 S :    0.470971
  53 C :   -0.193956
  54 C :   -0.175902
  55 C :   -0.084071
  56 C :   -0.025460
  57 C :   -0.194502
  58 C :    0.064532
  59 O :   -0.172761
  60 O :   -0.095135
  61 C :    0.082883
  62 S :    0.437348
  63 C :   -0.081591
  64 C :    0.041015
  65 N :   -0.075316
  66 C :    0.042166
  67 N :   -0.075874
  68 C :    0.036895
  69 H :    0.042920
  70 H :    0.041808
  71 H :    0.035784
  72 H :    0.038760
  73 H :    0.039909
  74 H :    0.051921
  75 H :    0.043084
  76 H :    0.038728
  77 H :    0.028748
  78 H :    0.025285
  79 H :    0.029794
  80 H :    0.026999
  81 H :    0.038152
  82 H :    0.036548
  83 H :    0.026951
  84 H :    0.026134
  85 H :    0.024975
  86 H :    0.025206
  87 H :    0.013920
  88 H :    0.019527
  89 H :    0.019283

  Mayer bond orders larger than 0.100000
B(  0-C ,  1-C ) :   1.4404 B(  0-C ,  6-C ) :   1.2030 B(  0-C , 69-H ) :   1.0069
B(  1-C ,  2-F ) :   1.0881 B(  1-C ,  3-C ) :   1.2549 B(  3-C ,  4-C ) :   1.4605
B(  3-C , 70-H ) :   0.9927 B(  4-C ,  5-C ) :   1.2350 B(  4-C , 71-H ) :   0.9971
B(  5-C ,  6-C ) :   1.2581 B(  5-C , 10-C ) :   1.1896 B(  6-C ,  7-C ) :   1.2014
B(  7-C ,  8-C ) :   1.4615 B(  7-C , 72-H ) :   0.9949 B(  8-C ,  9-C ) :   1.2171
B(  8-C , 14-C ) :   1.0015 B(  9-C , 10-C ) :   1.4714 B(  9-C , 11-C ) :   0.9215
B( 10-C , 73-H ) :   1.0159 B( 11-C , 12-O ) :   2.2746 B( 11-C , 13-C ) :   0.9401
B( 13-C , 14-C ) :   1.0509 B( 13-C , 20-C ) :   1.6076 B( 14-C , 15-C ) :   1.6368
B( 15-C , 16-C ) :   1.1573 B( 15-C , 18-C ) :   1.1417 B( 16-C , 17-N ) :   3.0173
B( 18-C , 19-N ) :   2.9834 B( 20-C , 21-C ) :   1.1369 B( 20-C , 74-H ) :   0.9482
B( 21-C , 22-C ) :   1.4674 B( 21-C , 26-S ) :   1.0490 B( 22-C , 23-C ) :   1.2518
B( 22-C , 75-H ) :   0.9747 B( 23-C , 24-C ) :   1.0472 B( 23-C , 32-C ) :   1.3377
B( 24-C , 25-C ) :   1.5939 B( 24-C , 27-C ) :   1.1874 B( 25-C , 26-S ) :   1.1560
B( 25-C , 76-H ) :   0.9419 B( 27-C , 28-C ) :   1.4320 B( 27-C , 31-S ) :   1.0926
B( 28-C , 29-C ) :   1.2041 B( 28-C , 32-C ) :   1.1014 B( 29-C , 30-C ) :   1.5970
B( 29-C , 77-H ) :   0.9982 B( 30-C , 31-S ) :   1.1505 B( 30-C , 78-H ) :   0.9651
B( 32-C , 33-C ) :   1.1932 B( 33-C , 34-C ) :   1.6278 B( 33-C , 79-H ) :   0.9582
B( 34-C , 35-C ) :   1.1333 B( 34-C , 80-H ) :   0.9628 B( 35-C , 36-C ) :   1.4357
B( 35-C , 39-S ) :   1.1036 B( 36-C , 37-C ) :   1.3132 B( 36-C , 81-H ) :   0.9887
B( 37-C , 38-C ) :   1.4231 B( 37-C , 42-C ) :   0.9978 B( 38-C , 39-S ) :   1.1140
B( 38-C , 40-C ) :   1.2006 B( 40-C , 41-C ) :   1.4270 B( 40-C , 50-S ) :   1.1209
B( 41-C , 42-C ) :   0.9955 B( 41-C , 48-C ) :   1.3077 B( 42-C , 43-C ) :   1.7136
B( 43-C , 44-C ) :   1.1343 B( 43-C , 46-C ) :   1.1325 B( 44-C , 45-N ) :   2.9829
B( 46-C , 47-N ) :   2.9931 B( 48-C , 49-C ) :   1.4329 B( 48-C , 82-H ) :   0.9888
B( 49-C , 50-S ) :   1.0971 B( 49-C , 51-C ) :   1.1892 B( 51-C , 52-S ) :   1.1451
B( 51-C , 53-C ) :   0.1112 B( 51-C , 55-C ) :   1.3905 B( 52-S , 53-C ) :   1.1139
B( 53-C , 54-C ) :   1.5437 B( 53-C , 63-C ) :   1.0874 B( 54-C , 55-C ) :   1.2300
B( 54-C , 62-S ) :   1.0539 B( 55-C , 56-C ) :   1.1266 B( 56-C , 57-C ) :   1.6291
B( 56-C , 83-H ) :   0.9903 B( 57-C , 58-C ) :   0.9610 B( 57-C , 62-S ) :   1.0658
B( 58-C , 59-O ) :   2.1414 B( 58-C , 60-O ) :   1.2400 B( 60-O , 61-C ) :   0.9199
B( 61-C , 84-H ) :   0.9808 B( 61-C , 85-H ) :   0.9759 B( 61-C , 86-H ) :   0.9766
B( 63-C , 64-C ) :   1.3252 B( 63-C , 68-C ) :   1.3128 B( 64-C , 65-N ) :   1.5798
B( 64-C , 87-H ) :   0.9846 B( 65-N , 66-C ) :   1.5068 B( 66-C , 67-N ) :   1.4943
B( 66-C , 88-H ) :   0.9758 B( 67-N , 68-C ) :   1.5931 B( 68-C , 89-H ) :   0.9834

-----------------------------------------------------------------------------
         ABSORPTION SPECTRUM VIA TRANSITION ELECTRIC DIPOLE MOMENTS
-----------------------------------------------------------------------------
State   Energy  Wavelength   fosc         T2         TX        TY        TZ
        (cm-1)    (nm)                  (au**2)     (au)      (au)      (au)
-----------------------------------------------------------------------------
   0    9297.6   1075.5   0.357943838  12.67415   1.54364   1.00417   3.04680
   1   13557.2    737.6   0.911356829  22.13064  -0.28834  -1.36946  -4.49133
   2   17416.5    574.2   0.015536683   0.29368   0.54040   0.02045  -0.03501
   3   20300.9    492.6   1.128545878  18.30118  -3.19509  -1.23490  -2.56273
   4   21242.3    470.8   0.150727729   2.33597  -0.73622   0.45448   1.25992
   5   22340.1    447.6   0.027880032   0.41085  -0.47201  -0.14393  -0.40907
   6   23250.2    430.1   0.008036825   0.11380  -0.03139   0.21371   0.25911
   7   24021.9    416.3   0.018377714   0.25186   0.19260  -0.38363  -0.25998
   8   24623.9    406.1   0.004428348   0.05921   0.19869   0.13304   0.04505
   9   26184.9    381.9   0.040002610   0.50294   0.06721  -0.47328  -0.52386
  10   27315.7    366.1   0.057680043   0.69517  -0.11628   0.43797   0.69988
  11   27396.9    365.0   0.038271453   0.45989   0.36513  -0.56396   0.09227
  12   27440.8    364.4   0.117177284   1.40580  -1.03588   0.52928  -0.22937
  13   29060.6    344.1   0.161680137   1.83159  -1.18364   0.20836  -0.62224
  14   29078.1    343.9   0.055297376   0.62606  -0.16870  -0.40169  -0.66049
  15   30125.6    331.9   0.156831493   1.71385  -0.98456   0.18197  -0.84344
  16   31050.0    322.1   0.004773844   0.05062  -0.06131   0.02167  -0.21538
  17   31303.5    319.5   0.208842459   2.19635  -0.65685   1.13452   0.69121
  18   31517.6    317.3   0.183796544   1.91981   0.62636  -1.22809   0.13884
  19   32072.2    311.8   0.378853202   3.88882  -1.56635   0.74047  -0.94185
  20   32377.1    308.9   0.088584957   0.90074  -0.66739   0.64652   0.19321
  21   32796.0    304.9   0.043634719   0.43801  -0.12776  -0.34512  -0.55008
  22   32835.7    304.5   0.163884074   1.64311   0.02884   0.83097   0.97558
  23   33018.1    302.9   0.554004500   5.52379  -0.73132   1.48465   1.66877
  24   33352.0    299.8   0.263957273   2.60548   0.09331  -1.01654  -1.25037
  25   33699.9    296.7   0.037048183   0.36192  -0.16943  -0.23017  -0.52938
  26   33930.3    294.7   0.216132994   2.09705   0.48217  -0.47326  -1.28085
  27   34258.5    291.9   0.403320015   3.87576  -1.04891   0.76024   1.48242
  28   34567.9    289.3   0.022562732   0.21488  -0.34809   0.29447  -0.08366
  29   35084.2    285.0   0.110891431   1.04055   0.18115   0.67791   0.74038
  30   35326.3    283.1   0.075331121   0.70202  -0.20314   0.76531   0.27397
  31   35748.4    279.7   0.122334495   1.12659  -0.61390   0.79572   0.34138
  32   35980.9    277.9   0.135230597   1.23731  -0.71866   0.80695   0.26396
  33   36191.3    276.3   0.029878752   0.27179   0.23238  -0.41405  -0.21529
  34   36217.7    276.1   0.014771378   0.13427  -0.32828  -0.09153  -0.13461
  35   36639.4    272.9   0.025504651   0.22916  -0.46363  -0.06767  -0.09813
  36   37126.2    269.4   0.005888307   0.05221  -0.15690   0.15778  -0.05196
  37   37213.0    268.7   0.054654312   0.48351  -0.44025   0.40493  -0.35457
  38   37441.3    267.1   0.053380204   0.46936   0.42417  -0.32106  -0.43169
  39   38011.3    263.1   0.055496024   0.48065   0.36533  -0.36496  -0.46258
  40   38108.1    262.4   0.011039088   0.09537   0.17399   0.14019  -0.21316
  41   38264.1    261.3   0.300242055   2.58319   0.61372  -1.31702  -0.68701
  42   38818.8    257.6   0.210099351   1.78180   0.62993  -1.17238  -0.10251
  43   38999.3    256.4   0.018055050   0.15241   0.03254  -0.24126   0.30520
  44   39137.8    255.5   0.036644873   0.30824  -0.13840   0.22420  -0.48869
  45   39527.4    253.0   0.077501697   0.64549  -0.34561   0.58602  -0.42735
  46   39726.8    251.7   0.003724832   0.03087   0.08536   0.14187   0.05877
  47   39932.7    250.4   0.022572493   0.18609  -0.09378   0.41152  -0.08914
  48   40247.8    248.5   0.021011891   0.17187   0.14104  -0.35702   0.15656
  49   40306.3    248.1   0.029584451   0.24164   0.01849   0.34349   0.35116

FINAL SINGLE POINT ENERGY     -5071.243717202472

DIPOLE MOMENT
-------------
                                X             Y             Z
Electronic contribution:      0.38811       9.23270      11.02230
Nuclear contribution   :      2.71948      -9.32675     -10.64460
                        -----------------------------------------
Total Dipole Moment    :      3.10758      -0.09404       0.37771
                        -----------------------------------------
Magnitude (a.u.)       :      3.13187
Magnitude (Debye)      :      7.96057

Rotational constants in cm-1:     0.001540     0.000240     0.000218
Rotational constants in MHz :    46.162226     7.201909     6.532224

                             ****ORCA TERMINATED NORMALLY****
TOTAL RUN TIME: 0 days 0 hours 14 minutes 28 seconds 443 msec
