                         Program Version 4.2.0 -  RELEASE  -
|  1> # ORCA input file
|  2> # SCF done       -136.578006164318          0.000961232466
|  3> ! CAM-B3LYP def2-SVP def2/J RIJCOSX Grid4 TightSCF
|  4> %maxcore 5000
|  5> %tddft
|  6>     Mode sTDDFT
|  7>     Ethresh 5.0
|  8>     maxcore 5000
|  9> end
| 10>
| 11> %pal
| 12>   nprocs 6
| 13>   end
| 14> * xyz 0 1
| 15>    C        2.56131         2.74066        -1.28933
| 16>    C        2.69442         4.09712        -1.11904
| 17>    C        3.48633         4.91721        -1.94516
| 18>    N        4.10189         5.63048        -2.60192
| 19>    C        2.11526         4.80634        -0.05087
| 20>    N        1.70463         5.42515         0.82614
| 21>    C        3.34668         1.92739        -2.21189
| 22>    C        3.28725         0.57002        -1.77937
| 23>    C        3.96248        -0.41927        -2.43275
| 24>    C        4.73213        -0.09267        -3.57313
| 25>    C        4.77951         1.25877        -4.02084
| 26>    C        4.07493         2.26488        -3.32006
| 27>    C        5.54312         1.56979        -5.16391
| 28>    C        6.23281         0.59491        -5.83192
| 29>    C        6.18849        -0.73503        -5.38877
| 30>    C        5.45417        -1.07130        -4.28377
| 31>    C        2.40838         0.47540        -0.59657
| 32>    O        2.15975        -0.50432         0.07085
| 33>    C        1.83417         1.83496        -0.42999
| 34>    C        0.74203         2.03223         0.36490
| 35>    C       -0.14819         3.13254         0.35208
| 36>    C       -0.51640         3.79989        -0.79549
| 37>    C       -1.39794         4.89524        -0.63895
| 38>    C       -1.78759         5.18600         0.65513
| 39>   Si       -1.04626         3.90813         1.80405
| 40>    C       -2.57339         6.30782         1.02460
| 41>    C       -3.30683         7.08367         0.14296
| 42>    C       -3.99507         8.18634         0.69532
| 43>    C       -3.86907         8.37447         2.06295
| 44>   Si       -2.77440         7.01859         2.74312
| 45>    C       -4.44137         9.45656         2.77858
| 46>    C       -5.39318        10.32823         2.27461
| 47>    C       -5.77485        11.40032         3.11219
| 48>    C       -5.14462        11.47145         4.34303
| 49>   Si       -4.05438         9.96274         4.53889
| 50>    C       -5.32470        12.49632         5.29448
| 51>    C       -5.62986        13.81786         5.07648
| 52>    C       -5.84412        14.79994         6.11761
| 53>    C       -6.15968        14.53789         7.42847
| 54>    C       -6.38361        15.53442         8.39874
| 55>    N       -6.56921        16.30099         9.23400
| 56>    C       -6.34250        13.25050         7.97191
| 57>    N       -6.53164        12.23856         8.48281
| 58>    C       -5.75779        16.12520         5.51498
| 59>    C       -5.56124        15.96579         4.11465
| 60>    C       -5.51641        14.52919         3.78075
| 61>    O       -5.36774        14.06300         2.66913
| 62>    C       -5.44404        17.03478         3.27522
| 63>    C       -5.51831        18.34106         3.80964
| 64>    C       -5.70849        18.50982         5.21100
| 65>    C       -5.82730        17.38110         6.05555
| 66>    C       -5.77637        19.81717         5.73324
| 67>    C       -5.66440        20.90646         4.91243
| 68>    C       -5.47857        20.73885         3.53242
| 69>    C       -5.40734        19.48309         2.99290
| 70>    H        3.91288        -1.44036        -2.08477
| 71>    H        4.12125         3.27960        -3.68378
| 72>    H        5.57671         2.59629        -5.49845
| 73>    H        6.81725         0.84378        -6.70505
| 74>    H        6.73889        -1.49199        -5.92727
| 75>    H        5.41641        -2.09412        -3.93844
| 76>    H        0.52169         1.22711         1.05909
| 77>    H       -0.18612         3.49232        -1.77896
| 78>    H       -1.68877         5.48171        -1.49724
| 79>    H       -2.07699         3.00176         2.32411
| 80>    H       -0.17913         4.41432         2.85778
| 81>    H       -3.38438         6.86958        -0.91273
| 82>    H       -4.55919         8.84852         0.05570
| 83>    H       -3.48106         6.11461         3.65408
| 84>    H       -1.52721         7.50550         3.32800
| 85>    H       -5.84673        10.21652         1.30168
| 86>    H       -6.54712        12.08618         2.80569
| 87>    H       -4.58365         9.01504         5.52002
| 88>    H       -2.64417        10.26369         4.78552
| 89>    H       -5.10442        12.20925         6.31660
| 90>    H       -5.29556        16.88644         2.21576
| 91>    H       -5.96410        17.54148         7.11324
| 92>    H       -5.92073        19.94140         6.79652
| 93>    H       -5.71849        21.90385         5.32259
| 94>    H       -5.39178        21.60908         2.89893
| 95>    H       -5.26399        19.34723         1.93072
| 96> *
| 97>
| 98>                          ****END OF INPUT****

CARTESIAN COORDINATES (ANGSTROEM)
---------------------------------
  C      2.561310    2.740660   -1.289330
  C      2.694420    4.097120   -1.119040
  C      3.486330    4.917210   -1.945160
  N      4.101890    5.630480   -2.601920
  C      2.115260    4.806340   -0.050870
  N      1.704630    5.425150    0.826140
  C      3.346680    1.927390   -2.211890
  C      3.287250    0.570020   -1.779370
  C      3.962480   -0.419270   -2.432750
  C      4.732130   -0.092670   -3.573130
  C      4.779510    1.258770   -4.020840
  C      4.074930    2.264880   -3.320060
  C      5.543120    1.569790   -5.163910
  C      6.232810    0.594910   -5.831920
  C      6.188490   -0.735030   -5.388770
  C      5.454170   -1.071300   -4.283770
  C      2.408380    0.475400   -0.596570
  O      2.159750   -0.504320    0.070850
  C      1.834170    1.834960   -0.429990
  C      0.742030    2.032230    0.364900
  C     -0.148190    3.132540    0.352080
  C     -0.516400    3.799890   -0.795490
  C     -1.397940    4.895240   -0.638950
  C     -1.787590    5.186000    0.655130
  Si    -1.046260    3.908130    1.804050
  C     -2.573390    6.307820    1.024600
  C     -3.306830    7.083670    0.142960
  C     -3.995070    8.186340    0.695320
  C     -3.869070    8.374470    2.062950
  Si    -2.774400    7.018590    2.743120
  C     -4.441370    9.456560    2.778580
  C     -5.393180   10.328230    2.274610
  C     -5.774850   11.400320    3.112190
  C     -5.144620   11.471450    4.343030
  Si    -4.054380    9.962740    4.538890
  C     -5.324700   12.496320    5.294480
  C     -5.629860   13.817860    5.076480
  C     -5.844120   14.799940    6.117610
  C     -6.159680   14.537890    7.428470
  C     -6.383610   15.534420    8.398740
  N     -6.569210   16.300990    9.234000
  C     -6.342500   13.250500    7.971910
  N     -6.531640   12.238560    8.482810
  C     -5.757790   16.125200    5.514980
  C     -5.561240   15.965790    4.114650
  C     -5.516410   14.529190    3.780750
  O     -5.367740   14.063000    2.669130
  C     -5.444040   17.034780    3.275220
  C     -5.518310   18.341060    3.809640
  C     -5.708490   18.509820    5.211000
  C     -5.827300   17.381100    6.055550
  C     -5.776370   19.817170    5.733240
  C     -5.664400   20.906460    4.912430
  C     -5.478570   20.738850    3.532420
  C     -5.407340   19.483090    2.992900
  H      3.912880   -1.440360   -2.084770
  H      4.121250    3.279600   -3.683780
  H      5.576710    2.596290   -5.498450
  H      6.817250    0.843780   -6.705050
  H      6.738890   -1.491990   -5.927270
  H      5.416410   -2.094120   -3.938440
  H      0.521690    1.227110    1.059090
  H     -0.186120    3.492320   -1.778960
  H     -1.688770    5.481710   -1.497240
  H     -2.076990    3.001760    2.324110
  H     -0.179130    4.414320    2.857780
  H     -3.384380    6.869580   -0.912730
  H     -4.559190    8.848520    0.055700
  H     -3.481060    6.114610    3.654080
  H     -1.527210    7.505500    3.328000
  H     -5.846730   10.216520    1.301680
  H     -6.547120   12.086180    2.805690
  H     -4.583650    9.015040    5.520020
  H     -2.644170   10.263690    4.785520
  H     -5.104420   12.209250    6.316600
  H     -5.295560   16.886440    2.215760
  H     -5.964100   17.541480    7.113240
  H     -5.920730   19.941400    6.796520
  H     -5.718490   21.903850    5.322590
  H     -5.391780   21.609080    2.898930
  H     -5.263990   19.347230    1.930720

 Total Charge           Charge          ....    0
 Multiplicity           Mult            ....    1
 Number of Electrons    NEL             ....  388
 Basis Dimension        Dim             ....  912

ORBITAL ENERGIES
----------------

  NO   OCC          E(Eh)            E(eV)
   0   2.0000     -66.202696     -1801.4669
   1   2.0000     -66.201796     -1801.4424
   2   2.0000     -66.200100     -1801.3963
   3   2.0000     -19.209610      -522.7201
   4   2.0000     -19.205448      -522.6068
   5   2.0000     -14.414527      -392.2392
   6   2.0000     -14.412358      -392.1802
   7   2.0000     -14.403413      -391.9368
   8   2.0000     -14.403165      -391.9301
   9   2.0000     -10.361426      -281.9487
  10   2.0000     -10.357333      -281.8374
  11   2.0000     -10.339461      -281.3510
  12   2.0000     -10.337273      -281.2915
  13   2.0000     -10.328124      -281.0425
  14   2.0000     -10.327555      -281.0271
  15   2.0000     -10.318421      -280.7785
  16   2.0000     -10.315726      -280.7052
  17   2.0000     -10.314849      -280.6813
  18   2.0000     -10.307290      -280.4756
  19   2.0000     -10.307107      -280.4706
  20   2.0000     -10.306775      -280.4616
  21   2.0000     -10.304288      -280.3939
  22   2.0000     -10.301566      -280.3199
  23   2.0000     -10.301129      -280.3080
  24   2.0000     -10.298228      -280.2290
  25   2.0000     -10.296632      -280.1856
  26   2.0000     -10.296363      -280.1783
  27   2.0000     -10.295768      -280.1621
  28   2.0000     -10.295575      -280.1568
  29   2.0000     -10.295022      -280.1418
  30   2.0000     -10.292962      -280.0857
  31   2.0000     -10.291702      -280.0514
  32   2.0000     -10.291527      -280.0467
  33   2.0000     -10.289807      -279.9999
  34   2.0000     -10.289460      -279.9904
  35   2.0000     -10.288230      -279.9570
  36   2.0000     -10.287848      -279.9466
  37   2.0000     -10.287678      -279.9419
  38   2.0000     -10.287262      -279.9306
  39   2.0000     -10.285738      -279.8892
  40   2.0000     -10.285234      -279.8755
  41   2.0000     -10.285045      -279.8703
  42   2.0000     -10.284907      -279.8665
  43   2.0000     -10.284613      -279.8586
  44   2.0000     -10.283927      -279.8399
  45   2.0000     -10.282973      -279.8139
  46   2.0000     -10.280278      -279.7406
  47   2.0000     -10.279979      -279.7324
  48   2.0000     -10.279405      -279.7168
  49   2.0000     -10.279334      -279.7149
  50   2.0000     -10.278935      -279.7040
  51   2.0000     -10.278401      -279.6895
  52   2.0000     -10.278179      -279.6835
  53   2.0000     -10.278148      -279.6826
  54   2.0000     -10.267975      -279.4058
  55   2.0000      -5.373151      -146.2109
  56   2.0000      -5.373097      -146.2094
  57   2.0000      -5.371103      -146.1551
  58   2.0000      -3.736132      -101.6653
  59   2.0000      -3.735865      -101.6580
  60   2.0000      -3.734785      -101.6287
  61   2.0000      -3.734749      -101.6277
  62   2.0000      -3.734359      -101.6171
  63   2.0000      -3.734166      -101.6118
  64   2.0000      -3.733960      -101.6062
  65   2.0000      -3.732703      -101.5720
  66   2.0000      -3.732295      -101.5609
  67   2.0000      -1.124061       -30.5873
  68   2.0000      -1.120087       -30.4791
  69   2.0000      -1.016500       -27.6604
  70   2.0000      -1.006475       -27.3876
  71   2.0000      -0.996813       -27.1247
  72   2.0000      -0.992265       -27.0009
  73   2.0000      -0.988280       -26.8925
  74   2.0000      -0.981954       -26.7203
  75   2.0000      -0.970429       -26.4067
  76   2.0000      -0.962613       -26.1940
  77   2.0000      -0.952704       -25.9244
  78   2.0000      -0.943310       -25.6688
  79   2.0000      -0.929873       -25.3031
  80   2.0000      -0.920341       -25.0437
  81   2.0000      -0.913753       -24.8645
  82   2.0000      -0.898171       -24.4405
  83   2.0000      -0.889599       -24.2072
  84   2.0000      -0.880201       -23.9515
  85   2.0000      -0.875848       -23.8330
  86   2.0000      -0.872677       -23.7467
  87   2.0000      -0.866015       -23.5655
  88   2.0000      -0.845122       -22.9969
  89   2.0000      -0.826895       -22.5010
  90   2.0000      -0.820645       -22.3309
  91   2.0000      -0.819427       -22.2978
  92   2.0000      -0.803505       -21.8645
  93   2.0000      -0.790893       -21.5213
  94   2.0000      -0.761474       -20.7208
  95   2.0000      -0.750896       -20.4329
  96   2.0000      -0.750852       -20.4317
  97   2.0000      -0.746627       -20.3168
  98   2.0000      -0.729076       -19.8392
  99   2.0000      -0.715988       -19.4830
 100   2.0000      -0.706374       -19.2214
 101   2.0000      -0.700868       -19.0716
 102   2.0000      -0.695431       -18.9237
 103   2.0000      -0.694748       -18.9051
 104   2.0000      -0.685687       -18.6585
 105   2.0000      -0.683141       -18.5892
 106   2.0000      -0.674379       -18.3508
 107   2.0000      -0.664659       -18.0863
 108   2.0000      -0.647827       -17.6283
 109   2.0000      -0.647006       -17.6059
 110   2.0000      -0.636431       -17.3182
 111   2.0000      -0.629405       -17.1270
 112   2.0000      -0.623671       -16.9709
 113   2.0000      -0.617154       -16.7936
 114   2.0000      -0.606671       -16.5084
 115   2.0000      -0.605610       -16.4795
 116   2.0000      -0.604797       -16.4574
 117   2.0000      -0.598082       -16.2746
 118   2.0000      -0.593620       -16.1532
 119   2.0000      -0.587278       -15.9806
 120   2.0000      -0.582519       -15.8512
 121   2.0000      -0.570008       -15.5107
 122   2.0000      -0.561311       -15.2740
 123   2.0000      -0.553971       -15.0743
 124   2.0000      -0.549058       -14.9406
 125   2.0000      -0.545569       -14.8457
 126   2.0000      -0.541259       -14.7284
 127   2.0000      -0.539974       -14.6934
 128   2.0000      -0.538272       -14.6471
 129   2.0000      -0.534514       -14.5449
 130   2.0000      -0.529954       -14.4208
 131   2.0000      -0.527778       -14.3616
 132   2.0000      -0.525168       -14.2905
 133   2.0000      -0.519332       -14.1317
 134   2.0000      -0.513254       -13.9663
 135   2.0000      -0.511209       -13.9107
 136   2.0000      -0.510242       -13.8844
 137   2.0000      -0.507374       -13.8063
 138   2.0000      -0.504137       -13.7183
 139   2.0000      -0.502325       -13.6690
 140   2.0000      -0.500021       -13.6063
 141   2.0000      -0.498801       -13.5731
 142   2.0000      -0.496672       -13.5151
 143   2.0000      -0.494178       -13.4473
 144   2.0000      -0.486956       -13.2507
 145   2.0000      -0.485951       -13.2234
 146   2.0000      -0.481830       -13.1113
 147   2.0000      -0.477938       -13.0054
 148   2.0000      -0.475593       -12.9416
 149   2.0000      -0.472065       -12.8455
 150   2.0000      -0.468811       -12.7570
 151   2.0000      -0.461916       -12.5694
 152   2.0000      -0.455582       -12.3970
 153   2.0000      -0.454872       -12.3777
 154   2.0000      -0.450811       -12.2672
 155   2.0000      -0.442573       -12.0430
 156   2.0000      -0.438479       -11.9316
 157   2.0000      -0.438039       -11.9196
 158   2.0000      -0.434839       -11.8326
 159   2.0000      -0.432557       -11.7705
 160   2.0000      -0.431732       -11.7480
 161   2.0000      -0.429435       -11.6855
 162   2.0000      -0.426762       -11.6128
 163   2.0000      -0.425623       -11.5818
 164   2.0000      -0.425548       -11.5798
 165   2.0000      -0.424132       -11.5412
 166   2.0000      -0.421811       -11.4781
 167   2.0000      -0.420357       -11.4385
 168   2.0000      -0.418050       -11.3757
 169   2.0000      -0.416577       -11.3356
 170   2.0000      -0.415906       -11.3174
 171   2.0000      -0.413848       -11.2614
 172   2.0000      -0.408918       -11.1272
 173   2.0000      -0.408461       -11.1148
 174   2.0000      -0.406267       -11.0551
 175   2.0000      -0.401130       -10.9153
 176   2.0000      -0.396959       -10.8018
 177   2.0000      -0.395507       -10.7623
 178   2.0000      -0.388407       -10.5691
 179   2.0000      -0.384789       -10.4706
 180   2.0000      -0.375851       -10.2274
 181   2.0000      -0.371053       -10.0969
 182   2.0000      -0.365118        -9.9354
 183   2.0000      -0.363676        -9.8961
 184   2.0000      -0.347039        -9.4434
 185   2.0000      -0.332369        -9.0442
 186   2.0000      -0.328901        -8.9498
 187   2.0000      -0.319555        -8.6955
 188   2.0000      -0.312728        -8.5098
 189   2.0000      -0.307335        -8.3630
 190   2.0000      -0.294507        -8.0139
 191   2.0000      -0.288315        -7.8455
 192   2.0000      -0.277726        -7.5573
 193   2.0000      -0.240245        -6.5374
 194   0.0000      -0.113032        -3.0757
 195   0.0000      -0.085650        -2.3307
 196   0.0000      -0.062757        -1.7077
 197   0.0000      -0.051535        -1.4023
 198   0.0000      -0.045011        -1.2248

MULLIKEN ATOMIC CHARGES
-----------------------
   0 C :    0.269780
   1 C :   -0.358266
   2 C :   -0.178187
   3 N :    0.149462
   4 C :   -0.155464
   5 N :    0.146611
   6 C :    0.033662
   7 C :    0.014236
   8 C :   -0.085598
   9 C :    0.094894
  10 C :    0.094288
  11 C :   -0.082832
  12 C :   -0.017673
  13 C :    0.034450
  14 C :    0.036389
  15 C :   -0.016385
  16 C :    0.140144
  17 O :   -0.146749
  18 C :   -0.140850
  19 C :    0.071734
  20 C :   -0.214933
  21 C :    0.051825
  22 C :   -0.008982
  23 C :   -0.115363
  24 Si:    0.512956
  25 C :   -0.136995
  26 C :    0.009862
  27 C :    0.018294
  28 C :   -0.141169
  29 Si:    0.484046
  30 C :   -0.126072
  31 C :   -0.021970
  32 C :    0.105846
  33 C :   -0.202858
  34 Si:    0.503840
  35 C :    0.015736
  36 C :   -0.105250
  37 C :    0.302200
  38 C :   -0.349951
  39 C :   -0.182304
  40 N :    0.140769
  41 C :   -0.208309
  42 N :    0.151048
  43 C :    0.050021
  44 C :   -0.006492
  45 C :    0.145287
  46 O :   -0.162742
  47 C :   -0.084430
  48 C :    0.098458
  49 C :    0.095254
  50 C :   -0.084556
  51 C :   -0.019695
  52 C :    0.035049
  53 C :    0.034004
  54 C :   -0.018840
  55 H :   -0.012626
  56 H :   -0.008045
  57 H :   -0.011479
  58 H :   -0.005626
  59 H :   -0.005434
  60 H :   -0.017822
  61 H :    0.024219
  62 H :    0.005114
  63 H :   -0.012761
  64 H :   -0.064137
  65 H :   -0.046889
  66 H :   -0.012750
  67 H :   -0.009317
  68 H :   -0.063061
  69 H :   -0.051322
  70 H :   -0.012501
  71 H :    0.007552
  72 H :   -0.055635
  73 H :   -0.063734
  74 H :    0.020990
  75 H :   -0.017310
  76 H :   -0.009505
  77 H :   -0.009535
  78 H :   -0.008024
  79 H :   -0.007580
  80 H :   -0.020011
Sum of atomic charges:    0.0000000

LOEWDIN ATOMIC CHARGES
----------------------
   0 C :    0.072296
   1 C :   -0.149901
   2 C :   -0.020628
   3 N :   -0.059387
   4 C :   -0.004444
   5 N :   -0.059000
   6 C :   -0.024306
   7 C :   -0.055501
   8 C :    0.030429
   9 C :   -0.008905
  10 C :   -0.006726
  11 C :    0.015554
  12 C :   -0.006641
  13 C :   -0.014190
  14 C :   -0.013319
  15 C :   -0.009804
  16 C :    0.081336
  17 O :   -0.148377
  18 C :   -0.100418
  19 C :    0.067434
  20 C :   -0.186652
  21 C :    0.027527
  22 C :   -0.016452
  23 C :   -0.144424
  24 Si:    0.551361
  25 C :   -0.166906
  26 C :   -0.004104
  27 C :    0.009107
  28 C :   -0.181645
  29 Si:    0.542732
  30 C :   -0.142784
  31 C :   -0.023759
  32 C :    0.068607
  33 C :   -0.206569
  34 Si:    0.553700
  35 C :    0.060824
  36 C :   -0.108245
  37 C :    0.075836
  38 C :   -0.149728
  39 C :   -0.017607
  40 N :   -0.062990
  41 C :   -0.025093
  42 N :   -0.061439
  43 C :   -0.025021
  44 C :   -0.053079
  45 C :    0.081234
  46 O :   -0.151619
  47 C :    0.027105
  48 C :   -0.009470
  49 C :   -0.007496
  50 C :    0.016856
  51 C :   -0.006328
  52 C :   -0.016206
  53 C :   -0.015254
  54 C :   -0.011512
  55 H :    0.039000
  56 H :    0.038161
  57 H :    0.033954
  58 H :    0.032801
  59 H :    0.032548
  60 H :    0.031675
  61 H :    0.044716
  62 H :    0.030520
  63 H :    0.025781
  64 H :   -0.082365
  65 H :   -0.073478
  66 H :    0.026333
  67 H :    0.027764
  68 H :   -0.081567
  69 H :   -0.076059
  70 H :    0.025867
  71 H :    0.034391
  72 H :   -0.077144
  73 H :   -0.083460
  74 H :    0.040941
  75 H :    0.036855
  76 H :    0.038377
  77 H :    0.034246
  78 H :    0.031915
  79 H :    0.031581
  80 H :    0.030638

  Mayer bond orders larger than 0.100000
B(  0-C ,  1-C ) :   1.6416 B(  0-C ,  6-C ) :   0.9996 B(  0-C , 18-C ) :   1.0441
B(  1-C ,  2-C ) :   1.1338 B(  1-C ,  4-C ) :   1.1746 B(  2-C ,  3-N ) :   2.9845
B(  4-C ,  5-N ) :   2.9471 B(  6-C ,  7-C ) :   1.2159 B(  6-C , 11-C ) :   1.4568
B(  7-C ,  8-C ) :   1.4754 B(  7-C , 16-C ) :   0.9144 B(  8-C ,  9-C ) :   1.1820
B(  8-C , 55-H ) :   1.0164 B(  9-C , 10-C ) :   1.2589 B(  9-C , 15-C ) :   1.2451
B( 10-C , 11-C ) :   1.2012 B( 10-C , 12-C ) :   1.2417 B( 11-C , 56-H ) :   0.9945
B( 12-C , 13-C ) :   1.4873 B( 12-C , 57-H ) :   0.9978 B( 13-C , 14-C ) :   1.2617
B( 13-C , 58-H ) :   0.9891 B( 14-C , 15-C ) :   1.4873 B( 14-C , 59-H ) :   0.9892
B( 15-C , 60-H ) :   0.9980 B( 16-C , 17-O ) :   2.2728 B( 16-C , 18-C ) :   0.9440
B( 18-C , 19-C ) :   1.6499 B( 19-C , 20-C ) :   1.1144 B( 19-C , 61-H ) :   0.9383
B( 20-C , 21-C ) :   1.6245 B( 20-C , 24-Si) :   0.8928 B( 21-C , 22-C ) :   1.1533
B( 21-C , 62-H ) :   0.9908 B( 22-C , 23-C ) :   1.6165 B( 22-C , 63-H ) :   0.9918
B( 23-C , 24-Si) :   0.9193 B( 23-C , 25-C ) :   1.1478 B( 24-Si, 64-H ) :   0.9497
B( 24-Si, 65-H ) :   0.9641 B( 25-C , 26-C ) :   1.6011 B( 25-C , 29-Si) :   0.9255
B( 26-C , 27-C ) :   1.1558 B( 26-C , 66-H ) :   0.9913 B( 27-C , 28-C ) :   1.5926
B( 27-C , 67-H ) :   0.9908 B( 28-C , 29-Si) :   0.9290 B( 28-C , 30-C ) :   1.1543
B( 29-Si, 68-H ) :   0.9558 B( 29-Si, 69-H ) :   0.9597 B( 30-C , 31-C ) :   1.5825
B( 30-C , 34-Si) :   0.9136 B( 31-C , 32-C ) :   1.1771 B( 31-C , 70-H ) :   0.9944
B( 32-C , 33-C ) :   1.5555 B( 32-C , 71-H ) :   0.9834 B( 33-C , 34-Si) :   0.9182
B( 33-C , 35-C ) :   1.2224 B( 34-Si, 72-H ) :   0.9563 B( 34-Si, 73-H ) :   0.9583
B( 35-C , 36-C ) :   1.5326 B( 35-C , 74-H ) :   0.9472 B( 36-C , 37-C ) :   1.0850
B( 36-C , 45-C ) :   0.9564 B( 37-C , 38-C ) :   1.6203 B( 37-C , 43-C ) :   0.9855
B( 38-C , 39-C ) :   1.1471 B( 38-C , 41-C ) :   1.1421 B( 39-C , 40-N ) :   2.9649
B( 41-C , 42-N ) :   2.9995 B( 43-C , 44-C ) :   1.2126 B( 43-C , 50-C ) :   1.4574
B( 44-C , 45-C ) :   0.9454 B( 44-C , 47-C ) :   1.4779 B( 45-C , 46-O ) :   2.1969
B( 47-C , 48-C ) :   1.1759 B( 47-C , 75-H ) :   1.0154 B( 48-C , 49-C ) :   1.2592
B( 48-C , 54-C ) :   1.2453 B( 49-C , 50-C ) :   1.1996 B( 49-C , 51-C ) :   1.2426
B( 50-C , 76-H ) :   0.9907 B( 51-C , 52-C ) :   1.4864 B( 51-C , 77-H ) :   0.9973
B( 52-C , 53-C ) :   1.2610 B( 52-C , 78-H ) :   0.9893 B( 53-C , 54-C ) :   1.4877
B( 53-C , 79-H ) :   0.9890 B( 54-C , 80-H ) :   0.9972

-----------------------------------------------------------------------------
         ABSORPTION SPECTRUM VIA TRANSITION ELECTRIC DIPOLE MOMENTS
-----------------------------------------------------------------------------
State   Energy  Wavelength   fosc         T2         TX        TY        TZ
        (cm-1)    (nm)                  (au**2)     (au)      (au)      (au)
-----------------------------------------------------------------------------
   0   12600.9    793.6   1.484555290  38.78549   3.17476  -4.65535  -2.65220
   1   18653.5    536.1   0.219805402   3.87930   0.70457   1.57835   0.94430
   2   21310.6    469.3   0.041355220   0.63887   0.71502   0.23015   0.27321
   3   24042.6    415.9   0.030885655   0.42291  -0.21620   0.04852  -0.61141
   4   24771.1    403.7   0.161419740   2.14530  -0.29123   1.41275   0.25423
   5   25304.8    395.2   0.013925956   0.18117   0.35221  -0.10355  -0.21541
   6   25803.9    387.5   0.018007933   0.22975   0.01074  -0.12819   0.46174
   7   26925.9    371.4   0.075380687   0.92165  -0.44759  -0.59943   0.60166
   8   27660.6    361.5   0.057830618   0.68829  -0.34743   0.72609  -0.20093
   9   27926.2    358.1   0.033519919   0.39515   0.47609   0.34191  -0.22713
  10   28527.1    350.5   0.023059963   0.26612   0.30480   0.02736  -0.41529
  11   29095.1    343.7   0.047154125   0.53355   0.52744  -0.24556  -0.44166
  12   29755.1    336.1   0.000640769   0.00709  -0.05093   0.04538   0.04936
  13   30843.9    324.2   0.005755147   0.06143   0.22036  -0.06976  -0.08945
  14   31431.3    318.2   0.033878655   0.35485   0.24098  -0.46750  -0.27968
  15   32193.0    310.6   0.245292891   2.50841  -0.31747  -1.22262   0.95541
  16   32843.6    304.5   0.762667969   7.64469   0.99234  -2.32116  -1.12791
  17   33269.3    300.6   0.002329006   0.02305  -0.09811  -0.11582  -0.00285
  18   33504.9    298.5   0.050931319   0.50044  -0.19220  -0.55575   0.39324
  19   33724.5    296.5   0.005581392   0.05448  -0.16439  -0.01793   0.16474
  20   33937.2    294.7   0.023153349   0.22460   0.27550   0.30691  -0.23347
  21   34119.9    293.1   0.053752387   0.51864  -0.04038  -0.69031   0.20119
  22   34580.8    289.2   0.023974755   0.22824   0.19195  -0.34347  -0.27097
  23   35151.6    284.5   0.091646927   0.85832   0.61910  -0.34459  -0.59690
  24   36083.9    277.1   0.291827044   2.66249   0.19419   1.22887  -1.05577
  25   36639.0    272.9   0.090475385   0.81295   0.15127  -0.83644  -0.30071
  26   37122.5    269.4   0.212559027   1.88503   0.36975   0.32711  -1.28114
  27   37178.9    269.0   0.061683122   0.54619   0.15523   0.24973  -0.67803
  28   37388.3    267.5   0.045043526   0.39662   0.10104   0.45225  -0.42647
  29   37675.6    265.4   0.308315222   2.69408  -0.18496   1.61946  -0.19294
  30   37944.3    263.5   0.022076443   0.19154   0.30194   0.03750  -0.31458
  31   38555.8    259.4   0.021524070   0.18379   0.19404  -0.04533  -0.37958
  32   38754.5    258.0   0.055192038   0.46885   0.33291  -0.49653  -0.33388
  33   39041.3    256.1   0.082875917   0.69884   0.26577  -0.33724  -0.71727
  34   39604.5    252.5   0.063699507   0.52950  -0.13510  -0.63644   0.32588
  35   39916.6    250.5   0.080202610   0.66147   0.25649  -0.10357  -0.76482
  36   40136.3    249.2   0.091341456   0.74921   0.06332  -0.25162  -0.82577

FINAL SINGLE POINT ENERGY     -3003.312393675867

DIPOLE MOMENT
-------------
                                X             Y             Z
Electronic contribution:     -1.86026      -0.26628      12.05630
Nuclear contribution   :      2.25005      -0.89445     -15.80893
                        -----------------------------------------
Total Dipole Moment    :      0.38979      -1.16073      -3.75263
                        -----------------------------------------
Magnitude (a.u.)       :      3.94734
Magnitude (Debye)      :     10.03334

Rotational constants in cm-1:     0.003967     0.000326     0.000311
Rotational constants in MHz :   118.932298     9.780999     9.309583

                             ****ORCA TERMINATED NORMALLY****
TOTAL RUN TIME: 0 days 0 hours 6 minutes 29 seconds 546 msec
