                         Program Version 4.2.0 -  RELEASE  -
|  1> # ORCA input file
|  2> # SCF done       -183.169892363033          0.000837898264
|  3> ! CAM-B3LYP def2-SVP def2/J RIJCOSX Grid4 TightSCF
|  4> %maxcore 5000
|  5> %tddft
|  6>     Mode sTDDFT
|  7>     Ethresh 5.0
|  8>     maxcore 5000
|  9> end
| 10>
| 11> %pal
| 12>   nprocs 6
| 13>   end
| 14> * xyz 0 1
| 15>    C       -2.67121        -0.79360        -3.53354
| 16>    C       -1.69805        -0.00895        -3.01758
| 17>    C       -0.66454        -0.49432        -2.19273
| 18>    C       -0.59818        -1.91808        -1.85170
| 19>    C       -1.47874        -2.85444        -2.27172
| 20>    S       -2.82020        -2.50076        -3.28099
| 21>    C        0.54982        -2.04855        -1.02286
| 22>    C        1.16322        -0.80727        -0.85310
| 23>    C        2.30377        -0.90538        -0.02399
| 24>    C        2.51715        -2.18061         0.39586
| 25>    S        1.35369        -3.31705        -0.18721
| 26>    C        0.40508         0.18245        -1.58918
| 27>    C        0.64117         1.57236        -1.70682
| 28>    C        1.68487         2.25950        -1.17305
| 29>    C        1.87159         3.65644        -1.30189
| 30>    C        1.07822         4.60069        -1.93830
| 31>    C        1.59641         5.88743        -1.82982
| 32>    C        2.80293         5.94112        -1.10576
| 33>    S        3.29016         4.39430        -0.56181
| 34>    C        3.23208         7.28368        -1.04424
| 35>    C        2.29785         8.08938        -1.72649
| 36>    C        1.24381         7.23543        -2.24670
| 37>    C        0.15292         7.61442        -2.97484
| 38>    C       -0.80216         6.68241        -3.42877
| 39>    N       -1.58059         5.92372        -3.79581
| 40>    C       -0.08816         8.95883        -3.32493
| 41>    N       -0.29171        10.05084        -3.61039
| 42>    C        2.62738         9.43988        -1.70782
| 43>    C        3.80838         9.68422        -1.02068
| 44>    S        4.52004         8.19935        -0.39043
| 45>    C        4.40766        10.93908        -0.80033
| 46>    S        3.62002        12.39139        -1.36352
| 47>    C        4.86837        13.43797        -0.72650
| 48>    C        5.84397        12.66833        -0.11938
| 49>    C        5.59927        11.26590        -0.15109
| 50>    C        6.62918        10.53774         0.48695
| 51>    C        7.60625        11.35182         0.97854
| 52>    C        8.82370        10.97277         1.69491
| 53>    O        9.64680        11.75221         2.10532
| 54>    O        8.91556         9.63928         1.84408
| 55>    C       10.07118         9.18233         2.53123
| 56>    S        7.32635        13.05528         0.69282
| 57>    C        4.77709        14.84226        -0.85241
| 58>    C        5.67388        15.79551        -0.39690
| 59>    C        5.24023        17.09040        -0.67650
| 60>    C        4.00550        17.12586        -1.35143
| 61>    S        3.38108        15.56296        -1.64476
| 62>    C        3.64755        18.47524        -1.57232
| 63>    C        4.65254        19.29983        -1.03774
| 64>    C        5.68958        18.45670        -0.46332
| 65>    C        6.84039        18.86730         0.14460
| 66>    C        7.78470        17.96067         0.67005
| 67>    N        8.55992        17.23500         1.10267
| 68>    C        7.16328        20.23257         0.28564
| 69>    N        7.42144        21.34524         0.39281
| 70>    C        4.38426        20.65882        -1.19264
| 71>    C        3.18104        20.88390        -1.84031
| 72>    S        2.37530        19.37912        -2.26887
| 73>    C        2.57249        22.13294        -2.16661
| 74>    C        3.08773        23.34380        -1.77830
| 75>    C        2.51427        24.58609        -2.06509
| 76>    C        1.21383        24.67533        -2.75498
| 77>    C        0.53845        23.61301        -3.23956
| 78>    S        1.09143        21.99469        -3.11294
| 79>    C        0.88893        26.05762        -2.76726
| 80>    C        1.90674        26.77954        -2.13956
| 81>    C        1.64206        28.16814        -2.12545
| 82>    C        0.45840        28.45666        -2.72471
| 83>    S       -0.38183        27.06733        -3.33288
| 84>    C        2.93583        25.87311        -1.71592
| 85>    C        4.14313        26.30561        -1.06295
| 86>    C        5.32363        25.68837        -1.07779
| 87>    H       -3.45345        -0.40380        -4.16237
| 88>    H       -1.72479         1.04441        -3.25832
| 89>    H       -1.39418        -3.89373        -1.99659
| 90>    H        2.94662        -0.09451         0.26453
| 91>    H        3.30562        -2.53712         1.02963
| 92>    H       -0.09068         2.12318        -2.28118
| 93>    H        2.44033         1.73637        -0.60849
| 94>    H        0.16624         4.35486        -2.44933
| 95>    H        2.05372        10.22782        -2.16233
| 96>    H        6.66314         9.46883         0.58494
| 97>    H        9.97876         8.10116         2.59215
| 98>    H       10.11821         9.62251         3.52944
| 99>    H       10.97354         9.46122         1.98305
|100>    H        6.58620        15.54383         0.11172
|101>    H        5.03356        21.44390        -0.85311
|102>    H        3.98363        23.33162        -1.17683
|103>    H       -0.40488        23.70702        -3.75429
|104>    H        2.28732        28.91417        -1.69802
|105>    H        0.00560        29.41990        -2.85735
|106>    H        4.05601        27.25657        -0.55017
|107>    H        5.49747        24.78124        -1.62951
|108>    H        6.17266        26.09779        -0.55841
|109> *
|110>
|111>                          ****END OF INPUT****

CARTESIAN COORDINATES (ANGSTROEM)
---------------------------------
  C     -2.671210   -0.793600   -3.533540
  C     -1.698050   -0.008950   -3.017580
  C     -0.664540   -0.494320   -2.192730
  C     -0.598180   -1.918080   -1.851700
  C     -1.478740   -2.854440   -2.271720
  S     -2.820200   -2.500760   -3.280990
  C      0.549820   -2.048550   -1.022860
  C      1.163220   -0.807270   -0.853100
  C      2.303770   -0.905380   -0.023990
  C      2.517150   -2.180610    0.395860
  S      1.353690   -3.317050   -0.187210
  C      0.405080    0.182450   -1.589180
  C      0.641170    1.572360   -1.706820
  C      1.684870    2.259500   -1.173050
  C      1.871590    3.656440   -1.301890
  C      1.078220    4.600690   -1.938300
  C      1.596410    5.887430   -1.829820
  C      2.802930    5.941120   -1.105760
  S      3.290160    4.394300   -0.561810
  C      3.232080    7.283680   -1.044240
  C      2.297850    8.089380   -1.726490
  C      1.243810    7.235430   -2.246700
  C      0.152920    7.614420   -2.974840
  C     -0.802160    6.682410   -3.428770
  N     -1.580590    5.923720   -3.795810
  C     -0.088160    8.958830   -3.324930
  N     -0.291710   10.050840   -3.610390
  C      2.627380    9.439880   -1.707820
  C      3.808380    9.684220   -1.020680
  S      4.520040    8.199350   -0.390430
  C      4.407660   10.939080   -0.800330
  S      3.620020   12.391390   -1.363520
  C      4.868370   13.437970   -0.726500
  C      5.843970   12.668330   -0.119380
  C      5.599270   11.265900   -0.151090
  C      6.629180   10.537740    0.486950
  C      7.606250   11.351820    0.978540
  C      8.823700   10.972770    1.694910
  O      9.646800   11.752210    2.105320
  O      8.915560    9.639280    1.844080
  C     10.071180    9.182330    2.531230
  S      7.326350   13.055280    0.692820
  C      4.777090   14.842260   -0.852410
  C      5.673880   15.795510   -0.396900
  C      5.240230   17.090400   -0.676500
  C      4.005500   17.125860   -1.351430
  S      3.381080   15.562960   -1.644760
  C      3.647550   18.475240   -1.572320
  C      4.652540   19.299830   -1.037740
  C      5.689580   18.456700   -0.463320
  C      6.840390   18.867300    0.144600
  C      7.784700   17.960670    0.670050
  N      8.559920   17.235000    1.102670
  C      7.163280   20.232570    0.285640
  N      7.421440   21.345240    0.392810
  C      4.384260   20.658820   -1.192640
  C      3.181040   20.883900   -1.840310
  S      2.375300   19.379120   -2.268870
  C      2.572490   22.132940   -2.166610
  C      3.087730   23.343800   -1.778300
  C      2.514270   24.586090   -2.065090
  C      1.213830   24.675330   -2.754980
  C      0.538450   23.613010   -3.239560
  S      1.091430   21.994690   -3.112940
  C      0.888930   26.057620   -2.767260
  C      1.906740   26.779540   -2.139560
  C      1.642060   28.168140   -2.125450
  C      0.458400   28.456660   -2.724710
  S     -0.381830   27.067330   -3.332880
  C      2.935830   25.873110   -1.715920
  C      4.143130   26.305610   -1.062950
  C      5.323630   25.688370   -1.077790
  H     -3.453450   -0.403800   -4.162370
  H     -1.724790    1.044410   -3.258320
  H     -1.394180   -3.893730   -1.996590
  H      2.946620   -0.094510    0.264530
  H      3.305620   -2.537120    1.029630
  H     -0.090680    2.123180   -2.281180
  H      2.440330    1.736370   -0.608490
  H      0.166240    4.354860   -2.449330
  H      2.053720   10.227820   -2.162330
  H      6.663140    9.468830    0.584940
  H      9.978760    8.101160    2.592150
  H     10.118210    9.622510    3.529440
  H     10.973540    9.461220    1.983050
  H      6.586200   15.543830    0.111720
  H      5.033560   21.443900   -0.853110
  H      3.983630   23.331620   -1.176830
  H     -0.404880   23.707020   -3.754290
  H      2.287320   28.914170   -1.698020
  H      0.005600   29.419900   -2.857350
  H      4.056010   27.256570   -0.550170
  H      5.497470   24.781240   -1.629510
  H      6.172660   26.097790   -0.558410

 Total Charge           Charge          ....    0
 Multiplicity           Mult            ....    1
 Number of Electrons    NEL             ....  562
 Basis Dimension        Dim             .... 1158

ORBITAL ENERGIES
----------------

  NO   OCC          E(Eh)            E(eV)
   0   2.0000     -88.987340     -2421.4686
   1   2.0000     -88.982598     -2421.3396
   2   2.0000     -88.982003     -2421.3234
   3   2.0000     -88.979696     -2421.2606
   4   2.0000     -88.976245     -2421.1667
   5   2.0000     -88.973097     -2421.0811
   6   2.0000     -88.968220     -2420.9484
   7   2.0000     -88.959485     -2420.7106
   8   2.0000     -88.956676     -2420.6342
   9   2.0000     -88.949168     -2420.4299
  10   2.0000     -19.260960      -524.1174
  11   2.0000     -19.205212      -522.6004
  12   2.0000     -14.427941      -392.6042
  13   2.0000     -14.427171      -392.5833
  14   2.0000     -14.424371      -392.5071
  15   2.0000     -14.422210      -392.4483
  16   2.0000     -10.404644      -283.1248
  17   2.0000     -10.360094      -281.9125
  18   2.0000     -10.357282      -281.8360
  19   2.0000     -10.347788      -281.5776
  20   2.0000     -10.344601      -281.4909
  21   2.0000     -10.328831      -281.0618
  22   2.0000     -10.328299      -281.0473
  23   2.0000     -10.327715      -281.0314
  24   2.0000     -10.327694      -281.0308
  25   2.0000     -10.325495      -280.9710
  26   2.0000     -10.324925      -280.9555
  27   2.0000     -10.324235      -280.9367
  28   2.0000     -10.323708      -280.9224
  29   2.0000     -10.322586      -280.8919
  30   2.0000     -10.322328      -280.8848
  31   2.0000     -10.322266      -280.8831
  32   2.0000     -10.321741      -280.8689
  33   2.0000     -10.320994      -280.8485
  34   2.0000     -10.320289      -280.8293
  35   2.0000     -10.320027      -280.8222
  36   2.0000     -10.320022      -280.8221
  37   2.0000     -10.319468      -280.8070
  38   2.0000     -10.315323      -280.6942
  39   2.0000     -10.314233      -280.6645
  40   2.0000     -10.312123      -280.6071
  41   2.0000     -10.309975      -280.5487
  42   2.0000     -10.298361      -280.2327
  43   2.0000     -10.298049      -280.2242
  44   2.0000     -10.297052      -280.1970
  45   2.0000     -10.296531      -280.1828
  46   2.0000     -10.296359      -280.1782
  47   2.0000     -10.296132      -280.1720
  48   2.0000     -10.296122      -280.1717
  49   2.0000     -10.295094      -280.1438
  50   2.0000     -10.294892      -280.1383
  51   2.0000     -10.294532      -280.1285
  52   2.0000     -10.293609      -280.1033
  53   2.0000     -10.292591      -280.0756
  54   2.0000     -10.289966      -280.0042
  55   2.0000     -10.289624      -279.9949
  56   2.0000     -10.288785      -279.9721
  57   2.0000     -10.287742      -279.9437
  58   2.0000     -10.286150      -279.9004
  59   2.0000     -10.285668      -279.8873
  60   2.0000     -10.282398      -279.7983
  61   2.0000     -10.279204      -279.7114
  62   2.0000     -10.278242      -279.6852
  63   2.0000     -10.275821      -279.6193
  64   2.0000     -10.274744      -279.5900
  65   2.0000     -10.274671      -279.5880
  66   2.0000     -10.274105      -279.5726
  67   2.0000     -10.267721      -279.3989
  68   2.0000     -10.265933      -279.3502
  69   2.0000     -10.265256      -279.3318
  70   2.0000     -10.264354      -279.3073
  71   2.0000     -10.254109      -279.0285
  72   2.0000      -8.081482      -219.9083
  73   2.0000      -8.077317      -219.7950
  74   2.0000      -8.076579      -219.7749
  75   2.0000      -8.074291      -219.7126
  76   2.0000      -8.072115      -219.6534
  77   2.0000      -8.068014      -219.5418
  78   2.0000      -8.063985      -219.4322
  79   2.0000      -8.054104      -219.1633
  80   2.0000      -8.052174      -219.1108
  81   2.0000      -8.044612      -218.9050
  82   2.0000      -6.050879      -164.6528
  83   2.0000      -6.046655      -164.5378
  84   2.0000      -6.046635      -164.5373
  85   2.0000      -6.045936      -164.5183
  86   2.0000      -6.043689      -164.4571
  87   2.0000      -6.043504      -164.4521
  88   2.0000      -6.042462      -164.4237
  89   2.0000      -6.041621      -164.4009
  90   2.0000      -6.041592      -164.4001
  91   2.0000      -6.039503      -164.3432
  92   2.0000      -6.039414      -164.3408
  93   2.0000      -6.038863      -164.3258
  94   2.0000      -6.037560      -164.2904
  95   2.0000      -6.036947      -164.2737
  96   2.0000      -6.036719      -164.2675
  97   2.0000      -6.034227      -164.1997
  98   2.0000      -6.033672      -164.1846
  99   2.0000      -6.033300      -164.1744
 100   2.0000      -6.029803      -164.0793
 101   2.0000      -6.029104      -164.0603
 102   2.0000      -6.025589      -163.9646
 103   2.0000      -6.023944      -163.9198
 104   2.0000      -6.021593      -163.8559
 105   2.0000      -6.019652      -163.8031
 106   2.0000      -6.017355      -163.7405
 107   2.0000      -6.015278      -163.6840
 108   2.0000      -6.014232      -163.6556
 109   2.0000      -6.014081      -163.6515
 110   2.0000      -6.009827      -163.5357
 111   2.0000      -6.006592      -163.4477
 112   2.0000      -1.191920       -32.4338
 113   2.0000      -1.098870       -29.9018
 114   2.0000      -1.038651       -28.2631
 115   2.0000      -1.036925       -28.2162
 116   2.0000      -1.020645       -27.7732
 117   2.0000      -1.016902       -27.6713
 118   2.0000      -1.014160       -27.5967
 119   2.0000      -1.005187       -27.3525
 120   2.0000      -1.005067       -27.3493
 121   2.0000      -1.000906       -27.2360
 122   2.0000      -0.999134       -27.1878
 123   2.0000      -0.990992       -26.9663
 124   2.0000      -0.987803       -26.8795
 125   2.0000      -0.968467       -26.3533
 126   2.0000      -0.966245       -26.2929
 127   2.0000      -0.957999       -26.0685
 128   2.0000      -0.951413       -25.8893
 129   2.0000      -0.945204       -25.7203
 130   2.0000      -0.927231       -25.2312
 131   2.0000      -0.919659       -25.0252
 132   2.0000      -0.913942       -24.8696
 133   2.0000      -0.904975       -24.6256
 134   2.0000      -0.889106       -24.1938
 135   2.0000      -0.883151       -24.0318
 136   2.0000      -0.876494       -23.8506
 137   2.0000      -0.872755       -23.7489
 138   2.0000      -0.861709       -23.4483
 139   2.0000      -0.859066       -23.3764
 140   2.0000      -0.853913       -23.2362
 141   2.0000      -0.851620       -23.1738
 142   2.0000      -0.847236       -23.0545
 143   2.0000      -0.843595       -22.9554
 144   2.0000      -0.839184       -22.8354
 145   2.0000      -0.827996       -22.5309
 146   2.0000      -0.822315       -22.3763
 147   2.0000      -0.812022       -22.0962
 148   2.0000      -0.804966       -21.9042
 149   2.0000      -0.800291       -21.7770
 150   2.0000      -0.798281       -21.7223
 151   2.0000      -0.787029       -21.4161
 152   2.0000      -0.773190       -21.0396
 153   2.0000      -0.769154       -20.9298
 154   2.0000      -0.768024       -20.8990
 155   2.0000      -0.751395       -20.4465
 156   2.0000      -0.736736       -20.0476
 157   2.0000      -0.722584       -19.6625
 158   2.0000      -0.719281       -19.5726
 159   2.0000      -0.716835       -19.5061
 160   2.0000      -0.710899       -19.3445
 161   2.0000      -0.703738       -19.1497
 162   2.0000      -0.695045       -18.9131
 163   2.0000      -0.685605       -18.6563
 164   2.0000      -0.678938       -18.4749
 165   2.0000      -0.678052       -18.4507
 166   2.0000      -0.671913       -18.2837
 167   2.0000      -0.664179       -18.0732
 168   2.0000      -0.651984       -17.7414
 169   2.0000      -0.649383       -17.6706
 170   2.0000      -0.645724       -17.5710
 171   2.0000      -0.638752       -17.3813
 172   2.0000      -0.637501       -17.3473
 173   2.0000      -0.632037       -17.1986
 174   2.0000      -0.629156       -17.1202
 175   2.0000      -0.626523       -17.0485
 176   2.0000      -0.622315       -16.9340
 177   2.0000      -0.614305       -16.7161
 178   2.0000      -0.610078       -16.6011
 179   2.0000      -0.607178       -16.5222
 180   2.0000      -0.603800       -16.4302
 181   2.0000      -0.601189       -16.3592
 182   2.0000      -0.589946       -16.0532
 183   2.0000      -0.586744       -15.9661
 184   2.0000      -0.581385       -15.8203
 185   2.0000      -0.574160       -15.6237
 186   2.0000      -0.571668       -15.5559
 187   2.0000      -0.571220       -15.5437
 188   2.0000      -0.566452       -15.4140
 189   2.0000      -0.560033       -15.2393
 190   2.0000      -0.556864       -15.1530
 191   2.0000      -0.553163       -15.0523
 192   2.0000      -0.548909       -14.9366
 193   2.0000      -0.544053       -14.8044
 194   2.0000      -0.542246       -14.7553
 195   2.0000      -0.540741       -14.7143
 196   2.0000      -0.539939       -14.6925
 197   2.0000      -0.531969       -14.4756
 198   2.0000      -0.521931       -14.2025
 199   2.0000      -0.520522       -14.1641
 200   2.0000      -0.520026       -14.1506
 201   2.0000      -0.516505       -14.0548
 202   2.0000      -0.510819       -13.9001
 203   2.0000      -0.509624       -13.8676
 204   2.0000      -0.508462       -13.8360
 205   2.0000      -0.506227       -13.7751
 206   2.0000      -0.504150       -13.7186
 207   2.0000      -0.503496       -13.7008
 208   2.0000      -0.500527       -13.6200
 209   2.0000      -0.500219       -13.6117
 210   2.0000      -0.497738       -13.5441
 211   2.0000      -0.495741       -13.4898
 212   2.0000      -0.494835       -13.4651
 213   2.0000      -0.491048       -13.3621
 214   2.0000      -0.488488       -13.2924
 215   2.0000      -0.486561       -13.2400
 216   2.0000      -0.483220       -13.1491
 217   2.0000      -0.482855       -13.1392
 218   2.0000      -0.477066       -12.9816
 219   2.0000      -0.472482       -12.8569
 220   2.0000      -0.471549       -12.8315
 221   2.0000      -0.468818       -12.7572
 222   2.0000      -0.465764       -12.6741
 223   2.0000      -0.459737       -12.5101
 224   2.0000      -0.459565       -12.5054
 225   2.0000      -0.456986       -12.4352
 226   2.0000      -0.455277       -12.3887
 227   2.0000      -0.454901       -12.3785
 228   2.0000      -0.453648       -12.3444
 229   2.0000      -0.452634       -12.3168
 230   2.0000      -0.452001       -12.2996
 231   2.0000      -0.449211       -12.2236
 232   2.0000      -0.447107       -12.1664
 233   2.0000      -0.443277       -12.0622
 234   2.0000      -0.442403       -12.0384
 235   2.0000      -0.438543       -11.9334
 236   2.0000      -0.438033       -11.9195
 237   2.0000      -0.436337       -11.8733
 238   2.0000      -0.433873       -11.8063
 239   2.0000      -0.433574       -11.7981
 240   2.0000      -0.433470       -11.7953
 241   2.0000      -0.433128       -11.7860
 242   2.0000      -0.432393       -11.7660
 243   2.0000      -0.432088       -11.7577
 244   2.0000      -0.430917       -11.7258
 245   2.0000      -0.425549       -11.5798
 246   2.0000      -0.423611       -11.5270
 247   2.0000      -0.422373       -11.4934
 248   2.0000      -0.421393       -11.4667
 249   2.0000      -0.420948       -11.4546
 250   2.0000      -0.417540       -11.3618
 251   2.0000      -0.415308       -11.3011
 252   2.0000      -0.414415       -11.2768
 253   2.0000      -0.413534       -11.2528
 254   2.0000      -0.408641       -11.1197
 255   2.0000      -0.404240       -10.9999
 256   2.0000      -0.402530       -10.9534
 257   2.0000      -0.398387       -10.8407
 258   2.0000      -0.390980       -10.6391
 259   2.0000      -0.387419       -10.5422
 260   2.0000      -0.384063       -10.4509
 261   2.0000      -0.379474       -10.3260
 262   2.0000      -0.376017       -10.2319
 263   2.0000      -0.358826        -9.7641
 264   2.0000      -0.351343        -9.5605
 265   2.0000      -0.348301        -9.4777
 266   2.0000      -0.344415        -9.3720
 267   2.0000      -0.340483        -9.2650
 268   2.0000      -0.339513        -9.2386
 269   2.0000      -0.327548        -8.9130
 270   2.0000      -0.319363        -8.6903
 271   2.0000      -0.318620        -8.6701
 272   2.0000      -0.316393        -8.6095
 273   2.0000      -0.314124        -8.5477
 274   2.0000      -0.301254        -8.1975
 275   2.0000      -0.286028        -7.7832
 276   2.0000      -0.280032        -7.6201
 277   2.0000      -0.268690        -7.3114
 278   2.0000      -0.245903        -6.6914
 279   2.0000      -0.226411        -6.1610
 280   2.0000      -0.212073        -5.7708
 281   0.0000      -0.103455        -2.8152
 282   0.0000      -0.097030        -2.6403
 283   0.0000      -0.065358        -1.7785
 284   0.0000      -0.049987        -1.3602
 285   0.0000      -0.045145        -1.2285

MULLIKEN ATOMIC CHARGES
-----------------------
   0 C :   -0.101759
   1 C :    0.037753
   2 C :    0.014803
   3 C :    0.072466
   4 C :   -0.145467
   5 S :    0.132053
   6 C :   -0.120750
   7 C :    0.061617
   8 C :   -0.012422
   9 C :   -0.068410
  10 S :    0.125958
  11 C :    0.087571
  12 C :   -0.011668
  13 C :    0.037925
  14 C :   -0.065091
  15 C :   -0.048389
  16 C :    0.009575
  17 C :   -0.104810
  18 S :    0.173732
  19 C :   -0.088529
  20 C :    0.017327
  21 C :    0.307352
  22 C :   -0.302481
  23 C :   -0.180519
  24 N :    0.159120
  25 C :   -0.187376
  26 N :    0.171111
  27 C :   -0.071384
  28 C :   -0.069505
  29 S :    0.160421
  30 C :   -0.076099
  31 S :    0.145313
  32 C :   -0.113186
  33 C :   -0.047303
  34 C :    0.095310
  35 C :   -0.010814
  36 C :   -0.134574
  37 C :    0.205935
  38 O :   -0.193452
  39 O :   -0.306957
  40 C :    0.190436
  41 S :    0.167609
  42 C :   -0.064100
  43 C :   -0.060919
  44 C :    0.004432
  45 C :   -0.101336
  46 S :    0.181693
  47 C :   -0.100820
  48 C :    0.007221
  49 C :    0.307705
  50 C :   -0.300025
  51 C :   -0.190406
  52 N :    0.179141
  53 C :   -0.181835
  54 N :    0.162285
  55 C :   -0.044999
  56 C :   -0.058817
  57 S :    0.178867
  58 C :   -0.030399
  59 C :   -0.072015
  60 C :    0.045037
  61 C :    0.067407
  62 C :   -0.125944
  63 S :    0.104933
  64 C :   -0.110648
  65 C :    0.049466
  66 C :    0.015166
  67 C :   -0.072483
  68 S :    0.122124
  69 C :    0.047434
  70 C :   -0.040468
  71 C :   -0.022338
  72 H :    0.048187
  73 H :   -0.005110
  74 H :    0.035597
  75 H :   -0.014332
  76 H :    0.024049
  77 H :   -0.034047
  78 H :   -0.053275
  79 H :    0.000282
  80 H :    0.012838
  81 H :    0.005950
  82 H :    0.033403
  83 H :    0.035782
  84 H :    0.034924
  85 H :    0.008888
  86 H :    0.006940
  87 H :   -0.016086
  88 H :    0.033737
  89 H :   -0.018383
  90 H :    0.024004
  91 H :   -0.013326
  92 H :    0.018679
  93 H :    0.023496
Sum of atomic charges:   -0.0000000

LOEWDIN ATOMIC CHARGES
----------------------
   0 C :   -0.181029
   1 C :   -0.026375
   2 C :   -0.017320
   3 C :   -0.047212
   4 C :   -0.143632
   5 S :    0.455963
   6 C :   -0.203735
   7 C :   -0.037265
   8 C :   -0.068399
   9 C :   -0.168122
  10 S :    0.422344
  11 C :   -0.058216
  12 C :    0.000952
  13 C :   -0.072507
  14 C :   -0.148733
  15 C :   -0.040438
  16 C :   -0.063994
  17 C :   -0.199123
  18 S :    0.462913
  19 C :   -0.172911
  20 C :   -0.075914
  21 C :    0.086540
  22 C :   -0.106124
  23 C :   -0.013210
  24 N :   -0.040781
  25 C :   -0.016595
  26 N :   -0.035924
  27 C :   -0.033581
  28 C :   -0.185020
  29 S :    0.475180
  30 C :   -0.177031
  31 S :    0.449691
  32 C :   -0.213312
  33 C :   -0.180871
  34 C :   -0.084292
  35 C :   -0.025415
  36 C :   -0.195057
  37 C :    0.064841
  38 O :   -0.169917
  39 O :   -0.097277
  40 C :    0.082104
  41 S :    0.445258
  42 C :   -0.180572
  43 C :   -0.036777
  44 C :   -0.070184
  45 C :   -0.181207
  46 S :    0.463273
  47 C :   -0.186784
  48 C :   -0.069238
  49 C :    0.084203
  50 C :   -0.102486
  51 C :   -0.019719
  52 N :   -0.027829
  53 C :   -0.013964
  54 N :   -0.037387
  55 C :   -0.030644
  56 C :   -0.179511
  57 S :    0.462938
  58 C :   -0.190037
  59 C :   -0.014438
  60 C :   -0.027184
  61 C :   -0.047238
  62 C :   -0.141581
  63 S :    0.423384
  64 C :   -0.204974
  65 C :   -0.040506
  66 C :   -0.063331
  67 C :   -0.166655
  68 S :    0.415960
  69 C :   -0.046986
  70 C :   -0.023385
  71 C :   -0.046874
  72 H :    0.033008
  73 H :    0.040669
  74 H :    0.035192
  75 H :    0.027004
  76 H :    0.023035
  77 H :    0.027591
  78 H :    0.022868
  79 H :    0.035763
  80 H :    0.035241
  81 H :    0.026619
  82 H :    0.025489
  83 H :    0.024759
  84 H :    0.024602
  85 H :    0.031049
  86 H :    0.038704
  87 H :    0.039153
  88 H :    0.035783
  89 H :    0.030118
  90 H :    0.022219
  91 H :    0.029013
  92 H :    0.019801
  93 H :    0.025602

  Mayer bond orders larger than 0.100000
B(  0-C ,  1-C ) :   1.6593 B(  0-C ,  5-S ) :   1.1034 B(  0-C , 72-H ) :   0.9382
B(  1-C ,  2-C ) :   1.2086 B(  1-C , 73-H ) :   0.9701 B(  2-C ,  3-C ) :   1.0551
B(  2-C , 11-C ) :   1.4105 B(  3-C ,  4-C ) :   1.5999 B(  3-C ,  6-C ) :   1.1835
B(  4-C ,  5-S ) :   1.1452 B(  4-C , 74-H ) :   0.9419 B(  6-C ,  7-C ) :   1.4634
B(  6-C , 10-S ) :   1.0764 B(  7-C ,  8-C ) :   1.2118 B(  7-C , 11-C ) :   1.0673
B(  8-C ,  9-C ) :   1.5865 B(  8-C , 75-H ) :   1.0003 B(  9-C , 10-S ) :   1.1593
B(  9-C , 76-H ) :   0.9645 B( 11-C , 12-C ) :   1.1840 B( 12-C , 13-C ) :   1.6348
B( 12-C , 77-H ) :   0.9594 B( 13-C , 14-C ) :   1.1290 B( 13-C , 78-H ) :   0.9627
B( 14-C , 15-C ) :   1.4409 B( 14-C , 18-S ) :   1.1090 B( 15-C , 16-C ) :   1.3068
B( 15-C , 79-H ) :   0.9886 B( 16-C , 17-C ) :   1.4261 B( 16-C , 21-C ) :   0.9992
B( 17-C , 18-S ) :   1.1017 B( 17-C , 19-C ) :   1.2044 B( 19-C , 20-C ) :   1.4234
B( 19-C , 29-S ) :   1.1202 B( 20-C , 21-C ) :   0.9929 B( 20-C , 27-C ) :   1.3100
B( 21-C , 22-C ) :   1.7076 B( 22-C , 23-C ) :   1.1365 B( 22-C , 25-C ) :   1.1319
B( 23-C , 24-N ) :   2.9806 B( 25-C , 26-N ) :   2.9930 B( 27-C , 28-C ) :   1.4245
B( 27-C , 80-H ) :   0.9880 B( 28-C , 29-S ) :   1.0905 B( 28-C , 30-C ) :   1.2076
B( 30-C , 31-S ) :   1.1349 B( 30-C , 32-C ) :   0.1153 B( 30-C , 34-C ) :   1.3808
B( 31-S , 32-C ) :   1.1017 B( 32-C , 33-C ) :   1.5421 B( 32-C , 42-C ) :   1.1625
B( 33-C , 34-C ) :   1.2391 B( 33-C , 41-S ) :   1.0558 B( 34-C , 35-C ) :   1.1266
B( 35-C , 36-C ) :   1.6234 B( 35-C , 81-H ) :   0.9908 B( 36-C , 37-C ) :   0.9628
B( 36-C , 41-S ) :   1.0707 B( 37-C , 38-O ) :   2.1457 B( 37-C , 39-O ) :   1.2350
B( 39-O , 40-C ) :   0.9218 B( 40-C , 82-H ) :   0.9808 B( 40-C , 83-H ) :   0.9754
B( 40-C , 84-H ) :   0.9768 B( 42-C , 43-C ) :   1.4722 B( 42-C , 46-S ) :   1.0897
B( 43-C , 44-C ) :   1.3048 B( 43-C , 85-H ) :   0.9822 B( 44-C , 45-C ) :   1.4397
B( 44-C , 49-C ) :   0.9945 B( 45-C , 46-S ) :   1.1159 B( 45-C , 47-C ) :   1.2001
B( 47-C , 48-C ) :   1.4385 B( 47-C , 57-S ) :   1.1146 B( 48-C , 49-C ) :   0.9991
B( 48-C , 55-C ) :   1.2973 B( 49-C , 50-C ) :   1.7075 B( 50-C , 51-C ) :   1.1338
B( 50-C , 53-C ) :   1.1346 B( 51-C , 52-N ) :   2.9914 B( 53-C , 54-N ) :   2.9825
B( 55-C , 56-C ) :   1.4891 B( 55-C , 86-H ) :   0.9860 B( 56-C , 57-S ) :   1.1017
B( 56-C , 58-C ) :   1.1127 B( 58-C , 59-C ) :   1.5725 B( 58-C , 63-S ) :   1.0275
B( 59-C , 60-C ) :   1.2149 B( 59-C , 87-H ) :   0.9661 B( 60-C , 61-C ) :   1.0379
B( 60-C , 69-C ) :   1.4438 B( 61-C , 62-C ) :   1.6237 B( 61-C , 64-C ) :   1.1791
B( 62-C , 63-S ) :   1.1302 B( 62-C , 88-H ) :   0.9402 B( 64-C , 65-C ) :   1.4381
B( 64-C , 68-S ) :   1.0726 B( 65-C , 66-C ) :   1.2145 B( 65-C , 69-C ) :   1.1219
B( 66-C , 67-C ) :   1.5861 B( 66-C , 89-H ) :   0.9976 B( 67-C , 68-S ) :   1.1522
B( 67-C , 90-H ) :   0.9670 B( 69-C , 70-C ) :   1.0956 B( 70-C , 71-C ) :   1.9229
B( 70-C , 91-H ) :   0.9547 B( 71-C , 92-H ) :   0.9590 B( 71-C , 93-H ) :   0.9478

-----------------------------------------------------------------------------
         ABSORPTION SPECTRUM VIA TRANSITION ELECTRIC DIPOLE MOMENTS
-----------------------------------------------------------------------------
State   Energy  Wavelength   fosc         T2         TX        TY        TZ
        (cm-1)    (nm)                  (au**2)     (au)      (au)      (au)
-----------------------------------------------------------------------------
   0    8081.0   1237.5   0.358671942  14.61193   0.88350   3.71485   0.17668
   1    9207.8   1086.0   0.111591007   3.98979   0.56595  -1.89234   0.29759
   2   15404.6    649.2   0.025873305   0.55294   0.63652   0.32747   0.20137
   3   16035.2    623.6   0.067158012   1.37879   0.27125   1.14005   0.07415
   4   17434.3    573.6   1.995275836  37.67675  -1.66369  -5.88550  -0.51940
   5   20519.8    487.3   0.051887904   0.83247  -0.64440  -0.58998  -0.26293
   6   20594.0    485.6   0.036705180   0.58676   0.28629   0.69967   0.12356
   7   21147.5    472.9   0.249976648   3.89149  -1.48238   1.11129  -0.67755
   8   21643.9    462.0   0.033600534   0.51108  -0.20211  -0.66704  -0.15902
   9   23385.9    427.6   0.113333348   1.59543  -0.97999   0.70818  -0.36543
  10   23928.2    417.9   0.054753925   0.75332  -0.65944   0.48403  -0.29012
  11   24504.2    408.1   0.092111488   1.23751  -0.20856   1.08153  -0.15589
  12   25150.4    397.6   0.276099689   3.61408  -0.03339  -1.89472   0.15164
  13   26139.3    382.6   0.294299538   3.70656  -0.47828  -1.86415   0.05242
  14   26725.2    374.2   0.015359677   0.18921   0.01760  -0.42421   0.09459
  15   27198.3    367.7   0.037288101   0.45134  -0.02690  -0.66867   0.05913
  16   27500.0    363.6   0.019629535   0.23499  -0.16774   0.43762  -0.12389
  17   28677.2    348.7   0.029252479   0.33582   0.44148  -0.24911   0.28081
  18   29183.3    342.7   0.039875899   0.44983  -0.54226   0.23615  -0.31626
  19   29427.6    339.8   0.004046150   0.04527  -0.02734  -0.21097   0.00329
  20   30156.0    331.6   0.199568566   2.17868  -0.51975  -1.35635  -0.26243
  21   30972.4    322.9   0.156929359   1.66803   0.78847   0.92602   0.43456
  22   31419.5    318.3   0.242664478   2.54263  -0.20443   1.53233  -0.39090
  23   31690.4    315.6   0.050267528   0.52220   0.59336  -0.11907   0.39489
  24   31929.9    313.2   0.486458177   5.01561   1.88588  -0.45299   1.11977
  25   32009.4    312.4   0.096616316   0.99368   0.60439  -0.65771   0.44251
  26   32232.0    310.3   0.043958325   0.44898   0.14584   0.65388   0.01274
  27   32556.4    307.2   0.000827810   0.00837  -0.06563   0.02237  -0.05969
  28   32591.4    306.8   0.546272239   5.51800  -2.05075   0.35566  -1.08901
  29   32756.2    305.3   0.020190349   0.20292  -0.25378  -0.36657  -0.06437
  30   33261.4    300.6   0.159965401   1.58329   1.10522   0.11584   0.59023
  31   33386.9    299.5   0.059276037   0.58449  -0.65671  -0.26677  -0.28645
  32   33500.4    298.5   0.264755444   2.60178   1.21977   0.76653   0.72551
  33   33957.7    294.5   0.136146133   1.31990  -0.10382   1.14369  -0.03309
  34   34105.0    293.2   0.131678888   1.27108   0.27627  -1.07673   0.18816
  35   34274.1    291.8   0.163635494   1.57176   0.12849   1.24391   0.08914
  36   34665.8    288.5   0.012867096   0.12220  -0.32393   0.05093  -0.12112
  37   34956.6    286.1   0.020956788   0.19737   0.08112  -0.43460   0.04369
  38   35441.0    282.2   0.005211917   0.04841   0.13348  -0.00330   0.17489
  39   35603.4    280.9   0.021682069   0.20049  -0.31850   0.30569  -0.07479
  40   36089.7    277.1   0.023263538   0.21221  -0.28913  -0.33548  -0.12676
  41   36161.1    276.5   0.181687730   1.65409  -0.13620   1.27641  -0.07943
  42   36418.9    274.6   0.022355998   0.20209   0.34440  -0.23013   0.17469
  43   36685.8    272.6   0.153758154   1.37980  -0.13537  -1.16310  -0.09311
  44   36774.6    271.9   0.009300125   0.08326   0.25512  -0.12972  -0.03666
  45   36932.8    270.8   0.017910474   0.15965   0.06307  -0.39407  -0.01943
  46   37169.3    269.0   0.195568629   1.73217  -1.12136   0.23125  -0.64904
  47   37788.7    264.6   0.028159907   0.24533  -0.30862   0.27257  -0.27530
  48   38215.8    261.7   0.038206928   0.32914   0.40812   0.30666   0.26178
  49   38321.1    261.0   0.249660461   2.14480  -0.56643  -1.29583  -0.38050
  50   38703.2    258.4   0.013833353   0.11767  -0.32537   0.07283  -0.08059
  51   38936.9    256.8   0.025018739   0.21153   0.02843  -0.45798   0.03131
  52   39029.2    256.2   0.000416306   0.00351   0.02962  -0.05126  -0.00263
  53   39193.5    255.1   0.123799685   1.03987  -0.83211   0.14716  -0.57080
  54   39643.6    252.2   0.327970980   2.72356   1.39977  -0.48163   0.72954
  55   39862.8    250.9   0.097070746   0.80167   0.72069   0.08328   0.52473
  56   40115.9    249.3   0.003622684   0.02973   0.11849  -0.12243   0.02648

FINAL SINGLE POINT ENERGY     -6493.978012079882

DIPOLE MOMENT
-------------
                                X             Y             Z
Electronic contribution:    -10.07135      -5.45414      -8.00755
Nuclear contribution   :      8.70145       2.04583       7.79529
                        -----------------------------------------
Total Dipole Moment    :     -1.36990      -3.40830      -0.21226
                        -----------------------------------------
Magnitude (a.u.)       :      3.67943
Magnitude (Debye)      :      9.35237

Rotational constants in cm-1:     0.001450     0.000176     0.000157
Rotational constants in MHz :    43.469485     5.280679     4.720565

                             ****ORCA TERMINATED NORMALLY****
TOTAL RUN TIME: 0 days 0 hours 9 minutes 24 seconds 527 msec
