                         Program Version 4.2.0 -  RELEASE  -
|  1> # ORCA input file
|  2> # SCF done       -170.625044960192          0.000851097757
|  3> ! CAM-B3LYP def2-SVP def2/J RIJCOSX Grid4 TightSCF
|  4> %maxcore 5000
|  5> %tddft
|  6>     Mode sTDDFT
|  7>     Ethresh 5.0
|  8>     maxcore 5000
|  9> end
| 10>
| 11> %pal
| 12>   nprocs 6
| 13>   end
| 14> * xyz 0 1
| 15>    C       -1.60493        -2.25820        -1.62601
| 16>    C       -0.28278        -1.88397        -1.59480
| 17>    C        0.79375        -2.78552        -1.47305
| 18>    N        1.71446        -3.46610        -1.38064
| 19>    C        0.18832        -0.55954        -1.68669
| 20>    N        0.64682         0.49184        -1.75557
| 21>    C       -2.10233        -3.62379        -1.51133
| 22>    C       -3.51647        -3.60775        -1.59943
| 23>    C       -4.27793        -4.74712        -1.51717
| 24>    C       -3.61349        -5.96356        -1.32610
| 25>    C       -2.20091        -5.97121        -1.24065
| 26>    C       -1.42991        -4.81914        -1.33269
| 27>    S       -1.58337        -7.57878        -1.00982
| 28>    C       -3.20901        -8.20957        -1.02657
| 29>    C       -4.16603        -7.26735        -1.19881
| 30>   Br       -3.48757       -10.05243        -0.82150
| 31>    C       -3.97976        -2.22175        -1.79329
| 32>    O       -5.09522        -1.86580        -2.09704
| 33>    C       -2.75111        -1.37939        -1.71774
| 34>    C       -2.74370        -0.02021        -1.83262
| 35>    C       -3.88017         0.79791        -1.62101
| 36>    O       -3.90019         2.05603        -2.14822
| 37>    C       -5.01145         0.63974        -0.83972
| 38>    C       -5.67805        -0.24290         0.12773
| 39>    O       -5.35238        -1.30052         0.59855
| 40>    N       -6.82079         0.47077         0.48382
| 41>    C       -6.93827         1.73648        -0.08560
| 42>    O       -7.83489         2.51200         0.12141
| 43>    C       -5.74297         1.84485        -0.92697
| 44>    C       -5.02781         2.69834        -1.74920
| 45>    C       -5.29819         4.03559        -2.14217
| 46>    C       -4.48291         4.76293        -2.93979
| 47>    C       -4.74583         6.12470        -3.27574
| 48>    C       -4.00369         6.92020        -4.06986
| 49>    C       -2.75436         6.52264        -4.77946
| 50>    C       -4.37584         8.37728        -4.21514
| 51>    N       -3.58672         9.16627        -3.28807
| 52>    C       -2.37346         9.69999        -3.55352
| 53>    C       -1.80825         9.88691        -4.77849
| 54>    C       -0.54594        10.48017        -4.95009
| 55>    C        0.04349        10.69688        -6.16902
| 56>    C        1.31486        11.26259        -6.42354
| 57>    C        1.63016        11.36476        -7.74490
| 58>    C        0.62193        10.89169        -8.61414
| 59>    S       -0.73844        10.29342        -7.69697
| 60>    C        0.62323        10.88126        -9.99638
| 61>    C        1.64000        11.31567       -10.87251
| 62>    C        1.32365        11.18410       -12.19065
| 63>    C        0.03551        10.64318       -12.43235
| 64>    S       -0.75614        10.29411       -10.90972
| 65>    C       -0.52777        10.42793       -13.66541
| 66>    C       -1.80790         9.92297       -13.94156
| 67>    C       -2.35766         9.73056       -15.20026
| 68>    C       -3.65508         9.23077       -15.16121
| 69>   Cl       -4.55846         8.90917       -16.58635
| 70>    C       -4.15489         9.01801       -13.88330
| 71>    S       -2.94747         9.45993       -12.70553
| 72>    C       -5.43027         8.53152       -13.49512
| 73>    C       -5.92193         8.31979       -12.22056
| 74>   Cl       -5.01618         8.61851       -10.79396
| 75>    C       -7.24283         7.83164       -12.18439
| 76>    C       -7.76289         7.67006       -13.42739
| 77>    S       -6.65420         8.10606       -14.66342
| 78>    H       -5.35291        -4.69924        -1.58677
| 79>    H       -0.35671        -4.87897        -1.26355
| 80>    H       -5.21869        -7.48055        -1.23460
| 81>    H       -1.83198         0.50970        -2.07264
| 82>    H       -7.49873         0.10704         1.13835
| 83>    H       -6.21253         4.45071        -1.74303
| 84>    H       -3.58822         4.29324        -3.32070
| 85>    H       -5.64263         6.54026        -2.83069
| 86>    H       -2.47072         5.49577        -4.57816
| 87>    H       -1.93268         7.17743        -4.48663
| 88>    H       -2.89060         6.63963        -5.85477
| 89>    H       -5.43092         8.53344        -3.97538
| 90>    H       -4.19076         8.73219        -5.22864
| 91>    H       -3.80103         8.99673        -2.31697
| 92>    H       -1.83893        10.04696        -2.67809
| 93>    H       -2.31926         9.57659        -5.67782
| 94>    H        0.00629        10.78083        -4.06918
| 95>    H        1.95766        11.57590        -5.61953
| 96>    H        2.55330        11.77084        -8.11743
| 97>    H        2.57256        11.71092       -10.51142
| 98>    H        1.97134        11.46261       -13.00310
| 99>    H        0.07353        10.68323       -14.52836
|100>    H       -1.83499         9.94803       -16.11317
|101>    H       -7.76387         7.61753       -11.26999
|102>    H       -8.73751         7.31746       -13.69784
|103> *
|104>
|105>                          ****END OF INPUT****

CARTESIAN COORDINATES (ANGSTROEM)
---------------------------------
  C     -1.604930   -2.258200   -1.626010
  C     -0.282780   -1.883970   -1.594800
  C      0.793750   -2.785520   -1.473050
  N      1.714460   -3.466100   -1.380640
  C      0.188320   -0.559540   -1.686690
  N      0.646820    0.491840   -1.755570
  C     -2.102330   -3.623790   -1.511330
  C     -3.516470   -3.607750   -1.599430
  C     -4.277930   -4.747120   -1.517170
  C     -3.613490   -5.963560   -1.326100
  C     -2.200910   -5.971210   -1.240650
  C     -1.429910   -4.819140   -1.332690
  S     -1.583370   -7.578780   -1.009820
  C     -3.209010   -8.209570   -1.026570
  C     -4.166030   -7.267350   -1.198810
  Br    -3.487570  -10.052430   -0.821500
  C     -3.979760   -2.221750   -1.793290
  O     -5.095220   -1.865800   -2.097040
  C     -2.751110   -1.379390   -1.717740
  C     -2.743700   -0.020210   -1.832620
  C     -3.880170    0.797910   -1.621010
  O     -3.900190    2.056030   -2.148220
  C     -5.011450    0.639740   -0.839720
  C     -5.678050   -0.242900    0.127730
  O     -5.352380   -1.300520    0.598550
  N     -6.820790    0.470770    0.483820
  C     -6.938270    1.736480   -0.085600
  O     -7.834890    2.512000    0.121410
  C     -5.742970    1.844850   -0.926970
  C     -5.027810    2.698340   -1.749200
  C     -5.298190    4.035590   -2.142170
  C     -4.482910    4.762930   -2.939790
  C     -4.745830    6.124700   -3.275740
  C     -4.003690    6.920200   -4.069860
  C     -2.754360    6.522640   -4.779460
  C     -4.375840    8.377280   -4.215140
  N     -3.586720    9.166270   -3.288070
  C     -2.373460    9.699990   -3.553520
  C     -1.808250    9.886910   -4.778490
  C     -0.545940   10.480170   -4.950090
  C      0.043490   10.696880   -6.169020
  C      1.314860   11.262590   -6.423540
  C      1.630160   11.364760   -7.744900
  C      0.621930   10.891690   -8.614140
  S     -0.738440   10.293420   -7.696970
  C      0.623230   10.881260   -9.996380
  C      1.640000   11.315670  -10.872510
  C      1.323650   11.184100  -12.190650
  C      0.035510   10.643180  -12.432350
  S     -0.756140   10.294110  -10.909720
  C     -0.527770   10.427930  -13.665410
  C     -1.807900    9.922970  -13.941560
  C     -2.357660    9.730560  -15.200260
  C     -3.655080    9.230770  -15.161210
  Cl    -4.558460    8.909170  -16.586350
  C     -4.154890    9.018010  -13.883300
  S     -2.947470    9.459930  -12.705530
  C     -5.430270    8.531520  -13.495120
  C     -5.921930    8.319790  -12.220560
  Cl    -5.016180    8.618510  -10.793960
  C     -7.242830    7.831640  -12.184390
  C     -7.762890    7.670060  -13.427390
  S     -6.654200    8.106060  -14.663420
  H     -5.352910   -4.699240   -1.586770
  H     -0.356710   -4.878970   -1.263550
  H     -5.218690   -7.480550   -1.234600
  H     -1.831980    0.509700   -2.072640
  H     -7.498730    0.107040    1.138350
  H     -6.212530    4.450710   -1.743030
  H     -3.588220    4.293240   -3.320700
  H     -5.642630    6.540260   -2.830690
  H     -2.470720    5.495770   -4.578160
  H     -1.932680    7.177430   -4.486630
  H     -2.890600    6.639630   -5.854770
  H     -5.430920    8.533440   -3.975380
  H     -4.190760    8.732190   -5.228640
  H     -3.801030    8.996730   -2.316970
  H     -1.838930   10.046960   -2.678090
  H     -2.319260    9.576590   -5.677820
  H      0.006290   10.780830   -4.069180
  H      1.957660   11.575900   -5.619530
  H      2.553300   11.770840   -8.117430
  H      2.572560   11.710920  -10.511420
  H      1.971340   11.462610  -13.003100
  H      0.073530   10.683230  -14.528360
  H     -1.834990    9.948030  -16.113170
  H     -7.763870    7.617530  -11.269990
  H     -8.737510    7.317460  -13.697840

 Total Charge           Charge          ....    0
 Multiplicity           Mult            ....    1
 Number of Electrons    NEL             ....  516
 Basis Dimension        Dim             .... 1053

ORBITAL ENERGIES
----------------

  NO   OCC          E(Eh)            E(eV)
   0   2.0000    -482.886900    -13140.0206
   1   2.0000    -101.580693     -2764.1512
   2   2.0000    -101.579687     -2764.1238
   3   2.0000     -88.976780     -2421.1813
   4   2.0000     -88.946123     -2420.3471
   5   2.0000     -88.942905     -2420.2595
   6   2.0000     -88.932299     -2419.9709
   7   2.0000     -88.930831     -2419.9309
   8   2.0000     -62.564596     -1702.4692
   9   2.0000     -56.398552     -1534.6826
  10   2.0000     -56.395828     -1534.6085
  11   2.0000     -56.395800     -1534.6077
  12   2.0000     -19.320272      -525.7313
  13   2.0000     -19.218301      -522.9565
  14   2.0000     -19.217922      -522.9463
  15   2.0000     -19.215486      -522.8800
  16   2.0000     -14.459302      -393.4576
  17   2.0000     -14.451496      -393.2452
  18   2.0000     -14.421059      -392.4170
  19   2.0000     -14.418708      -392.3530
  20   2.0000     -10.406225      -283.1678
  21   2.0000     -10.405037      -283.1355
  22   2.0000     -10.374208      -282.2966
  23   2.0000     -10.370613      -282.1987
  24   2.0000     -10.367488      -282.1137
  25   2.0000     -10.360441      -281.9219
  26   2.0000     -10.347193      -281.5614
  27   2.0000     -10.346365      -281.5389
  28   2.0000     -10.327391      -281.0226
  29   2.0000     -10.327348      -281.0214
  30   2.0000     -10.326833      -281.0074
  31   2.0000     -10.324426      -280.9419
  32   2.0000     -10.323483      -280.9162
  33   2.0000     -10.321342      -280.8580
  34   2.0000     -10.312226      -280.6099
  35   2.0000     -10.311357      -280.5863
  36   2.0000     -10.310867      -280.5730
  37   2.0000     -10.309637      -280.5395
  38   2.0000     -10.309482      -280.5353
  39   2.0000     -10.307592      -280.4838
  40   2.0000     -10.306628      -280.4576
  41   2.0000     -10.303403      -280.3698
  42   2.0000     -10.302766      -280.3525
  43   2.0000     -10.302104      -280.3345
  44   2.0000     -10.301472      -280.3173
  45   2.0000     -10.301052      -280.3059
  46   2.0000     -10.297894      -280.2199
  47   2.0000     -10.297651      -280.2133
  48   2.0000     -10.297127      -280.1991
  49   2.0000     -10.296244      -280.1750
  50   2.0000     -10.294077      -280.1161
  51   2.0000     -10.293969      -280.1131
  52   2.0000     -10.290025      -280.0058
  53   2.0000     -10.289267      -279.9852
  54   2.0000     -10.289026      -279.9786
  55   2.0000     -10.285949      -279.8949
  56   2.0000     -10.282742      -279.8076
  57   2.0000     -10.279961      -279.7319
  58   2.0000     -10.276765      -279.6450
  59   2.0000     -10.276371      -279.6343
  60   2.0000     -10.273478      -279.5555
  61   2.0000     -10.272850      -279.5384
  62   2.0000     -10.268108      -279.4094
  63   2.0000     -10.267391      -279.3899
  64   2.0000     -10.266353      -279.3617
  65   2.0000     -10.263083      -279.2727
  66   2.0000     -10.261214      -279.2218
  67   2.0000      -9.535469      -259.4733
  68   2.0000      -9.534492      -259.4467
  69   2.0000      -8.794007      -239.2971
  70   2.0000      -8.072842      -219.6732
  71   2.0000      -8.041477      -218.8197
  72   2.0000      -8.037587      -218.7139
  73   2.0000      -8.028591      -218.4691
  74   2.0000      -8.026935      -218.4240
  75   2.0000      -7.305525      -198.7934
  76   2.0000      -7.304539      -198.7666
  77   2.0000      -7.295573      -198.5226
  78   2.0000      -7.295541      -198.5218
  79   2.0000      -7.294596      -198.4961
  80   2.0000      -7.294573      -198.4954
  81   2.0000      -6.630322      -180.4202
  82   2.0000      -6.615744      -180.0235
  83   2.0000      -6.615521      -180.0175
  84   2.0000      -6.042546      -164.4260
  85   2.0000      -6.038248      -164.3091
  86   2.0000      -6.034030      -164.1943
  87   2.0000      -6.011041      -163.5687
  88   2.0000      -6.007107      -163.4617
  89   2.0000      -6.006459      -163.4441
  90   2.0000      -6.003356      -163.3596
  91   2.0000      -6.002794      -163.3443
  92   2.0000      -5.999290      -163.2490
  93   2.0000      -5.998317      -163.2225
  94   2.0000      -5.996727      -163.1792
  95   2.0000      -5.994397      -163.1158
  96   2.0000      -5.992602      -163.0670
  97   2.0000      -5.989445      -162.9811
  98   2.0000      -5.987808      -162.9365
  99   2.0000      -2.746196       -74.7278
 100   2.0000      -2.742109       -74.6166
 101   2.0000      -2.741932       -74.6118
 102   2.0000      -2.730351       -74.2966
 103   2.0000      -2.730340       -74.2963
 104   2.0000      -1.235862       -33.6295
 105   2.0000      -1.161457       -31.6049
 106   2.0000      -1.141640       -31.0656
 107   2.0000      -1.132845       -30.8263
 108   2.0000      -1.049548       -28.5597
 109   2.0000      -1.048399       -28.5284
 110   2.0000      -1.025753       -27.9122
 111   2.0000      -1.016475       -27.6597
 112   2.0000      -1.002292       -27.2737
 113   2.0000      -0.998015       -27.1574
 114   2.0000      -0.993157       -27.0252
 115   2.0000      -0.982398       -26.7324
 116   2.0000      -0.978337       -26.6219
 117   2.0000      -0.959963       -26.1219
 118   2.0000      -0.950508       -25.8646
 119   2.0000      -0.941776       -25.6270
 120   2.0000      -0.936970       -25.4963
 121   2.0000      -0.931988       -25.3607
 122   2.0000      -0.928259       -25.2592
 123   2.0000      -0.924190       -25.1485
 124   2.0000      -0.910978       -24.7890
 125   2.0000      -0.900985       -24.5170
 126   2.0000      -0.892438       -24.2845
 127   2.0000      -0.887702       -24.1556
 128   2.0000      -0.874490       -23.7961
 129   2.0000      -0.871162       -23.7055
 130   2.0000      -0.849778       -23.1236
 131   2.0000      -0.840367       -22.8676
 132   2.0000      -0.832916       -22.6648
 133   2.0000      -0.831088       -22.6150
 134   2.0000      -0.826291       -22.4845
 135   2.0000      -0.810210       -22.0469
 136   2.0000      -0.803587       -21.8667
 137   2.0000      -0.799013       -21.7422
 138   2.0000      -0.798211       -21.7204
 139   2.0000      -0.793696       -21.5976
 140   2.0000      -0.782002       -21.2793
 141   2.0000      -0.777860       -21.1667
 142   2.0000      -0.771218       -20.9859
 143   2.0000      -0.764988       -20.8164
 144   2.0000      -0.756858       -20.5952
 145   2.0000      -0.748961       -20.3803
 146   2.0000      -0.723771       -19.6948
 147   2.0000      -0.716621       -19.5003
 148   2.0000      -0.706862       -19.2347
 149   2.0000      -0.698707       -19.0128
 150   2.0000      -0.692059       -18.8319
 151   2.0000      -0.683368       -18.5954
 152   2.0000      -0.676331       -18.4039
 153   2.0000      -0.668205       -18.1828
 154   2.0000      -0.659528       -17.9467
 155   2.0000      -0.653676       -17.7874
 156   2.0000      -0.651806       -17.7365
 157   2.0000      -0.643325       -17.5058
 158   2.0000      -0.636984       -17.3332
 159   2.0000      -0.627645       -17.0791
 160   2.0000      -0.622527       -16.9398
 161   2.0000      -0.619465       -16.8565
 162   2.0000      -0.612609       -16.6699
 163   2.0000      -0.611182       -16.6311
 164   2.0000      -0.609782       -16.5930
 165   2.0000      -0.602072       -16.3832
 166   2.0000      -0.600718       -16.3464
 167   2.0000      -0.596645       -16.2355
 168   2.0000      -0.593717       -16.1559
 169   2.0000      -0.592530       -16.1236
 170   2.0000      -0.589241       -16.0341
 171   2.0000      -0.583369       -15.8743
 172   2.0000      -0.580517       -15.7967
 173   2.0000      -0.574009       -15.6196
 174   2.0000      -0.569119       -15.4865
 175   2.0000      -0.566535       -15.4162
 176   2.0000      -0.555044       -15.1035
 177   2.0000      -0.554740       -15.0952
 178   2.0000      -0.550467       -14.9790
 179   2.0000      -0.546414       -14.8687
 180   2.0000      -0.545892       -14.8545
 181   2.0000      -0.539898       -14.6914
 182   2.0000      -0.535598       -14.5744
 183   2.0000      -0.527347       -14.3498
 184   2.0000      -0.525903       -14.3105
 185   2.0000      -0.524942       -14.2844
 186   2.0000      -0.521470       -14.1899
 187   2.0000      -0.518078       -14.0976
 188   2.0000      -0.513917       -13.9844
 189   2.0000      -0.511448       -13.9172
 190   2.0000      -0.510809       -13.8998
 191   2.0000      -0.509452       -13.8629
 192   2.0000      -0.503646       -13.7049
 193   2.0000      -0.500037       -13.6067
 194   2.0000      -0.497338       -13.5333
 195   2.0000      -0.496552       -13.5119
 196   2.0000      -0.494178       -13.4473
 197   2.0000      -0.491660       -13.3787
 198   2.0000      -0.486687       -13.2434
 199   2.0000      -0.485913       -13.2224
 200   2.0000      -0.484444       -13.1824
 201   2.0000      -0.484038       -13.1714
 202   2.0000      -0.482255       -13.1228
 203   2.0000      -0.480301       -13.0697
 204   2.0000      -0.476017       -12.9531
 205   2.0000      -0.474011       -12.8985
 206   2.0000      -0.471541       -12.8313
 207   2.0000      -0.466924       -12.7057
 208   2.0000      -0.464644       -12.6436
 209   2.0000      -0.461932       -12.5698
 210   2.0000      -0.460100       -12.5200
 211   2.0000      -0.457422       -12.4471
 212   2.0000      -0.455150       -12.3853
 213   2.0000      -0.453058       -12.3283
 214   2.0000      -0.451041       -12.2734
 215   2.0000      -0.448329       -12.1996
 216   2.0000      -0.447962       -12.1897
 217   2.0000      -0.447622       -12.1804
 218   2.0000      -0.442150       -12.0315
 219   2.0000      -0.441319       -12.0089
 220   2.0000      -0.435760       -11.8576
 221   2.0000      -0.433010       -11.7828
 222   2.0000      -0.430748       -11.7213
 223   2.0000      -0.428209       -11.6522
 224   2.0000      -0.424582       -11.5535
 225   2.0000      -0.424231       -11.5439
 226   2.0000      -0.418407       -11.3854
 227   2.0000      -0.414179       -11.2704
 228   2.0000      -0.412221       -11.2171
 229   2.0000      -0.411115       -11.1870
 230   2.0000      -0.405804       -11.0425
 231   2.0000      -0.399630       -10.8745
 232   2.0000      -0.393745       -10.7143
 233   2.0000      -0.387416       -10.5421
 234   2.0000      -0.383494       -10.4354
 235   2.0000      -0.382752       -10.4152
 236   2.0000      -0.381677       -10.3860
 237   2.0000      -0.376419       -10.2429
 238   2.0000      -0.376034       -10.2324
 239   2.0000      -0.365813        -9.9543
 240   2.0000      -0.363957        -9.9038
 241   2.0000      -0.361941        -9.8489
 242   2.0000      -0.357856        -9.7378
 243   2.0000      -0.350842        -9.5469
 244   2.0000      -0.346225        -9.4213
 245   2.0000      -0.341194        -9.2844
 246   2.0000      -0.330874        -9.0035
 247   2.0000      -0.325982        -8.8704
 248   2.0000      -0.321893        -8.7591
 249   2.0000      -0.316468        -8.6115
 250   2.0000      -0.312191        -8.4951
 251   2.0000      -0.302647        -8.2354
 252   2.0000      -0.297590        -8.0978
 253   2.0000      -0.295665        -8.0455
 254   2.0000      -0.282035        -7.6746
 255   2.0000      -0.271199        -7.3797
 256   2.0000      -0.243912        -6.6372
 257   2.0000      -0.190426        -5.1818
 258   0.0000      -0.105040        -2.8583
 259   0.0000      -0.065676        -1.7871
 260   0.0000      -0.062500        -1.7007
 261   0.0000      -0.053799        -1.4639
 262   0.0000      -0.018551        -0.5048

MULLIKEN ATOMIC CHARGES
-----------------------
   0 C :    0.305502
   1 C :   -0.344475
   2 C :   -0.184257
   3 N :    0.155096
   4 C :   -0.190475
   5 N :    0.153198
   6 C :    0.023116
   7 C :   -0.011803
   8 C :   -0.060948
   9 C :    0.117060
  10 C :   -0.090632
  11 C :   -0.024156
  12 S :    0.187329
  13 C :   -0.121004
  14 C :    0.037804
  15 Br:    0.025878
  16 C :    0.153236
  17 O :   -0.145123
  18 C :   -0.075364
  19 C :   -0.033087
  20 C :    0.125226
  21 O :   -0.203773
  22 C :   -0.020403
  23 C :    0.182698
  24 O :   -0.141264
  25 N :   -0.163457
  26 C :    0.170806
  27 O :   -0.141942
  28 C :   -0.051364
  29 C :    0.108445
  30 C :   -0.052513
  31 C :    0.046433
  32 C :   -0.001090
  33 C :   -0.177302
  34 C :    0.100320
  35 C :    0.197719
  36 N :   -0.137842
  37 C :    0.049988
  38 C :   -0.052738
  39 C :   -0.001972
  40 C :   -0.044364
  41 C :    0.047169
  42 C :    0.010753
  43 C :   -0.035029
  44 S :    0.051081
  45 C :   -0.045638
  46 C :    0.031207
  47 C :    0.024470
  48 C :   -0.025860
  49 S :    0.052700
  50 C :   -0.008350
  51 C :   -0.032085
  52 C :   -0.013002
  53 C :    0.077541
  54 Cl:   -0.081814
  55 C :   -0.085257
  56 S :    0.109505
  57 C :   -0.106826
  58 C :    0.037154
  59 Cl:   -0.081293
  60 C :    0.042923
  61 C :   -0.060801
  62 S :    0.137375
  63 H :   -0.007334
  64 H :   -0.005568
  65 H :   -0.001168
  66 H :    0.030502
  67 H :    0.140294
  68 H :    0.011703
  69 H :    0.009673
  70 H :   -0.022002
  71 H :    0.012755
  72 H :    0.048590
  73 H :    0.037232
  74 H :    0.020639
  75 H :    0.030647
  76 H :    0.125072
  77 H :    0.006749
  78 H :   -0.005128
  79 H :   -0.022489
  80 H :   -0.019368
  81 H :   -0.020328
  82 H :   -0.020230
  83 H :   -0.020385
  84 H :   -0.022987
  85 H :   -0.028641
  86 H :   -0.019350
  87 H :    0.026689
Sum of atomic charges:   -0.0000000

LOEWDIN ATOMIC CHARGES
----------------------
   0 C :    0.074744
   1 C :   -0.136350
   2 C :   -0.018231
   3 N :   -0.049767
   4 C :   -0.020131
   5 N :   -0.050178
   6 C :   -0.019728
   7 C :   -0.044367
   8 C :    0.026817
   9 C :   -0.030232
  10 C :   -0.142530
  11 C :   -0.009595
  12 S :    0.433374
  13 C :   -0.270146
  14 C :   -0.069738
  15 Br:    0.138720
  16 C :    0.087979
  17 O :   -0.132899
  18 C :   -0.069068
  19 C :    0.045711
  20 C :    0.047700
  21 O :    0.019306
  22 C :   -0.051611
  23 C :    0.090657
  24 O :   -0.147200
  25 N :   -0.001188
  26 C :    0.086136
  27 O :   -0.158482
  28 C :   -0.102193
  29 C :    0.086963
  30 C :   -0.053146
  31 C :    0.021319
  32 C :   -0.062507
  33 C :   -0.007029
  34 C :   -0.047671
  35 C :    0.050592
  36 N :    0.005870
  37 C :    0.043360
  38 C :   -0.128047
  39 C :   -0.031575
  40 C :   -0.176108
  41 C :   -0.025340
  42 C :   -0.051391
  43 C :   -0.164847
  44 S :    0.355824
  45 C :   -0.199302
  46 C :   -0.032278
  47 C :   -0.047712
  48 C :   -0.146436
  49 S :    0.361306
  50 C :   -0.091977
  51 C :   -0.166098
  52 C :   -0.086111
  53 C :   -0.168704
  54 Cl:    0.143168
  55 C :   -0.223358
  56 S :    0.435658
  57 C :   -0.209189
  58 C :   -0.183431
  59 Cl:    0.144420
  60 C :   -0.080071
  61 C :   -0.190357
  62 S :    0.442054
  63 H :    0.042586
  64 H :    0.041142
  65 H :    0.039592
  66 H :    0.051488
  67 H :    0.096018
  68 H :    0.044931
  69 H :    0.032658
  70 H :    0.026229
  71 H :    0.029557
  72 H :    0.044322
  73 H :    0.044484
  74 H :    0.031382
  75 H :    0.035216
  76 H :    0.080503
  77 H :    0.030091
  78 H :    0.015748
  79 H :    0.030023
  80 H :    0.031124
  81 H :    0.028987
  82 H :    0.029550
  83 H :    0.030074
  84 H :    0.036176
  85 H :    0.028877
  86 H :    0.030195
  87 H :    0.023686

  Mayer bond orders larger than 0.100000
B(  0-C ,  1-C ) :   1.6307 B(  0-C ,  6-C ) :   1.0123 B(  0-C , 18-C ) :   1.0817
B(  1-C ,  2-C ) :   1.1421 B(  1-C ,  4-C ) :   1.1463 B(  2-C ,  3-N ) :   2.9682
B(  4-C ,  5-N ) :   2.9685 B(  6-C ,  7-C ) :   1.2722 B(  6-C , 11-C ) :   1.4023
B(  7-C ,  8-C ) :   1.4289 B(  7-C , 16-C ) :   0.9362 B(  8-C ,  9-C ) :   1.2480
B(  8-C , 63-H ) :   1.0153 B(  9-C , 10-C ) :   1.3018 B(  9-C , 14-C ) :   1.1642
B( 10-C , 11-C ) :   1.3372 B( 10-C , 12-S ) :   1.0864 B( 11-C , 64-H ) :   0.9794
B( 12-S , 13-C ) :   1.0852 B( 13-C , 14-C ) :   1.6173 B( 13-C , 15-Br) :   1.0201
B( 14-C , 65-H ) :   1.0005 B( 16-C , 17-O ) :   2.2313 B( 16-C , 18-C ) :   0.9255
B( 18-C , 19-C ) :   1.6054 B( 19-C , 20-C ) :   1.1625 B( 19-C , 66-H ) :   0.9330
B( 20-C , 21-O ) :   1.1176 B( 20-C , 22-C ) :   1.4376 B( 21-O , 29-C ) :   1.1734
B( 22-C , 23-C ) :   0.8665 B( 22-C , 28-C ) :   1.3132 B( 23-C , 24-O ) :   2.2355
B( 23-C , 25-N ) :   1.0894 B( 25-N , 26-C ) :   1.0761 B( 25-N , 67-H ) :   0.9151
B( 26-C , 27-O ) :   2.2676 B( 26-C , 28-C ) :   0.8803 B( 28-C , 29-C ) :   1.3631
B( 29-C , 30-C ) :   1.1554 B( 30-C , 31-C ) :   1.6473 B( 30-C , 68-H ) :   0.9702
B( 31-C , 32-C ) :   1.0991 B( 31-C , 69-H ) :   0.9806 B( 32-C , 33-C ) :   1.7303
B( 32-C , 70-H ) :   0.9765 B( 33-C , 34-C ) :   1.0923 B( 33-C , 35-C ) :   1.0392
B( 34-C , 71-H ) :   0.9492 B( 34-C , 72-H ) :   0.9372 B( 34-C , 73-H ) :   0.9399
B( 35-C , 36-N ) :   1.0003 B( 35-C , 74-H ) :   0.9421 B( 35-C , 75-H ) :   0.9279
B( 36-N , 37-C ) :   1.2268 B( 36-N , 76-H ) :   0.9364 B( 37-C , 38-C ) :   1.5997
B( 37-C , 77-H ) :   0.9647 B( 38-C , 39-C ) :   1.1648 B( 38-C , 78-H ) :   0.9627
B( 39-C , 40-C ) :   1.5818 B( 39-C , 79-H ) :   0.9817 B( 40-C , 41-C ) :   1.1486
B( 40-C , 44-S ) :   1.0090 B( 41-C , 42-C ) :   1.5839 B( 41-C , 80-H ) :   0.9977
B( 42-C , 43-C ) :   1.1936 B( 42-C , 81-H ) :   0.9929 B( 43-C , 44-S ) :   1.0557
B( 43-C , 45-C ) :   1.5028 B( 45-C , 46-C ) :   1.1982 B( 45-C , 49-S ) :   1.0232
B( 46-C , 47-C ) :   1.5828 B( 46-C , 82-H ) :   0.9914 B( 47-C , 48-C ) :   1.1483
B( 47-C , 83-H ) :   0.9996 B( 48-C , 49-S ) :   1.0444 B( 48-C , 50-C ) :   1.5507
B( 50-C , 51-C ) :   1.1940 B( 50-C , 84-H ) :   0.9691 B( 51-C , 52-C ) :   1.4110
B( 51-C , 56-S ) :   1.0881 B( 52-C , 53-C ) :   1.2892 B( 52-C , 85-H ) :   1.0110
B( 53-C , 54-Cl) :   1.0115 B( 53-C , 55-C ) :   1.4553 B( 55-C , 56-S ) :   1.1119
B( 55-C , 57-C ) :   1.1870 B( 57-C , 58-C ) :   1.4880 B( 57-C , 62-S ) :   1.1375
B( 58-C , 59-Cl) :   1.0202 B( 58-C , 60-C ) :   1.2617 B( 60-C , 61-C ) :   1.5627
B( 60-C , 86-H ) :   1.0001 B( 61-C , 62-S ) :   1.1454 B( 61-C , 87-H ) :   0.9691

-----------------------------------------------------------------------------
         ABSORPTION SPECTRUM VIA TRANSITION ELECTRIC DIPOLE MOMENTS
-----------------------------------------------------------------------------
State   Energy  Wavelength   fosc         T2         TX        TY        TZ
        (cm-1)    (nm)                  (au**2)     (au)      (au)      (au)
-----------------------------------------------------------------------------
   0   10243.7    976.2   0.080856831   2.59858  -0.01305  -1.10829   1.17051
   1   14819.1    674.8   1.067773544  23.72093   0.96960  -0.18921   4.76917
   2   18633.6    536.7   0.173175361   3.05961  -0.63099  -1.51695  -0.60028
   3   19596.8    510.3   0.594993208   9.99543   1.40636  -2.83046   0.07788
   4   20430.1    489.5   0.014357528   0.23136   0.29058   0.35499   0.14457
   5   22393.9    446.5   0.057730359   0.84869  -0.86799   0.30752   0.02683
   6   23682.2    422.3   0.009469009   0.13163  -0.17833  -0.27880  -0.14866
   7   25151.8    397.6   0.175528692   2.29749  -0.61196  -1.37866   0.14933
   8   26033.3    384.1   0.082359887   1.04151   0.07180  -0.97327   0.29848
   9   27240.2    367.1   1.695727811  20.49376   3.70077   1.81357  -1.87325
  10   27953.7    357.7   0.029242611   0.34439  -0.55528  -0.08096   0.17175
  11   28079.9    356.1   0.104000232   1.21931   0.25224   1.03774   0.28067
  12   29466.8    339.4   0.011052717   0.12348   0.28378  -0.08799  -0.18764
  13   30030.7    333.0   0.027611084   0.30269   0.12102  -0.49973   0.19573
  14   30219.3    330.9   0.046177392   0.50306   0.14867  -0.66120   0.20923
  15   30341.0    329.6   0.192413911   2.08777  -0.27185   1.39238  -0.27414
  16   30629.6    326.5   0.011928449   0.12821   0.18028  -0.23895  -0.19650
  17   31519.6    317.3   0.349300810   3.64833  -0.44520  -1.69347   0.76308
  18   31636.3    316.1   0.044797152   0.46617  -0.22992  -0.57876   0.27989
  19   32338.0    309.2   0.362028690   3.68557  -0.88476  -1.68603   0.24512
  20   32437.2    308.3   0.167212880   1.69708  -0.67276  -1.07055  -0.31367
  21   33247.6    300.8   0.052506494   0.51991   0.06643  -0.16343   0.69913
  22   33430.0    299.1   0.014547742   0.14326  -0.25122  -0.28055  -0.03804
  23   33761.3    296.2   0.141089028   1.37578   1.04176   0.00078  -0.53899
  24   34432.3    290.4   0.032064679   0.30657   0.03807   0.09404  -0.54432
  25   34933.5    286.3   0.005461698   0.05147  -0.22626   0.00790  -0.01469
  26   35491.7    281.8   0.003861712   0.03582   0.14339   0.11652  -0.04104
  27   35818.5    279.2   0.001000807   0.00920  -0.07170  -0.02785  -0.05729
  28   36285.8    275.6   0.027932868   0.25343  -0.37309  -0.19166   0.27838
  29   36766.2    272.0   0.004314229   0.03863  -0.05070   0.04641   0.18414
  30   37258.0    268.4   0.042598469   0.37640   0.06461   0.15599  -0.58983
  31   37655.5    265.6   0.156321000   1.36667   1.01791  -0.50711  -0.27088
  32   37727.6    265.1   0.083252715   0.72647  -0.72799   0.43153  -0.10138
  33   38053.4    262.8   0.020528208   0.17760   0.10081   0.22909   0.33905
  34   38203.7    261.8   0.065281782   0.56255   0.72923   0.09773   0.14568
  35   38218.0    261.7   0.062444346   0.53790   0.20486   0.01838   0.70398
  36   38777.2    257.9   0.013139317   0.11155  -0.13524  -0.07336  -0.29645
  37   39281.7    254.6   0.105242629   0.88202  -0.88411   0.12182  -0.29245
  38   39357.2    254.1   0.020643679   0.17268  -0.25203   0.04253   0.32764
  39   39554.0    252.8   0.028192717   0.23465   0.18435  -0.44321   0.06506
  40   39674.6    252.1   0.014986636   0.12436   0.05134  -0.04525   0.34594
  41   39769.6    251.4   0.007527318   0.06231  -0.21156   0.03277   0.12837
  42   39870.2    250.8   0.005118988   0.04227  -0.09416   0.08330  -0.16267
  43   39969.4    250.2   0.018190947   0.14983   0.12468   0.13694  -0.33990
  44   40299.6    248.1   0.005729272   0.04680  -0.01052   0.14465  -0.16052

FINAL SINGLE POINT ENERGY     -7807.371287331077

DIPOLE MOMENT
-------------
                                X             Y             Z
Electronic contribution:    -15.75900    -178.65781      25.33146
Nuclear contribution   :     14.60610     178.94432     -23.47792
                        -----------------------------------------
Total Dipole Moment    :     -1.15290       0.28651       1.85354
                        -----------------------------------------
Magnitude (a.u.)       :      2.20156
Magnitude (Debye)      :      5.59593

Rotational constants in cm-1:     0.001105     0.000219     0.000209
Rotational constants in MHz :    33.129770     6.568959     6.256267

                             ****ORCA TERMINATED NORMALLY****
TOTAL RUN TIME: 0 days 0 hours 7 minutes 32 seconds 675 msec
