                         Program Version 4.2.0 -  RELEASE  -
|  1> # ORCA input file
|  2> # SCF done       -204.912680446857          0.000512725299
|  3> ! CAM-B3LYP def2-SVP def2/J RIJCOSX Grid4 TightSCF
|  4> %maxcore 5000
|  5> %tddft
|  6>     Mode sTDDFT
|  7>     Ethresh 5.0
|  8>     maxcore 5000
|  9> end
| 10>
| 11> %pal
| 12>   nprocs 6
| 13>   end
| 14> * xyz 0 1
| 15>    C       -4.85512        -0.66644         1.30028
| 16>    C       -3.71370        -1.40803         1.45957
| 17>    C       -3.55930        -2.42834         2.42160
| 18>    N       -3.37232        -3.26408         3.18564
| 19>    C       -2.54930        -1.27248         0.67430
| 20>    N       -1.57353        -1.22868         0.07090
| 21>    C       -6.09787        -0.83975         2.03934
| 22>    C       -7.07584         0.03522         1.50419
| 23>    C       -8.35896         0.09743         1.99138
| 24>    C       -8.69595        -0.74837         3.05302
| 25>    C       -7.71088        -1.61632         3.58443
| 26>    C       -6.41244        -1.67608         3.09515
| 27>    S       -8.33689        -2.56667         4.89652
| 28>    C       -9.89249        -1.79997         4.71494
| 29>    C       -9.94244        -0.87804         3.72385
| 30>   Br      -11.30050        -2.28583         5.85270
| 31>    C       -6.48897         0.82730         0.40840
| 32>    O       -7.00923         1.74781        -0.17733
| 33>    C       -5.07443         0.36059         0.29950
| 34>    C       -4.13300         0.95044        -0.48533
| 35>    C       -4.43313         1.77081        -1.60318
| 36>    O       -3.52208         2.69268        -2.02296
| 37>    C       -5.48377         1.76814        -2.49960
| 38>    C       -6.72512         1.07113        -2.87508
| 39>    O       -7.27812         0.11896        -2.39543
| 40>    N       -7.13326         1.74084        -4.02516
| 41>    C       -6.27744         2.74502        -4.46743
| 42>    O       -6.44693         3.41340        -5.45539
| 43>    C       -5.19485         2.74201        -3.48167
| 44>    C       -3.97193         3.30356        -3.14507
| 45>    C       -3.17387         4.32089        -3.73599
| 46>    C       -3.50299         4.95954        -4.87916
| 47>    C       -2.69183         6.03057        -5.41520
| 48>    C       -2.16198         6.96139        -4.56403
| 49>    S       -1.28760         8.21998        -5.32741
| 50>    C       -1.56127         7.47036        -6.87078
| 51>    C       -2.33906         6.30535        -6.79032
| 52>    C       -2.59564         5.57064        -7.97280
| 53>    C       -3.46938         4.34982        -7.88113
| 54>    C       -4.94569         4.73860        -7.99929
| 55>    C       -2.08816         6.00276        -9.19024
| 56>    C       -2.36925         5.23446       -10.45558
| 57>    C       -1.33919         4.12438       -10.68255
| 58>    C       -1.29669         7.17435        -9.26059
| 59>    C       -0.67857         7.82908       -10.38810
| 60>    C       -0.06817         8.99193       -10.03248
| 61>    S       -0.15261         9.36142        -8.35581
| 62>    C       -1.06953         7.91287        -8.08731
| 63>    C       -0.59633         7.36076       -11.76785
| 64>    C       -0.80362         8.14709       -12.81879
| 65>    C       -0.61055         7.70896       -14.24457
| 66>    C        0.73367         8.25443       -14.75166
| 67>    O        1.10082         9.38669       -14.78215
| 68>    O        1.51556         7.21746       -15.15859
| 69>    C        0.83417         6.04308       -15.00216
| 70>    C       -0.43787         6.24263       -14.46081
| 71>    C       -1.29165         5.18199       -14.22446
| 72>    C       -0.80846         3.93482       -14.57264
| 73>    C        0.45313         3.73821       -15.13369
| 74>    C        1.31317         4.79592       -15.36039
| 75>    C        0.53832         2.30182       -15.54904
| 76>    C       -0.78242         1.74116       -14.97085
| 77>    O       -1.15043         0.60829       -14.99561
| 78>    O       -1.50668         2.75366       -14.45354
| 79>    C        0.45325         2.22643       -17.03968
| 80>    S        0.92454         0.85589       -17.99570
| 81>    C        0.44366         1.57760       -19.47622
| 82>    C       -0.07811         2.82777       -19.26051
| 83>    C       -0.07298         3.17318       -17.86771
| 84>    O       -0.58382         4.41104       -17.67453
| 85>    C       -0.90739         4.85750       -18.92092
| 86>    N       -1.45483         6.16222       -18.99263
| 87>    O       -1.76510         6.56810       -20.09369
| 88>    O       -1.56808         6.77581       -17.95122
| 89>    C       -0.63550         3.96316       -19.91813
| 90>    H       -9.08107         0.77315         1.56118
| 91>    H       -5.69634        -2.34860         3.53716
| 92>    H      -10.82111        -0.31148         3.47528
| 93>    H       -3.07867         0.81163        -0.28392
| 94>    H       -7.98019         1.49752        -4.51926
| 95>    H       -2.24804         4.53878        -3.22253
| 96>    H       -4.42514         4.70239        -5.37926
| 97>    H       -2.30377         7.00232        -3.50145
| 98>    H       -3.28992         3.85716        -6.92451
| 99>    H       -3.22302         3.63003        -8.65896
|100>    H       -5.18666         5.55325        -7.32104
|101>    H       -5.58375         3.89412        -7.75514
|102>    H       -5.17526         5.07090        -9.00927
|103>    H       -2.35674         5.92691       -11.29731
|104>    H       -3.36478         4.79492       -10.41704
|105>    H       -0.33033         4.52992       -10.71983
|106>    H       -1.54282         3.60466       -11.61621
|107>    H       -1.36928         3.39961        -9.87248
|108>    H        0.47675         9.64925       -10.68188
|109>    H       -0.29881         6.33231       -11.91469
|110>    H       -1.09262         9.17975       -12.69304
|111>    H       -1.40831         8.12101       -14.87161
|112>    H       -2.27990         5.31507       -13.81876
|113>    H        2.28518         4.66754       -15.80584
|114>    H        1.39301         1.73895       -15.17025
|115>    H        0.57063         1.04621       -20.39664
|116>    H       -0.81071         4.11153       -20.96356
|117> *
|118>
|119>                          ****END OF INPUT****

CARTESIAN COORDINATES (ANGSTROEM)
---------------------------------
  C     -4.855120   -0.666440    1.300280
  C     -3.713700   -1.408030    1.459570
  C     -3.559300   -2.428340    2.421600
  N     -3.372320   -3.264080    3.185640
  C     -2.549300   -1.272480    0.674300
  N     -1.573530   -1.228680    0.070900
  C     -6.097870   -0.839750    2.039340
  C     -7.075840    0.035220    1.504190
  C     -8.358960    0.097430    1.991380
  C     -8.695950   -0.748370    3.053020
  C     -7.710880   -1.616320    3.584430
  C     -6.412440   -1.676080    3.095150
  S     -8.336890   -2.566670    4.896520
  C     -9.892490   -1.799970    4.714940
  C     -9.942440   -0.878040    3.723850
  Br   -11.300500   -2.285830    5.852700
  C     -6.488970    0.827300    0.408400
  O     -7.009230    1.747810   -0.177330
  C     -5.074430    0.360590    0.299500
  C     -4.133000    0.950440   -0.485330
  C     -4.433130    1.770810   -1.603180
  O     -3.522080    2.692680   -2.022960
  C     -5.483770    1.768140   -2.499600
  C     -6.725120    1.071130   -2.875080
  O     -7.278120    0.118960   -2.395430
  N     -7.133260    1.740840   -4.025160
  C     -6.277440    2.745020   -4.467430
  O     -6.446930    3.413400   -5.455390
  C     -5.194850    2.742010   -3.481670
  C     -3.971930    3.303560   -3.145070
  C     -3.173870    4.320890   -3.735990
  C     -3.502990    4.959540   -4.879160
  C     -2.691830    6.030570   -5.415200
  C     -2.161980    6.961390   -4.564030
  S     -1.287600    8.219980   -5.327410
  C     -1.561270    7.470360   -6.870780
  C     -2.339060    6.305350   -6.790320
  C     -2.595640    5.570640   -7.972800
  C     -3.469380    4.349820   -7.881130
  C     -4.945690    4.738600   -7.999290
  C     -2.088160    6.002760   -9.190240
  C     -2.369250    5.234460  -10.455580
  C     -1.339190    4.124380  -10.682550
  C     -1.296690    7.174350   -9.260590
  C     -0.678570    7.829080  -10.388100
  C     -0.068170    8.991930  -10.032480
  S     -0.152610    9.361420   -8.355810
  C     -1.069530    7.912870   -8.087310
  C     -0.596330    7.360760  -11.767850
  C     -0.803620    8.147090  -12.818790
  C     -0.610550    7.708960  -14.244570
  C      0.733670    8.254430  -14.751660
  O      1.100820    9.386690  -14.782150
  O      1.515560    7.217460  -15.158590
  C      0.834170    6.043080  -15.002160
  C     -0.437870    6.242630  -14.460810
  C     -1.291650    5.181990  -14.224460
  C     -0.808460    3.934820  -14.572640
  C      0.453130    3.738210  -15.133690
  C      1.313170    4.795920  -15.360390
  C      0.538320    2.301820  -15.549040
  C     -0.782420    1.741160  -14.970850
  O     -1.150430    0.608290  -14.995610
  O     -1.506680    2.753660  -14.453540
  C      0.453250    2.226430  -17.039680
  S      0.924540    0.855890  -17.995700
  C      0.443660    1.577600  -19.476220
  C     -0.078110    2.827770  -19.260510
  C     -0.072980    3.173180  -17.867710
  O     -0.583820    4.411040  -17.674530
  C     -0.907390    4.857500  -18.920920
  N     -1.454830    6.162220  -18.992630
  O     -1.765100    6.568100  -20.093690
  O     -1.568080    6.775810  -17.951220
  C     -0.635500    3.963160  -19.918130
  H     -9.081070    0.773150    1.561180
  H     -5.696340   -2.348600    3.537160
  H    -10.821110   -0.311480    3.475280
  H     -3.078670    0.811630   -0.283920
  H     -7.980190    1.497520   -4.519260
  H     -2.248040    4.538780   -3.222530
  H     -4.425140    4.702390   -5.379260
  H     -2.303770    7.002320   -3.501450
  H     -3.289920    3.857160   -6.924510
  H     -3.223020    3.630030   -8.658960
  H     -5.186660    5.553250   -7.321040
  H     -5.583750    3.894120   -7.755140
  H     -5.175260    5.070900   -9.009270
  H     -2.356740    5.926910  -11.297310
  H     -3.364780    4.794920  -10.417040
  H     -0.330330    4.529920  -10.719830
  H     -1.542820    3.604660  -11.616210
  H     -1.369280    3.399610   -9.872480
  H      0.476750    9.649250  -10.681880
  H     -0.298810    6.332310  -11.914690
  H     -1.092620    9.179750  -12.693040
  H     -1.408310    8.121010  -14.871610
  H     -2.279900    5.315070  -13.818760
  H      2.285180    4.667540  -15.805840
  H      1.393010    1.738950  -15.170250
  H      0.570630    1.046210  -20.396640
  H     -0.810710    4.111530  -20.963560

 Total Charge           Charge          ....    0
 Multiplicity           Mult            ....    1
 Number of Electrons    NEL             ....  572
 Basis Dimension        Dim             .... 1219

ORBITAL ENERGIES
----------------

  NO   OCC          E(Eh)            E(eV)
   0   2.0000    -482.886851    -13140.0193
   1   2.0000     -88.988751     -2421.5070
   2   2.0000     -88.976983     -2421.1868
   3   2.0000     -88.957771     -2420.6640
   4   2.0000     -88.951307     -2420.4881
   5   2.0000     -62.564594     -1702.4691
   6   2.0000     -56.398546     -1534.6825
   7   2.0000     -56.395823     -1534.6084
   8   2.0000     -56.395793     -1534.6076
   9   2.0000     -19.318952      -525.6954
  10   2.0000     -19.316963      -525.6413
  11   2.0000     -19.292558      -524.9772
  12   2.0000     -19.281463      -524.6753
  13   2.0000     -19.254847      -523.9510
  14   2.0000     -19.253929      -523.9261
  15   2.0000     -19.222519      -523.0713
  16   2.0000     -19.220436      -523.0146
  17   2.0000     -19.218686      -522.9670
  18   2.0000     -19.217203      -522.9267
  19   2.0000     -19.212470      -522.7979
  20   2.0000     -14.666530      -399.0966
  21   2.0000     -14.460439      -393.4886
  22   2.0000     -14.418670      -392.3520
  23   2.0000     -14.418298      -392.3418
  24   2.0000     -10.420199      -283.5480
  25   2.0000     -10.408867      -283.2397
  26   2.0000     -10.408270      -283.2234
  27   2.0000     -10.405066      -283.1363
  28   2.0000     -10.397735      -282.9368
  29   2.0000     -10.374602      -282.3073
  30   2.0000     -10.370789      -282.2035
  31   2.0000     -10.363675      -282.0099
  32   2.0000     -10.360454      -281.9223
  33   2.0000     -10.357494      -281.8417
  34   2.0000     -10.350132      -281.6414
  35   2.0000     -10.346987      -281.5558
  36   2.0000     -10.346715      -281.5484
  37   2.0000     -10.344642      -281.4920
  38   2.0000     -10.330416      -281.1049
  39   2.0000     -10.329221      -281.0724
  40   2.0000     -10.327673      -281.0303
  41   2.0000     -10.326366      -280.9947
  42   2.0000     -10.324721      -280.9499
  43   2.0000     -10.324248      -280.9371
  44   2.0000     -10.321085      -280.8510
  45   2.0000     -10.320751      -280.8419
  46   2.0000     -10.310715      -280.5688
  47   2.0000     -10.309791      -280.5437
  48   2.0000     -10.309627      -280.5392
  49   2.0000     -10.308136      -280.4986
  50   2.0000     -10.307690      -280.4865
  51   2.0000     -10.305230      -280.4196
  52   2.0000     -10.305113      -280.4164
  53   2.0000     -10.303520      -280.3730
  54   2.0000     -10.303171      -280.3635
  55   2.0000     -10.302545      -280.3465
  56   2.0000     -10.302230      -280.3379
  57   2.0000     -10.301257      -280.3115
  58   2.0000     -10.299415      -280.2613
  59   2.0000     -10.299271      -280.2574
  60   2.0000     -10.298929      -280.2481
  61   2.0000     -10.298614      -280.2395
  62   2.0000     -10.298074      -280.2249
  63   2.0000     -10.295653      -280.1590
  64   2.0000     -10.294521      -280.1282
  65   2.0000     -10.293956      -280.1128
  66   2.0000     -10.293888      -280.1109
  67   2.0000     -10.290189      -280.0103
  68   2.0000     -10.284434      -279.8537
  69   2.0000     -10.282071      -279.7894
  70   2.0000     -10.282013      -279.7878
  71   2.0000     -10.281828      -279.7828
  72   2.0000     -10.279500      -279.7194
  73   2.0000     -10.275004      -279.5971
  74   2.0000     -10.274395      -279.5805
  75   2.0000     -10.265728      -279.3447
  76   2.0000     -10.262359      -279.2530
  77   2.0000     -10.258664      -279.1524
  78   2.0000     -10.247547      -278.8499
  79   2.0000      -8.794043      -239.2981
  80   2.0000      -8.083718      -219.9692
  81   2.0000      -8.073063      -219.6792
  82   2.0000      -8.053991      -219.1602
  83   2.0000      -8.047568      -218.9855
  84   2.0000      -6.630374      -180.4216
  85   2.0000      -6.615766      -180.0242
  86   2.0000      -6.615559      -180.0185
  87   2.0000      -6.052984      -164.7101
  88   2.0000      -6.048541      -164.5892
  89   2.0000      -6.046276      -164.5275
  90   2.0000      -6.042760      -164.4319
  91   2.0000      -6.038469      -164.3151
  92   2.0000      -6.034251      -164.2003
  93   2.0000      -6.023451      -163.9064
  94   2.0000      -6.019208      -163.7910
  95   2.0000      -6.017084      -163.7332
  96   2.0000      -6.015741      -163.6966
  97   2.0000      -6.012852      -163.6180
  98   2.0000      -6.009194      -163.5185
  99   2.0000      -2.746202       -74.7280
 100   2.0000      -2.742173       -74.6183
 101   2.0000      -2.741991       -74.6134
 102   2.0000      -2.730389       -74.2977
 103   2.0000      -2.730374       -74.2973
 104   2.0000      -1.338131       -36.4124
 105   2.0000      -1.237958       -33.6865
 106   2.0000      -1.235794       -33.6277
 107   2.0000      -1.228009       -33.4158
 108   2.0000      -1.217399       -33.1271
 109   2.0000      -1.163275       -31.6543
 110   2.0000      -1.154810       -31.4240
 111   2.0000      -1.143711       -31.1220
 112   2.0000      -1.133931       -30.8558
 113   2.0000      -1.133555       -30.8456
 114   2.0000      -1.124155       -30.5898
 115   2.0000      -1.049735       -28.5647
 116   2.0000      -1.025371       -27.9018
 117   2.0000      -1.015853       -27.6428
 118   2.0000      -1.012430       -27.5496
 119   2.0000      -1.004916       -27.3452
 120   2.0000      -0.997015       -27.1302
 121   2.0000      -0.992623       -27.0106
 122   2.0000      -0.980337       -26.6763
 123   2.0000      -0.975585       -26.5470
 124   2.0000      -0.949598       -25.8399
 125   2.0000      -0.949043       -25.8248
 126   2.0000      -0.935460       -25.4552
 127   2.0000      -0.933418       -25.3996
 128   2.0000      -0.931018       -25.3343
 129   2.0000      -0.926845       -25.2207
 130   2.0000      -0.913314       -24.8525
 131   2.0000      -0.910846       -24.7854
 132   2.0000      -0.905699       -24.6453
 133   2.0000      -0.896042       -24.3825
 134   2.0000      -0.887859       -24.1599
 135   2.0000      -0.882888       -24.0246
 136   2.0000      -0.876449       -23.8494
 137   2.0000      -0.864496       -23.5241
 138   2.0000      -0.861610       -23.4456
 139   2.0000      -0.853427       -23.2229
 140   2.0000      -0.845374       -23.0038
 141   2.0000      -0.832724       -22.6596
 142   2.0000      -0.831142       -22.6165
 143   2.0000      -0.819416       -22.2974
 144   2.0000      -0.816655       -22.2223
 145   2.0000      -0.805479       -21.9182
 146   2.0000      -0.792338       -21.5606
 147   2.0000      -0.788257       -21.4496
 148   2.0000      -0.779278       -21.2052
 149   2.0000      -0.775990       -21.1157
 150   2.0000      -0.769479       -20.9386
 151   2.0000      -0.766275       -20.8514
 152   2.0000      -0.759145       -20.6574
 153   2.0000      -0.750121       -20.4118
 154   2.0000      -0.728648       -19.8275
 155   2.0000      -0.723508       -19.6877
 156   2.0000      -0.721483       -19.6326
 157   2.0000      -0.716977       -19.5099
 158   2.0000      -0.710687       -19.3388
 159   2.0000      -0.710074       -19.3221
 160   2.0000      -0.701506       -19.0889
 161   2.0000      -0.694369       -18.8947
 162   2.0000      -0.692877       -18.8541
 163   2.0000      -0.689691       -18.7675
 164   2.0000      -0.683958       -18.6115
 165   2.0000      -0.673175       -18.3180
 166   2.0000      -0.668250       -18.1840
 167   2.0000      -0.659445       -17.9444
 168   2.0000      -0.658533       -17.9196
 169   2.0000      -0.651632       -17.7318
 170   2.0000      -0.651225       -17.7207
 171   2.0000      -0.647811       -17.6278
 172   2.0000      -0.640313       -17.4238
 173   2.0000      -0.634405       -17.2630
 174   2.0000      -0.632412       -17.2088
 175   2.0000      -0.629601       -17.1323
 176   2.0000      -0.624552       -16.9949
 177   2.0000      -0.613522       -16.6948
 178   2.0000      -0.613052       -16.6820
 179   2.0000      -0.608342       -16.5538
 180   2.0000      -0.605168       -16.4675
 181   2.0000      -0.601782       -16.3753
 182   2.0000      -0.599170       -16.3043
 183   2.0000      -0.596764       -16.2388
 184   2.0000      -0.596538       -16.2326
 185   2.0000      -0.594358       -16.1733
 186   2.0000      -0.588386       -16.0108
 187   2.0000      -0.585192       -15.9239
 188   2.0000      -0.577501       -15.7146
 189   2.0000      -0.576660       -15.6917
 190   2.0000      -0.571752       -15.5582
 191   2.0000      -0.569237       -15.4897
 192   2.0000      -0.568331       -15.4651
 193   2.0000      -0.557575       -15.1724
 194   2.0000      -0.555305       -15.1106
 195   2.0000      -0.551657       -15.0113
 196   2.0000      -0.550578       -14.9820
 197   2.0000      -0.549453       -14.9514
 198   2.0000      -0.544734       -14.8230
 199   2.0000      -0.543747       -14.7961
 200   2.0000      -0.540177       -14.6990
 201   2.0000      -0.539298       -14.6751
 202   2.0000      -0.537952       -14.6384
 203   2.0000      -0.530650       -14.4397
 204   2.0000      -0.529783       -14.4161
 205   2.0000      -0.529406       -14.4059
 206   2.0000      -0.526958       -14.3392
 207   2.0000      -0.524776       -14.2799
 208   2.0000      -0.522212       -14.2101
 209   2.0000      -0.520970       -14.1763
 210   2.0000      -0.517838       -14.0911
 211   2.0000      -0.515742       -14.0340
 212   2.0000      -0.514066       -13.9884
 213   2.0000      -0.511471       -13.9178
 214   2.0000      -0.511215       -13.9109
 215   2.0000      -0.508492       -13.8368
 216   2.0000      -0.505797       -13.7634
 217   2.0000      -0.501082       -13.6351
 218   2.0000      -0.497191       -13.5293
 219   2.0000      -0.495740       -13.4898
 220   2.0000      -0.492462       -13.4006
 221   2.0000      -0.488799       -13.3009
 222   2.0000      -0.486403       -13.2357
 223   2.0000      -0.484591       -13.1864
 224   2.0000      -0.483086       -13.1454
 225   2.0000      -0.481705       -13.1079
 226   2.0000      -0.481141       -13.0925
 227   2.0000      -0.477204       -12.9854
 228   2.0000      -0.475666       -12.9435
 229   2.0000      -0.474792       -12.9198
 230   2.0000      -0.468803       -12.7568
 231   2.0000      -0.465174       -12.6580
 232   2.0000      -0.463363       -12.6087
 233   2.0000      -0.460137       -12.5210
 234   2.0000      -0.458214       -12.4686
 235   2.0000      -0.456117       -12.4116
 236   2.0000      -0.452322       -12.3083
 237   2.0000      -0.451414       -12.2836
 238   2.0000      -0.448619       -12.2076
 239   2.0000      -0.448431       -12.2024
 240   2.0000      -0.446479       -12.1493
 241   2.0000      -0.445215       -12.1149
 242   2.0000      -0.443664       -12.0727
 243   2.0000      -0.442711       -12.0468
 244   2.0000      -0.441194       -12.0055
 245   2.0000      -0.435922       -11.8620
 246   2.0000      -0.431981       -11.7548
 247   2.0000      -0.430340       -11.7101
 248   2.0000      -0.428752       -11.6669
 249   2.0000      -0.427757       -11.6399
 250   2.0000      -0.422903       -11.5078
 251   2.0000      -0.421988       -11.4829
 252   2.0000      -0.417934       -11.3726
 253   2.0000      -0.413110       -11.2413
 254   2.0000      -0.410990       -11.1836
 255   2.0000      -0.406299       -11.0559
 256   2.0000      -0.401751       -10.9322
 257   2.0000      -0.400790       -10.9061
 258   2.0000      -0.396934       -10.8011
 259   2.0000      -0.391349       -10.6492
 260   2.0000      -0.390961       -10.6386
 261   2.0000      -0.387799       -10.5525
 262   2.0000      -0.386398       -10.5144
 263   2.0000      -0.382980       -10.4214
 264   2.0000      -0.380677       -10.3588
 265   2.0000      -0.377103       -10.2615
 266   2.0000      -0.376215       -10.2373
 267   2.0000      -0.374629       -10.1942
 268   2.0000      -0.373861       -10.1733
 269   2.0000      -0.370335       -10.0773
 270   2.0000      -0.365926        -9.9574
 271   2.0000      -0.357480        -9.7275
 272   2.0000      -0.352698        -9.5974
 273   2.0000      -0.347838        -9.4651
 274   2.0000      -0.342803        -9.3281
 275   2.0000      -0.340477        -9.2649
 276   2.0000      -0.332936        -9.0596
 277   2.0000      -0.328538        -8.9400
 278   2.0000      -0.319241        -8.6870
 279   2.0000      -0.316721        -8.6184
 280   2.0000      -0.303597        -8.2613
 281   2.0000      -0.298423        -8.1205
 282   2.0000      -0.296326        -8.0634
 283   2.0000      -0.288412        -7.8481
 284   2.0000      -0.267045        -7.2667
 285   2.0000      -0.261428        -7.1138
 286   0.0000      -0.100715        -2.7406
 287   0.0000      -0.074727        -2.0334
 288   0.0000      -0.064463        -1.7541
 289   0.0000      -0.050773        -1.3816
 290   0.0000      -0.018216        -0.4957

MULLIKEN ATOMIC CHARGES
-----------------------
   0 C :    0.299154
   1 C :   -0.337960
   2 C :   -0.184208
   3 N :    0.153493
   4 C :   -0.200404
   5 N :    0.163239
   6 C :    0.020332
   7 C :   -0.019716
   8 C :   -0.063811
   9 C :    0.117096
  10 C :   -0.088690
  11 C :   -0.022051
  12 S :    0.187822
  13 C :   -0.122641
  14 C :    0.039245
  15 Br:    0.026160
  16 C :    0.165782
  17 O :   -0.144881
  18 C :   -0.076547
  19 C :   -0.038612
  20 C :    0.109069
  21 O :   -0.191529
  22 C :   -0.009110
  23 C :    0.183109
  24 O :   -0.135890
  25 N :   -0.158157
  26 C :    0.190436
  27 O :   -0.151598
  28 C :   -0.094992
  29 C :    0.138792
  30 C :   -0.024190
  31 C :   -0.015175
  32 C :    0.051646
  33 C :   -0.111761
  34 S :    0.140397
  35 C :   -0.149826
  36 C :    0.121758
  37 C :   -0.123281
  38 C :    0.020338
  39 C :    0.050890
  40 C :   -0.120733
  41 C :    0.017622
  42 C :    0.037583
  43 C :    0.116147
  44 C :    0.060836
  45 C :   -0.112210
  46 S :    0.124875
  47 C :   -0.145941
  48 C :    0.000346
  49 C :   -0.063122
  50 C :    0.038819
  51 C :    0.201258
  52 O :   -0.134039
  53 O :   -0.212895
  54 C :    0.219375
  55 C :   -0.042671
  56 C :   -0.110635
  57 C :    0.233784
  58 C :   -0.041222
  59 C :   -0.105169
  60 C :    0.056701
  61 C :    0.218809
  62 O :   -0.132023
  63 O :   -0.213688
  64 C :   -0.307348
  65 S :    0.189878
  66 C :   -0.150286
  67 C :    0.151978
  68 C :    0.224714
  69 O :   -0.194382
  70 C :    0.258617
  71 N :    0.270652
  72 O :   -0.238725
  73 O :   -0.237477
  74 C :   -0.086092
  75 H :   -0.008628
  76 H :   -0.005826
  77 H :   -0.002151
  78 H :    0.038749
  79 H :    0.140445
  80 H :   -0.004798
  81 H :    0.040751
  82 H :    0.025654
  83 H :    0.004054
  84 H :   -0.001674
  85 H :    0.015840
  86 H :    0.029598
  87 H :   -0.000293
  88 H :    0.005529
  89 H :    0.001862
  90 H :    0.013650
  91 H :    0.020631
  92 H :    0.010098
  93 H :    0.028291
  94 H :    0.024789
  95 H :    0.011104
  96 H :    0.066602
  97 H :   -0.012652
  98 H :   -0.019700
  99 H :    0.037618
 100 H :    0.036853
 101 H :    0.016546
Sum of atomic charges:   -0.0000000

LOEWDIN ATOMIC CHARGES
----------------------
   0 C :    0.073539
   1 C :   -0.133793
   2 C :   -0.018140
   3 N :   -0.049020
   4 C :   -0.022952
   5 N :   -0.047073
   6 C :   -0.019818
   7 C :   -0.046017
   8 C :    0.025756
   9 C :   -0.030850
  10 C :   -0.142719
  11 C :   -0.009538
  12 S :    0.434017
  13 C :   -0.270872
  14 C :   -0.069556
  15 Br:    0.138949
  16 C :    0.088859
  17 O :   -0.130905
  18 C :   -0.070979
  19 C :    0.047445
  20 C :    0.041333
  21 O :    0.025776
  22 C :   -0.048251
  23 C :    0.090379
  24 O :   -0.143668
  25 N :    0.001448
  26 C :    0.092026
  27 O :   -0.157524
  28 C :   -0.110526
  29 C :    0.090598
  30 C :   -0.058704
  31 C :    0.037404
  32 C :   -0.066187
  33 C :   -0.159922
  34 S :    0.425687
  35 C :   -0.177118
  36 C :   -0.041226
  37 C :   -0.017574
  38 C :   -0.031878
  39 C :   -0.049125
  40 C :   -0.019113
  41 C :   -0.032168
  42 C :   -0.050948
  43 C :   -0.040733
  44 C :   -0.063573
  45 C :   -0.161424
  46 S :    0.412040
  47 C :   -0.179039
  48 C :   -0.019657
  49 C :   -0.013285
  50 C :   -0.048212
  51 C :    0.108815
  52 O :   -0.129569
  53 O :   -0.042412
  54 C :    0.050986
  55 C :   -0.027493
  56 C :   -0.020938
  57 C :    0.046307
  58 C :   -0.046714
  59 C :   -0.024291
  60 C :   -0.048242
  61 C :    0.097476
  62 O :   -0.128223
  63 O :   -0.037061
  64 C :   -0.213831
  65 S :    0.499887
  66 C :   -0.180593
  67 C :   -0.080375
  68 C :    0.017159
  69 O :   -0.002082
  70 C :    0.028779
  71 N :    0.273221
  72 O :   -0.200259
  73 O :   -0.201009
  74 C :   -0.006355
  75 H :    0.042118
  76 H :    0.041205
  77 H :    0.039393
  78 H :    0.052908
  79 H :    0.096583
  80 H :    0.038709
  81 H :    0.039069
  82 H :    0.024883
  83 H :    0.027727
  84 H :    0.025682
  85 H :    0.022843
  86 H :    0.026752
  87 H :    0.020615
  88 H :    0.025610
  89 H :    0.027691
  90 H :    0.021046
  91 H :    0.023744
  92 H :    0.024690
  93 H :    0.026960
  94 H :    0.029732
  95 H :    0.032100
  96 H :    0.065520
  97 H :    0.042043
  98 H :    0.040676
  99 H :    0.055139
 100 H :    0.031263
 101 H :    0.048947

  Mayer bond orders larger than 0.100000
B(  0-C ,  1-C ) :   1.6465 B(  0-C ,  6-C ) :   1.0115 B(  0-C , 18-C ) :   1.0699
B(  1-C ,  2-C ) :   1.1375 B(  1-C ,  4-C ) :   1.1427 B(  2-C ,  3-N ) :   2.9731
B(  4-C ,  5-N ) :   2.9896 B(  6-C ,  7-C ) :   1.2729 B(  6-C , 11-C ) :   1.4018
B(  7-C ,  8-C ) :   1.4259 B(  7-C , 16-C ) :   0.9434 B(  8-C ,  9-C ) :   1.2461
B(  8-C , 75-H ) :   1.0162 B(  9-C , 10-C ) :   1.3013 B(  9-C , 14-C ) :   1.1647
B( 10-C , 11-C ) :   1.3361 B( 10-C , 12-S ) :   1.0870 B( 11-C , 76-H ) :   0.9803
B( 12-S , 13-C ) :   1.0858 B( 13-C , 14-C ) :   1.6170 B( 13-C , 15-Br) :   1.0198
B( 14-C , 77-H ) :   1.0003 B( 16-C , 17-O ) :   2.2189 B( 16-C , 18-C ) :   0.9295
B( 18-C , 19-C ) :   1.6100 B( 19-C , 20-C ) :   1.1630 B( 19-C , 78-H ) :   0.9383
B( 20-C , 21-O ) :   1.1159 B( 20-C , 22-C ) :   1.4417 B( 21-O , 29-C ) :   1.1737
B( 22-C , 23-C ) :   0.8633 B( 22-C , 28-C ) :   1.3194 B( 23-C , 24-O ) :   2.2482
B( 23-C , 25-N ) :   1.0828 B( 25-N , 26-C ) :   1.0994 B( 25-N , 79-H ) :   0.9155
B( 26-C , 27-O ) :   2.1624 B( 26-C , 28-C ) :   0.8879 B( 28-C , 29-C ) :   1.3787
B( 29-C , 30-C ) :   1.1501 B( 30-C , 31-C ) :   1.6954 B( 30-C , 80-H ) :   0.9655
B( 31-C , 32-C ) :   1.0289 B( 31-C , 81-H ) :   0.9349 B( 32-C , 33-C ) :   1.5952
B( 32-C , 36-C ) :   1.1462 B( 33-C , 34-S ) :   1.1340 B( 33-C , 82-H ) :   0.9641
B( 34-S , 35-C ) :   1.0727 B( 35-C , 36-C ) :   1.3743 B( 35-C , 47-C ) :   1.3811
B( 36-C , 37-C ) :   1.2653 B( 37-C , 38-C ) :   1.0651 B( 37-C , 40-C ) :   1.5148
B( 38-C , 39-C ) :   1.1129 B( 38-C , 83-H ) :   0.9155 B( 38-C , 84-H ) :   0.9064
B( 39-C , 85-H ) :   0.9596 B( 39-C , 86-H ) :   0.9602 B( 39-C , 87-H ) :   0.9553
B( 40-C , 41-C ) :   1.0601 B( 40-C , 43-C ) :   1.2605 B( 41-C , 42-C ) :   1.1111
B( 41-C , 88-H ) :   0.9161 B( 41-C , 89-H ) :   0.9073 B( 42-C , 90-H ) :   0.9558
B( 42-C , 91-H ) :   0.9650 B( 42-C , 92-H ) :   0.9552 B( 43-C , 44-C ) :   1.1615
B( 43-C , 47-C ) :   1.3677 B( 44-C , 45-C ) :   1.6374 B( 44-C , 48-C ) :   0.9861
B( 45-C , 46-S ) :   1.1120 B( 45-C , 93-H ) :   0.9642 B( 46-S , 47-C ) :   1.0788
B( 48-C , 49-C ) :   1.8985 B( 48-C , 94-H ) :   0.9273 B( 49-C , 50-C ) :   0.9936
B( 49-C , 95-H ) :   0.9830 B( 50-C , 51-C ) :   0.9211 B( 50-C , 55-C ) :   0.9503
B( 50-C , 96-H ) :   0.8573 B( 51-C , 52-O ) :   2.2746 B( 51-C , 53-O ) :   1.0745
B( 53-O , 54-C ) :   1.0609 B( 54-C , 55-C ) :   1.3788 B( 54-C , 59-C ) :   1.3657
B( 55-C , 56-C ) :   1.3494 B( 56-C , 57-C ) :   1.3632 B( 56-C , 59-C ) :   0.1283
B( 56-C , 97-H ) :   1.0282 B( 57-C , 58-C ) :   1.3753 B( 57-C , 63-O ) :   1.0164
B( 58-C , 59-C ) :   1.3410 B( 58-C , 60-C ) :   0.9704 B( 59-C , 98-H ) :   1.0293
B( 60-C , 61-C ) :   0.9122 B( 60-C , 64-C ) :   1.0100 B( 60-C , 99-H ) :   0.8609
B( 61-C , 62-O ) :   2.2756 B( 61-C , 63-O ) :   1.0992 B( 64-C , 65-S ) :   1.1457
B( 64-C , 66-C ) :   0.1127 B( 64-C , 68-C ) :   1.5369 B( 65-S , 66-C ) :   1.2123
B( 66-C , 67-C ) :   1.4432 B( 66-C ,100-H ) :   0.9748 B( 67-C , 68-C ) :   1.2180
B( 67-C , 74-C ) :   1.0463 B( 68-C , 69-O ) :   1.0849 B( 69-O , 70-C ) :   1.1151
B( 70-C , 71-N ) :   0.9109 B( 70-C , 74-C ) :   1.5859 B( 71-N , 72-O ) :   1.5422
B( 71-N , 73-O ) :   1.5112 B( 72-O , 73-O ) :   0.2797 B( 74-C ,101-H ) :   1.0281

-----------------------------------------------------------------------------
         ABSORPTION SPECTRUM VIA TRANSITION ELECTRIC DIPOLE MOMENTS
-----------------------------------------------------------------------------
State   Energy  Wavelength   fosc         T2         TX        TY        TZ
        (cm-1)    (nm)                  (au**2)     (au)      (au)      (au)
-----------------------------------------------------------------------------
   0   19980.0    500.5   0.869870238  14.33295  -0.56152  -2.40163   2.87225
   1   25426.6    393.3   0.117473918   1.52100   1.03823   0.46340  -0.47785
   2   26050.9    383.9   0.040288039   0.50913   0.60546  -0.05051  -0.37417
   3   26310.6    380.1   0.037087159   0.46405  -0.52694   0.15499   0.40295
   4   27341.6    365.7   0.091395407   1.10047   1.03950  -0.10438  -0.09489
   5   28414.2    351.9   0.241751287   2.80097   0.87440   1.37650  -0.37635
   6   28672.0    348.8   0.037967918   0.43595  -0.65377   0.05737   0.07236
   7   29552.1    338.4   0.635626559   7.08091  -1.24754  -1.31086   1.95095
   8   29722.9    336.4   0.025577879   0.28330   0.03133  -0.48094  -0.22586
   9   30652.3    326.2   0.128401135   1.37906   0.37216  -0.99093  -0.50855
  10   31505.4    317.4   0.000490769   0.00513  -0.02756   0.06404   0.01636
  11   32205.8    310.5   0.009621183   0.09835  -0.27558  -0.14669   0.02980
  12   32285.4    309.7   0.117056923   1.19362  -1.04727   0.13709   0.27938
  13   32628.7    306.5   0.000000396   0.00000   0.00189   0.00054  -0.00037
  14   32696.3    305.8   0.477716391   4.81002  -1.98960   0.14379   0.91151
  15   32958.6    303.4   0.000453500   0.00453  -0.03507   0.05063  -0.02714
  16   33173.7    301.4   0.014613350   0.14502   0.34669   0.02136  -0.15611
  17   34745.1    287.8   0.143600087   1.36062   0.69418   0.73698  -0.57932
  18   35688.0    280.2   0.002631063   0.02427  -0.01105   0.07596  -0.13557
  19   35923.3    278.4   0.002742551   0.02513   0.13040  -0.08649  -0.02546
  20   36438.7    274.4   0.005420972   0.04898   0.13204   0.00832  -0.17741
  21   36462.9    274.3   0.019972115   0.18032  -0.25299  -0.03795   0.33894
  22   36719.6    272.3   0.497732723   4.46246   0.80773  -1.86722   0.56880
  23   37253.6    268.4   0.179691363   1.58794  -0.51420   0.91402  -0.69865
  24   37311.5    268.0   0.013357364   0.11786  -0.10771   0.30540  -0.11395
  25   38170.6    262.0   0.161698562   1.39461   0.48398   0.41782   0.99288
  26   38294.9    261.1   0.080293379   0.69026  -0.15369  -0.63452  -0.51383
  27   38419.1    260.3   0.070146462   0.60108   0.03778  -0.73097  -0.25562
  28   39326.3    254.3   0.000711413   0.00596  -0.03126   0.06189  -0.03388
  29   39344.5    254.2   0.153410152   1.28365  -0.51634   0.69839  -0.72752
  30   39967.5    250.2   0.075536372   0.62219   0.26652   0.51512  -0.53462

FINAL SINGLE POINT ENERGY     -7320.828705908855

DIPOLE MOMENT
-------------
                                X             Y             Z
Electronic contribution:    -87.47095     -76.83221     168.16118
Nuclear contribution   :     86.72619      76.65354    -169.19448
                        -----------------------------------------
Total Dipole Moment    :     -0.74476      -0.17867      -1.03331
                        -----------------------------------------
Magnitude (a.u.)       :      1.28620
Magnitude (Debye)      :      3.26926

Rotational constants in cm-1:     0.001503     0.000176     0.000167
Rotational constants in MHz :    45.059953     5.270238     4.993018

                             ****ORCA TERMINATED NORMALLY****
TOTAL RUN TIME: 0 days 0 hours 13 minutes 30 seconds 724 msec
