                         Program Version 4.2.0 -  RELEASE  -
|  1> # ORCA input file
|  2> # SCF done       -176.215528511369          0.000890742023
|  3> ! CAM-B3LYP def2-SVP def2/J RIJCOSX Grid4 TightSCF
|  4> %maxcore 5000
|  5> %tddft
|  6>     Mode sTDDFT
|  7>     Ethresh 5.0
|  8>     maxcore 5000
|  9> end
| 10>
| 11> %pal
| 12>   nprocs 6
| 13>   end
| 14> * xyz 0 1
| 15>    C       -3.19697        -1.66049        -1.68127
| 16>    C       -3.68538        -2.75518        -1.01963
| 17>    C       -2.87110        -3.77488        -0.48160
| 18>    N       -2.25964        -4.63559        -0.03151
| 19>    C       -5.04392        -2.98761        -0.70969
| 20>    N       -6.11377        -3.23745        -0.37815
| 21>    C       -1.78770        -1.33013        -1.84298
| 22>    C       -1.69008        -0.01785        -2.36467
| 23>    C       -0.48499         0.59700        -2.60635
| 24>    C        0.68122        -0.12133        -2.32581
| 25>    C        0.57450        -1.43709        -1.81273
| 26>    C       -0.64402        -2.05630        -1.56456
| 27>    S        2.13712        -2.14529        -1.54203
| 28>    C        2.90230        -0.68440        -2.10954
| 29>    C        2.03400         0.28478        -2.48548
| 30>   Br        4.77356        -0.57784        -2.15294
| 31>    C       -3.04031         0.53581        -2.58583
| 32>    O       -3.28194         1.65979        -2.96712
| 33>    C       -3.97998        -0.57209        -2.25113
| 34>    C       -5.31206        -0.65988        -2.53548
| 35>    C       -6.16543         0.32697        -3.07724
| 36>    O       -5.77749         1.60988        -3.27651
| 37>    C       -7.49286         0.22095        -3.46952
| 38>    C       -8.61985        -0.71307        -3.62781
| 39>    O       -8.70622        -1.89031        -3.40840
| 40>    N       -9.63515         0.09086        -4.13994
| 41>    C       -9.29454         1.42779        -4.35046
| 42>    O      -10.03080         2.26877        -4.79382
| 43>    C       -7.89659         1.49734        -3.91464
| 44>    C       -6.79640         2.33418        -3.78300
| 45>    C       -6.58610         3.70377        -4.09340
| 46>    C       -5.34980         4.24792        -3.99402
| 47>    C       -5.04676         5.60560        -4.29668
| 48>    C       -3.81176         6.14696        -4.31778
| 49>    C       -2.55247         5.39914        -4.04471
| 50>    C       -3.66292         7.59592        -4.73514
| 51>    N       -4.04268         7.80017        -6.11452
| 52>    C       -3.22397         7.56772        -7.17486
| 53>    C       -1.90901         7.27611        -7.14365
| 54>    C       -1.12678         7.12361        -8.33198
| 55>    C       -0.09233         6.25330        -8.50227
| 56>    F        0.43767         5.47465        -7.53885
| 57>    C        0.32458         6.19819        -9.87644
| 58>    C       -0.46565         7.03857       -10.58221
| 59>    C       -1.32314         7.75699        -9.65194
| 60>    C       -1.91772         8.93932        -9.98648
| 61>    C       -2.34221        10.07835        -9.14094
| 62>    C       -2.71722        11.08643        -9.96783
| 63>    C       -2.62447        10.60998       -11.32743
| 64>    C       -2.12877         9.35736       -11.36031
| 65>    F       -2.98880        11.35381       -12.37620
| 66>    C       -2.11131        10.21339        -7.70282
| 67>    C       -3.02584        10.60112        -6.74618
| 68>    O       -4.35586        10.83134        -6.89183
| 69>    C       -5.06126        10.52772        -8.06833
| 70>    C       -2.63126        10.76281        -5.36245
| 71>    O       -3.65750        11.12689        -4.55417
| 72>    C       -3.38659        11.35163        -3.19182
| 73>    C       -1.35218        10.53524        -4.93758
| 74>    C       -0.39870        10.14663        -5.89347
| 75>    C       -0.77384         9.99870        -7.26979
| 76>    N        0.26011         9.66147        -8.03514
| 77>    S        1.56847         9.51443        -7.10594
| 78>    N        0.88966         9.88806        -5.68892
| 79>    H       -0.44263         1.60028        -3.00054
| 80>    H       -0.67295        -3.06084        -1.17730
| 81>    H        2.33332         1.24622        -2.86091
| 82>    H       -5.82126        -1.59880        -2.35835
| 83>    H      -10.55288        -0.27247        -4.35534
| 84>    H       -7.44724         4.26075        -4.43076
| 85>    H       -4.54719         3.59786        -3.67757
| 86>    H       -5.89500         6.23828        -4.53212
| 87>    H       -1.85497         6.02524        -3.48973
| 88>    H       -2.07619         5.13176        -4.98980
| 89>    H       -2.72751         4.48403        -3.48770
| 90>    H       -2.63327         7.93487        -4.61059
| 91>    H       -4.31161         8.23108        -4.12331
| 92>    H       -5.03295         7.78611        -6.29680
| 93>    H       -3.70627         7.67664        -8.13724
| 94>    H       -1.40316         7.05629        -6.21593
| 95>    H        1.11642         5.57341       -10.24492
| 96>    H       -0.38468         7.25744       -11.62768
| 97>    H       -2.98405        12.09024        -9.69554
| 98>    H       -1.97926         8.74598       -12.22648
| 99>    H       -4.75632         9.57423        -8.50146
|100>    H       -4.94604        11.30915        -8.82414
|101>    H       -6.10891        10.47791        -7.76806
|102>    H       -2.64972        12.14874        -3.05497
|103>    H       -3.03067        10.44213        -2.69625
|104>    H       -4.33399        11.65648        -2.75055
|105>    H       -1.04556        10.64541        -3.91185
|106> *
|107>
|108>                          ****END OF INPUT****

CARTESIAN COORDINATES (ANGSTROEM)
---------------------------------
  C     -3.196970   -1.660490   -1.681270
  C     -3.685380   -2.755180   -1.019630
  C     -2.871100   -3.774880   -0.481600
  N     -2.259640   -4.635590   -0.031510
  C     -5.043920   -2.987610   -0.709690
  N     -6.113770   -3.237450   -0.378150
  C     -1.787700   -1.330130   -1.842980
  C     -1.690080   -0.017850   -2.364670
  C     -0.484990    0.597000   -2.606350
  C      0.681220   -0.121330   -2.325810
  C      0.574500   -1.437090   -1.812730
  C     -0.644020   -2.056300   -1.564560
  S      2.137120   -2.145290   -1.542030
  C      2.902300   -0.684400   -2.109540
  C      2.034000    0.284780   -2.485480
  Br     4.773560   -0.577840   -2.152940
  C     -3.040310    0.535810   -2.585830
  O     -3.281940    1.659790   -2.967120
  C     -3.979980   -0.572090   -2.251130
  C     -5.312060   -0.659880   -2.535480
  C     -6.165430    0.326970   -3.077240
  O     -5.777490    1.609880   -3.276510
  C     -7.492860    0.220950   -3.469520
  C     -8.619850   -0.713070   -3.627810
  O     -8.706220   -1.890310   -3.408400
  N     -9.635150    0.090860   -4.139940
  C     -9.294540    1.427790   -4.350460
  O    -10.030800    2.268770   -4.793820
  C     -7.896590    1.497340   -3.914640
  C     -6.796400    2.334180   -3.783000
  C     -6.586100    3.703770   -4.093400
  C     -5.349800    4.247920   -3.994020
  C     -5.046760    5.605600   -4.296680
  C     -3.811760    6.146960   -4.317780
  C     -2.552470    5.399140   -4.044710
  C     -3.662920    7.595920   -4.735140
  N     -4.042680    7.800170   -6.114520
  C     -3.223970    7.567720   -7.174860
  C     -1.909010    7.276110   -7.143650
  C     -1.126780    7.123610   -8.331980
  C     -0.092330    6.253300   -8.502270
  F      0.437670    5.474650   -7.538850
  C      0.324580    6.198190   -9.876440
  C     -0.465650    7.038570  -10.582210
  C     -1.323140    7.756990   -9.651940
  C     -1.917720    8.939320   -9.986480
  C     -2.342210   10.078350   -9.140940
  C     -2.717220   11.086430   -9.967830
  C     -2.624470   10.609980  -11.327430
  C     -2.128770    9.357360  -11.360310
  F     -2.988800   11.353810  -12.376200
  C     -2.111310   10.213390   -7.702820
  C     -3.025840   10.601120   -6.746180
  O     -4.355860   10.831340   -6.891830
  C     -5.061260   10.527720   -8.068330
  C     -2.631260   10.762810   -5.362450
  O     -3.657500   11.126890   -4.554170
  C     -3.386590   11.351630   -3.191820
  C     -1.352180   10.535240   -4.937580
  C     -0.398700   10.146630   -5.893470
  C     -0.773840    9.998700   -7.269790
  N      0.260110    9.661470   -8.035140
  S      1.568470    9.514430   -7.105940
  N      0.889660    9.888060   -5.688920
  H     -0.442630    1.600280   -3.000540
  H     -0.672950   -3.060840   -1.177300
  H      2.333320    1.246220   -2.860910
  H     -5.821260   -1.598800   -2.358350
  H    -10.552880   -0.272470   -4.355340
  H     -7.447240    4.260750   -4.430760
  H     -4.547190    3.597860   -3.677570
  H     -5.895000    6.238280   -4.532120
  H     -1.854970    6.025240   -3.489730
  H     -2.076190    5.131760   -4.989800
  H     -2.727510    4.484030   -3.487700
  H     -2.633270    7.934870   -4.610590
  H     -4.311610    8.231080   -4.123310
  H     -5.032950    7.786110   -6.296800
  H     -3.706270    7.676640   -8.137240
  H     -1.403160    7.056290   -6.215930
  H      1.116420    5.573410  -10.244920
  H     -0.384680    7.257440  -11.627680
  H     -2.984050   12.090240   -9.695540
  H     -1.979260    8.745980  -12.226480
  H     -4.756320    9.574230   -8.501460
  H     -4.946040   11.309150   -8.824140
  H     -6.108910   10.477910   -7.768060
  H     -2.649720   12.148740   -3.054970
  H     -3.030670   10.442130   -2.696250
  H     -4.333990   11.656480   -2.750550
  H     -1.045560   10.645410   -3.911850

 Total Charge           Charge          ....    0
 Multiplicity           Mult            ....    1
 Number of Electrons    NEL             ....  484
 Basis Dimension        Dim             .... 1057

ORBITAL ENERGIES
----------------

  NO   OCC          E(Eh)            E(eV)
   0   2.0000    -482.888065    -13140.0523
   1   2.0000     -88.997721     -2421.7511
   2   2.0000     -88.978532     -2421.2289
   3   2.0000     -62.565768     -1702.5011
   4   2.0000     -56.399721     -1534.7144
   5   2.0000     -56.397000     -1534.6404
   6   2.0000     -56.396970     -1534.6396
   7   2.0000     -24.782723      -674.3722
   8   2.0000     -24.774959      -674.1609
   9   2.0000     -19.311216      -525.4849
  10   2.0000     -19.255204      -523.9607
  11   2.0000     -19.249644      -523.8094
  12   2.0000     -19.222946      -523.0830
  13   2.0000     -19.217315      -522.9297
  14   2.0000     -19.213849      -522.8354
  15   2.0000     -14.457834      -393.4177
  16   2.0000     -14.434162      -392.7735
  17   2.0000     -14.418169      -392.3383
  18   2.0000     -14.416959      -392.3054
  19   2.0000     -14.416301      -392.2875
  20   2.0000     -14.415911      -392.2769
  21   2.0000     -10.406050      -283.1630
  22   2.0000     -10.403594      -283.0962
  23   2.0000     -10.376221      -282.3513
  24   2.0000     -10.372616      -282.2532
  25   2.0000     -10.366916      -282.0981
  26   2.0000     -10.362068      -281.9662
  27   2.0000     -10.351859      -281.6884
  28   2.0000     -10.347064      -281.5579
  29   2.0000     -10.345755      -281.5223
  30   2.0000     -10.345479      -281.5148
  31   2.0000     -10.345160      -281.5061
  32   2.0000     -10.334281      -281.2101
  33   2.0000     -10.330230      -281.0999
  34   2.0000     -10.329321      -281.0751
  35   2.0000     -10.328887      -281.0633
  36   2.0000     -10.325100      -280.9603
  37   2.0000     -10.320645      -280.8390
  38   2.0000     -10.317968      -280.7662
  39   2.0000     -10.313888      -280.6552
  40   2.0000     -10.312279      -280.6114
  41   2.0000     -10.311382      -280.5870
  42   2.0000     -10.310779      -280.5706
  43   2.0000     -10.309107      -280.5251
  44   2.0000     -10.307784      -280.4891
  45   2.0000     -10.307096      -280.4703
  46   2.0000     -10.306738      -280.4606
  47   2.0000     -10.306397      -280.4513
  48   2.0000     -10.305084      -280.4156
  49   2.0000     -10.299692      -280.2689
  50   2.0000     -10.298498      -280.2364
  51   2.0000     -10.298130      -280.2264
  52   2.0000     -10.297458      -280.2081
  53   2.0000     -10.296471      -280.1812
  54   2.0000     -10.295379      -280.1515
  55   2.0000     -10.294940      -280.1396
  56   2.0000     -10.290112      -280.0082
  57   2.0000     -10.288440      -279.9627
  58   2.0000     -10.286627      -279.9133
  59   2.0000     -10.278614      -279.6953
  60   2.0000     -10.278460      -279.6911
  61   2.0000     -10.273793      -279.5641
  62   2.0000     -10.272890      -279.5396
  63   2.0000     -10.271982      -279.5148
  64   2.0000     -10.265748      -279.3452
  65   2.0000     -10.264148      -279.3017
  66   2.0000     -10.260627      -279.2059
  67   2.0000     -10.252213      -278.9769
  68   2.0000      -8.795191      -239.3293
  69   2.0000      -8.089719      -220.1324
  70   2.0000      -8.074556      -219.7198
  71   2.0000      -6.631506      -180.4525
  72   2.0000      -6.616931      -180.0558
  73   2.0000      -6.616707      -180.0497
  74   2.0000      -6.061144      -164.9321
  75   2.0000      -6.053495      -164.7240
  76   2.0000      -6.051589      -164.6721
  77   2.0000      -6.044232      -164.4719
  78   2.0000      -6.039974      -164.3560
  79   2.0000      -6.035773      -164.2417
  80   2.0000      -2.747360       -74.7595
  81   2.0000      -2.743287       -74.6486
  82   2.0000      -2.743129       -74.6443
  83   2.0000      -2.731544       -74.3291
  84   2.0000      -2.731509       -74.3281
  85   2.0000      -1.296290       -35.2738
  86   2.0000      -1.284002       -34.9395
  87   2.0000      -1.236166       -33.6378
  88   2.0000      -1.169696       -31.8290
  89   2.0000      -1.160306       -31.5735
  90   2.0000      -1.143768       -31.1235
  91   2.0000      -1.139832       -31.0164
  92   2.0000      -1.138377       -30.9768
  93   2.0000      -1.101733       -29.9797
  94   2.0000      -1.047296       -28.4984
  95   2.0000      -1.033999       -28.1366
  96   2.0000      -1.026614       -27.9356
  97   2.0000      -1.015980       -27.6462
  98   2.0000      -0.995756       -27.0959
  99   2.0000      -0.993564       -27.0363
 100   2.0000      -0.986343       -26.8398
 101   2.0000      -0.960098       -26.1256
 102   2.0000      -0.955736       -26.0069
 103   2.0000      -0.950709       -25.8701
 104   2.0000      -0.942640       -25.6505
 105   2.0000      -0.938371       -25.5344
 106   2.0000      -0.930355       -25.3162
 107   2.0000      -0.919816       -25.0295
 108   2.0000      -0.911683       -24.8081
 109   2.0000      -0.895888       -24.3783
 110   2.0000      -0.889378       -24.2012
 111   2.0000      -0.873426       -23.7671
 112   2.0000      -0.865573       -23.5534
 113   2.0000      -0.858723       -23.3670
 114   2.0000      -0.854489       -23.2518
 115   2.0000      -0.839929       -22.8556
 116   2.0000      -0.836803       -22.7706
 117   2.0000      -0.831991       -22.6396
 118   2.0000      -0.810077       -22.0433
 119   2.0000      -0.803464       -21.8634
 120   2.0000      -0.798367       -21.7247
 121   2.0000      -0.797137       -21.6912
 122   2.0000      -0.779611       -21.2143
 123   2.0000      -0.778847       -21.1935
 124   2.0000      -0.769349       -20.9351
 125   2.0000      -0.765592       -20.8328
 126   2.0000      -0.763283       -20.7700
 127   2.0000      -0.756653       -20.5896
 128   2.0000      -0.743231       -20.2244
 129   2.0000      -0.718799       -19.5595
 130   2.0000      -0.709821       -19.3152
 131   2.0000      -0.702874       -19.1262
 132   2.0000      -0.697159       -18.9707
 133   2.0000      -0.692055       -18.8318
 134   2.0000      -0.686848       -18.6901
 135   2.0000      -0.683332       -18.5944
 136   2.0000      -0.681032       -18.5318
 137   2.0000      -0.676754       -18.4154
 138   2.0000      -0.662326       -18.0228
 139   2.0000      -0.661359       -17.9965
 140   2.0000      -0.655534       -17.8380
 141   2.0000      -0.635131       -17.2828
 142   2.0000      -0.632859       -17.2210
 143   2.0000      -0.631342       -17.1797
 144   2.0000      -0.627219       -17.0675
 145   2.0000      -0.621451       -16.9105
 146   2.0000      -0.617711       -16.8088
 147   2.0000      -0.612396       -16.6641
 148   2.0000      -0.610156       -16.6032
 149   2.0000      -0.607748       -16.5377
 150   2.0000      -0.601907       -16.3787
 151   2.0000      -0.600603       -16.3433
 152   2.0000      -0.598016       -16.2728
 153   2.0000      -0.593596       -16.1526
 154   2.0000      -0.591802       -16.1037
 155   2.0000      -0.584206       -15.8971
 156   2.0000      -0.578607       -15.7447
 157   2.0000      -0.576667       -15.6919
 158   2.0000      -0.570590       -15.5266
 159   2.0000      -0.565296       -15.3825
 160   2.0000      -0.559519       -15.2253
 161   2.0000      -0.552429       -15.0324
 162   2.0000      -0.552273       -15.0281
 163   2.0000      -0.550863       -14.9897
 164   2.0000      -0.550486       -14.9795
 165   2.0000      -0.549514       -14.9530
 166   2.0000      -0.544752       -14.8235
 167   2.0000      -0.543250       -14.7826
 168   2.0000      -0.541505       -14.7351
 169   2.0000      -0.539257       -14.6739
 170   2.0000      -0.535133       -14.5617
 171   2.0000      -0.533781       -14.5249
 172   2.0000      -0.533149       -14.5077
 173   2.0000      -0.529326       -14.4037
 174   2.0000      -0.527632       -14.3576
 175   2.0000      -0.526039       -14.3143
 176   2.0000      -0.523650       -14.2493
 177   2.0000      -0.520839       -14.1727
 178   2.0000      -0.517095       -14.0709
 179   2.0000      -0.513066       -13.9612
 180   2.0000      -0.511147       -13.9090
 181   2.0000      -0.509679       -13.8691
 182   2.0000      -0.505337       -13.7509
 183   2.0000      -0.505013       -13.7421
 184   2.0000      -0.502020       -13.6607
 185   2.0000      -0.497291       -13.5320
 186   2.0000      -0.497163       -13.5285
 187   2.0000      -0.494112       -13.4455
 188   2.0000      -0.490938       -13.3591
 189   2.0000      -0.486731       -13.2446
 190   2.0000      -0.481741       -13.1088
 191   2.0000      -0.478593       -13.0232
 192   2.0000      -0.475289       -12.9333
 193   2.0000      -0.469274       -12.7696
 194   2.0000      -0.468413       -12.7462
 195   2.0000      -0.466007       -12.6807
 196   2.0000      -0.462554       -12.5867
 197   2.0000      -0.461071       -12.5464
 198   2.0000      -0.457904       -12.4602
 199   2.0000      -0.454077       -12.3561
 200   2.0000      -0.452048       -12.3009
 201   2.0000      -0.451186       -12.2774
 202   2.0000      -0.450029       -12.2459
 203   2.0000      -0.445318       -12.1177
 204   2.0000      -0.444279       -12.0894
 205   2.0000      -0.441650       -12.0179
 206   2.0000      -0.441141       -12.0040
 207   2.0000      -0.436804       -11.8860
 208   2.0000      -0.433715       -11.8020
 209   2.0000      -0.431462       -11.7407
 210   2.0000      -0.427829       -11.6418
 211   2.0000      -0.425600       -11.5812
 212   2.0000      -0.422204       -11.4888
 213   2.0000      -0.418003       -11.3744
 214   2.0000      -0.417196       -11.3525
 215   2.0000      -0.410480       -11.1697
 216   2.0000      -0.409577       -11.1452
 217   2.0000      -0.400545       -10.8994
 218   2.0000      -0.396023       -10.7763
 219   2.0000      -0.395171       -10.7532
 220   2.0000      -0.389786       -10.6066
 221   2.0000      -0.385371       -10.4865
 222   2.0000      -0.380449       -10.3525
 223   2.0000      -0.380359       -10.3501
 224   2.0000      -0.377407       -10.2698
 225   2.0000      -0.377240       -10.2652
 226   2.0000      -0.374281       -10.1847
 227   2.0000      -0.365199        -9.9376
 228   2.0000      -0.359680        -9.7874
 229   2.0000      -0.350520        -9.5381
 230   2.0000      -0.349694        -9.5157
 231   2.0000      -0.342169        -9.3109
 232   2.0000      -0.325902        -8.8683
 233   2.0000      -0.318955        -8.6792
 234   2.0000      -0.314865        -8.5679
 235   2.0000      -0.307869        -8.3775
 236   2.0000      -0.298391        -8.1196
 237   2.0000      -0.296762        -8.0753
 238   2.0000      -0.284071        -7.7300
 239   2.0000      -0.270568        -7.3625
 240   2.0000      -0.267595        -7.2816
 241   2.0000      -0.231693        -6.3047
 242   0.0000      -0.102061        -2.7772
 243   0.0000      -0.076479        -2.0811
 244   0.0000      -0.065810        -1.7908
 245   0.0000      -0.052061        -1.4167
 246   0.0000      -0.032566        -0.8862

MULLIKEN ATOMIC CHARGES
-----------------------
   0 C :    0.292103
   1 C :   -0.337124
   2 C :   -0.184833
   3 N :    0.152146
   4 C :   -0.206519
   5 N :    0.178256
   6 C :    0.021209
   7 C :   -0.018427
   8 C :   -0.069451
   9 C :    0.116464
  10 C :   -0.092239
  11 C :   -0.014369
  12 S :    0.189799
  13 C :   -0.124126
  14 C :    0.040520
  15 Br:    0.027015
  16 C :    0.145400
  17 O :   -0.126845
  18 C :   -0.062316
  19 C :   -0.047509
  20 C :    0.069271
  21 O :   -0.172824
  22 C :   -0.013679
  23 C :    0.170570
  24 O :   -0.124430
  25 N :   -0.168418
  26 C :    0.165360
  27 O :   -0.138099
  28 C :   -0.042169
  29 C :    0.103761
  30 C :   -0.054937
  31 C :    0.041640
  32 C :    0.005496
  33 C :   -0.154353
  34 C :    0.085785
  35 C :    0.196556
  36 N :   -0.183092
  37 C :    0.069517
  38 C :   -0.041343
  39 C :   -0.016889
  40 C :    0.174860
  41 F :   -0.194225
  42 C :   -0.005608
  43 C :   -0.003564
  44 C :    0.001740
  45 C :    0.102304
  46 C :   -0.046680
  47 C :   -0.109171
  48 C :    0.302952
  49 C :   -0.128491
  50 F :   -0.178088
  51 C :    0.016209
  52 C :    0.138513
  53 O :   -0.299560
  54 C :    0.206358
  55 C :    0.233119
  56 O :   -0.297983
  57 C :    0.175170
  58 C :   -0.227344
  59 C :    0.076816
  60 C :   -0.008275
  61 N :   -0.259602
  62 S :    0.463045
  63 N :   -0.277764
  64 H :   -0.012353
  65 H :   -0.005732
  66 H :   -0.001612
  67 H :    0.036011
  68 H :    0.141314
  69 H :    0.003106
  70 H :    0.031077
  71 H :   -0.033546
  72 H :    0.021331
  73 H :    0.055575
  74 H :    0.030510
  75 H :    0.017714
  76 H :    0.026313
  77 H :    0.121189
  78 H :    0.007860
  79 H :   -0.029569
  80 H :   -0.012415
  81 H :   -0.019325
  82 H :   -0.007118
  83 H :   -0.017259
  84 H :    0.015403
  85 H :    0.024857
  86 H :    0.027297
  87 H :    0.029824
  88 H :    0.018319
  89 H :    0.040526
  90 H :   -0.040907
Sum of atomic charges:   -0.0000000

LOEWDIN ATOMIC CHARGES
----------------------
   0 C :    0.071977
   1 C :   -0.132643
   2 C :   -0.017295
   3 N :   -0.048955
   4 C :   -0.029948
   5 N :   -0.035487
   6 C :   -0.020846
   7 C :   -0.052153
   8 C :    0.021782
   9 C :   -0.031811
  10 C :   -0.142924
  11 C :   -0.009042
  12 S :    0.434846
  13 C :   -0.270411
  14 C :   -0.070110
  15 Br:    0.139577
  16 C :    0.084048
  17 O :   -0.139489
  18 C :   -0.080494
  19 C :    0.047961
  20 C :    0.036435
  21 O :    0.045752
  22 C :   -0.055742
  23 C :    0.084032
  24 O :   -0.140631
  25 N :   -0.006579
  26 C :    0.085431
  27 O :   -0.156648
  28 C :   -0.111341
  29 C :    0.096407
  30 C :   -0.064492
  31 C :    0.036042
  32 C :   -0.060732
  33 C :    0.006608
  34 C :   -0.050956
  35 C :    0.039268
  36 N :   -0.000475
  37 C :    0.032225
  38 C :   -0.114910
  39 C :   -0.074641
  40 C :    0.058428
  41 F :   -0.072642
  42 C :   -0.021736
  43 C :   -0.034669
  44 C :    0.046982
  45 C :    0.025421
  46 C :   -0.017454
  47 C :   -0.029823
  48 C :    0.078700
  49 C :   -0.086302
  50 F :   -0.056965
  51 C :   -0.075061
  52 C :    0.050974
  53 O :   -0.086611
  54 C :    0.078620
  55 C :    0.056184
  56 O :   -0.084265
  57 C :    0.076728
  58 C :   -0.099054
  59 C :   -0.056980
  60 C :   -0.043868
  61 N :   -0.282114
  62 S :    0.600664
  63 N :   -0.302049
  64 H :    0.039890
  65 H :    0.041310
  66 H :    0.039496
  67 H :    0.060316
  68 H :    0.096345
  69 H :    0.040907
  70 H :    0.037450
  71 H :    0.019949
  72 H :    0.034634
  73 H :    0.049178
  74 H :    0.034490
  75 H :    0.026763
  76 H :    0.035828
  77 H :    0.072967
  78 H :    0.022721
  79 H :    0.020747
  80 H :    0.030302
  81 H :    0.023773
  82 H :    0.029755
  83 H :    0.028037
  84 H :    0.012650
  85 H :    0.017348
  86 H :    0.023500
  87 H :    0.018564
  88 H :    0.012131
  89 H :    0.029912
  90 H :    0.034289

  Mayer bond orders larger than 0.100000
B(  0-C ,  1-C ) :   1.6494 B(  0-C ,  6-C ) :   1.0079 B(  0-C , 18-C ) :   1.0516
B(  1-C ,  2-C ) :   1.1412 B(  1-C ,  4-C ) :   1.1350 B(  2-C ,  3-N ) :   2.9737
B(  4-C ,  5-N ) :   3.0006 B(  6-C ,  7-C ) :   1.2725 B(  6-C , 11-C ) :   1.4083
B(  7-C ,  8-C ) :   1.4198 B(  7-C , 16-C ) :   0.9470 B(  8-C ,  9-C ) :   1.2535
B(  8-C , 64-H ) :   1.0159 B(  9-C , 10-C ) :   1.2998 B(  9-C , 14-C ) :   1.1630
B( 10-C , 11-C ) :   1.3343 B( 10-C , 12-S ) :   1.0874 B( 11-C , 65-H ) :   0.9793
B( 12-S , 13-C ) :   1.0865 B( 13-C , 14-C ) :   1.6195 B( 13-C , 15-Br) :   1.0204
B( 14-C , 66-H ) :   0.9996 B( 16-C , 17-O ) :   2.2093 B( 16-C , 18-C ) :   0.9251
B( 18-C , 19-C ) :   1.5563 B( 19-C , 20-C ) :   1.2219 B( 19-C , 67-H ) :   0.9343
B( 20-C , 21-O ) :   1.1486 B( 20-C , 22-C ) :   1.3688 B( 21-O , 29-C ) :   1.2017
B( 22-C , 23-C ) :   0.8641 B( 22-C , 28-C ) :   1.3210 B( 23-C , 24-O ) :   2.2694
B( 23-C , 25-N ) :   1.0861 B( 25-N , 26-C ) :   1.0703 B( 25-N , 68-H ) :   0.9134
B( 26-C , 27-O ) :   2.2782 B( 26-C , 28-C ) :   0.8800 B( 28-C , 29-C ) :   1.3247
B( 29-C , 30-C ) :   1.1710 B( 30-C , 31-C ) :   1.6337 B( 30-C , 69-H ) :   0.9736
B( 31-C , 32-C ) :   1.1082 B( 31-C , 70-H ) :   0.9685 B( 32-C , 33-C ) :   1.7333
B( 32-C , 71-H ) :   0.9767 B( 33-C , 34-C ) :   1.1062 B( 33-C , 35-C ) :   1.0089
B( 34-C , 72-H ) :   0.9416 B( 34-C , 73-H ) :   0.9342 B( 34-C , 74-H ) :   0.9435
B( 35-C , 36-N ) :   1.0382 B( 35-C , 75-H ) :   0.9216 B( 35-C , 76-H ) :   0.9368
B( 36-N , 37-C ) :   1.1800 B( 36-N , 77-H ) :   0.9370 B( 37-C , 38-C ) :   1.6990
B( 37-C , 78-H ) :   0.9521 B( 38-C , 39-C ) :   1.1050 B( 38-C , 79-H ) :   0.9346
B( 39-C , 40-C ) :   1.5809 B( 39-C , 44-C ) :   1.0228 B( 40-C , 41-F ) :   1.1361
B( 40-C , 42-C ) :   1.0822 B( 42-C , 43-C ) :   1.6326 B( 42-C , 80-H ) :   1.0085
B( 43-C , 44-C ) :   1.0820 B( 43-C , 81-H ) :   1.0003 B( 44-C , 45-C ) :   1.5870
B( 45-C , 46-C ) :   1.0886 B( 45-C , 49-C ) :   1.0450 B( 46-C , 47-C ) :   1.6669
B( 46-C , 51-C ) :   0.9204 B( 47-C , 48-C ) :   1.0603 B( 47-C , 82-H ) :   1.0110
B( 48-C , 49-C ) :   1.6013 B( 48-C , 50-F ) :   1.1345 B( 49-C , 83-H ) :   1.0180
B( 51-C , 52-C ) :   1.4825 B( 51-C , 58-C ) :   0.1122 B( 51-C , 60-C ) :   1.1995
B( 52-C , 53-O ) :   1.2301 B( 52-C , 55-C ) :   1.1413 B( 53-O , 54-C ) :   0.9524
B( 54-C , 84-H ) :   0.9621 B( 54-C , 85-H ) :   0.9636 B( 54-C , 86-H ) :   0.9718
B( 55-C , 56-O ) :   1.1822 B( 55-C , 58-C ) :   1.4155 B( 56-O , 57-C ) :   0.9656
B( 57-C , 87-H ) :   0.9699 B( 57-C , 88-H ) :   0.9659 B( 57-C , 89-H ) :   0.9783
B( 58-C , 59-C ) :   1.1004 B( 58-C , 90-H ) :   1.0584 B( 59-C , 60-C ) :   1.1701
B( 59-C , 63-N ) :   1.5590 B( 60-C , 61-N ) :   1.5931 B( 61-N , 62-S ) :   1.2343
B( 61-N , 63-N ) :   0.1391 B( 62-S , 63-N ) :   1.2305

-----------------------------------------------------------------------------
         ABSORPTION SPECTRUM VIA TRANSITION ELECTRIC DIPOLE MOMENTS
-----------------------------------------------------------------------------
State   Energy  Wavelength   fosc         T2         TX        TY        TZ
        (cm-1)    (nm)                  (au**2)     (au)      (au)      (au)
-----------------------------------------------------------------------------
   0   12447.4    803.4   0.019458076   0.51463   0.40349   0.11915  -0.58106
   1   16838.4    593.9   0.068097816   1.33140  -0.20048   0.98371  -0.56878
   2   20281.4    493.1   0.103087834   1.67335  -0.59555   0.75579  -0.86455
   3   20395.4    490.3   0.537997911   8.68407  -1.64526   2.26088  -0.93038
   4   23062.7    433.6   0.055990816   0.79925  -0.41265  -0.64420  -0.46257
   5   24292.6    411.6   0.028149754   0.38148  -0.39727  -0.33776   0.33103
   6   25344.5    394.6   0.003324910   0.04319   0.01449   0.17828  -0.10581
   7   25689.2    389.3   0.004120784   0.05281  -0.06924  -0.20618   0.07419
   8   26031.8    384.1   0.114090727   1.44285  -1.11306  -0.33907   0.29828
   9   27216.0    367.4   0.001258164   0.01522  -0.12022   0.02144  -0.01752
  10   27384.7    365.2   0.002594473   0.03119   0.15833   0.07514   0.02182
  11   27563.9    362.8   0.082108501   0.98067  -0.93992  -0.23026   0.21025
  12   27855.9    359.0   0.025122313   0.29691  -0.09330   0.49065  -0.21786
  13   29080.2    343.9   0.012430612   0.14072   0.04884   0.33336  -0.16496
  14   29387.1    340.3   0.041582466   0.46583   0.44766   0.44335  -0.26243
  15   30373.3    329.2   0.003648412   0.03954   0.19399  -0.01957   0.03909
  16   31114.7    321.4   0.255715306   2.70562  -0.58033  -1.51002   0.29780
  17   31290.1    319.6   0.112328252   1.18184   0.14750  -0.95801  -0.49225
  18   31677.5    315.7   0.048214659   0.50108  -0.42290   0.26288   0.50312
  19   32460.2    308.1   0.188011274   1.90681  -0.99692  -0.74898   0.59329
  20   32531.2    307.4   0.020397790   0.20642   0.33697   0.28887  -0.09713
  21   32694.8    305.9   0.947886880   9.54450   2.68492   1.48483  -0.36190
  22   33171.4    301.5   0.233802579   2.32039   1.31421   0.77005  -0.01642
  23   33530.4    298.2   0.466948197   4.58464  -1.36155   1.26894  -1.05859
  24   33837.6    295.5   0.105134711   1.02287  -0.96568  -0.23814  -0.18338
  25   34724.1    288.0   0.009559373   0.09063   0.22335   0.16177  -0.12074
  26   34985.7    285.8   0.000132086   0.00124  -0.02576  -0.02270   0.00801
  27   35645.2    280.5   0.039960911   0.36907   0.53192   0.28557   0.06773
  28   35861.4    278.9   0.001909926   0.01753   0.00674   0.13050  -0.02140
  29   36395.4    274.8   0.005291128   0.04786  -0.04233  -0.21060   0.04144
  30   36669.9    272.7   0.166823633   1.49770   1.07588  -0.45777   0.36143
  31   36891.5    271.1   0.253253033   2.25998   1.06131  -0.90253   0.56483
  32   37145.9    269.2   0.035026608   0.31043   0.44992   0.32675  -0.03506
  33   37979.0    263.3   0.205080814   1.77770   0.90882   0.30512  -0.92663
  34   38059.9    262.7   0.007312268   0.06325  -0.10537  -0.01411   0.22792
  35   38376.5    260.6   0.081433990   0.69858   0.33726   0.70891  -0.28685
  36   38788.1    257.8   0.480395211   4.07733   1.47590  -1.30183  -0.45197
  37   38915.2    257.0   0.108448293   0.91744   0.86669   0.32153  -0.25082
  38   39130.2    255.6   0.038037444   0.32002   0.42801   0.36043  -0.08314
  39   39437.8    253.6   0.009306997   0.07769  -0.06006   0.03613   0.26978
  40   39455.7    253.4   0.011172587   0.09322  -0.09076  -0.16521  -0.24018
  41   39656.8    252.2   0.000186689   0.00155   0.02027   0.02263  -0.02503
  42   40246.3    248.5   0.037410121   0.30601   0.15477  -0.47282   0.24186

FINAL SINGLE POINT ENERGY     -6153.286391252057

DIPOLE MOMENT
-------------
                                X             Y             Z
Electronic contribution:     93.61843     -95.55300      32.42353
Nuclear contribution   :    -93.04437      98.18334     -32.95919
                        -----------------------------------------
Total Dipole Moment    :      0.57406       2.63034      -0.53566
                        -----------------------------------------
Magnitude (a.u.)       :      2.74503
Magnitude (Debye)      :      6.97730

Rotational constants in cm-1:     0.001115     0.000508     0.000385
Rotational constants in MHz :    33.420143    15.221675    11.555337

                             ****ORCA TERMINATED NORMALLY****
TOTAL RUN TIME: 0 days 0 hours 9 minutes 39 seconds 962 msec
