                         Program Version 4.2.0 -  RELEASE  -
|  1> # ORCA input file
|  2> # SCF done       -190.345542440872          0.000814441159
|  3> ! CAM-B3LYP def2-SVP def2/J RIJCOSX Grid4 TightSCF
|  4> %maxcore 5000
|  5> %tddft
|  6>     Mode sTDDFT
|  7>     Ethresh 5.0
|  8>     maxcore 5000
|  9> end
| 10>
| 11> %pal
| 12>   nprocs 6
| 13>   end
| 14> * xyz 0 1
| 15>    C       -7.47061        -3.96206        -8.92218
| 16>    C       -8.35550        -4.79539        -8.28281
| 17>    C       -8.79188        -6.02760        -8.81236
| 18>    N       -9.20091        -7.02126        -9.21736
| 19>    C       -8.91138        -4.58374        -7.00561
| 20>    N       -9.39868        -4.49688        -5.96799
| 21>    C       -6.76261        -4.27038       -10.16091
| 22>    C       -5.80818        -3.25192       -10.40434
| 23>    C       -4.92741        -3.29872       -11.45711
| 24>    C       -4.98540        -4.40543       -12.30936
| 25>    C       -5.95978        -5.40500       -12.07643
| 26>    C       -6.85870        -5.35051       -11.01766
| 27>    S       -5.84950        -6.69143       -13.23929
| 28>    C       -4.50371        -5.88788       -13.99962
| 29>    C       -4.16095        -4.71053       -13.42560
| 30>   Br       -3.65915        -6.68393       -15.46716
| 31>    C       -5.92371        -2.21412        -9.36081
| 32>    O       -5.26447        -1.19506        -9.27703
| 33>    C       -6.99391        -2.67944        -8.45986
| 34>    C       -7.46214        -1.98862        -7.36883
| 35>    C       -6.98516        -0.76460        -6.89768
| 36>    C       -7.48298        -0.20903        -5.73908
| 37>    C       -7.05887         0.96968        -5.07657
| 38>    C       -7.69816         1.21085        -3.89709
| 39>    C       -8.66893         0.23641        -3.57153
| 40>    S       -8.75816        -0.98262        -4.82647
| 41>    C       -9.45795         0.09744        -2.45110
| 42>    C       -9.48819         0.85178        -1.24657
| 43>    C      -10.29518         0.33299        -0.29035
| 44>    C      -10.96412        -0.87699        -0.67183
| 45>    S      -10.56035        -1.24983        -2.35499
| 46>    C      -11.74809        -1.67513         0.07941
| 47>    C      -12.33199        -2.95613        -0.43535
| 48>    C      -12.99818        -3.76357         0.68361
| 49>    O      -14.00277        -3.48101         1.26255
| 50>    O      -12.28194        -4.86573         0.94171
| 51>    C      -11.06338        -4.88198         0.20367
| 52>    C      -11.28834        -3.93827        -0.98571
| 53>    C      -11.78231        -4.71647        -2.19789
| 54>    C      -10.65639        -5.60822        -2.70933
| 55>    C      -10.03691        -6.44989        -1.58913
| 56>    C      -10.68563        -6.32015        -0.19607
| 57>    O       -9.69325        -6.81647         0.69593
| 58>    C       -8.46332        -6.74909         0.15876
| 59>    O       -7.47668        -7.07572         0.74371
| 60>    C       -8.55292        -6.17487        -1.26012
| 61>    C       -8.14720        -4.74036        -1.19534
| 62>    C       -7.44896        -4.08694        -2.14567
| 63>    C       -6.99319        -2.72921        -2.07069
| 64>    C       -6.23911        -2.34192        -3.12230
| 65>    C       -6.05791        -3.34975        -4.11205
| 66>    S       -6.91691        -4.80481        -3.66953
| 67>    C       -5.29163        -3.26588        -5.25048
| 68>    C       -4.50198        -2.16994        -5.68376
| 69>    C       -3.81959        -2.41274        -6.82931
| 70>    C       -4.04820        -3.70430        -7.38656
| 71>    S       -5.15618        -4.60306        -6.37812
| 72>    C       -3.43959        -4.14938        -8.53088
| 73>    C       -3.60067        -5.36093        -9.22977
| 74>    O       -2.71606        -5.56690       -10.25693
| 75>    C       -4.47434        -6.44206        -9.19924
| 76>    C       -5.67339        -7.00600        -8.59140
| 77>    O       -6.39689        -6.60010        -7.71110
| 78>    N       -5.89451        -8.19089        -9.28769
| 79>    C       -4.99075        -8.45411       -10.31070
| 80>    O       -5.02364        -9.40380       -11.04907
| 81>    C       -4.07183        -7.31472       -10.24874
| 82>    C       -2.98981        -6.74518       -10.87324
| 83>    C       -2.21955        -7.20677       -11.99252
| 84>    C       -1.20190        -6.53472       -12.52774
| 85>    H       -4.20536        -2.51224       -11.61119
| 86>    H       -7.58631        -6.13363       -10.88558
| 87>    H       -3.35511        -4.08775       -13.76811
| 88>    H       -8.27057        -2.43537        -6.80239
| 89>    H       -6.19578        -0.25845        -7.43260
| 90>    H       -6.28561         1.59325        -5.48981
| 91>    H       -7.49910         2.05252        -3.25760
| 92>    H       -8.89559         1.74121        -1.12613
| 93>    H      -10.43177         0.75203         0.69056
| 94>    H      -11.97922        -1.38933         1.09521
| 95>    H      -13.08856        -2.71765        -1.19171
| 96>    H      -10.28261        -4.49805         0.87591
| 97>    H      -10.35548        -3.44287        -1.25009
| 98>    H      -12.07347        -4.02347        -2.98753
| 99>    H      -12.65505        -5.31364        -1.92428
|100>    H       -9.89038        -4.98292        -3.16845
|101>    H      -11.04150        -6.26120        -3.49111
|102>    H      -10.09639        -7.50942        -1.85764
|103>    H      -11.56961        -6.95262        -0.07717
|104>    H       -7.88814        -6.70499        -1.94504
|105>    H       -8.37511        -4.20101        -0.28631
|106>    H       -7.23271        -2.10926        -1.22435
|107>    H       -5.79493        -1.36758        -3.22542
|108>    H       -4.45099        -1.24894        -5.13161
|109>    H       -3.17153        -1.70744        -7.31744
|110>    H       -2.71058        -3.48436        -8.97553
|111>    H       -6.69108        -8.78086        -9.08992
|112>    H       -2.53683        -8.16495       -12.37976
|113>    H       -0.89217        -5.58244       -12.13090
|114>    H       -0.65749        -6.91888       -13.37153
|115> *
|116>
|117>                          ****END OF INPUT****

CARTESIAN COORDINATES (ANGSTROEM)
---------------------------------
  C     -7.470610   -3.962060   -8.922180
  C     -8.355500   -4.795390   -8.282810
  C     -8.791880   -6.027600   -8.812360
  N     -9.200910   -7.021260   -9.217360
  C     -8.911380   -4.583740   -7.005610
  N     -9.398680   -4.496880   -5.967990
  C     -6.762610   -4.270380  -10.160910
  C     -5.808180   -3.251920  -10.404340
  C     -4.927410   -3.298720  -11.457110
  C     -4.985400   -4.405430  -12.309360
  C     -5.959780   -5.405000  -12.076430
  C     -6.858700   -5.350510  -11.017660
  S     -5.849500   -6.691430  -13.239290
  C     -4.503710   -5.887880  -13.999620
  C     -4.160950   -4.710530  -13.425600
  Br    -3.659150   -6.683930  -15.467160
  C     -5.923710   -2.214120   -9.360810
  O     -5.264470   -1.195060   -9.277030
  C     -6.993910   -2.679440   -8.459860
  C     -7.462140   -1.988620   -7.368830
  C     -6.985160   -0.764600   -6.897680
  C     -7.482980   -0.209030   -5.739080
  C     -7.058870    0.969680   -5.076570
  C     -7.698160    1.210850   -3.897090
  C     -8.668930    0.236410   -3.571530
  S     -8.758160   -0.982620   -4.826470
  C     -9.457950    0.097440   -2.451100
  C     -9.488190    0.851780   -1.246570
  C    -10.295180    0.332990   -0.290350
  C    -10.964120   -0.876990   -0.671830
  S    -10.560350   -1.249830   -2.354990
  C    -11.748090   -1.675130    0.079410
  C    -12.331990   -2.956130   -0.435350
  C    -12.998180   -3.763570    0.683610
  O    -14.002770   -3.481010    1.262550
  O    -12.281940   -4.865730    0.941710
  C    -11.063380   -4.881980    0.203670
  C    -11.288340   -3.938270   -0.985710
  C    -11.782310   -4.716470   -2.197890
  C    -10.656390   -5.608220   -2.709330
  C    -10.036910   -6.449890   -1.589130
  C    -10.685630   -6.320150   -0.196070
  O     -9.693250   -6.816470    0.695930
  C     -8.463320   -6.749090    0.158760
  O     -7.476680   -7.075720    0.743710
  C     -8.552920   -6.174870   -1.260120
  C     -8.147200   -4.740360   -1.195340
  C     -7.448960   -4.086940   -2.145670
  C     -6.993190   -2.729210   -2.070690
  C     -6.239110   -2.341920   -3.122300
  C     -6.057910   -3.349750   -4.112050
  S     -6.916910   -4.804810   -3.669530
  C     -5.291630   -3.265880   -5.250480
  C     -4.501980   -2.169940   -5.683760
  C     -3.819590   -2.412740   -6.829310
  C     -4.048200   -3.704300   -7.386560
  S     -5.156180   -4.603060   -6.378120
  C     -3.439590   -4.149380   -8.530880
  C     -3.600670   -5.360930   -9.229770
  O     -2.716060   -5.566900  -10.256930
  C     -4.474340   -6.442060   -9.199240
  C     -5.673390   -7.006000   -8.591400
  O     -6.396890   -6.600100   -7.711100
  N     -5.894510   -8.190890   -9.287690
  C     -4.990750   -8.454110  -10.310700
  O     -5.023640   -9.403800  -11.049070
  C     -4.071830   -7.314720  -10.248740
  C     -2.989810   -6.745180  -10.873240
  C     -2.219550   -7.206770  -11.992520
  C     -1.201900   -6.534720  -12.527740
  H     -4.205360   -2.512240  -11.611190
  H     -7.586310   -6.133630  -10.885580
  H     -3.355110   -4.087750  -13.768110
  H     -8.270570   -2.435370   -6.802390
  H     -6.195780   -0.258450   -7.432600
  H     -6.285610    1.593250   -5.489810
  H     -7.499100    2.052520   -3.257600
  H     -8.895590    1.741210   -1.126130
  H    -10.431770    0.752030    0.690560
  H    -11.979220   -1.389330    1.095210
  H    -13.088560   -2.717650   -1.191710
  H    -10.282610   -4.498050    0.875910
  H    -10.355480   -3.442870   -1.250090
  H    -12.073470   -4.023470   -2.987530
  H    -12.655050   -5.313640   -1.924280
  H     -9.890380   -4.982920   -3.168450
  H    -11.041500   -6.261200   -3.491110
  H    -10.096390   -7.509420   -1.857640
  H    -11.569610   -6.952620   -0.077170
  H     -7.888140   -6.704990   -1.945040
  H     -8.375110   -4.201010   -0.286310
  H     -7.232710   -2.109260   -1.224350
  H     -5.794930   -1.367580   -3.225420
  H     -4.450990   -1.248940   -5.131610
  H     -3.171530   -1.707440   -7.317440
  H     -2.710580   -3.484360   -8.975530
  H     -6.691080   -8.780860   -9.089920
  H     -2.536830   -8.164950  -12.379760
  H     -0.892170   -5.582440  -12.130900
  H     -0.657490   -6.918880  -13.371530

 Total Charge           Charge          ....    0
 Multiplicity           Mult            ....    1
 Number of Electrons    NEL             ....  548
 Basis Dimension        Dim             .... 1168

ORBITAL ENERGIES
----------------

  NO   OCC          E(Eh)            E(eV)
   0   2.0000    -482.882243    -13139.8939
   1   2.0000     -88.970797     -2421.0185
   2   2.0000     -88.969079     -2420.9717
   3   2.0000     -88.963889     -2420.8305
   4   2.0000     -88.947873     -2420.3947
   5   2.0000     -88.945387     -2420.3270
   6   2.0000     -62.559832     -1702.3396
   7   2.0000     -56.393761     -1534.5523
   8   2.0000     -56.391103     -1534.4799
   9   2.0000     -56.391035     -1534.4781
  10   2.0000     -19.300357      -525.1894
  11   2.0000     -19.265926      -524.2525
  12   2.0000     -19.258453      -524.0491
  13   2.0000     -19.209211      -522.7092
  14   2.0000     -19.204554      -522.5825
  15   2.0000     -19.202369      -522.5230
  16   2.0000     -19.200814      -522.4807
  17   2.0000     -19.195916      -522.3474
  18   2.0000     -14.445980      -393.0951
  19   2.0000     -14.410033      -392.1169
  20   2.0000     -14.403105      -391.9284
  21   2.0000     -10.402064      -283.0545
  22   2.0000     -10.393098      -282.8106
  23   2.0000     -10.393034      -282.8088
  24   2.0000     -10.389420      -282.7105
  25   2.0000     -10.359698      -281.9017
  26   2.0000     -10.357675      -281.8467
  27   2.0000     -10.353395      -281.7302
  28   2.0000     -10.349632      -281.6278
  29   2.0000     -10.342499      -281.4337
  30   2.0000     -10.341465      -281.4056
  31   2.0000     -10.341243      -281.3995
  32   2.0000     -10.332771      -281.1690
  33   2.0000     -10.330130      -281.0971
  34   2.0000     -10.329591      -281.0824
  35   2.0000     -10.328869      -281.0628
  36   2.0000     -10.327331      -281.0210
  37   2.0000     -10.319785      -280.8156
  38   2.0000     -10.319256      -280.8012
  39   2.0000     -10.318617      -280.7838
  40   2.0000     -10.316316      -280.7212
  41   2.0000     -10.314779      -280.6794
  42   2.0000     -10.314403      -280.6692
  43   2.0000     -10.313319      -280.6397
  44   2.0000     -10.313045      -280.6322
  45   2.0000     -10.310272      -280.5568
  46   2.0000     -10.310105      -280.5522
  47   2.0000     -10.308759      -280.5156
  48   2.0000     -10.305427      -280.4249
  49   2.0000     -10.304979      -280.4127
  50   2.0000     -10.304734      -280.4061
  51   2.0000     -10.301899      -280.3289
  52   2.0000     -10.300408      -280.2884
  53   2.0000     -10.298086      -280.2252
  54   2.0000     -10.294923      -280.1391
  55   2.0000     -10.294896      -280.1384
  56   2.0000     -10.294301      -280.1222
  57   2.0000     -10.292625      -280.0766
  58   2.0000     -10.292132      -280.0632
  59   2.0000     -10.291576      -280.0480
  60   2.0000     -10.290245      -280.0118
  61   2.0000     -10.290048      -280.0064
  62   2.0000     -10.289863      -280.0014
  63   2.0000     -10.286267      -279.9036
  64   2.0000     -10.286015      -279.8967
  65   2.0000     -10.285601      -279.8854
  66   2.0000     -10.285502      -279.8827
  67   2.0000     -10.285332      -279.8781
  68   2.0000     -10.285161      -279.8735
  69   2.0000     -10.281990      -279.7872
  70   2.0000     -10.280470      -279.7458
  71   2.0000     -10.276348      -279.6336
  72   2.0000     -10.273945      -279.5683
  73   2.0000     -10.264916      -279.3226
  74   2.0000      -8.789241      -239.1674
  75   2.0000      -8.066214      -219.4928
  76   2.0000      -8.064657      -219.4505
  77   2.0000      -8.059340      -219.3058
  78   2.0000      -8.043737      -218.8812
  79   2.0000      -8.040421      -218.7910
  80   2.0000      -6.625436      -180.2873
  81   2.0000      -6.611030      -179.8953
  82   2.0000      -6.610836      -179.8900
  83   2.0000      -6.035927      -164.2459
  84   2.0000      -6.034461      -164.2060
  85   2.0000      -6.031644      -164.1294
  86   2.0000      -6.030362      -164.0945
  87   2.0000      -6.029035      -164.0584
  88   2.0000      -6.027476      -164.0160
  89   2.0000      -6.025520      -163.9627
  90   2.0000      -6.024991      -163.9483
  91   2.0000      -6.020388      -163.8231
  92   2.0000      -6.013545      -163.6369
  93   2.0000      -6.010203      -163.5459
  94   2.0000      -6.009544      -163.5280
  95   2.0000      -6.006022      -163.4322
  96   2.0000      -6.004430      -163.3888
  97   2.0000      -6.001293      -163.3035
  98   2.0000      -2.741352       -74.5960
  99   2.0000      -2.737336       -74.4867
 100   2.0000      -2.737094       -74.4801
 101   2.0000      -2.725696       -74.1700
 102   2.0000      -2.725679       -74.1695
 103   2.0000      -1.215270       -33.0692
 104   2.0000      -1.203001       -32.7353
 105   2.0000      -1.193169       -32.4678
 106   2.0000      -1.147902       -31.2360
 107   2.0000      -1.126616       -30.6568
 108   2.0000      -1.122474       -30.5441
 109   2.0000      -1.113185       -30.2913
 110   2.0000      -1.103743       -30.0344
 111   2.0000      -1.034558       -28.1518
 112   2.0000      -1.020120       -27.7589
 113   2.0000      -1.016056       -27.6483
 114   2.0000      -1.005537       -27.3620
 115   2.0000      -0.999187       -27.1893
 116   2.0000      -0.996278       -27.1101
 117   2.0000      -0.985888       -26.8274
 118   2.0000      -0.981677       -26.7128
 119   2.0000      -0.977065       -26.5873
 120   2.0000      -0.953020       -25.9330
 121   2.0000      -0.938243       -25.5309
 122   2.0000      -0.929747       -25.2997
 123   2.0000      -0.917842       -24.9757
 124   2.0000      -0.914825       -24.8937
 125   2.0000      -0.913382       -24.8544
 126   2.0000      -0.901707       -24.5367
 127   2.0000      -0.899747       -24.4834
 128   2.0000      -0.886889       -24.1335
 129   2.0000      -0.879796       -23.9405
 130   2.0000      -0.879071       -23.9207
 131   2.0000      -0.872136       -23.7320
 132   2.0000      -0.864045       -23.5119
 133   2.0000      -0.856537       -23.3076
 134   2.0000      -0.848894       -23.0996
 135   2.0000      -0.844318       -22.9751
 136   2.0000      -0.843836       -22.9620
 137   2.0000      -0.833486       -22.6803
 138   2.0000      -0.828194       -22.5363
 139   2.0000      -0.823577       -22.4107
 140   2.0000      -0.819943       -22.3118
 141   2.0000      -0.804935       -21.9034
 142   2.0000      -0.790598       -21.5133
 143   2.0000      -0.778543       -21.1852
 144   2.0000      -0.762749       -20.7554
 145   2.0000      -0.757485       -20.6122
 146   2.0000      -0.756734       -20.5918
 147   2.0000      -0.751062       -20.4374
 148   2.0000      -0.737689       -20.0735
 149   2.0000      -0.732521       -19.9329
 150   2.0000      -0.723873       -19.6976
 151   2.0000      -0.711982       -19.3740
 152   2.0000      -0.706275       -19.2187
 153   2.0000      -0.696187       -18.9442
 154   2.0000      -0.691083       -18.8053
 155   2.0000      -0.691010       -18.8033
 156   2.0000      -0.683628       -18.6025
 157   2.0000      -0.678227       -18.4555
 158   2.0000      -0.670273       -18.2391
 159   2.0000      -0.667221       -18.1560
 160   2.0000      -0.664345       -18.0777
 161   2.0000      -0.656223       -17.8567
 162   2.0000      -0.651950       -17.7405
 163   2.0000      -0.643663       -17.5150
 164   2.0000      -0.639010       -17.3883
 165   2.0000      -0.629719       -17.1355
 166   2.0000      -0.627882       -17.0855
 167   2.0000      -0.626501       -17.0480
 168   2.0000      -0.621267       -16.9055
 169   2.0000      -0.616868       -16.7858
 170   2.0000      -0.613719       -16.7002
 171   2.0000      -0.610705       -16.6181
 172   2.0000      -0.605501       -16.4765
 173   2.0000      -0.601021       -16.3546
 174   2.0000      -0.595847       -16.2138
 175   2.0000      -0.593840       -16.1592
 176   2.0000      -0.589014       -16.0279
 177   2.0000      -0.586897       -15.9703
 178   2.0000      -0.582498       -15.8506
 179   2.0000      -0.580136       -15.7863
 180   2.0000      -0.577954       -15.7269
 181   2.0000      -0.573637       -15.6095
 182   2.0000      -0.564671       -15.3655
 183   2.0000      -0.560183       -15.2434
 184   2.0000      -0.559046       -15.2124
 185   2.0000      -0.554867       -15.0987
 186   2.0000      -0.548324       -14.9207
 187   2.0000      -0.542975       -14.7751
 188   2.0000      -0.540866       -14.7177
 189   2.0000      -0.538380       -14.6501
 190   2.0000      -0.536174       -14.5900
 191   2.0000      -0.533328       -14.5126
 192   2.0000      -0.531853       -14.4725
 193   2.0000      -0.530648       -14.4397
 194   2.0000      -0.527180       -14.3453
 195   2.0000      -0.524755       -14.2793
 196   2.0000      -0.521212       -14.1829
 197   2.0000      -0.521109       -14.1801
 198   2.0000      -0.518319       -14.1042
 199   2.0000      -0.516748       -14.0614
 200   2.0000      -0.515456       -14.0263
 201   2.0000      -0.513712       -13.9788
 202   2.0000      -0.511081       -13.9072
 203   2.0000      -0.506653       -13.7867
 204   2.0000      -0.505593       -13.7579
 205   2.0000      -0.502072       -13.6621
 206   2.0000      -0.501731       -13.6528
 207   2.0000      -0.498755       -13.5718
 208   2.0000      -0.496541       -13.5116
 209   2.0000      -0.495286       -13.4774
 210   2.0000      -0.492973       -13.4145
 211   2.0000      -0.491032       -13.3617
 212   2.0000      -0.490820       -13.3559
 213   2.0000      -0.487620       -13.2688
 214   2.0000      -0.486425       -13.2363
 215   2.0000      -0.483600       -13.1594
 216   2.0000      -0.480449       -13.0737
 217   2.0000      -0.471945       -12.8423
 218   2.0000      -0.469734       -12.7821
 219   2.0000      -0.468149       -12.7390
 220   2.0000      -0.465476       -12.6662
 221   2.0000      -0.464471       -12.6389
 222   2.0000      -0.461887       -12.5686
 223   2.0000      -0.459022       -12.4906
 224   2.0000      -0.455701       -12.4002
 225   2.0000      -0.454309       -12.3624
 226   2.0000      -0.452418       -12.3109
 227   2.0000      -0.451425       -12.2839
 228   2.0000      -0.450128       -12.2486
 229   2.0000      -0.447756       -12.1841
 230   2.0000      -0.446562       -12.1516
 231   2.0000      -0.443494       -12.0681
 232   2.0000      -0.439496       -11.9593
 233   2.0000      -0.437704       -11.9105
 234   2.0000      -0.436012       -11.8645
 235   2.0000      -0.433036       -11.7835
 236   2.0000      -0.432520       -11.7695
 237   2.0000      -0.426656       -11.6099
 238   2.0000      -0.425898       -11.5893
 239   2.0000      -0.421071       -11.4579
 240   2.0000      -0.416097       -11.3226
 241   2.0000      -0.415040       -11.2938
 242   2.0000      -0.412886       -11.2352
 243   2.0000      -0.407339       -11.0843
 244   2.0000      -0.403709       -10.9855
 245   2.0000      -0.401474       -10.9247
 246   2.0000      -0.400577       -10.9003
 247   2.0000      -0.398853       -10.8534
 248   2.0000      -0.392889       -10.6910
 249   2.0000      -0.386325       -10.5124
 250   2.0000      -0.382988       -10.4216
 251   2.0000      -0.378944       -10.3116
 252   2.0000      -0.375355       -10.2139
 253   2.0000      -0.371122       -10.0987
 254   2.0000      -0.369653       -10.0588
 255   2.0000      -0.367993       -10.0136
 256   2.0000      -0.360248        -9.8029
 257   2.0000      -0.358189        -9.7468
 258   2.0000      -0.353838        -9.6284
 259   2.0000      -0.351152        -9.5553
 260   2.0000      -0.347631        -9.4595
 261   2.0000      -0.344446        -9.3728
 262   2.0000      -0.339433        -9.2364
 263   2.0000      -0.337970        -9.1966
 264   2.0000      -0.333355        -9.0710
 265   2.0000      -0.329768        -8.9734
 266   2.0000      -0.326883        -8.8949
 267   2.0000      -0.320150        -8.7117
 268   2.0000      -0.307293        -8.3619
 269   2.0000      -0.306560        -8.3419
 270   2.0000      -0.289330        -7.8731
 271   2.0000      -0.281482        -7.6595
 272   2.0000      -0.241170        -6.5626
 273   2.0000      -0.224451        -6.1076
 274   0.0000      -0.109639        -2.9834
 275   0.0000      -0.077819        -2.1176
 276   0.0000      -0.062374        -1.6973
 277   0.0000      -0.042730        -1.1627
 278   0.0000      -0.031315        -0.8521

MULLIKEN ATOMIC CHARGES
-----------------------
   0 C :    0.335989
   1 C :   -0.323643
   2 C :   -0.184966
   3 N :    0.133089
   4 C :   -0.204221
   5 N :    0.147798
   6 C :    0.003361
   7 C :   -0.001884
   8 C :   -0.089194
   9 C :    0.126642
  10 C :   -0.103650
  11 C :   -0.018917
  12 S :    0.198501
  13 C :   -0.123616
  14 C :    0.039332
  15 Br:    0.019569
  16 C :    0.143894
  17 O :   -0.169576
  18 C :   -0.069204
  19 C :   -0.081188
  20 C :    0.031583
  21 C :   -0.022821
  22 C :    0.023678
  23 C :    0.045271
  24 C :   -0.046030
  25 S :    0.088552
  26 C :   -0.041582
  27 C :    0.025582
  28 C :    0.070353
  29 C :   -0.007806
  30 S :    0.079691
  31 C :   -0.053838
  32 C :   -0.015295
  33 C :    0.167152
  34 O :   -0.157826
  35 O :   -0.254305
  36 C :    0.191144
  37 C :   -0.164438
  38 C :    0.065960
  39 C :    0.170971
  40 C :   -0.121667
  41 C :    0.170630
  42 O :   -0.258721
  43 C :    0.171154
  44 O :   -0.149420
  45 C :   -0.066992
  46 C :   -0.064748
  47 C :    0.000463
  48 C :    0.042203
  49 C :    0.048737
  50 C :   -0.055319
  51 S :    0.120081
  52 C :   -0.081602
  53 C :    0.078160
  54 C :    0.033256
  55 C :   -0.030253
  56 S :    0.134775
  57 C :   -0.059762
  58 C :    0.121570
  59 O :   -0.223700
  60 C :   -0.044694
  61 C :    0.172449
  62 O :   -0.176755
  63 N :   -0.152219
  64 C :    0.150606
  65 O :   -0.141481
  66 C :   -0.031527
  67 C :    0.046361
  68 C :   -0.009306
  69 C :    0.011605
  70 H :   -0.020310
  71 H :   -0.010578
  72 H :   -0.010699
  73 H :    0.023063
  74 H :    0.011039
  75 H :   -0.001923
  76 H :   -0.005048
  77 H :   -0.005478
  78 H :    0.002166
  79 H :    0.023223
  80 H :    0.053581
  81 H :    0.015471
  82 H :    0.033273
  83 H :    0.015082
  84 H :    0.001024
  85 H :    0.025365
  86 H :    0.010782
  87 H :    0.022813
  88 H :    0.025175
  89 H :    0.040358
  90 H :    0.001754
  91 H :   -0.014442
  92 H :   -0.017852
  93 H :   -0.020991
  94 H :   -0.008031
  95 H :   -0.008306
  96 H :    0.144219
  97 H :    0.014206
  98 H :    0.023961
  99 H :    0.029105
Sum of atomic charges:   -0.0000000

LOEWDIN ATOMIC CHARGES
----------------------
   0 C :    0.069363
   1 C :   -0.136002
   2 C :   -0.011829
   3 N :   -0.078842
   4 C :   -0.010341
   5 N :   -0.071323
   6 C :   -0.017231
   7 C :   -0.047455
   8 C :    0.017351
   9 C :   -0.036188
  10 C :   -0.146247
  11 C :   -0.017087
  12 S :    0.446423
  13 C :   -0.272345
  14 C :   -0.068769
  15 Br:    0.138629
  16 C :    0.083107
  17 O :   -0.163284
  18 C :   -0.096966
  19 C :    0.047192
  20 C :   -0.061296
  21 C :   -0.113652
  22 C :   -0.043491
  23 C :   -0.012358
  24 C :   -0.190147
  25 S :    0.416110
  26 C :   -0.156254
  27 C :   -0.036992
  28 C :   -0.007208
  29 C :   -0.148228
  30 S :    0.398868
  31 C :   -0.018744
  32 C :   -0.063966
  33 C :    0.081065
  34 O :   -0.145561
  35 O :   -0.071271
  36 C :    0.070168
  37 C :   -0.048583
  38 C :   -0.021576
  39 C :   -0.022109
  40 C :   -0.029084
  41 C :    0.073903
  42 O :   -0.073158
  43 C :    0.080420
  44 O :   -0.142227
  45 C :   -0.059858
  46 C :   -0.053832
  47 C :   -0.137209
  48 C :   -0.027146
  49 C :   -0.031271
  50 C :   -0.166935
  51 S :    0.393518
  52 C :   -0.188142
  53 C :   -0.019020
  54 C :   -0.029459
  55 C :   -0.130461
  56 S :    0.434540
  57 C :   -0.096092
  58 C :    0.071402
  59 O :    0.011483
  60 C :   -0.119735
  61 C :    0.082567
  62 O :   -0.169329
  63 N :    0.005697
  64 C :    0.074187
  65 O :   -0.161678
  66 C :   -0.098192
  67 C :    0.059711
  68 C :   -0.036559
  69 C :   -0.020226
  70 H :    0.037094
  71 H :    0.038098
  72 H :    0.036118
  73 H :    0.029187
  74 H :    0.036653
  75 H :    0.037544
  76 H :    0.035857
  77 H :    0.035773
  78 H :    0.039824
  79 H :    0.039112
  80 H :    0.054000
  81 H :    0.020619
  82 H :    0.014025
  83 H :    0.028914
  84 H :    0.019933
  85 H :    0.030041
  86 H :    0.032989
  87 H :    0.037570
  88 H :    0.034529
  89 H :    0.041767
  90 H :    0.026370
  91 H :    0.031886
  92 H :    0.029926
  93 H :    0.028952
  94 H :    0.034493
  95 H :    0.042376
  96 H :    0.097223
  97 H :    0.044728
  98 H :    0.024995
  99 H :    0.028655

  Mayer bond orders larger than 0.100000
B(  0-C ,  1-C ) :   1.6207 B(  0-C ,  6-C ) :   0.9898 B(  0-C , 18-C ) :   1.0763
B(  1-C ,  2-C ) :   1.1367 B(  1-C ,  4-C ) :   1.1679 B(  2-C ,  3-N ) :   2.9477
B(  4-C ,  5-N ) :   2.9455 B(  6-C ,  7-C ) :   1.2923 B(  6-C , 11-C ) :   1.4034
B(  7-C ,  8-C ) :   1.4010 B(  7-C , 16-C ) :   0.9398 B(  8-C ,  9-C ) :   1.2336
B(  8-C , 70-H ) :   1.0239 B(  9-C , 10-C ) :   1.3119 B(  9-C , 14-C ) :   1.1619
B( 10-C , 11-C ) :   1.3245 B( 10-C , 12-S ) :   1.0893 B( 11-C , 71-H ) :   0.9746
B( 12-S , 13-C ) :   1.0895 B( 13-C , 14-C ) :   1.6068 B( 13-C , 15-Br) :   1.0182
B( 14-C , 72-H ) :   1.0017 B( 16-C , 17-O ) :   2.1678 B( 16-C , 18-C ) :   0.9606
B( 18-C , 19-C ) :   1.5395 B( 19-C , 20-C ) :   1.2186 B( 19-C , 73-H ) :   0.9369
B( 20-C , 21-C ) :   1.4675 B( 20-C , 74-H ) :   0.9733 B( 21-C , 22-C ) :   1.1495
B( 21-C , 25-S ) :   1.0811 B( 22-C , 23-C ) :   1.5635 B( 22-C , 75-H ) :   1.0033
B( 23-C , 24-C ) :   1.1904 B( 23-C , 76-H ) :   0.9971 B( 24-C , 25-S ) :   1.0448
B( 24-C , 26-C ) :   1.5093 B( 26-C , 27-C ) :   1.1558 B( 26-C , 30-S ) :   1.0690
B( 27-C , 28-C ) :   1.6403 B( 27-C , 77-H ) :   0.9946 B( 28-C , 29-C ) :   1.0963
B( 28-C , 78-H ) :   0.9982 B( 29-C , 30-S ) :   1.0078 B( 29-C , 31-C ) :   1.7490
B( 31-C , 32-C ) :   0.9942 B( 31-C , 79-H ) :   0.9737 B( 32-C , 33-C ) :   0.9092
B( 32-C , 37-C ) :   1.0183 B( 32-C , 80-H ) :   0.8784 B( 33-C , 34-O ) :   2.2400
B( 33-C , 35-O ) :   1.1459 B( 35-O , 36-C ) :   0.9638 B( 36-C , 37-C ) :   1.0121
B( 36-C , 41-C ) :   1.0012 B( 36-C , 81-H ) :   0.9026 B( 37-C , 38-C ) :   1.0558
B( 37-C , 82-H ) :   0.8919 B( 38-C , 39-C ) :   1.1238 B( 38-C , 83-H ) :   0.9317
B( 38-C , 84-H ) :   0.9182 B( 39-C , 40-C ) :   1.0147 B( 39-C , 85-H ) :   0.9232
B( 39-C , 86-H ) :   0.9240 B( 40-C , 41-C ) :   1.0575 B( 40-C , 45-C ) :   0.9868
B( 40-C , 87-H ) :   0.9107 B( 41-C , 42-O ) :   0.9667 B( 41-C , 88-H ) :   0.9010
B( 42-O , 43-C ) :   1.1243 B( 43-C , 44-O ) :   2.2551 B( 43-C , 45-C ) :   0.8873
B( 45-C , 46-C ) :   0.9968 B( 45-C , 89-H ) :   0.9099 B( 46-C , 47-C ) :   1.7677
B( 46-C , 90-H ) :   0.9420 B( 47-C , 48-C ) :   1.0857 B( 47-C , 51-S ) :   1.0250
B( 48-C , 49-C ) :   1.6401 B( 48-C , 91-H ) :   0.9966 B( 49-C , 50-C ) :   1.1430
B( 49-C , 92-H ) :   0.9937 B( 50-C , 51-S ) :   1.0625 B( 50-C , 52-C ) :   1.5539
B( 52-C , 53-C ) :   1.1588 B( 52-C , 56-S ) :   1.0296 B( 53-C , 54-C ) :   1.6088
B( 53-C , 93-H ) :   0.9884 B( 54-C , 55-C ) :   1.1182 B( 54-C , 94-H ) :   1.0018
B( 55-C , 56-S ) :   1.0668 B( 55-C , 57-C ) :   1.5550 B( 57-C , 58-C ) :   1.1815
B( 57-C , 95-H ) :   0.9489 B( 58-C , 59-O ) :   1.1119 B( 58-C , 60-C ) :   1.3958
B( 59-O , 67-C ) :   1.1405 B( 60-C , 61-C ) :   0.8993 B( 60-C , 66-C ) :   1.2493
B( 61-C , 62-O ) :   2.0930 B( 61-C , 63-N ) :   1.1075 B( 63-N , 64-C ) :   1.0779
B( 63-N , 96-H ) :   0.9109 B( 64-C , 65-O ) :   2.2653 B( 64-C , 66-C ) :   0.8785
B( 66-C , 67-C ) :   1.4440 B( 67-C , 68-C ) :   1.1493 B( 68-C , 69-C ) :   1.8971
B( 68-C , 97-H ) :   0.9510 B( 69-C , 98-H ) :   0.9563 B( 69-C , 99-H ) :   0.9432

-----------------------------------------------------------------------------
         ABSORPTION SPECTRUM VIA TRANSITION ELECTRIC DIPOLE MOMENTS
-----------------------------------------------------------------------------
State   Energy  Wavelength   fosc         T2         TX        TY        TZ
        (cm-1)    (nm)                  (au**2)     (au)      (au)      (au)
-----------------------------------------------------------------------------
   0    8767.4   1140.6   0.002161041   0.08115   0.18622  -0.20781   0.05731
   1   13589.2    735.9   0.442436812  10.71847   1.29223  -1.45038  -2.63534
   2   17248.3    579.8   1.528235154  29.16888   2.08620  -1.38559  -4.78506
   3   17843.7    560.4   0.016334757   0.30137   0.18136  -0.01654   0.51789
   4   18787.4    532.3   0.026983215   0.47283   0.50768  -0.40200  -0.23126
   5   22093.8    452.6   0.014710856   0.21920  -0.38723   0.16103  -0.20814
   6   22762.1    439.3   0.050888213   0.73600  -0.55297  -0.26540   0.59983
   7   23852.9    419.2   0.020313536   0.28036  -0.41309  -0.24035   0.22792
   8   24919.4    401.3   0.210884175   2.78601   0.90723   0.35813  -1.35450
   9   25890.4    386.2   0.016456705   0.20926  -0.06682  -0.31381  -0.32606
  10   26144.1    382.5   0.218703366   2.75396  -1.13372  -0.21333   1.19295
  11   27264.8    366.8   0.003978933   0.04804  -0.09804  -0.14671   0.13003
  12   27323.4    366.0   0.014893249   0.17944  -0.39291  -0.07220   0.14090
  13   28132.5    355.5   0.023232772   0.27187  -0.11765  -0.46466   0.20524
  14   28439.5    351.6   0.114397321   1.32425  -0.61393  -0.82070   0.52325
  15   28584.9    349.8   0.060785667   0.70007   0.45681   0.06641  -0.69784
  16   29285.1    341.5   0.097400057   1.09493  -0.54308   0.46512   0.76397
  17   30021.6    333.1   0.169860457   1.86266   0.23142  -0.73482  -1.12656
  18   30308.7    329.9   0.014645148   0.15908  -0.28827   0.10916   0.25310
  19   30826.2    324.4   0.308352947   3.29309   1.05471   1.29424  -0.71107
  20   31178.8    320.7   0.107162406   1.13151  -0.52387  -0.90689   0.18608
  21   31354.2    318.9   0.113529720   1.19203   0.58483   0.04055  -0.92106
  22   32275.0    309.8   0.243928653   2.48812  -0.73155   0.73718   1.18723
  23   32541.9    307.3   0.001329466   0.01345  -0.01576  -0.08831   0.07350
  24   32818.3    304.7   0.072086367   0.72312   0.54610   0.38832  -0.52355
  25   32924.0    303.7   0.008955880   0.08955   0.17689   0.20308  -0.13045
  26   33102.9    302.1   0.019843250   0.19734  -0.41102  -0.10233   0.13391
  27   33477.5    298.7   0.096231451   0.94632  -0.12585   0.21810   0.93964
  28   33746.9    296.3   0.020347280   0.19849  -0.33218  -0.27426   0.11371
  29   34089.0    293.3   0.048904139   0.47229   0.20808  -0.25594  -0.60290
  30   34521.2    289.7   0.023221526   0.22145  -0.25542   0.16196   0.36053
  31   34741.6    287.8   0.013797306   0.13074   0.24762  -0.18135  -0.19115
  32   34825.4    287.1   0.006064020   0.05732   0.08197   0.22036  -0.04526
  33   35112.1    284.8   0.012690385   0.11899  -0.31336   0.13583   0.04840
  34   35484.0    281.8   0.074624733   0.69235   0.61701   0.53916  -0.14476
  35   35543.0    281.3   0.085743778   0.79419  -0.66458  -0.59252  -0.03804
  36   35808.8    279.3   0.124636491   1.14586  -0.24450   0.94971   0.42911
  37   35991.6    277.8   0.009885739   0.09042   0.21025  -0.04385  -0.21047
  38   36043.6    277.4   0.072571935   0.66285   0.46054   0.54355  -0.39409
  39   36289.2    275.6   0.021656000   0.19646   0.18826  -0.03297  -0.39992
  40   36386.9    274.8   0.002644848   0.02393   0.03851  -0.03814  -0.14488
  41   36533.9    273.7   0.035605827   0.32085   0.22913   0.01831  -0.51770
  42   36843.7    271.4   0.135669756   1.21226   0.47017   0.18868  -0.97754
  43   37190.6    268.9   0.114286774   1.01167  -0.33893  -0.94693  -0.01121
  44   37264.6    268.4   0.018237064   0.16111  -0.09093   0.30476   0.24488
  45   37717.0    265.1   0.051447184   0.44906  -0.40494   0.08458   0.52719
  46   37805.8    264.5   0.013249471   0.11538   0.23699   0.24275   0.01687
  47   38033.2    262.9   0.005253769   0.04548  -0.05657   0.08167   0.18870
  48   38337.0    260.8   0.111783934   0.95992   0.47610   0.80746   0.28506
  49   38844.4    257.4   0.058946062   0.49958   0.41254   0.56132  -0.11963
  50   38989.4    256.5   0.061711481   0.52107   0.02831   0.60694   0.38973
  51   39265.6    254.7   0.020140017   0.16886   0.24932   0.25183   0.20804
  52   39328.8    254.3   0.040039984   0.33517  -0.50454   0.02277   0.28299
  53   39883.3    250.7   0.059482259   0.49099   0.43316   0.53917  -0.11250
  54   39973.7    250.2   0.010085367   0.08306  -0.10132  -0.11575   0.24371
  55   40317.4    248.0   0.001428072   0.01166   0.04538   0.05068   0.08387

FINAL SINGLE POINT ENERGY     -7364.499027367807

DIPOLE MOMENT
-------------
                                X             Y             Z
Electronic contribution:     46.11742     -39.02918    -129.34852
Nuclear contribution   :    -44.53004      43.22116     128.72259
                        -----------------------------------------
Total Dipole Moment    :      1.58738       4.19198      -0.62593
                        -----------------------------------------
Magnitude (a.u.)       :      4.52595
Magnitude (Debye)      :     11.50405

Rotational constants in cm-1:     0.002174     0.000467     0.000434
Rotational constants in MHz :    65.160686    13.987662    13.002276

                             ****ORCA TERMINATED NORMALLY****
TOTAL RUN TIME: 0 days 0 hours 15 minutes 1 seconds 382 msec
