                         Program Version 4.2.0 -  RELEASE  -
|  1> # ORCA input file
|  2> # SCF done       -188.537897830299          0.000744692530
|  3> ! CAM-B3LYP def2-SVP def2/J RIJCOSX Grid4 TightSCF
|  4> %maxcore 5000
|  5> %tddft
|  6>     Mode sTDDFT
|  7>     Ethresh 5.0
|  8>     maxcore 5000
|  9> end
| 10>
| 11> %pal
| 12>   nprocs 6
| 13>   end
| 14> * xyz 0 1
| 15>    C      -11.08936        -6.44275       -10.38539
| 16>    C      -10.33062        -7.10597        -9.44623
| 17>    C       -9.60057        -8.28186        -9.70705
| 18>    N       -8.97750        -9.23750        -9.84549
| 19>    C      -10.15567        -6.73614        -8.09869
| 20>    N       -9.93809        -6.52817        -6.98839
| 21>    C      -11.23892        -6.85067       -11.78185
| 22>    C      -12.09128        -5.92739       -12.43474
| 23>    C      -12.42406        -6.03588       -13.76161
| 24>    C      -11.88877        -7.10898       -14.48353
| 25>    C      -11.03925        -8.02591       -13.82372
| 26>    C      -10.70314        -7.91592       -12.47910
| 27>    S      -10.48688        -9.27415       -14.90042
| 28>    C      -11.39340        -8.55456       -16.20421
| 29>    C      -12.07504        -7.43856       -15.85439
| 30>   Br      -11.35351        -9.34458       -17.90583
| 31>    C      -12.51813        -4.89215       -11.46773
| 32>    O      -13.25391        -3.95184       -11.69901
| 33>    C      -11.86792        -5.24860       -10.19463
| 34>    C      -11.99872        -4.53635        -9.01882
| 35>    C      -12.75601        -3.38418        -8.84413
| 36>    C      -12.82315        -2.73539        -7.62405
| 37>    C      -13.54709        -1.56549        -7.30064
| 38>    C      -13.41136        -1.16340        -6.00191
| 39>    C      -12.57217        -1.99918        -5.23872
| 40>    S      -11.96119        -3.31397        -6.22058
| 41>    C      -12.19689        -1.91737        -3.91041
| 42>    C      -12.53606        -0.96793        -2.91881
| 43>    C      -11.96291        -1.21400        -1.71035
| 44>    C      -11.13421        -2.37335        -1.66429
| 45>    S      -11.13171        -3.12699        -3.25273
| 46>    C      -10.46437        -2.81702        -0.56020
| 47>    C       -9.62322        -3.96489        -0.40073
| 48>    C       -9.08359        -4.21823         0.87536
| 49>    C       -8.27676        -5.31505         1.14599
| 50>    C       -7.96486        -6.17072         0.07776
| 51>    C       -8.48685        -5.93570        -1.20819
| 52>    C       -9.30959        -4.84948        -1.43810
| 53>    C       -8.06984        -6.93731        -2.15780
| 54>    C       -7.24731        -7.90624        -1.56486
| 55>    S       -6.97848        -7.60137         0.14383
| 56>    C       -6.72977        -8.96416        -2.29191
| 57>    C       -7.04665        -9.05096        -3.63529
| 58>    C       -7.86377        -8.09994        -4.23873
| 59>    C       -8.37655        -7.04500        -3.51128
| 60>    C       -7.77790        -5.54547         2.48669
| 61>    S       -6.15858        -6.05756         2.77138
| 62>    C       -6.32263        -5.97992         4.49422
| 63>    C       -7.63017        -5.61786         4.84058
| 64>    C       -8.45431        -5.36612         3.69146
| 65>    C       -9.82262        -5.05462         3.86102
| 66>    C      -10.33032        -4.97004         5.12080
| 67>    F      -11.62967        -4.67387         5.30300
| 68>    C       -9.52079        -5.22035         6.25395
| 69>    F      -10.07852        -5.15568         7.47664
| 70>    C       -8.20546        -5.55303         6.12674
| 71>    C       -5.17466        -6.27762         5.27664
| 72>    C       -4.94386        -5.92197         6.56053
| 73>    C       -3.77530        -6.28454         7.28739
| 74>    C       -3.47787        -5.92118         8.57489
| 75>    C       -2.25648        -6.45201         9.04571
| 76>    C       -1.62195        -7.24527         8.06357
| 77>    S       -2.53017        -7.31303         6.58979
| 78>    N       -0.47550        -7.88104         8.22067
| 79>    C        0.08922        -7.75281         9.39918
| 80>    C       -0.42537        -6.98712        10.46556
| 81>    C       -1.61103        -6.30635        10.29362
| 82>    C       -2.22685        -5.47307        11.37904
| 83>    C       -3.25346        -6.28983        12.16702
| 84>    C        0.46347        -6.97264        11.67449
| 85>    C        1.42298        -8.15348        11.54948
| 86>    S        1.60048        -8.54328         9.76413
| 87>    H      -13.07610        -5.31570       -14.23059
| 88>    H      -10.05052        -8.64175       -12.02380
| 89>    H      -12.68403        -6.86949       -16.53291
| 90>    H      -11.46554        -4.90025        -8.14812
| 91>    H      -13.30879        -2.97903        -9.67866
| 92>    H      -14.14498        -1.05761        -8.03633
| 93>    H      -13.88945        -0.29677        -5.58090
| 94>    H      -13.18766        -0.13802        -3.12587
| 95>    H      -12.10514        -0.60099        -0.83756
| 96>    H      -10.59730        -2.21560         0.33168
| 97>    H       -9.28373        -3.51700         1.67131
| 98>    H       -9.69062        -4.70502        -2.43270
| 99>    H       -6.09763        -9.69816        -1.81697
|100>    H       -6.65465        -9.86842        -4.22108
|101>    H       -8.10368        -8.18397        -5.28740
|102>    H       -9.00957        -6.31429        -3.98978
|103>    H      -10.46978        -4.91824         3.01042
|104>    H       -7.63765        -5.79632         7.00776
|105>    H       -4.39151        -6.81575         4.75607
|106>    H       -5.64570        -5.30405         7.10077
|107>    H       -4.12707        -5.29523         9.16094
|108>    H       -2.71842        -4.60634        10.93419
|109>    H       -1.45096        -5.11003        12.05439
|110>    H       -4.04207        -6.64590        11.50838
|111>    H       -3.70077        -5.68050        12.94858
|112>    H       -2.78149        -7.15419        12.62907
|113>    H       -0.10701        -7.04892        12.60077
|114>    H        1.02177        -6.03095        11.69471
|115>    H        1.02324        -9.04721        12.02982
|116>    H        2.41135        -7.94475        11.95119
|117> *
|118>
|119>                          ****END OF INPUT****

CARTESIAN COORDINATES (ANGSTROEM)
---------------------------------
  C    -11.089360   -6.442750  -10.385390
  C    -10.330620   -7.105970   -9.446230
  C     -9.600570   -8.281860   -9.707050
  N     -8.977500   -9.237500   -9.845490
  C    -10.155670   -6.736140   -8.098690
  N     -9.938090   -6.528170   -6.988390
  C    -11.238920   -6.850670  -11.781850
  C    -12.091280   -5.927390  -12.434740
  C    -12.424060   -6.035880  -13.761610
  C    -11.888770   -7.108980  -14.483530
  C    -11.039250   -8.025910  -13.823720
  C    -10.703140   -7.915920  -12.479100
  S    -10.486880   -9.274150  -14.900420
  C    -11.393400   -8.554560  -16.204210
  C    -12.075040   -7.438560  -15.854390
  Br   -11.353510   -9.344580  -17.905830
  C    -12.518130   -4.892150  -11.467730
  O    -13.253910   -3.951840  -11.699010
  C    -11.867920   -5.248600  -10.194630
  C    -11.998720   -4.536350   -9.018820
  C    -12.756010   -3.384180   -8.844130
  C    -12.823150   -2.735390   -7.624050
  C    -13.547090   -1.565490   -7.300640
  C    -13.411360   -1.163400   -6.001910
  C    -12.572170   -1.999180   -5.238720
  S    -11.961190   -3.313970   -6.220580
  C    -12.196890   -1.917370   -3.910410
  C    -12.536060   -0.967930   -2.918810
  C    -11.962910   -1.214000   -1.710350
  C    -11.134210   -2.373350   -1.664290
  S    -11.131710   -3.126990   -3.252730
  C    -10.464370   -2.817020   -0.560200
  C     -9.623220   -3.964890   -0.400730
  C     -9.083590   -4.218230    0.875360
  C     -8.276760   -5.315050    1.145990
  C     -7.964860   -6.170720    0.077760
  C     -8.486850   -5.935700   -1.208190
  C     -9.309590   -4.849480   -1.438100
  C     -8.069840   -6.937310   -2.157800
  C     -7.247310   -7.906240   -1.564860
  S     -6.978480   -7.601370    0.143830
  C     -6.729770   -8.964160   -2.291910
  C     -7.046650   -9.050960   -3.635290
  C     -7.863770   -8.099940   -4.238730
  C     -8.376550   -7.045000   -3.511280
  C     -7.777900   -5.545470    2.486690
  S     -6.158580   -6.057560    2.771380
  C     -6.322630   -5.979920    4.494220
  C     -7.630170   -5.617860    4.840580
  C     -8.454310   -5.366120    3.691460
  C     -9.822620   -5.054620    3.861020
  C    -10.330320   -4.970040    5.120800
  F    -11.629670   -4.673870    5.303000
  C     -9.520790   -5.220350    6.253950
  F    -10.078520   -5.155680    7.476640
  C     -8.205460   -5.553030    6.126740
  C     -5.174660   -6.277620    5.276640
  C     -4.943860   -5.921970    6.560530
  C     -3.775300   -6.284540    7.287390
  C     -3.477870   -5.921180    8.574890
  C     -2.256480   -6.452010    9.045710
  C     -1.621950   -7.245270    8.063570
  S     -2.530170   -7.313030    6.589790
  N     -0.475500   -7.881040    8.220670
  C      0.089220   -7.752810    9.399180
  C     -0.425370   -6.987120   10.465560
  C     -1.611030   -6.306350   10.293620
  C     -2.226850   -5.473070   11.379040
  C     -3.253460   -6.289830   12.167020
  C      0.463470   -6.972640   11.674490
  C      1.422980   -8.153480   11.549480
  S      1.600480   -8.543280    9.764130
  H    -13.076100   -5.315700  -14.230590
  H    -10.050520   -8.641750  -12.023800
  H    -12.684030   -6.869490  -16.532910
  H    -11.465540   -4.900250   -8.148120
  H    -13.308790   -2.979030   -9.678660
  H    -14.144980   -1.057610   -8.036330
  H    -13.889450   -0.296770   -5.580900
  H    -13.187660   -0.138020   -3.125870
  H    -12.105140   -0.600990   -0.837560
  H    -10.597300   -2.215600    0.331680
  H     -9.283730   -3.517000    1.671310
  H     -9.690620   -4.705020   -2.432700
  H     -6.097630   -9.698160   -1.816970
  H     -6.654650   -9.868420   -4.221080
  H     -8.103680   -8.183970   -5.287400
  H     -9.009570   -6.314290   -3.989780
  H    -10.469780   -4.918240    3.010420
  H     -7.637650   -5.796320    7.007760
  H     -4.391510   -6.815750    4.756070
  H     -5.645700   -5.304050    7.100770
  H     -4.127070   -5.295230    9.160940
  H     -2.718420   -4.606340   10.934190
  H     -1.450960   -5.110030   12.054390
  H     -4.042070   -6.645900   11.508380
  H     -3.700770   -5.680500   12.948580
  H     -2.781490   -7.154190   12.629070
  H     -0.107010   -7.048920   12.600770
  H      1.021770   -6.030950   11.694710
  H      1.023240   -9.047210   12.029820
  H      2.411350   -7.944750   11.951190

 Total Charge           Charge          ....    0
 Multiplicity           Mult            ....    1
 Number of Electrons    NEL             ....  572
 Basis Dimension        Dim             .... 1204

ORBITAL ENERGIES
----------------

  NO   OCC          E(Eh)            E(eV)
   0   2.0000    -482.877170    -13139.7558
   1   2.0000     -88.971331     -2421.0330
   2   2.0000     -88.964985     -2420.8603
   3   2.0000     -88.964835     -2420.8562
   4   2.0000     -88.957817     -2420.6653
   5   2.0000     -88.950193     -2420.4578
   6   2.0000     -88.942248     -2420.2416
   7   2.0000     -88.917147     -2419.5586
   8   2.0000     -62.554903     -1702.2054
   9   2.0000     -56.388843     -1534.4184
  10   2.0000     -56.386146     -1534.3450
  11   2.0000     -56.386107     -1534.3440
  12   2.0000     -24.785848      -674.4572
  13   2.0000     -24.785687      -674.4528
  14   2.0000     -19.199941      -522.4569
  15   2.0000     -14.406945      -392.0329
  16   2.0000     -14.399557      -391.8319
  17   2.0000     -14.399429      -391.8284
  18   2.0000     -10.367237      -282.1069
  19   2.0000     -10.366840      -282.0961
  20   2.0000     -10.350096      -281.6404
  21   2.0000     -10.348671      -281.6017
  22   2.0000     -10.336700      -281.2759
  23   2.0000     -10.327370      -281.0220
  24   2.0000     -10.325380      -280.9679
  25   2.0000     -10.323258      -280.9101
  26   2.0000     -10.322936      -280.9014
  27   2.0000     -10.322758      -280.8965
  28   2.0000     -10.322367      -280.8859
  29   2.0000     -10.320950      -280.8473
  30   2.0000     -10.313280      -280.6386
  31   2.0000     -10.311500      -280.5902
  32   2.0000     -10.311351      -280.5861
  33   2.0000     -10.309396      -280.5329
  34   2.0000     -10.309028      -280.5229
  35   2.0000     -10.308835      -280.5177
  36   2.0000     -10.307442      -280.4797
  37   2.0000     -10.306600      -280.4568
  38   2.0000     -10.304211      -280.3918
  39   2.0000     -10.303295      -280.3669
  40   2.0000     -10.302675      -280.3500
  41   2.0000     -10.300652      -280.2950
  42   2.0000     -10.298485      -280.2360
  43   2.0000     -10.297548      -280.2105
  44   2.0000     -10.296777      -280.1896
  45   2.0000     -10.295418      -280.1526
  46   2.0000     -10.294499      -280.1276
  47   2.0000     -10.294316      -280.1226
  48   2.0000     -10.294251      -280.1208
  49   2.0000     -10.293193      -280.0920
  50   2.0000     -10.293152      -280.0909
  51   2.0000     -10.292400      -280.0704
  52   2.0000     -10.290199      -280.0106
  53   2.0000     -10.288671      -279.9690
  54   2.0000     -10.288524      -279.9650
  55   2.0000     -10.288059      -279.9523
  56   2.0000     -10.287979      -279.9501
  57   2.0000     -10.287795      -279.9451
  58   2.0000     -10.287112      -279.9265
  59   2.0000     -10.286960      -279.9224
  60   2.0000     -10.285133      -279.8727
  61   2.0000     -10.284940      -279.8674
  62   2.0000     -10.284326      -279.8507
  63   2.0000     -10.277968      -279.6777
  64   2.0000     -10.277125      -279.6548
  65   2.0000     -10.275964      -279.6232
  66   2.0000     -10.275906      -279.6216
  67   2.0000     -10.275745      -279.6172
  68   2.0000     -10.274461      -279.5823
  69   2.0000     -10.273946      -279.5683
  70   2.0000     -10.273502      -279.5562
  71   2.0000     -10.272047      -279.5166
  72   2.0000     -10.266773      -279.3731
  73   2.0000     -10.266721      -279.3717
  74   2.0000     -10.265774      -279.3459
  75   2.0000     -10.259875      -279.1854
  76   2.0000      -8.784341      -239.0341
  77   2.0000      -8.066350      -219.4966
  78   2.0000      -8.061025      -219.3516
  79   2.0000      -8.060528      -219.3381
  80   2.0000      -8.054002      -219.1605
  81   2.0000      -8.045805      -218.9375
  82   2.0000      -8.038766      -218.7459
  83   2.0000      -8.014386      -218.0825
  84   2.0000      -6.620613      -180.1560
  85   2.0000      -6.606075      -179.7604
  86   2.0000      -6.605916      -179.7561
  87   2.0000      -6.035233      -164.2270
  88   2.0000      -6.031046      -164.1131
  89   2.0000      -6.030709      -164.1039
  90   2.0000      -6.030284      -164.0924
  91   2.0000      -6.029418      -164.0688
  92   2.0000      -6.026454      -163.9881
  93   2.0000      -6.026103      -163.9786
  94   2.0000      -6.023616      -163.9109
  95   2.0000      -6.022232      -163.8733
  96   2.0000      -6.021555      -163.8548
  97   2.0000      -6.019534      -163.7998
  98   2.0000      -6.015486      -163.6897
  99   2.0000      -6.015139      -163.6802
 100   2.0000      -6.011427      -163.5792
 101   2.0000      -6.008074      -163.4880
 102   2.0000      -6.006911      -163.4564
 103   2.0000      -6.004244      -163.3838
 104   2.0000      -6.000263      -163.2754
 105   2.0000      -5.984583      -162.8488
 106   2.0000      -5.980550      -162.7390
 107   2.0000      -5.974122      -162.5641
 108   2.0000      -2.736434       -74.4621
 109   2.0000      -2.732432       -74.3532
 110   2.0000      -2.732303       -74.3497
 111   2.0000      -2.720747       -74.0353
 112   2.0000      -2.720720       -74.0345
 113   2.0000      -1.307021       -35.5658
 114   2.0000      -1.292184       -35.1621
 115   2.0000      -1.113097       -30.2889
 116   2.0000      -1.049410       -28.5559
 117   2.0000      -1.013934       -27.5905
 118   2.0000      -1.010337       -27.4927
 119   2.0000      -1.010114       -27.4866
 120   2.0000      -1.001748       -27.2590
 121   2.0000      -0.996487       -27.1158
 122   2.0000      -0.989415       -26.9234
 123   2.0000      -0.981953       -26.7203
 124   2.0000      -0.975329       -26.5401
 125   2.0000      -0.968310       -26.3491
 126   2.0000      -0.955508       -26.0007
 127   2.0000      -0.943549       -25.6753
 128   2.0000      -0.940835       -25.6014
 129   2.0000      -0.931376       -25.3440
 130   2.0000      -0.921727       -25.0815
 131   2.0000      -0.913652       -24.8617
 132   2.0000      -0.907472       -24.6936
 133   2.0000      -0.902175       -24.5494
 134   2.0000      -0.895849       -24.3773
 135   2.0000      -0.887598       -24.1528
 136   2.0000      -0.875724       -23.8297
 137   2.0000      -0.873633       -23.7728
 138   2.0000      -0.869377       -23.6570
 139   2.0000      -0.864502       -23.5243
 140   2.0000      -0.860444       -23.4139
 141   2.0000      -0.846525       -23.0351
 142   2.0000      -0.840234       -22.8639
 143   2.0000      -0.837433       -22.7877
 144   2.0000      -0.836810       -22.7708
 145   2.0000      -0.832167       -22.6444
 146   2.0000      -0.829083       -22.5605
 147   2.0000      -0.817438       -22.2436
 148   2.0000      -0.814276       -22.1576
 149   2.0000      -0.813166       -22.1274
 150   2.0000      -0.802272       -21.8309
 151   2.0000      -0.797258       -21.6945
 152   2.0000      -0.785533       -21.3754
 153   2.0000      -0.776726       -21.1358
 154   2.0000      -0.758418       -20.6376
 155   2.0000      -0.745479       -20.2855
 156   2.0000      -0.741314       -20.1722
 157   2.0000      -0.735685       -20.0190
 158   2.0000      -0.731622       -19.9085
 159   2.0000      -0.725196       -19.7336
 160   2.0000      -0.719602       -19.5814
 161   2.0000      -0.704269       -19.1641
 162   2.0000      -0.695485       -18.9251
 163   2.0000      -0.689579       -18.7644
 164   2.0000      -0.683990       -18.6123
 165   2.0000      -0.680098       -18.5064
 166   2.0000      -0.677079       -18.4243
 167   2.0000      -0.674005       -18.3406
 168   2.0000      -0.671712       -18.2782
 169   2.0000      -0.662321       -18.0227
 170   2.0000      -0.658485       -17.9183
 171   2.0000      -0.651742       -17.7348
 172   2.0000      -0.646917       -17.6035
 173   2.0000      -0.645750       -17.5717
 174   2.0000      -0.644902       -17.5487
 175   2.0000      -0.632765       -17.2184
 176   2.0000      -0.629892       -17.1402
 177   2.0000      -0.627825       -17.0840
 178   2.0000      -0.619140       -16.8476
 179   2.0000      -0.615021       -16.7356
 180   2.0000      -0.610477       -16.6119
 181   2.0000      -0.609030       -16.5725
 182   2.0000      -0.606940       -16.5157
 183   2.0000      -0.601402       -16.3650
 184   2.0000      -0.589866       -16.0511
 185   2.0000      -0.586949       -15.9717
 186   2.0000      -0.583635       -15.8815
 187   2.0000      -0.581756       -15.8304
 188   2.0000      -0.574731       -15.6392
 189   2.0000      -0.572300       -15.5731
 190   2.0000      -0.565556       -15.3896
 191   2.0000      -0.562391       -15.3034
 192   2.0000      -0.560299       -15.2465
 193   2.0000      -0.549589       -14.9551
 194   2.0000      -0.548776       -14.9330
 195   2.0000      -0.542985       -14.7754
 196   2.0000      -0.538530       -14.6541
 197   2.0000      -0.536557       -14.6005
 198   2.0000      -0.534691       -14.5497
 199   2.0000      -0.532648       -14.4941
 200   2.0000      -0.530388       -14.4326
 201   2.0000      -0.527552       -14.3554
 202   2.0000      -0.525787       -14.3074
 203   2.0000      -0.523163       -14.2360
 204   2.0000      -0.520868       -14.1735
 205   2.0000      -0.518332       -14.1045
 206   2.0000      -0.517002       -14.0683
 207   2.0000      -0.515240       -14.0204
 208   2.0000      -0.514121       -13.9900
 209   2.0000      -0.512457       -13.9447
 210   2.0000      -0.511381       -13.9154
 211   2.0000      -0.508403       -13.8344
 212   2.0000      -0.504882       -13.7385
 213   2.0000      -0.503353       -13.6969
 214   2.0000      -0.499000       -13.5785
 215   2.0000      -0.497293       -13.5320
 216   2.0000      -0.496881       -13.5208
 217   2.0000      -0.496065       -13.4986
 218   2.0000      -0.494799       -13.4642
 219   2.0000      -0.494002       -13.4425
 220   2.0000      -0.488701       -13.2982
 221   2.0000      -0.485811       -13.2196
 222   2.0000      -0.482836       -13.1386
 223   2.0000      -0.482346       -13.1253
 224   2.0000      -0.480574       -13.0771
 225   2.0000      -0.478820       -13.0294
 226   2.0000      -0.478085       -13.0093
 227   2.0000      -0.471913       -12.8414
 228   2.0000      -0.470826       -12.8118
 229   2.0000      -0.466170       -12.6851
 230   2.0000      -0.464772       -12.6471
 231   2.0000      -0.459550       -12.5050
 232   2.0000      -0.457362       -12.4454
 233   2.0000      -0.453443       -12.3388
 234   2.0000      -0.451795       -12.2940
 235   2.0000      -0.449935       -12.2433
 236   2.0000      -0.447116       -12.1666
 237   2.0000      -0.444926       -12.1070
 238   2.0000      -0.443819       -12.0769
 239   2.0000      -0.443716       -12.0741
 240   2.0000      -0.441606       -12.0167
 241   2.0000      -0.439277       -11.9533
 242   2.0000      -0.436149       -11.8682
 243   2.0000      -0.435247       -11.8437
 244   2.0000      -0.431349       -11.7376
 245   2.0000      -0.431078       -11.7302
 246   2.0000      -0.430580       -11.7167
 247   2.0000      -0.427927       -11.6445
 248   2.0000      -0.425554       -11.5799
 249   2.0000      -0.423501       -11.5240
 250   2.0000      -0.421996       -11.4831
 251   2.0000      -0.421257       -11.4630
 252   2.0000      -0.415276       -11.3002
 253   2.0000      -0.412714       -11.2305
 254   2.0000      -0.412161       -11.2155
 255   2.0000      -0.407339       -11.0843
 256   2.0000      -0.405505       -11.0344
 257   2.0000      -0.404478       -11.0064
 258   2.0000      -0.401354       -10.9214
 259   2.0000      -0.395161       -10.7529
 260   2.0000      -0.392844       -10.6898
 261   2.0000      -0.392440       -10.6788
 262   2.0000      -0.389498       -10.5988
 263   2.0000      -0.377333       -10.2677
 264   2.0000      -0.370233       -10.0746
 265   2.0000      -0.366848        -9.9824
 266   2.0000      -0.366052        -9.9608
 267   2.0000      -0.360537        -9.8107
 268   2.0000      -0.357310        -9.7229
 269   2.0000      -0.354321        -9.6416
 270   2.0000      -0.349192        -9.5020
 271   2.0000      -0.335966        -9.1421
 272   2.0000      -0.329445        -8.9647
 273   2.0000      -0.327881        -8.9221
 274   2.0000      -0.320565        -8.7230
 275   2.0000      -0.320218        -8.7136
 276   2.0000      -0.313275        -8.5246
 277   2.0000      -0.304000        -8.2723
 278   2.0000      -0.302811        -8.2399
 279   2.0000      -0.293007        -7.9731
 280   2.0000      -0.290058        -7.8929
 281   2.0000      -0.283447        -7.7130
 282   2.0000      -0.277828        -7.5601
 283   2.0000      -0.267970        -7.2918
 284   2.0000      -0.232526        -6.3274
 285   2.0000      -0.228117        -6.2074
 286   0.0000      -0.107549        -2.9266
 287   0.0000      -0.062245        -1.6938
 288   0.0000      -0.058182        -1.5832
 289   0.0000      -0.038333        -1.0431
 290   0.0000      -0.012851        -0.3497

MULLIKEN ATOMIC CHARGES
-----------------------
   0 C :    0.339313
   1 C :   -0.367286
   2 C :   -0.197037
   3 N :    0.134986
   4 C :   -0.182372
   5 N :    0.127624
   6 C :    0.010393
   7 C :   -0.007565
   8 C :   -0.080317
   9 C :    0.118793
  10 C :   -0.090795
  11 C :   -0.027260
  12 S :    0.179333
  13 C :   -0.123847
  14 C :    0.036650
  15 Br:    0.014765
  16 C :    0.136174
  17 O :   -0.165275
  18 C :   -0.085643
  19 C :   -0.047481
  20 C :   -0.021302
  21 C :    0.008937
  22 C :    0.024643
  23 C :    0.047903
  24 C :   -0.048686
  25 S :    0.090879
  26 C :   -0.000772
  27 C :    0.026021
  28 C :    0.051828
  29 C :   -0.011154
  30 S :    0.056965
  31 C :   -0.016647
  32 C :    0.132820
  33 C :   -0.112890
  34 C :    0.110404
  35 C :   -0.121543
  36 C :    0.116951
  37 C :   -0.094508
  38 C :    0.107634
  39 C :   -0.060623
  40 S :    0.131030
  41 C :   -0.017419
  42 C :    0.029471
  43 C :    0.031070
  44 C :   -0.046216
  45 C :   -0.205447
  46 S :    0.193047
  47 C :   -0.131739
  48 C :    0.108157
  49 C :    0.145063
  50 C :   -0.127892
  51 C :    0.225831
  52 F :   -0.182540
  53 C :    0.228928
  54 F :   -0.182883
  55 C :   -0.119223
  56 C :    0.034859
  57 C :   -0.010084
  58 C :   -0.027967
  59 C :   -0.059463
  60 C :    0.092388
  61 C :   -0.139788
  62 S :    0.108537
  63 N :   -0.026847
  64 C :   -0.108867
  65 C :   -0.115634
  66 C :   -0.067779
  67 C :    0.059527
  68 C :    0.029000
  69 C :    0.127567
  70 C :   -0.073071
  71 S :    0.006847
  72 H :   -0.015417
  73 H :   -0.009777
  74 H :   -0.006343
  75 H :    0.016406
  76 H :    0.014208
  77 H :   -0.000735
  78 H :   -0.005095
  79 H :   -0.006409
  80 H :   -0.000808
  81 H :   -0.011897
  82 H :   -0.017197
  83 H :   -0.009776
  84 H :   -0.021985
  85 H :   -0.006200
  86 H :   -0.000132
  87 H :   -0.010997
  88 H :   -0.006153
  89 H :   -0.013250
  90 H :    0.000446
  91 H :   -0.010758
  92 H :   -0.025062
  93 H :    0.009803
  94 H :    0.005096
  95 H :    0.016574
  96 H :    0.020893
  97 H :    0.010231
  98 H :    0.021240
  99 H :    0.033748
 100 H :    0.061417
 101 H :    0.049453
Sum of atomic charges:   -0.0000000

LOEWDIN ATOMIC CHARGES
----------------------
   0 C :    0.075886
   1 C :   -0.162253
   2 C :   -0.019674
   3 N :   -0.071684
   4 C :   -0.012519
   5 N :   -0.079063
   6 C :   -0.018720
   7 C :   -0.048089
   8 C :    0.017032
   9 C :   -0.035609
  10 C :   -0.146119
  11 C :   -0.013387
  12 S :    0.427307
  13 C :   -0.274732
  14 C :   -0.070909
  15 Br:    0.129828
  16 C :    0.081757
  17 O :   -0.158967
  18 C :   -0.112054
  19 C :    0.049254
  20 C :   -0.076281
  21 C :   -0.100517
  22 C :   -0.045109
  23 C :   -0.004438
  24 C :   -0.196880
  25 S :    0.409684
  26 C :   -0.143501
  27 C :   -0.045291
  28 C :   -0.001682
  29 C :   -0.157782
  30 S :    0.411917
  31 C :   -0.007603
  32 C :   -0.044039
  33 C :   -0.006144
  34 C :   -0.057706
  35 C :   -0.139378
  36 C :   -0.031825
  37 C :   -0.006461
  38 C :   -0.045880
  39 C :   -0.145076
  40 S :    0.389131
  41 C :   -0.041623
  42 C :   -0.013449
  43 C :   -0.015683
  44 C :   -0.003255
  45 C :   -0.192403
  46 S :    0.501364
  47 C :   -0.179311
  48 C :   -0.046350
  49 C :   -0.042197
  50 C :   -0.044179
  51 C :    0.059250
  52 F :   -0.060477
  53 C :    0.060367
  54 F :   -0.060613
  55 C :   -0.041702
  56 C :   -0.051189
  57 C :   -0.040593
  58 C :   -0.153880
  59 C :   -0.060203
  60 C :   -0.078265
  61 C :   -0.128591
  62 S :    0.406103
  63 N :   -0.113298
  64 C :   -0.122887
  65 C :   -0.081155
  66 C :    0.009103
  67 C :   -0.027360
  68 C :   -0.045628
  69 C :   -0.035343
  70 C :   -0.114478
  71 S :    0.288449
  72 H :    0.038841
  73 H :    0.040031
  74 H :    0.037517
  75 H :    0.029258
  76 H :    0.038464
  77 H :    0.038328
  78 H :    0.035936
  79 H :    0.035186
  80 H :    0.038062
  81 H :    0.038401
  82 H :    0.030116
  83 H :    0.011141
  84 H :    0.029819
  85 H :    0.031827
  86 H :    0.035258
  87 H :    0.033484
  88 H :    0.041027
  89 H :    0.039099
  90 H :    0.024438
  91 H :    0.031648
  92 H :    0.025563
  93 H :    0.030020
  94 H :    0.028101
  95 H :    0.025981
  96 H :    0.026267
  97 H :    0.024079
  98 H :    0.032397
  99 H :    0.037393
 100 H :    0.023676
 101 H :    0.025699

  Mayer bond orders larger than 0.100000
B(  0-C ,  1-C ) :   1.5642 B(  0-C ,  6-C ) :   0.9878 B(  0-C , 18-C ) :   1.1245
B(  1-C ,  2-C ) :   1.1508 B(  1-C ,  4-C ) :   1.1586 B(  2-C ,  3-N ) :   2.9635
B(  4-C ,  5-N ) :   2.9356 B(  6-C ,  7-C ) :   1.2787 B(  6-C , 11-C ) :   1.4190
B(  7-C ,  8-C ) :   1.4294 B(  7-C , 16-C ) :   0.9325 B(  8-C ,  9-C ) :   1.2371
B(  8-C , 72-H ) :   1.0173 B(  9-C , 10-C ) :   1.3174 B(  9-C , 14-C ) :   1.1604
B( 10-C , 11-C ) :   1.3195 B( 10-C , 12-S ) :   1.0824 B( 11-C , 73-H ) :   0.9801
B( 12-S , 13-C ) :   1.0868 B( 13-C , 14-C ) :   1.6189 B( 13-C , 15-Br) :   1.0133
B( 14-C , 74-H ) :   1.0010 B( 16-C , 17-O ) :   2.1917 B( 16-C , 18-C ) :   0.9666
B( 18-C , 19-C ) :   1.4671 B( 19-C , 20-C ) :   1.2710 B( 19-C , 75-H ) :   0.9392
B( 20-C , 21-C ) :   1.4024 B( 20-C , 76-H ) :   0.9829 B( 21-C , 22-C ) :   1.1824
B( 21-C , 25-S ) :   1.0949 B( 22-C , 23-C ) :   1.5359 B( 22-C , 77-H ) :   1.0017
B( 23-C , 24-C ) :   1.2196 B( 23-C , 78-H ) :   0.9960 B( 24-C , 25-S ) :   1.0411
B( 24-C , 26-C ) :   1.4662 B( 26-C , 27-C ) :   1.1861 B( 26-C , 30-S ) :   1.0830
B( 27-C , 28-C ) :   1.5934 B( 27-C , 79-H ) :   0.9940 B( 28-C , 29-C ) :   1.1352
B( 28-C , 80-H ) :   0.9989 B( 29-C , 30-S ) :   1.0164 B( 29-C , 31-C ) :   1.5891
B( 31-C , 32-C ) :   1.1021 B( 31-C , 81-H ) :   0.9744 B( 32-C , 33-C ) :   1.2529
B( 32-C , 37-C ) :   1.3061 B( 33-C , 34-C ) :   1.4054 B( 33-C , 82-H ) :   1.0022
B( 34-C , 35-C ) :   1.3464 B( 34-C , 45-C ) :   0.9768 B( 35-C , 36-C ) :   1.3215
B( 35-C , 40-S ) :   1.0705 B( 36-C , 37-C ) :   1.4104 B( 36-C , 38-C ) :   1.0564
B( 37-C , 83-H ) :   0.9661 B( 38-C , 39-C ) :   1.3545 B( 38-C , 44-C ) :   1.3326
B( 39-C , 40-S ) :   1.0072 B( 39-C , 41-C ) :   1.3670 B( 41-C , 42-C ) :   1.4147
B( 41-C , 84-H ) :   0.9948 B( 42-C , 43-C ) :   1.3470 B( 42-C , 85-H ) :   0.9894
B( 43-C , 44-C ) :   1.4282 B( 43-C , 86-H ) :   0.9851 B( 44-C , 87-H ) :   0.9934
B( 45-C , 46-S ) :   1.1841 B( 45-C , 47-C ) :   0.1271 B( 45-C , 49-C ) :   1.4110
B( 46-S , 47-C ) :   1.1611 B( 47-C , 48-C ) :   1.3682 B( 47-C , 56-C ) :   1.1356
B( 48-C , 49-C ) :   1.2013 B( 48-C , 55-C ) :   1.1518 B( 49-C , 50-C ) :   1.1383
B( 50-C , 51-C ) :   1.5162 B( 50-C , 55-C ) :   0.1123 B( 50-C , 88-H ) :   0.9991
B( 51-C , 52-F ) :   1.1232 B( 51-C , 53-C ) :   1.1456 B( 53-C , 54-F ) :   1.1228
B( 53-C , 55-C ) :   1.5119 B( 55-C , 89-H ) :   0.9963 B( 56-C , 57-C ) :   1.6608
B( 56-C , 90-H ) :   0.9448 B( 57-C , 58-C ) :   1.1577 B( 57-C , 91-H ) :   0.9775
B( 58-C , 59-C ) :   1.5242 B( 58-C , 62-S ) :   1.0716 B( 59-C , 60-C ) :   1.1654
B( 59-C , 92-H ) :   0.9979 B( 60-C , 61-C ) :   1.2422 B( 60-C , 66-C ) :   1.2838
B( 61-C , 62-S ) :   1.0857 B( 61-C , 63-N ) :   1.5067 B( 63-N , 64-C ) :   1.5800
B( 64-C , 65-C ) :   1.2352 B( 64-C , 71-S ) :   1.0408 B( 65-C , 66-C ) :   1.5614
B( 65-C , 69-C ) :   1.0400 B( 66-C , 67-C ) :   1.0806 B( 67-C , 68-C ) :   1.1078
B( 67-C , 93-H ) :   0.9160 B( 67-C , 94-H ) :   0.9205 B( 68-C , 95-H ) :   0.9681
B( 68-C , 96-H ) :   0.9677 B( 68-C , 97-H ) :   0.9653 B( 69-C , 70-C ) :   1.0415
B( 69-C , 98-H ) :   0.9255 B( 69-C , 99-H ) :   0.9177 B( 70-C , 71-S ) :   0.9990
B( 70-C ,100-H ) :   0.9531 B( 70-C ,101-H ) :   0.9536

-----------------------------------------------------------------------------
         ABSORPTION SPECTRUM VIA TRANSITION ELECTRIC DIPOLE MOMENTS
-----------------------------------------------------------------------------
State   Energy  Wavelength   fosc         T2         TX        TY        TZ
        (cm-1)    (nm)                  (au**2)     (au)      (au)      (au)
-----------------------------------------------------------------------------
   0   12141.6    823.6   1.164012540  31.56153  -1.04618  -1.10100  -5.40877
   1   16980.8    588.9   0.084657477   1.64128  -0.06620  -0.58022  -1.14028
   2   21717.2    460.5   1.573605776  23.85439   3.34801  -1.40937   3.26480
   3   22095.0    452.6   0.081387085   1.21266   0.85846  -0.00044   0.68971
   4   23044.9    433.9   0.303324449   4.33319   0.89312  -1.86399  -0.24713
   5   24676.2    405.2   0.134377859   1.79277   0.94568  -0.88940   0.32775
   6   25272.9    395.7   0.100228554   1.30560  -0.42456   0.76424   0.73573
   7   25378.2    394.0   0.180741616   2.34462   0.23962   0.10235   1.50888
   8   26279.5    380.5   0.117841298   1.47624   0.40417  -1.08469  -0.36924
   9   27071.6    369.4   0.000002118   0.00003   0.00340   0.00376  -0.00025
  10   28151.4    355.2   0.031364126   0.36678   0.39013  -0.45898  -0.06257
  11   28451.7    351.5   0.135888286   1.57235   0.66101  -1.04737   0.19604
  12   28808.0    347.1   0.070785993   0.80893  -0.43456   0.77589  -0.13449
  13   29387.5    340.3   0.021969179   0.24611  -0.39189   0.18733   0.23966
  14   30068.7    332.6   0.033938428   0.37158   0.24896   0.04175   0.55485
  15   30775.1    324.9   0.100063060   1.07041   0.14336  -0.92871  -0.43284
  16   30943.9    323.2   0.352015259   3.74508  -1.72997   0.71072  -0.49716
  17   31601.0    316.4   0.000107230   0.00112  -0.02054  -0.01458  -0.02197
  18   32005.2    312.4   0.433156442   4.45554  -0.02475  -0.50550  -2.04924
  19   32102.7    311.5   0.226566440   2.32343  -0.23967  -0.54291  -1.40401
  20   32574.3    307.0   0.052806726   0.53369  -0.30336  -0.10037  -0.65696
  21   32971.8    303.3   0.044028443   0.43961   0.40233  -0.29410  -0.43731
  22   33411.1    299.3   0.004249878   0.04188   0.14307   0.06195   0.13254
  23   33625.0    297.4   0.001777524   0.01740   0.08387  -0.01901  -0.10004
  24   33800.2    295.9   0.004379554   0.04266   0.11881  -0.03294  -0.16570
  25   34007.7    294.1   0.007566511   0.07325  -0.07678  -0.03588  -0.25703
  26   34244.1    292.0   0.055995230   0.53832   0.11699   0.24926   0.68008
  27   34382.9    290.8   0.025142160   0.24073  -0.20093  -0.21504  -0.39258
  28   34716.9    288.0   0.055936643   0.53043   0.26875  -0.23182   0.63598
  29   34986.4    285.8   0.035798718   0.33686   0.13724  -0.33900   0.45066
  30   35173.5    284.3   0.000164852   0.00154   0.02488  -0.02529   0.01686
  31   35961.6    278.1   0.204339716   1.87064   0.75204  -1.01064   0.53262
  32   36498.6    274.0   0.041565342   0.37491  -0.26344   0.04294  -0.55106
  33   37487.4    266.8   0.018849239   0.16553   0.40252   0.05923  -0.00087
  34   37691.7    265.3   0.061436820   0.53661   0.72822   0.00671   0.07909
  35   38044.6    262.8   0.054643938   0.47285  -0.24921   0.10986   0.63141
  36   38076.5    262.6   0.028154326   0.24342   0.44459  -0.13535   0.16566
  37   38269.6    261.3   0.063764299   0.54853  -0.01558  -0.42069   0.60935
  38   38529.4    259.5   0.019633828   0.16776  -0.23921   0.32853  -0.05102
  39   38624.3    258.9   0.154943850   1.32066  -0.56882   0.84636   0.52987
  40   39133.6    255.5   0.207623519   1.74663  -0.24235   0.09108   1.29599
  41   39390.3    253.9   0.240804140   2.01257   1.19527  -0.75912  -0.08739
  42   39805.4    251.2   0.087816089   0.72629   0.44392  -0.15804  -0.71010
  43   40069.8    249.6   0.051502584   0.42314   0.35050  -0.38061  -0.39424
  44   40278.9    248.3   0.027381776   0.22380   0.33015  -0.28955   0.17596

FINAL SINGLE POINT ENERGY     -8024.478637038605

DIPOLE MOMENT
-------------
                                X             Y             Z
Electronic contribution:    -65.13032     -44.35121    -233.63105
Nuclear contribution   :     64.31357      47.31897     236.26543
                        -----------------------------------------
Total Dipole Moment    :     -0.81675       2.96776       2.63437
                        -----------------------------------------
Magnitude (a.u.)       :      4.05149
Magnitude (Debye)      :     10.29808

Rotational constants in cm-1:     0.001377     0.000164     0.000149
Rotational constants in MHz :    41.267352     4.901903     4.464529

                             ****ORCA TERMINATED NORMALLY****
TOTAL RUN TIME: 0 days 0 hours 9 minutes 54 seconds 461 msec
