                         Program Version 4.2.0 -  RELEASE  -
|  1> # ORCA input file
|  2> # SCF done       -198.422528716750          0.000360272958
|  3> ! CAM-B3LYP def2-SVP def2/J RIJCOSX Grid4 TightSCF
|  4> %maxcore 5000
|  5> %tddft
|  6>     Mode sTDDFT
|  7>     Ethresh 5.0
|  8>     maxcore 5000
|  9> end
| 10>
| 11> %pal
| 12>   nprocs 6
| 13>   end
| 14> * xyz 0 1
| 15>    C       -4.87881         9.21043        -3.91117
| 16>    C       -4.00882         8.53069        -4.72206
| 17>    C       -3.29874         9.11976        -5.78826
| 18>    N       -2.69148         9.55325        -6.66068
| 19>    C       -3.74553         7.14835        -4.62072
| 20>    N       -3.50652         6.02549        -4.60894
| 21>    C       -5.27507        10.60410        -4.04888
| 22>    C       -6.32686        10.87326        -3.13794
| 23>    C       -6.91769        12.10909        -3.03511
| 24>    C       -6.44778        13.12898        -3.86891
| 25>    C       -5.39269        12.85239        -4.77168
| 26>    C       -4.79616        11.60280        -4.87769
| 27>    S       -4.95917        14.25777        -5.69734
| 28>    C       -6.18506        15.18381        -4.87244
| 29>    C       -6.88428        14.47940        -3.95112
| 30>   Br       -6.42467        16.99302        -5.30416
| 31>    C       -6.62680         9.65966        -2.35075
| 32>    O       -7.44257         9.55603        -1.46228
| 33>    C       -5.64726         8.64033        -2.81810
| 34>    C       -5.40126         7.47411        -2.16948
| 35>    C       -6.20104         6.95380        -1.08971
| 36>    C       -5.56549         6.64592         0.08438
| 37>    S       -6.61668         6.30543         1.38645
| 38>    C       -7.98596         6.47258         0.32696
| 39>    C       -7.63308         6.78926        -0.99215
| 40>    C       -8.64310         6.82817        -1.98487
| 41>    C       -8.24314         6.91914        -3.43458
| 42>    C       -7.46422         5.67595        -3.86964
| 43>    C       -9.97724         6.68753        -1.61809
| 44>    C      -11.08798         6.83924        -2.62466
| 45>    C      -11.40966         5.51943        -3.33133
| 46>    C      -10.32830         6.40795        -0.27543
| 47>    C      -11.62163         6.22057         0.34411
| 48>    C      -11.51326         6.02112         1.68995
| 49>    S       -9.90378         5.99609         2.28768
| 50>    C       -9.31097         6.30338         0.68618
| 51>    C      -12.92728         6.16818        -0.28268
| 52>    C      -14.01741         6.73778         0.27167
| 53>    C      -15.35218         6.68568        -0.21801
| 54>    S      -16.44053         7.93901         0.27437
| 55>    C      -17.77396         7.30805        -0.64612
| 56>    C      -17.36348         6.15358        -1.35070
| 57>    C      -16.00444         5.78863        -1.07949
| 58>    C      -15.47723         4.60541        -1.63629
| 59>    C      -16.23666         3.87720        -2.50506
| 60>    F      -15.73401         2.76168        -3.05829
| 61>    C      -17.53250         4.30205        -2.85860
| 62>    F      -18.22921         3.59211        -3.76755
| 63>    C      -18.09809         5.40823        -2.29128
| 64>    C      -19.00885         7.97096        -0.55485
| 65>    C      -20.22353         7.43359        -0.89607
| 66>    C      -21.45454         8.08898        -0.85184
| 67>    C      -22.61895         7.43366        -1.20844
| 68>    C      -23.95088         7.89818        -1.24179
| 69>    C      -24.86299         6.96369        -1.65634
| 70>    C      -24.28988         5.71701        -1.96671
| 71>    S      -22.56292         5.76204        -1.72808
| 72>    C      -24.83679         4.51378        -2.39135
| 73>    C      -26.15613         4.10592        -2.66148
| 74>    C      -26.25571         2.79410        -3.03241
| 75>    C      -25.01939         2.09837        -3.06554
| 76>    S      -23.72709         3.18821        -2.62779
| 77>    C      -24.81962         0.77889        -3.39469
| 78>    C      -23.59458         0.08151        -3.38258
| 79>    S      -23.53567        -1.56952        -3.99312
| 80>    C      -21.85731        -1.77303        -3.68473
| 81>    C      -21.33472        -0.62937        -3.12916
| 82>    C      -22.31155         0.40318        -2.96305
| 83>    O      -21.74766         1.48665        -2.38811
| 84>    C      -20.44231         1.17244        -2.19618
| 85>    N      -19.62911         2.15637        -1.59247
| 86>    O      -18.47605         1.84837        -1.34963
| 87>    O      -20.12466         3.23751        -1.34576
| 88>    C      -20.12097        -0.09024        -2.61853
| 89>    H       -7.71702        12.28304        -2.33192
| 90>    H       -3.99078        11.44117        -5.57471
| 91>    H       -7.67424        14.89365        -3.35167
| 92>    H       -4.47798         6.94442        -2.37184
| 93>    H       -4.50825         6.69735         0.26422
| 94>    H       -7.63589         7.80724        -3.61052
| 95>    H       -9.11990         7.00662        -4.07024
| 96>    H       -6.50911         5.60216        -3.35581
| 97>    H       -7.26871         5.71297        -4.93917
| 98>    H       -8.03668         4.77685        -3.65248
| 99>    H      -10.82747         7.59671        -3.36493
|100>    H      -11.97400         7.20743        -2.10652
|101>    H      -10.59663         5.22440        -3.98952
|102>    H      -12.31456         5.61863        -3.92736
|103>    H      -11.55274         4.71901        -2.60856
|104>    H      -12.31983         5.83078         2.37100
|105>    H      -13.01281         5.62202        -1.20615
|106>    H      -13.87888         7.36989         1.14055
|107>    H      -14.49780         4.24824        -1.37018
|108>    H      -19.09218         5.68832        -2.59153
|109>    H      -18.98383         8.96500        -0.12447
|110>    H      -20.25589         6.39358        -1.18568
|111>    H      -21.50950         9.12574        -0.54939
|112>    H      -24.20464         8.90487        -0.95816
|113>    H      -25.92046         7.14316        -1.74012
|114>    H      -26.99284         4.77650        -2.57409
|115>    H      -27.18075         2.30085        -3.27453
|116>    H      -25.68319         0.20711        -3.70570
|117>    H      -21.37426        -2.69732        -3.92177
|118>    H      -19.15491        -0.54755        -2.56636
|119> *
|120>
|121>                          ****END OF INPUT****

CARTESIAN COORDINATES (ANGSTROEM)
---------------------------------
  C     -4.878810    9.210430   -3.911170
  C     -4.008820    8.530690   -4.722060
  C     -3.298740    9.119760   -5.788260
  N     -2.691480    9.553250   -6.660680
  C     -3.745530    7.148350   -4.620720
  N     -3.506520    6.025490   -4.608940
  C     -5.275070   10.604100   -4.048880
  C     -6.326860   10.873260   -3.137940
  C     -6.917690   12.109090   -3.035110
  C     -6.447780   13.128980   -3.868910
  C     -5.392690   12.852390   -4.771680
  C     -4.796160   11.602800   -4.877690
  S     -4.959170   14.257770   -5.697340
  C     -6.185060   15.183810   -4.872440
  C     -6.884280   14.479400   -3.951120
  Br    -6.424670   16.993020   -5.304160
  C     -6.626800    9.659660   -2.350750
  O     -7.442570    9.556030   -1.462280
  C     -5.647260    8.640330   -2.818100
  C     -5.401260    7.474110   -2.169480
  C     -6.201040    6.953800   -1.089710
  C     -5.565490    6.645920    0.084380
  S     -6.616680    6.305430    1.386450
  C     -7.985960    6.472580    0.326960
  C     -7.633080    6.789260   -0.992150
  C     -8.643100    6.828170   -1.984870
  C     -8.243140    6.919140   -3.434580
  C     -7.464220    5.675950   -3.869640
  C     -9.977240    6.687530   -1.618090
  C    -11.087980    6.839240   -2.624660
  C    -11.409660    5.519430   -3.331330
  C    -10.328300    6.407950   -0.275430
  C    -11.621630    6.220570    0.344110
  C    -11.513260    6.021120    1.689950
  S     -9.903780    5.996090    2.287680
  C     -9.310970    6.303380    0.686180
  C    -12.927280    6.168180   -0.282680
  C    -14.017410    6.737780    0.271670
  C    -15.352180    6.685680   -0.218010
  S    -16.440530    7.939010    0.274370
  C    -17.773960    7.308050   -0.646120
  C    -17.363480    6.153580   -1.350700
  C    -16.004440    5.788630   -1.079490
  C    -15.477230    4.605410   -1.636290
  C    -16.236660    3.877200   -2.505060
  F    -15.734010    2.761680   -3.058290
  C    -17.532500    4.302050   -2.858600
  F    -18.229210    3.592110   -3.767550
  C    -18.098090    5.408230   -2.291280
  C    -19.008850    7.970960   -0.554850
  C    -20.223530    7.433590   -0.896070
  C    -21.454540    8.088980   -0.851840
  C    -22.618950    7.433660   -1.208440
  C    -23.950880    7.898180   -1.241790
  C    -24.862990    6.963690   -1.656340
  C    -24.289880    5.717010   -1.966710
  S    -22.562920    5.762040   -1.728080
  C    -24.836790    4.513780   -2.391350
  C    -26.156130    4.105920   -2.661480
  C    -26.255710    2.794100   -3.032410
  C    -25.019390    2.098370   -3.065540
  S    -23.727090    3.188210   -2.627790
  C    -24.819620    0.778890   -3.394690
  C    -23.594580    0.081510   -3.382580
  S    -23.535670   -1.569520   -3.993120
  C    -21.857310   -1.773030   -3.684730
  C    -21.334720   -0.629370   -3.129160
  C    -22.311550    0.403180   -2.963050
  O    -21.747660    1.486650   -2.388110
  C    -20.442310    1.172440   -2.196180
  N    -19.629110    2.156370   -1.592470
  O    -18.476050    1.848370   -1.349630
  O    -20.124660    3.237510   -1.345760
  C    -20.120970   -0.090240   -2.618530
  H     -7.717020   12.283040   -2.331920
  H     -3.990780   11.441170   -5.574710
  H     -7.674240   14.893650   -3.351670
  H     -4.477980    6.944420   -2.371840
  H     -4.508250    6.697350    0.264220
  H     -7.635890    7.807240   -3.610520
  H     -9.119900    7.006620   -4.070240
  H     -6.509110    5.602160   -3.355810
  H     -7.268710    5.712970   -4.939170
  H     -8.036680    4.776850   -3.652480
  H    -10.827470    7.596710   -3.364930
  H    -11.974000    7.207430   -2.106520
  H    -10.596630    5.224400   -3.989520
  H    -12.314560    5.618630   -3.927360
  H    -11.552740    4.719010   -2.608560
  H    -12.319830    5.830780    2.371000
  H    -13.012810    5.622020   -1.206150
  H    -13.878880    7.369890    1.140550
  H    -14.497800    4.248240   -1.370180
  H    -19.092180    5.688320   -2.591530
  H    -18.983830    8.965000   -0.124470
  H    -20.255890    6.393580   -1.185680
  H    -21.509500    9.125740   -0.549390
  H    -24.204640    8.904870   -0.958160
  H    -25.920460    7.143160   -1.740120
  H    -26.992840    4.776500   -2.574090
  H    -27.180750    2.300850   -3.274530
  H    -25.683190    0.207110   -3.705700
  H    -21.374260   -2.697320   -3.921770
  H    -19.154910   -0.547550   -2.566360

 Total Charge           Charge          ....    0
 Multiplicity           Mult            ....    1
 Number of Electrons    NEL             ....  590
 Basis Dimension        Dim             .... 1232

ORBITAL ENERGIES
----------------

  NO   OCC          E(Eh)            E(eV)
   0   2.0000    -482.886907    -13140.0208
   1   2.0000     -88.976813     -2421.1822
   2   2.0000     -88.970598     -2421.0131
   3   2.0000     -88.959409     -2420.7086
   4   2.0000     -88.957363     -2420.6529
   5   2.0000     -88.948002     -2420.3982
   6   2.0000     -88.933036     -2419.9909
   7   2.0000     -88.930732     -2419.9283
   8   2.0000     -62.564619     -1702.4698
   9   2.0000     -56.398572     -1534.6832
  10   2.0000     -56.395850     -1534.6091
  11   2.0000     -56.395819     -1534.6082
  12   2.0000     -24.775986      -674.1888
  13   2.0000     -24.773757      -674.1282
  14   2.0000     -19.302705      -525.2533
  15   2.0000     -19.244299      -523.6640
  16   2.0000     -19.242275      -523.6089
  17   2.0000     -19.215945      -522.8924
  18   2.0000     -14.654292      -398.7635
  19   2.0000     -14.417136      -392.3102
  20   2.0000     -14.416549      -392.2942
  21   2.0000     -10.384398      -282.5738
  22   2.0000     -10.366986      -282.1000
  23   2.0000     -10.360561      -281.9252
  24   2.0000     -10.353762      -281.7402
  25   2.0000     -10.351726      -281.6848
  26   2.0000     -10.344347      -281.4840
  27   2.0000     -10.342951      -281.4460
  28   2.0000     -10.342639      -281.4375
  29   2.0000     -10.327289      -281.0198
  30   2.0000     -10.319676      -280.8127
  31   2.0000     -10.319450      -280.8065
  32   2.0000     -10.319132      -280.7978
  33   2.0000     -10.315976      -280.7120
  34   2.0000     -10.309827      -280.5447
  35   2.0000     -10.309446      -280.5343
  36   2.0000     -10.309175      -280.5269
  37   2.0000     -10.309058      -280.5237
  38   2.0000     -10.307890      -280.4919
  39   2.0000     -10.307714      -280.4871
  40   2.0000     -10.304087      -280.3885
  41   2.0000     -10.302901      -280.3562
  42   2.0000     -10.302218      -280.3376
  43   2.0000     -10.299275      -280.2575
  44   2.0000     -10.298406      -280.2339
  45   2.0000     -10.298398      -280.2337
  46   2.0000     -10.298010      -280.2231
  47   2.0000     -10.297932      -280.2210
  48   2.0000     -10.297590      -280.2117
  49   2.0000     -10.297480      -280.2087
  50   2.0000     -10.295388      -280.1517
  51   2.0000     -10.295301      -280.1494
  52   2.0000     -10.293989      -280.1137
  53   2.0000     -10.292218      -280.0655
  54   2.0000     -10.289138      -279.9817
  55   2.0000     -10.283973      -279.8411
  56   2.0000     -10.282982      -279.8142
  57   2.0000     -10.282480      -279.8005
  58   2.0000     -10.282302      -279.7957
  59   2.0000     -10.282168      -279.7920
  60   2.0000     -10.280216      -279.7389
  61   2.0000     -10.279179      -279.7107
  62   2.0000     -10.278970      -279.7050
  63   2.0000     -10.278664      -279.6967
  64   2.0000     -10.278321      -279.6873
  65   2.0000     -10.277875      -279.6752
  66   2.0000     -10.274737      -279.5898
  67   2.0000     -10.274651      -279.5875
  68   2.0000     -10.274526      -279.5841
  69   2.0000     -10.274445      -279.5819
  70   2.0000     -10.274263      -279.5769
  71   2.0000     -10.271491      -279.5015
  72   2.0000     -10.270901      -279.4854
  73   2.0000     -10.268718      -279.4260
  74   2.0000     -10.259230      -279.1678
  75   2.0000     -10.259139      -279.1654
  76   2.0000     -10.253865      -279.0219
  77   2.0000     -10.249660      -278.9074
  78   2.0000      -8.794047      -239.2982
  79   2.0000      -8.072887      -219.6744
  80   2.0000      -8.065602      -219.4762
  81   2.0000      -8.055618      -219.2045
  82   2.0000      -8.052936      -219.1315
  83   2.0000      -8.044292      -218.8963
  84   2.0000      -8.029493      -218.4936
  85   2.0000      -8.027470      -218.4386
  86   2.0000      -6.630360      -180.4213
  87   2.0000      -6.615767      -180.0242
  88   2.0000      -6.615576      -180.0190
  89   2.0000      -6.042590      -164.4272
  90   2.0000      -6.038294      -164.3103
  91   2.0000      -6.034967      -164.2198
  92   2.0000      -6.034073      -164.1955
  93   2.0000      -6.030644      -164.1022
  94   2.0000      -6.027867      -164.0266
  95   2.0000      -6.025012      -163.9489
  96   2.0000      -6.021820      -163.8620
  97   2.0000      -6.020813      -163.8346
  98   2.0000      -6.017888      -163.7551
  99   2.0000      -6.017434      -163.7427
 100   2.0000      -6.015712      -163.6959
 101   2.0000      -6.013772      -163.6430
 102   2.0000      -6.009585      -163.5291
 103   2.0000      -6.005958      -163.4304
 104   2.0000      -5.999182      -163.2461
 105   2.0000      -5.997196      -163.1920
 106   2.0000      -5.995062      -163.1339
 107   2.0000      -5.992995      -163.0777
 108   2.0000      -5.990465      -163.0088
 109   2.0000      -5.988201      -162.9472
 110   2.0000      -2.746235       -74.7288
 111   2.0000      -2.742147       -74.6176
 112   2.0000      -2.741972       -74.6129
 113   2.0000      -2.730389       -74.2977
 114   2.0000      -2.730376       -74.2973
 115   2.0000      -1.325484       -36.0683
 116   2.0000      -1.295253       -35.2456
 117   2.0000      -1.280765       -34.8514
 118   2.0000      -1.226540       -33.3758
 119   2.0000      -1.140399       -31.0318
 120   2.0000      -1.131196       -30.7814
 121   2.0000      -1.024384       -27.8749
 122   2.0000      -1.014705       -27.6115
 123   2.0000      -1.003026       -27.2937
 124   2.0000      -0.995375       -27.0855
 125   2.0000      -0.993124       -27.0243
 126   2.0000      -0.991629       -26.9836
 127   2.0000      -0.990738       -26.9593
 128   2.0000      -0.987740       -26.8778
 129   2.0000      -0.973282       -26.4843
 130   2.0000      -0.966254       -26.2931
 131   2.0000      -0.944190       -25.6927
 132   2.0000      -0.932655       -25.3788
 133   2.0000      -0.931075       -25.3358
 134   2.0000      -0.922787       -25.1103
 135   2.0000      -0.911575       -24.8052
 136   2.0000      -0.909895       -24.7595
 137   2.0000      -0.906023       -24.6541
 138   2.0000      -0.896593       -24.3975
 139   2.0000      -0.890744       -24.2384
 140   2.0000      -0.887493       -24.1499
 141   2.0000      -0.876443       -23.8492
 142   2.0000      -0.871820       -23.7234
 143   2.0000      -0.866633       -23.5823
 144   2.0000      -0.855103       -23.2685
 145   2.0000      -0.850367       -23.1397
 146   2.0000      -0.847080       -23.0502
 147   2.0000      -0.835178       -22.7263
 148   2.0000      -0.831251       -22.6195
 149   2.0000      -0.827601       -22.5202
 150   2.0000      -0.823280       -22.4026
 151   2.0000      -0.819232       -22.2924
 152   2.0000      -0.816271       -22.2119
 153   2.0000      -0.808292       -21.9947
 154   2.0000      -0.798763       -21.7354
 155   2.0000      -0.790008       -21.4972
 156   2.0000      -0.785202       -21.3664
 157   2.0000      -0.774769       -21.0825
 158   2.0000      -0.764164       -20.7940
 159   2.0000      -0.756439       -20.5837
 160   2.0000      -0.751321       -20.4445
 161   2.0000      -0.730318       -19.8730
 162   2.0000      -0.722706       -19.6658
 163   2.0000      -0.716154       -19.4875
 164   2.0000      -0.709864       -19.3164
 165   2.0000      -0.705343       -19.1934
 166   2.0000      -0.703800       -19.1514
 167   2.0000      -0.697467       -18.9791
 168   2.0000      -0.696466       -18.9518
 169   2.0000      -0.691118       -18.8063
 170   2.0000      -0.689670       -18.7669
 171   2.0000      -0.675007       -18.3679
 172   2.0000      -0.672268       -18.2933
 173   2.0000      -0.663812       -18.0633
 174   2.0000      -0.658908       -17.9298
 175   2.0000      -0.655215       -17.8293
 176   2.0000      -0.649866       -17.6837
 177   2.0000      -0.646152       -17.5827
 178   2.0000      -0.640395       -17.4260
 179   2.0000      -0.637841       -17.3565
 180   2.0000      -0.632021       -17.1982
 181   2.0000      -0.627436       -17.0734
 182   2.0000      -0.623595       -16.9689
 183   2.0000      -0.623097       -16.9553
 184   2.0000      -0.618083       -16.8189
 185   2.0000      -0.614844       -16.7308
 186   2.0000      -0.610888       -16.6231
 187   2.0000      -0.609526       -16.5860
 188   2.0000      -0.604121       -16.4390
 189   2.0000      -0.602355       -16.3909
 190   2.0000      -0.597919       -16.2702
 191   2.0000      -0.594016       -16.1640
 192   2.0000      -0.591620       -16.0988
 193   2.0000      -0.586305       -15.9542
 194   2.0000      -0.578332       -15.7372
 195   2.0000      -0.571013       -15.5381
 196   2.0000      -0.569390       -15.4939
 197   2.0000      -0.565563       -15.3897
 198   2.0000      -0.557584       -15.1726
 199   2.0000      -0.556174       -15.1343
 200   2.0000      -0.551139       -14.9973
 201   2.0000      -0.550111       -14.9693
 202   2.0000      -0.546713       -14.8768
 203   2.0000      -0.542245       -14.7552
 204   2.0000      -0.540114       -14.6972
 205   2.0000      -0.538858       -14.6631
 206   2.0000      -0.535473       -14.5710
 207   2.0000      -0.530959       -14.4481
 208   2.0000      -0.527068       -14.3423
 209   2.0000      -0.526841       -14.3361
 210   2.0000      -0.523458       -14.2440
 211   2.0000      -0.523154       -14.2357
 212   2.0000      -0.522792       -14.2259
 213   2.0000      -0.518066       -14.0973
 214   2.0000      -0.513204       -13.9650
 215   2.0000      -0.511634       -13.9223
 216   2.0000      -0.510852       -13.9010
 217   2.0000      -0.510015       -13.8782
 218   2.0000      -0.506592       -13.7851
 219   2.0000      -0.501883       -13.6569
 220   2.0000      -0.499565       -13.5939
 221   2.0000      -0.495008       -13.4699
 222   2.0000      -0.493735       -13.4352
 223   2.0000      -0.491632       -13.3780
 224   2.0000      -0.491125       -13.3642
 225   2.0000      -0.489900       -13.3309
 226   2.0000      -0.487642       -13.2694
 227   2.0000      -0.487036       -13.2529
 228   2.0000      -0.483983       -13.1699
 229   2.0000      -0.479645       -13.0518
 230   2.0000      -0.477738       -12.9999
 231   2.0000      -0.474592       -12.9143
 232   2.0000      -0.470255       -12.7963
 233   2.0000      -0.468885       -12.7590
 234   2.0000      -0.468325       -12.7438
 235   2.0000      -0.464070       -12.6280
 236   2.0000      -0.460927       -12.5425
 237   2.0000      -0.458830       -12.4854
 238   2.0000      -0.455716       -12.4007
 239   2.0000      -0.454832       -12.3766
 240   2.0000      -0.453520       -12.3409
 241   2.0000      -0.451873       -12.2961
 242   2.0000      -0.449743       -12.2381
 243   2.0000      -0.448758       -12.2113
 244   2.0000      -0.446975       -12.1628
 245   2.0000      -0.444791       -12.1034
 246   2.0000      -0.444105       -12.0847
 247   2.0000      -0.440395       -11.9838
 248   2.0000      -0.438584       -11.9345
 249   2.0000      -0.435272       -11.8443
 250   2.0000      -0.434538       -11.8244
 251   2.0000      -0.431054       -11.7296
 252   2.0000      -0.428629       -11.6636
 253   2.0000      -0.426879       -11.6160
 254   2.0000      -0.425652       -11.5826
 255   2.0000      -0.423051       -11.5118
 256   2.0000      -0.421802       -11.4778
 257   2.0000      -0.418327       -11.3832
 258   2.0000      -0.417118       -11.3504
 259   2.0000      -0.415631       -11.3099
 260   2.0000      -0.412635       -11.2284
 261   2.0000      -0.412571       -11.2266
 262   2.0000      -0.410658       -11.1746
 263   2.0000      -0.408563       -11.1176
 264   2.0000      -0.405131       -11.0242
 265   2.0000      -0.402157       -10.9432
 266   2.0000      -0.399809       -10.8794
 267   2.0000      -0.389288       -10.5931
 268   2.0000      -0.388172       -10.5627
 269   2.0000      -0.385681       -10.4949
 270   2.0000      -0.381965       -10.3938
 271   2.0000      -0.379592       -10.3292
 272   2.0000      -0.376669       -10.2497
 273   2.0000      -0.375726       -10.2240
 274   2.0000      -0.374984       -10.2038
 275   2.0000      -0.373972       -10.1763
 276   2.0000      -0.369884       -10.0651
 277   2.0000      -0.358686        -9.7603
 278   2.0000      -0.352792        -9.6000
 279   2.0000      -0.342587        -9.3223
 280   2.0000      -0.337639        -9.1876
 281   2.0000      -0.331846        -9.0300
 282   2.0000      -0.321755        -8.7554
 283   2.0000      -0.317571        -8.6416
 284   2.0000      -0.317062        -8.6277
 285   2.0000      -0.314761        -8.5651
 286   2.0000      -0.310904        -8.4601
 287   2.0000      -0.305563        -8.3148
 288   2.0000      -0.300937        -8.1889
 289   2.0000      -0.294525        -8.0144
 290   2.0000      -0.282065        -7.6754
 291   2.0000      -0.268928        -7.3179
 292   2.0000      -0.266014        -7.2386
 293   2.0000      -0.235693        -6.4135
 294   2.0000      -0.193367        -5.2618
 295   0.0000      -0.086413        -2.3514
 296   0.0000      -0.085263        -2.3201
 297   0.0000      -0.060462        -1.6452
 298   0.0000      -0.056444        -1.5359
 299   0.0000      -0.039311        -1.0697

MULLIKEN ATOMIC CHARGES
-----------------------
   0 C :    0.307887
   1 C :   -0.339006
   2 C :   -0.185943
   3 N :    0.152525
   4 C :   -0.199380
   5 N :    0.163785
   6 C :    0.016402
   7 C :   -0.018052
   8 C :   -0.071872
   9 C :    0.118520
  10 C :   -0.084838
  11 C :   -0.026207
  12 S :    0.186623
  13 C :   -0.122500
  14 C :    0.037339
  15 Br:    0.025576
  16 C :    0.143342
  17 O :   -0.127156
  18 C :   -0.098649
  19 C :   -0.082246
  20 C :    0.034880
  21 C :   -0.082188
  22 S :    0.150168
  23 C :   -0.160963
  24 C :    0.178772
  25 C :   -0.105309
  26 C :    0.061584
  27 C :    0.017401
  28 C :   -0.125782
  29 C :    0.001388
  30 C :    0.038276
  31 C :    0.115357
  32 C :    0.058615
  33 C :   -0.116110
  34 S :    0.122017
  35 C :   -0.140439
  36 C :   -0.037431
  37 C :    0.027784
  38 C :   -0.137831
  39 S :    0.152643
  40 C :   -0.126762
  41 C :    0.123653
  42 C :    0.125405
  43 C :   -0.133523
  44 C :    0.249603
  45 F :   -0.181680
  46 C :    0.205382
  47 F :   -0.194545
  48 C :   -0.087982
  49 C :    0.039517
  50 C :   -0.037039
  51 C :    0.008959
  52 C :   -0.026539
  53 C :    0.038287
  54 C :    0.024172
  55 C :   -0.034703
  56 S :    0.054667
  57 C :   -0.033516
  58 C :    0.037640
  59 C :    0.026310
  60 C :   -0.027022
  61 S :    0.072380
  62 C :    0.048687
  63 C :   -0.227510
  64 S :    0.143238
  65 C :   -0.140077
  66 C :    0.127566
  67 C :    0.190534
  68 O :   -0.193400
  69 C :    0.260010
  70 N :    0.281185
  71 O :   -0.249526
  72 O :   -0.230207
  73 C :   -0.083042
  74 H :   -0.008438
  75 H :   -0.004516
  76 H :   -0.001857
  77 H :    0.041710
  78 H :    0.027802
  79 H :    0.003199
  80 H :   -0.009699
  81 H :    0.020327
  82 H :    0.017603
  83 H :    0.015210
  84 H :    0.011106
  85 H :    0.016519
  86 H :    0.008661
  87 H :    0.020047
  88 H :    0.017552
  89 H :    0.021332
  90 H :   -0.003073
  91 H :   -0.012905
  92 H :   -0.012474
  93 H :   -0.013124
  94 H :   -0.021107
  95 H :    0.037142
  96 H :   -0.021000
  97 H :   -0.015900
  98 H :   -0.016100
  99 H :   -0.015875
 100 H :   -0.017583
 101 H :   -0.026477
 102 H :    0.029988
 103 H :    0.012829
Sum of atomic charges:    0.0000000

LOEWDIN ATOMIC CHARGES
----------------------
   0 C :    0.075813
   1 C :   -0.138320
   2 C :   -0.018736
   3 N :   -0.051177
   4 C :   -0.023253
   5 N :   -0.049232
   6 C :   -0.022526
   7 C :   -0.049591
   8 C :    0.022222
   9 C :   -0.031386
  10 C :   -0.143906
  11 C :   -0.009134
  12 S :    0.432839
  13 C :   -0.270662
  14 C :   -0.070195
  15 Br:    0.138228
  16 C :    0.077281
  17 O :   -0.123255
  18 C :   -0.097409
  19 C :    0.076895
  20 C :   -0.068465
  21 C :   -0.144016
  22 S :    0.436660
  23 C :   -0.175457
  24 C :   -0.027806
  25 C :   -0.013875
  26 C :   -0.030546
  27 C :   -0.047141
  28 C :   -0.012465
  29 C :   -0.032095
  30 C :   -0.052729
  31 C :   -0.040638
  32 C :   -0.059925
  33 C :   -0.169207
  34 S :    0.410046
  35 C :   -0.176166
  36 C :   -0.024683
  37 C :   -0.047511
  38 C :   -0.182150
  39 S :    0.473462
  40 C :   -0.175940
  41 C :   -0.041175
  42 C :   -0.041847
  43 C :   -0.047366
  44 C :    0.066621
  45 F :   -0.057948
  46 C :    0.055873
  47 F :   -0.066209
  48 C :   -0.029863
  49 C :   -0.042794
  50 C :   -0.040735
  51 C :   -0.049917
  52 C :   -0.148929
  53 C :   -0.034420
  54 C :   -0.037276
  55 C :   -0.174827
  56 S :    0.391188
  57 C :   -0.188872
  58 C :   -0.030818
  59 C :   -0.041918
  60 C :   -0.142915
  61 S :    0.405513
  62 C :   -0.095008
  63 C :   -0.196274
  64 S :    0.469615
  65 C :   -0.192904
  66 C :   -0.080059
  67 C :    0.005846
  68 O :   -0.001574
  69 C :    0.027840
  70 N :    0.277346
  71 O :   -0.205925
  72 O :   -0.190806
  73 C :   -0.006446
  74 H :    0.041813
  75 H :    0.041269
  76 H :    0.039389
  77 H :    0.047927
  78 H :    0.028034
  79 H :    0.024994
  80 H :    0.025435
  81 H :    0.022933
  82 H :    0.026927
  83 H :    0.025128
  84 H :    0.027380
  85 H :    0.031305
  86 H :    0.024286
  87 H :    0.027106
  88 H :    0.021930
  89 H :    0.023417
  90 H :    0.027763
  91 H :    0.027749
  92 H :    0.038003
  93 H :    0.038478
  94 H :    0.026818
  95 H :    0.023143
  96 H :    0.030447
  97 H :    0.031833
  98 H :    0.031060
  99 H :    0.031350
 100 H :    0.030371
 101 H :    0.031566
 102 H :    0.027795
 103 H :    0.047487

  Mayer bond orders larger than 0.100000
B(  0-C ,  1-C ) :   1.6599 B(  0-C ,  6-C ) :   1.0134 B(  0-C , 18-C ) :   1.0370
B(  1-C ,  2-C ) :   1.1330 B(  1-C ,  4-C ) :   1.1513 B(  2-C ,  3-N ) :   2.9768
B(  4-C ,  5-N ) :   2.9715 B(  6-C ,  7-C ) :   1.2712 B(  6-C , 11-C ) :   1.4014
B(  7-C ,  8-C ) :   1.4254 B(  7-C , 16-C ) :   0.9375 B(  8-C ,  9-C ) :   1.2434
B(  8-C , 74-H ) :   1.0187 B(  9-C , 10-C ) :   1.3026 B(  9-C , 14-C ) :   1.1619
B( 10-C , 11-C ) :   1.3328 B( 10-C , 12-S ) :   1.0846 B( 11-C , 75-H ) :   0.9824
B( 12-S , 13-C ) :   1.0867 B( 13-C , 14-C ) :   1.6175 B( 13-C , 15-Br) :   1.0204
B( 14-C , 76-H ) :   1.0014 B( 16-C , 17-O ) :   2.2400 B( 16-C , 18-C ) :   0.9302
B( 18-C , 19-C ) :   1.6676 B( 19-C , 20-C ) :   1.0578 B( 19-C , 77-H ) :   0.9473
B( 20-C , 21-C ) :   1.5515 B( 20-C , 24-C ) :   1.1329 B( 21-C , 22-S ) :   1.1565
B( 21-C , 78-H ) :   0.9686 B( 22-S , 23-C ) :   1.0624 B( 23-C , 24-C ) :   1.3871
B( 23-C , 35-C ) :   1.3826 B( 24-C , 25-C ) :   1.2558 B( 25-C , 26-C ) :   1.0848
B( 25-C , 28-C ) :   1.5110 B( 26-C , 27-C ) :   1.1042 B( 26-C , 79-H ) :   0.9123
B( 26-C , 80-H ) :   0.9060 B( 27-C , 81-H ) :   0.9609 B( 27-C , 82-H ) :   0.9654
B( 27-C , 83-H ) :   0.9572 B( 28-C , 29-C ) :   1.0540 B( 28-C , 31-C ) :   1.2694
B( 29-C , 30-C ) :   1.1033 B( 29-C , 84-H ) :   0.9202 B( 29-C , 85-H ) :   0.9203
B( 30-C , 86-H ) :   0.9608 B( 30-C , 87-H ) :   0.9645 B( 30-C , 88-H ) :   0.9570
B( 31-C , 32-C ) :   1.1442 B( 31-C , 35-C ) :   1.3695 B( 32-C , 33-C ) :   1.6137
B( 32-C , 36-C ) :   1.0299 B( 33-C , 34-S ) :   1.1094 B( 33-C , 89-H ) :   0.9618
B( 34-S , 35-C ) :   1.0779 B( 36-C , 37-C ) :   1.7358 B( 36-C , 90-H ) :   0.9484
B( 37-C , 38-C ) :   1.1220 B( 37-C , 91-H ) :   0.9540 B( 38-C , 39-S ) :   1.1544
B( 38-C , 40-C ) :   0.1039 B( 38-C , 42-C ) :   1.3504 B( 39-S , 40-C ) :   1.1409
B( 40-C , 41-C ) :   1.3135 B( 40-C , 49-C ) :   1.1869 B( 41-C , 42-C ) :   1.2228
B( 41-C , 48-C ) :   1.1717 B( 42-C , 43-C ) :   1.1583 B( 43-C , 44-C ) :   1.5025
B( 43-C , 48-C ) :   0.1077 B( 43-C , 92-H ) :   0.9927 B( 44-C , 45-F ) :   1.1283
B( 44-C , 46-C ) :   1.1610 B( 46-C , 47-F ) :   1.0988 B( 46-C , 48-C ) :   1.5087
B( 48-C , 93-H ) :   0.9865 B( 49-C , 50-C ) :   1.5802 B( 49-C , 94-H ) :   0.9585
B( 50-C , 51-C ) :   1.2006 B( 50-C , 95-H ) :   0.9606 B( 51-C , 52-C ) :   1.5127
B( 51-C , 96-H ) :   0.9878 B( 52-C , 53-C ) :   1.1699 B( 52-C , 56-S ) :   1.0392
B( 53-C , 54-C ) :   1.5561 B( 53-C , 97-H ) :   0.9977 B( 54-C , 55-C ) :   1.2133
B( 54-C , 98-H ) :   0.9964 B( 55-C , 56-S ) :   1.0626 B( 55-C , 57-C ) :   1.4595
B( 57-C , 58-C ) :   1.2050 B( 57-C , 61-S ) :   1.0440 B( 58-C , 59-C ) :   1.5745
B( 58-C , 99-H ) :   0.9951 B( 59-C , 60-C ) :   1.1530 B( 59-C ,100-H ) :   0.9983
B( 60-C , 61-S ) :   1.0555 B( 60-C , 62-C ) :   1.5805 B( 62-C , 63-C ) :   1.1590
B( 62-C ,101-H ) :   0.9464 B( 63-C , 64-S ) :   1.1307 B( 63-C , 65-C ) :   0.1068
B( 63-C , 67-C ) :   1.4174 B( 64-S , 65-C ) :   1.1790 B( 65-C , 66-C ) :   1.4295
B( 65-C ,102-H ) :   0.9761 B( 66-C , 67-C ) :   1.2355 B( 66-C , 73-C ) :   1.0658
B( 67-C , 68-O ) :   1.0836 B( 68-O , 69-C ) :   1.1198 B( 69-C , 70-N ) :   0.9153
B( 69-C , 73-C ) :   1.5717 B( 70-N , 71-O ) :   1.5151 B( 70-N , 72-O ) :   1.4956
B( 71-O , 72-O ) :   0.2724 B( 73-C ,103-H ) :   1.0276

-----------------------------------------------------------------------------
         ABSORPTION SPECTRUM VIA TRANSITION ELECTRIC DIPOLE MOMENTS
-----------------------------------------------------------------------------
State   Energy  Wavelength   fosc         T2         TX        TY        TZ
        (cm-1)    (nm)                  (au**2)     (au)      (au)      (au)
-----------------------------------------------------------------------------
   0    9701.2   1030.8   0.470536950  15.96772   2.88503   2.58620   0.97768
   1   12883.3    776.2   0.440970808  11.26827   2.97696   1.40871   0.64924
   2   16170.1    618.4   0.001222849   0.02490   0.15658   0.01345   0.01408
   3   17594.4    568.4   0.009435620   0.17655   0.36663  -0.19114  -0.07483
   4   20431.9    489.4   0.789862191  12.72676   2.69743  -2.30533  -0.36890
   5   21850.5    457.7   0.232282480   3.49971  -1.81777   0.27833   0.34343
   6   22045.5    453.6   0.226236737   3.37846  -1.62083   0.86654   0.02134
   7   22663.8    441.2   0.179589415   2.60869  -0.25620  -1.18815   1.06366
   8   23231.0    430.5   0.166084462   2.35362  -0.19889  -1.03868   1.11139
   9   25004.4    399.9   0.008204520   0.10802   0.30620  -0.11902   0.00978
  10   26566.4    376.4   0.009161523   0.11353  -0.25031  -0.12134   0.19015
  11   27523.4    363.3   0.014778440   0.17677  -0.17925   0.18675   0.33130
  12   27668.6    361.4   0.059942177   0.71321   0.10533   0.70333  -0.45546
  13   27828.7    359.3   0.182311492   2.15673   0.93801  -0.83978  -0.75607
  14   28364.0    352.6   0.036225567   0.42046   0.43959   0.46539   0.10310
  15   28487.0    351.0   0.033915919   0.39195  -0.50010   0.35881  -0.11451
  16   28887.1    346.2   0.417139802   4.75393   0.28034  -2.13513   0.34142
  17   29005.4    344.8   0.039848927   0.45229   0.29297  -0.42100   0.43499
  18   29844.2    335.1   0.091900986   1.01376   0.83817   0.14806   0.53788
  19   29884.9    334.6   0.028857560   0.31789   0.25992   0.43336   0.25008
  20   30092.6    332.3   0.042198081   0.46165  -0.38655   0.05839   0.55571
  21   30607.3    326.7   0.016457462   0.17702   0.19173   0.19099   0.32215
  22   30730.7    325.4   0.073484694   0.78723  -0.52885   0.64548   0.30149
  23   31225.0    320.3   0.077459537   0.81667   0.80617  -0.40743   0.02767
  24   31347.5    319.0   0.080481614   0.84522  -0.13581   0.74477   0.52162
  25   32163.4    310.9   0.121566187   1.24431  -0.94456  -0.55341  -0.21413
  26   32238.9    310.2   0.016226382   0.16570  -0.18539  -0.35795   0.05661
  27   32565.5    307.1   0.164739787   1.66539  -1.21818  -0.33832  -0.25876
  28   32595.2    306.8   0.011296768   0.11410  -0.16778   0.19506   0.21886
  29   32692.2    305.9   0.045052887   0.45369  -0.62974  -0.21063  -0.11289
  30   33574.1    297.8   0.060171396   0.59001   0.53088   0.27863   0.48016
  31   34103.9    293.2   0.103761565   1.00163   0.59403   0.80034   0.09067
  32   34170.8    292.6   0.497100147   4.78922   1.24197  -1.74829  -0.43614
  33   34282.8    291.7   0.067599341   0.64914  -0.66591  -0.41242  -0.18874
  34   34539.9    289.5   0.186814354   1.78059   0.34955   0.79953  -1.00953
  35   34971.9    285.9   0.083781305   0.78869   0.60160   0.57928   0.30198
  36   35150.6    284.5   0.127382592   1.19303   0.83823   0.52946   0.45834
  37   35241.9    283.8   0.004986991   0.04659   0.04002   0.19982  -0.07111
  38   35879.0    278.7   0.127817213   1.17280   0.50341   0.75804   0.58716
  39   36014.3    277.7   0.060194852   0.55025   0.49602   0.34544   0.42998
  40   36321.0    275.3   0.000914689   0.00829   0.02052  -0.02567   0.08492
  41   36418.6    274.6   0.017660855   0.15965  -0.11916   0.15498  -0.34847
  42   36539.0    273.7   0.065229412   0.58771  -0.67568  -0.22824  -0.28121
  43   36900.6    271.0   0.052942734   0.47233   0.37934  -0.18955  -0.54083
  44   37160.9    269.1   0.047616896   0.42184   0.11269   0.62947  -0.11364
  45   37299.2    268.1   0.147220274   1.29940   0.06903   0.89831  -0.69834
  46   37787.4    264.6   0.137596854   1.19877   0.34112   0.91491   0.49532
  47   38045.6    262.8   0.288071137   2.49271   0.84274   1.15288   0.67333
  48   38264.4    261.3   0.011676945   0.10046  -0.16222  -0.01435   0.27192
  49   38374.2    260.6   0.002337432   0.02005  -0.07283  -0.11431   0.04100
  50   38394.9    260.5   0.031190343   0.26744  -0.05041  -0.51312   0.04004
  51   38543.6    259.4   0.026482917   0.22620  -0.29219  -0.26040  -0.27022
  52   38663.5    258.6   0.011300164   0.09622   0.29908   0.03863  -0.07266
  53   38797.1    257.8   0.006228972   0.05286  -0.18993  -0.12386  -0.03793
  54   38924.5    256.9   0.006968787   0.05894   0.05712  -0.00668   0.23587
  55   39211.9    255.0   0.057031166   0.47882   0.57945  -0.35948  -0.11760
  56   39510.7    253.1   0.012394672   0.10328  -0.21672  -0.03501   0.23469
  57   39679.3    252.0   0.277093040   2.29899   0.96856   0.61479  -0.99142
  58   39847.2    251.0   0.017160603   0.14178  -0.16101   0.34023  -0.00980

FINAL SINGLE POINT ENERGY     -8211.618423995486

DIPOLE MOMENT
-------------
                                X             Y             Z
Electronic contribution:     75.47207     106.15299     -28.30895
Nuclear contribution   :    -78.06040    -105.25267      29.16422
                        -----------------------------------------
Total Dipole Moment    :     -2.58833       0.90033       0.85528
                        -----------------------------------------
Magnitude (a.u.)       :      2.87081
Magnitude (Debye)      :      7.29701

Rotational constants in cm-1:     0.001137     0.000207     0.000191
Rotational constants in MHz :    34.100493     6.192150     5.729631

                             ****ORCA TERMINATED NORMALLY****
TOTAL RUN TIME: 0 days 0 hours 11 minutes 42 seconds 998 msec
