                         Program Version 4.2.0 -  RELEASE  -
|  1> # ORCA input file
|  2> # SCF done       -179.821205190613          0.000996827007
|  3> ! CAM-B3LYP def2-SVP def2/J RIJCOSX Grid4 TightSCF
|  4> %maxcore 5000
|  5> %tddft
|  6>     Mode sTDDFT
|  7>     Ethresh 5.0
|  8>     maxcore 5000
|  9> end
| 10>
| 11> %pal
| 12>   nprocs 6
| 13>   end
| 14> * xyz 0 1
| 15>    C       -4.51477         2.28278         4.25965
| 16>    C       -5.39109         3.33724         4.31705
| 17>    C       -6.00428         3.79435         5.50009
| 18>    N       -6.53388         4.21886         6.42703
| 19>    C       -5.85454         4.04431         3.19003
| 20>    N       -6.29841         4.63995         2.31332
| 21>    C       -4.15012         1.42392         5.38040
| 22>    C       -3.43491         0.31090         4.87720
| 23>    C       -2.97926        -0.70041         5.68645
| 24>    C       -3.23720        -0.60652         7.05897
| 25>    C       -3.94437         0.51360         7.55296
| 26>    C       -4.40990         1.53500         6.73284
| 27>    S       -4.12949         0.44065         9.27897
| 28>    C       -3.26652        -1.06980         9.31136
| 29>    C       -2.86345        -1.50571         8.09483
| 30>   Br       -2.93838        -1.90817        10.95280
| 31>    C       -3.30375         0.43684         3.41240
| 32>    O       -2.73416        -0.33887         2.66748
| 33>    C       -3.93608         1.72185         3.06005
| 34>    C       -3.87901         2.32080         1.82539
| 35>    C       -3.52921         1.71344         0.59492
| 36>    S       -2.66063         2.63700        -0.60620
| 37>    C       -2.52308         1.25448        -1.61487
| 38>    C       -3.13207         0.14745        -1.10642
| 39>    C       -3.18740        -1.18086        -1.78158
| 40>    C       -3.74854         0.40900         0.14581
| 41>    C       -4.55817        -0.49391         0.91409
| 42>    C       -5.66190        -0.04153         1.56066
| 43>    C       -6.25662        -0.56798         2.73456
| 44>    C       -5.67813        -1.51934         3.51770
| 45>    C       -5.97324        -1.79443         4.87289
| 46>    S       -5.26709        -3.21355         5.60064
| 47>    C       -5.86789        -2.80578         7.19272
| 48>    C       -6.58712        -1.60613         7.13325
| 49>    C       -6.62642        -1.04788         5.84427
| 50>    S       -7.30080         0.56154         5.54336
| 51>    C       -9.07854         0.12979         5.52044
| 52>    C       -9.48234        -0.65558         6.76123
| 53>    C       -8.86618        -0.06532         8.01951
| 54>    S       -7.30957        -0.88172         8.56318
| 55>    C       -5.53865        -3.67616         8.24457
| 56>    C       -5.78382        -3.49236         9.57995
| 57>    C       -5.39240        -4.39257        10.57122
| 58>    C       -5.61422        -4.17752        11.91548
| 59>    C       -5.19805        -4.98739        12.99446
| 60>    C       -5.54404        -4.50239        14.22248
| 61>    C       -6.26318        -3.29093        14.17456
| 62>    S       -6.47731        -2.77659        12.51791
| 63>    C       -6.78038        -2.55069        15.22309
| 64>    C       -6.67746        -2.81263        16.60659
| 65>    C       -7.31852        -1.89214        17.37365
| 66>    C       -7.97387        -0.85580        16.64659
| 67>    S       -7.69862        -1.08970        14.93113
| 68>    C       -8.72105         0.10632        17.27176
| 69>    C       -9.49640         1.19116        16.77763
| 70>    C      -10.27794         1.93240        17.68875
| 71>    O      -10.21574         1.50110        18.97840
| 72>    C      -10.45699         2.36713        20.06767
| 73>    C      -11.11458         3.00575        17.25583
| 74>    O      -11.89189         3.58891        18.21582
| 75>    C      -12.75974         4.63132        17.84119
| 76>    C      -11.14316         3.40078        15.93775
| 77>    C      -10.35305         2.71288        15.01020
| 78>    C       -9.54061         1.59985        15.41782
| 79>    N       -8.87484         1.08264        14.39605
| 80>    S       -9.23017         1.90442        13.05233
| 81>    N      -10.25416         2.96303        13.70572
| 82>    H       -2.44252        -1.54189         5.27663
| 83>    H       -4.94550         2.36925         7.15376
| 84>    H       -2.32075        -2.41898         7.93215
| 85>    H       -4.05194         3.39052         1.77567
| 86>    H       -1.99398         1.33890        -2.54445
| 87>    H       -2.67578        -1.14691        -2.73968
| 88>    H       -4.22263        -1.47904        -1.94241
| 89>    H       -2.71336        -1.93483        -1.15445
| 90>    H       -4.22252        -1.51631         1.00474
| 91>    H       -6.05298         0.92287         1.25423
| 92>    H       -7.12802        -0.04291         3.09489
| 93>    H       -4.86495        -2.10375         3.10791
| 94>    H       -9.58410         1.09434         5.48242
| 95>    H       -9.29077        -0.42777         4.60750
| 96>    H       -9.18130        -1.70130         6.65456
| 97>    H      -10.57194        -0.63640         6.84343
| 98>    H       -8.65912         0.99810         7.89894
| 99>    H       -9.51370        -0.20615         8.88467
|100>    H       -5.01006        -4.57274         7.94345
|101>    H       -6.28842        -2.59662         9.91038
|102>    H       -4.86320        -5.29244        10.28702
|103>    H       -4.64816        -5.89770        12.83281
|104>    H       -5.30453        -4.98521        15.15297
|105>    H       -6.14012        -3.65926        16.99556
|106>    H       -7.35800        -1.92108        18.44870
|107>    H       -8.75828         0.00948        18.34946
|108>    H       -9.99330         1.87813        20.92547
|109>    H      -11.52462         2.49277        20.25601
|110>    H       -9.99736         3.34552        19.91643
|111>    H      -12.20954         5.49078        17.44643
|112>    H      -13.27424         4.92145        18.75612
|113>    H      -13.49368         4.29605        17.10228
|114>    H      -11.76028         4.20930        15.58826
|115> *
|116>
|117>                          ****END OF INPUT****

CARTESIAN COORDINATES (ANGSTROEM)
---------------------------------
  C     -4.514770    2.282780    4.259650
  C     -5.391090    3.337240    4.317050
  C     -6.004280    3.794350    5.500090
  N     -6.533880    4.218860    6.427030
  C     -5.854540    4.044310    3.190030
  N     -6.298410    4.639950    2.313320
  C     -4.150120    1.423920    5.380400
  C     -3.434910    0.310900    4.877200
  C     -2.979260   -0.700410    5.686450
  C     -3.237200   -0.606520    7.058970
  C     -3.944370    0.513600    7.552960
  C     -4.409900    1.535000    6.732840
  S     -4.129490    0.440650    9.278970
  C     -3.266520   -1.069800    9.311360
  C     -2.863450   -1.505710    8.094830
  Br    -2.938380   -1.908170   10.952800
  C     -3.303750    0.436840    3.412400
  O     -2.734160   -0.338870    2.667480
  C     -3.936080    1.721850    3.060050
  C     -3.879010    2.320800    1.825390
  C     -3.529210    1.713440    0.594920
  S     -2.660630    2.637000   -0.606200
  C     -2.523080    1.254480   -1.614870
  C     -3.132070    0.147450   -1.106420
  C     -3.187400   -1.180860   -1.781580
  C     -3.748540    0.409000    0.145810
  C     -4.558170   -0.493910    0.914090
  C     -5.661900   -0.041530    1.560660
  C     -6.256620   -0.567980    2.734560
  C     -5.678130   -1.519340    3.517700
  C     -5.973240   -1.794430    4.872890
  S     -5.267090   -3.213550    5.600640
  C     -5.867890   -2.805780    7.192720
  C     -6.587120   -1.606130    7.133250
  C     -6.626420   -1.047880    5.844270
  S     -7.300800    0.561540    5.543360
  C     -9.078540    0.129790    5.520440
  C     -9.482340   -0.655580    6.761230
  C     -8.866180   -0.065320    8.019510
  S     -7.309570   -0.881720    8.563180
  C     -5.538650   -3.676160    8.244570
  C     -5.783820   -3.492360    9.579950
  C     -5.392400   -4.392570   10.571220
  C     -5.614220   -4.177520   11.915480
  C     -5.198050   -4.987390   12.994460
  C     -5.544040   -4.502390   14.222480
  C     -6.263180   -3.290930   14.174560
  S     -6.477310   -2.776590   12.517910
  C     -6.780380   -2.550690   15.223090
  C     -6.677460   -2.812630   16.606590
  C     -7.318520   -1.892140   17.373650
  C     -7.973870   -0.855800   16.646590
  S     -7.698620   -1.089700   14.931130
  C     -8.721050    0.106320   17.271760
  C     -9.496400    1.191160   16.777630
  C    -10.277940    1.932400   17.688750
  O    -10.215740    1.501100   18.978400
  C    -10.456990    2.367130   20.067670
  C    -11.114580    3.005750   17.255830
  O    -11.891890    3.588910   18.215820
  C    -12.759740    4.631320   17.841190
  C    -11.143160    3.400780   15.937750
  C    -10.353050    2.712880   15.010200
  C     -9.540610    1.599850   15.417820
  N     -8.874840    1.082640   14.396050
  S     -9.230170    1.904420   13.052330
  N    -10.254160    2.963030   13.705720
  H     -2.442520   -1.541890    5.276630
  H     -4.945500    2.369250    7.153760
  H     -2.320750   -2.418980    7.932150
  H     -4.051940    3.390520    1.775670
  H     -1.993980    1.338900   -2.544450
  H     -2.675780   -1.146910   -2.739680
  H     -4.222630   -1.479040   -1.942410
  H     -2.713360   -1.934830   -1.154450
  H     -4.222520   -1.516310    1.004740
  H     -6.052980    0.922870    1.254230
  H     -7.128020   -0.042910    3.094890
  H     -4.864950   -2.103750    3.107910
  H     -9.584100    1.094340    5.482420
  H     -9.290770   -0.427770    4.607500
  H     -9.181300   -1.701300    6.654560
  H    -10.571940   -0.636400    6.843430
  H     -8.659120    0.998100    7.898940
  H     -9.513700   -0.206150    8.884670
  H     -5.010060   -4.572740    7.943450
  H     -6.288420   -2.596620    9.910380
  H     -4.863200   -5.292440   10.287020
  H     -4.648160   -5.897700   12.832810
  H     -5.304530   -4.985210   15.152970
  H     -6.140120   -3.659260   16.995560
  H     -7.358000   -1.921080   18.448700
  H     -8.758280    0.009480   18.349460
  H     -9.993300    1.878130   20.925470
  H    -11.524620    2.492770   20.256010
  H     -9.997360    3.345520   19.916430
  H    -12.209540    5.490780   17.446430
  H    -13.274240    4.921450   18.756120
  H    -13.493680    4.296050   17.102280
  H    -11.760280    4.209300   15.588260

 Total Charge           Charge          ....    0
 Multiplicity           Mult            ....    1
 Number of Electrons    NEL             ....  554
 Basis Dimension        Dim             .... 1153

ORBITAL ENERGIES
----------------

  NO   OCC          E(Eh)            E(eV)
   0   2.0000    -482.867801    -13139.5009
   1   2.0000     -89.005265     -2421.9564
   2   2.0000     -88.956137     -2420.6195
   3   2.0000     -88.952167     -2420.5115
   4   2.0000     -88.951442     -2420.4918
   5   2.0000     -88.931298     -2419.9436
   6   2.0000     -88.927092     -2419.8292
   7   2.0000     -88.918851     -2419.6050
   8   2.0000     -88.918440     -2419.5938
   9   2.0000     -62.545133     -1701.9396
  10   2.0000     -56.379047     -1534.1519
  11   2.0000     -56.376407     -1534.0800
  12   2.0000     -56.376375     -1534.0792
  13   2.0000     -19.258404      -524.0478
  14   2.0000     -19.246473      -523.7231
  15   2.0000     -19.198023      -522.4048
  16   2.0000     -14.423472      -392.4826
  17   2.0000     -14.420514      -392.4021
  18   2.0000     -14.399564      -391.8321
  19   2.0000     -14.398714      -391.8089
  20   2.0000     -10.348871      -281.6071
  21   2.0000     -10.346961      -281.5551
  22   2.0000     -10.342910      -281.4449
  23   2.0000     -10.339578      -281.3542
  24   2.0000     -10.331849      -281.1439
  25   2.0000     -10.322765      -280.8967
  26   2.0000     -10.322011      -280.8762
  27   2.0000     -10.316410      -280.7238
  28   2.0000     -10.311707      -280.5958
  29   2.0000     -10.309223      -280.5282
  30   2.0000     -10.308921      -280.5200
  31   2.0000     -10.304644      -280.4036
  32   2.0000     -10.303316      -280.3675
  33   2.0000     -10.303253      -280.3658
  34   2.0000     -10.302614      -280.3484
  35   2.0000     -10.301598      -280.3207
  36   2.0000     -10.298151      -280.2269
  37   2.0000     -10.297790      -280.2171
  38   2.0000     -10.297563      -280.2109
  39   2.0000     -10.296050      -280.1698
  40   2.0000     -10.295548      -280.1561
  41   2.0000     -10.294891      -280.1382
  42   2.0000     -10.294343      -280.1233
  43   2.0000     -10.293327      -280.0957
  44   2.0000     -10.291077      -280.0345
  45   2.0000     -10.289916      -280.0028
  46   2.0000     -10.288104      -279.9535
  47   2.0000     -10.287310      -279.9319
  48   2.0000     -10.286383      -279.9067
  49   2.0000     -10.285302      -279.8773
  50   2.0000     -10.282377      -279.7977
  51   2.0000     -10.280958      -279.7591
  52   2.0000     -10.280939      -279.7586
  53   2.0000     -10.278943      -279.7043
  54   2.0000     -10.277935      -279.6768
  55   2.0000     -10.277611      -279.6680
  56   2.0000     -10.277289      -279.6592
  57   2.0000     -10.275320      -279.6057
  58   2.0000     -10.274112      -279.5728
  59   2.0000     -10.273426      -279.5541
  60   2.0000     -10.273412      -279.5538
  61   2.0000     -10.272979      -279.5420
  62   2.0000     -10.272730      -279.5352
  63   2.0000     -10.271000      -279.4881
  64   2.0000     -10.269027      -279.4344
  65   2.0000     -10.268965      -279.4328
  66   2.0000     -10.268091      -279.4089
  67   2.0000     -10.266520      -279.3662
  68   2.0000     -10.266378      -279.3623
  69   2.0000     -10.265141      -279.3287
  70   2.0000     -10.264279      -279.3052
  71   2.0000      -8.774465      -238.7653
  72   2.0000      -8.097152      -220.3347
  73   2.0000      -8.051785      -219.1002
  74   2.0000      -8.048149      -219.0013
  75   2.0000      -8.046724      -218.9625
  76   2.0000      -8.027403      -218.4367
  77   2.0000      -8.021754      -218.2830
  78   2.0000      -8.013052      -218.0462
  79   2.0000      -8.012382      -218.0280
  80   2.0000      -6.610700      -179.8863
  81   2.0000      -6.596207      -179.4919
  82   2.0000      -6.596070      -179.4882
  83   2.0000      -6.068495      -165.1321
  84   2.0000      -6.060921      -164.9261
  85   2.0000      -6.059089      -164.8762
  86   2.0000      -6.021490      -163.8531
  87   2.0000      -6.017426      -163.7425
  88   2.0000      -6.017174      -163.7356
  89   2.0000      -6.015916      -163.7014
  90   2.0000      -6.013223      -163.6281
  91   2.0000      -6.013061      -163.6237
  92   2.0000      -6.012155      -163.5991
  93   2.0000      -6.010321      -163.5491
  94   2.0000      -6.008712      -163.5054
  95   2.0000      -5.997079      -163.1888
  96   2.0000      -5.993110      -163.0808
  97   2.0000      -5.991688      -163.0421
  98   2.0000      -5.988385      -162.9523
  99   2.0000      -5.987295      -162.9226
 100   2.0000      -5.983678      -162.8241
 101   2.0000      -5.983082      -162.8079
 102   2.0000      -5.982567      -162.7939
 103   2.0000      -5.979175      -162.7016
 104   2.0000      -5.979088      -162.6993
 105   2.0000      -5.972909      -162.5311
 106   2.0000      -5.971639      -162.4966
 107   2.0000      -2.726597       -74.1945
 108   2.0000      -2.722522       -74.0836
 109   2.0000      -2.722397       -74.0802
 110   2.0000      -2.710895       -73.7672
 111   2.0000      -2.710886       -73.7670
 112   2.0000      -1.167698       -31.7747
 113   2.0000      -1.142160       -31.0798
 114   2.0000      -1.112012       -30.2594
 115   2.0000      -1.107780       -30.1442
 116   2.0000      -1.005091       -27.3499
 117   2.0000      -0.996335       -27.1117
 118   2.0000      -0.989407       -26.9231
 119   2.0000      -0.985206       -26.8088
 120   2.0000      -0.981989       -26.7213
 121   2.0000      -0.977943       -26.6112
 122   2.0000      -0.971050       -26.4236
 123   2.0000      -0.967013       -26.3138
 124   2.0000      -0.957198       -26.0467
 125   2.0000      -0.945975       -25.7413
 126   2.0000      -0.925118       -25.1737
 127   2.0000      -0.923246       -25.1228
 128   2.0000      -0.914333       -24.8803
 129   2.0000      -0.898106       -24.4387
 130   2.0000      -0.890809       -24.2402
 131   2.0000      -0.889153       -24.1951
 132   2.0000      -0.881856       -23.9965
 133   2.0000      -0.873955       -23.7815
 134   2.0000      -0.866854       -23.5883
 135   2.0000      -0.860636       -23.4191
 136   2.0000      -0.857217       -23.3261
 137   2.0000      -0.856356       -23.3026
 138   2.0000      -0.854339       -23.2477
 139   2.0000      -0.847915       -23.0730
 140   2.0000      -0.836402       -22.7596
 141   2.0000      -0.828551       -22.5460
 142   2.0000      -0.823655       -22.4128
 143   2.0000      -0.810788       -22.0627
 144   2.0000      -0.808422       -21.9983
 145   2.0000      -0.804570       -21.8935
 146   2.0000      -0.801469       -21.8091
 147   2.0000      -0.786403       -21.3991
 148   2.0000      -0.777030       -21.1441
 149   2.0000      -0.769289       -20.9334
 150   2.0000      -0.761834       -20.7305
 151   2.0000      -0.755303       -20.5528
 152   2.0000      -0.743913       -20.2429
 153   2.0000      -0.737626       -20.0718
 154   2.0000      -0.735875       -20.0242
 155   2.0000      -0.728171       -19.8145
 156   2.0000      -0.708048       -19.2670
 157   2.0000      -0.695387       -18.9224
 158   2.0000      -0.691452       -18.8154
 159   2.0000      -0.685053       -18.6412
 160   2.0000      -0.680290       -18.5116
 161   2.0000      -0.674127       -18.3439
 162   2.0000      -0.665512       -18.1095
 163   2.0000      -0.663596       -18.0574
 164   2.0000      -0.658129       -17.9086
 165   2.0000      -0.654092       -17.7987
 166   2.0000      -0.643771       -17.5179
 167   2.0000      -0.640257       -17.4223
 168   2.0000      -0.634355       -17.2617
 169   2.0000      -0.630166       -17.1477
 170   2.0000      -0.624334       -16.9890
 171   2.0000      -0.618986       -16.8435
 172   2.0000      -0.612245       -16.6600
 173   2.0000      -0.610809       -16.6210
 174   2.0000      -0.605880       -16.4868
 175   2.0000      -0.604528       -16.4500
 176   2.0000      -0.601600       -16.3704
 177   2.0000      -0.595957       -16.2168
 178   2.0000      -0.586867       -15.9695
 179   2.0000      -0.581653       -15.8276
 180   2.0000      -0.578912       -15.7530
 181   2.0000      -0.570669       -15.5287
 182   2.0000      -0.570402       -15.5214
 183   2.0000      -0.560722       -15.2580
 184   2.0000      -0.554412       -15.0863
 185   2.0000      -0.553374       -15.0581
 186   2.0000      -0.549045       -14.9403
 187   2.0000      -0.545389       -14.8408
 188   2.0000      -0.544342       -14.8123
 189   2.0000      -0.542025       -14.7492
 190   2.0000      -0.540350       -14.7037
 191   2.0000      -0.535490       -14.5714
 192   2.0000      -0.530862       -14.4455
 193   2.0000      -0.527049       -14.3417
 194   2.0000      -0.526353       -14.3228
 195   2.0000      -0.524612       -14.2754
 196   2.0000      -0.523166       -14.2361
 197   2.0000      -0.517713       -14.0877
 198   2.0000      -0.514623       -14.0036
 199   2.0000      -0.508797       -13.8451
 200   2.0000      -0.508526       -13.8377
 201   2.0000      -0.505601       -13.7581
 202   2.0000      -0.502148       -13.6641
 203   2.0000      -0.501365       -13.6428
 204   2.0000      -0.498522       -13.5655
 205   2.0000      -0.497558       -13.5392
 206   2.0000      -0.492260       -13.3951
 207   2.0000      -0.489611       -13.3230
 208   2.0000      -0.487335       -13.2610
 209   2.0000      -0.484913       -13.1951
 210   2.0000      -0.483834       -13.1658
 211   2.0000      -0.481908       -13.1134
 212   2.0000      -0.475990       -12.9524
 213   2.0000      -0.475579       -12.9412
 214   2.0000      -0.471030       -12.8174
 215   2.0000      -0.470575       -12.8050
 216   2.0000      -0.465896       -12.6777
 217   2.0000      -0.463690       -12.6176
 218   2.0000      -0.461432       -12.5562
 219   2.0000      -0.459410       -12.5012
 220   2.0000      -0.455603       -12.3976
 221   2.0000      -0.454899       -12.3784
 222   2.0000      -0.452547       -12.3144
 223   2.0000      -0.451766       -12.2932
 224   2.0000      -0.450122       -12.2485
 225   2.0000      -0.448258       -12.1977
 226   2.0000      -0.446859       -12.1597
 227   2.0000      -0.442378       -12.0377
 228   2.0000      -0.440320       -11.9817
 229   2.0000      -0.439238       -11.9523
 230   2.0000      -0.434971       -11.8362
 231   2.0000      -0.434337       -11.8189
 232   2.0000      -0.431482       -11.7412
 233   2.0000      -0.429215       -11.6795
 234   2.0000      -0.428513       -11.6604
 235   2.0000      -0.426624       -11.6090
 236   2.0000      -0.424886       -11.5617
 237   2.0000      -0.421807       -11.4780
 238   2.0000      -0.420823       -11.4512
 239   2.0000      -0.414891       -11.2898
 240   2.0000      -0.414370       -11.2756
 241   2.0000      -0.412705       -11.2303
 242   2.0000      -0.408754       -11.1228
 243   2.0000      -0.406950       -11.0737
 244   2.0000      -0.403988       -10.9931
 245   2.0000      -0.401257       -10.9187
 246   2.0000      -0.399172       -10.8620
 247   2.0000      -0.395003       -10.7486
 248   2.0000      -0.392998       -10.6940
 249   2.0000      -0.388855       -10.5813
 250   2.0000      -0.387638       -10.5482
 251   2.0000      -0.383839       -10.4448
 252   2.0000      -0.379538       -10.3277
 253   2.0000      -0.376984       -10.2582
 254   2.0000      -0.373809       -10.1719
 255   2.0000      -0.368105       -10.0167
 256   2.0000      -0.358394        -9.7524
 257   2.0000      -0.357017        -9.7149
 258   2.0000      -0.353101        -9.6084
 259   2.0000      -0.343258        -9.3405
 260   2.0000      -0.337227        -9.1764
 261   2.0000      -0.330554        -8.9948
 262   2.0000      -0.329518        -8.9666
 263   2.0000      -0.324245        -8.8231
 264   2.0000      -0.322301        -8.7703
 265   2.0000      -0.313883        -8.5412
 266   2.0000      -0.309125        -8.4117
 267   2.0000      -0.302534        -8.2324
 268   2.0000      -0.299113        -8.1393
 269   2.0000      -0.290893        -7.9156
 270   2.0000      -0.289336        -7.8732
 271   2.0000      -0.281684        -7.6650
 272   2.0000      -0.275302        -7.4914
 273   2.0000      -0.266548        -7.2531
 274   2.0000      -0.257642        -7.0108
 275   2.0000      -0.238331        -6.4853
 276   2.0000      -0.191156        -5.2016
 277   0.0000      -0.084649        -2.3034
 278   0.0000      -0.070574        -1.9204
 279   0.0000      -0.049433        -1.3452
 280   0.0000      -0.036184        -0.9846
 281   0.0000      -0.022611        -0.6153

MULLIKEN ATOMIC CHARGES
-----------------------
   0 C :    0.321512
   1 C :   -0.355950
   2 C :   -0.189791
   3 N :    0.148705
   4 C :   -0.220784
   5 N :    0.155395
   6 C :    0.002737
   7 C :    0.001438
   8 C :   -0.085995
   9 C :    0.116511
  10 C :   -0.079504
  11 C :   -0.023090
  12 S :    0.190200
  13 C :   -0.136986
  14 C :    0.060564
  15 Br:    0.023512
  16 C :    0.148371
  17 O :   -0.166371
  18 C :   -0.090760
  19 C :   -0.009578
  20 C :   -0.172986
  21 S :    0.132238
  22 C :   -0.109842
  23 C :   -0.089063
  24 C :    0.121737
  25 C :    0.150151
  26 C :   -0.010138
  27 C :    0.008344
  28 C :   -0.027287
  29 C :    0.075741
  30 C :   -0.065331
  31 S :    0.108073
  32 C :   -0.105917
  33 C :   -0.000491
  34 C :   -0.129145
  35 S :   -0.043634
  36 C :   -0.022663
  37 C :    0.000188
  38 C :   -0.055078
  39 S :   -0.005088
  40 C :    0.024241
  41 C :   -0.002500
  42 C :   -0.014964
  43 C :   -0.018224
  44 C :    0.028619
  45 C :    0.024131
  46 C :   -0.052486
  47 S :    0.067645
  48 C :   -0.023287
  49 C :    0.030372
  50 C :    0.023356
  51 C :    0.026607
  52 S :    0.108121
  53 C :   -0.103729
  54 C :    0.027165
  55 C :    0.120168
  56 O :   -0.321037
  57 C :    0.211742
  58 C :    0.227248
  59 O :   -0.330401
  60 C :    0.182435
  61 C :   -0.206570
  62 C :    0.071977
  63 C :    0.048667
  64 N :   -0.323833
  65 S :    0.490644
  66 N :   -0.273709
  67 H :   -0.025630
  68 H :   -0.011566
  69 H :   -0.016388
  70 H :    0.029427
  71 H :    0.020025
  72 H :    0.007171
  73 H :    0.031117
  74 H :    0.032966
  75 H :    0.006019
  76 H :    0.011835
  77 H :   -0.005866
  78 H :   -0.005267
  79 H :    0.056316
  80 H :    0.044028
  81 H :    0.048718
  82 H :    0.026605
  83 H :    0.068701
  84 H :    0.054138
  85 H :   -0.030391
  86 H :    0.026509
  87 H :   -0.027160
  88 H :   -0.019761
  89 H :   -0.017781
  90 H :   -0.021774
  91 H :   -0.014807
  92 H :   -0.008983
  93 H :    0.025076
  94 H :    0.029178
  95 H :    0.013862
  96 H :    0.029829
  97 H :    0.037389
  98 H :    0.029912
  99 H :   -0.035792
Sum of atomic charges:    0.0000000

LOEWDIN ATOMIC CHARGES
----------------------
   0 C :    0.078668
   1 C :   -0.152577
   2 C :   -0.020834
   3 N :   -0.066914
   4 C :   -0.025515
   5 N :   -0.064976
   6 C :   -0.030655
   7 C :   -0.046159
   8 C :    0.008759
   9 C :   -0.032552
  10 C :   -0.147121
  11 C :   -0.012784
  12 S :    0.439111
  13 C :   -0.273695
  14 C :   -0.071879
  15 Br:    0.147811
  16 C :    0.079287
  17 O :   -0.149393
  18 C :   -0.095736
  19 C :    0.052212
  20 C :   -0.182282
  21 S :    0.440958
  22 C :   -0.170765
  23 C :   -0.058387
  24 C :   -0.042704
  25 C :   -0.014757
  26 C :   -0.011989
  27 C :   -0.021943
  28 C :   -0.033201
  29 C :   -0.029136
  30 C :   -0.176825
  31 S :    0.434954
  32 C :   -0.176082
  33 C :   -0.211848
  34 C :   -0.213595
  35 S :    0.312210
  36 C :   -0.121871
  37 C :   -0.062483
  38 C :   -0.133675
  39 S :    0.315758
  40 C :   -0.064506
  41 C :   -0.028422
  42 C :   -0.068564
  43 C :   -0.143348
  44 C :   -0.044739
  45 C :   -0.030689
  46 C :   -0.185307
  47 S :    0.377360
  48 C :   -0.184374
  49 C :   -0.038003
  50 C :   -0.029613
  51 C :   -0.138816
  52 S :    0.416539
  53 C :   -0.050287
  54 C :   -0.059831
  55 C :    0.048382
  56 O :   -0.098161
  57 C :    0.079384
  58 C :    0.042476
  59 O :   -0.096661
  60 C :    0.079267
  61 C :   -0.088685
  62 C :   -0.053508
  63 C :   -0.043842
  64 N :   -0.296611
  65 S :    0.617017
  66 N :   -0.294034
  67 H :    0.032588
  68 H :    0.038355
  69 H :    0.033730
  70 H :    0.044187
  71 H :    0.024000
  72 H :    0.032174
  73 H :    0.037973
  74 H :    0.038577
  75 H :    0.029288
  76 H :    0.034482
  77 H :    0.017089
  78 H :    0.028085
  79 H :    0.028038
  80 H :    0.021888
  81 H :    0.031839
  82 H :    0.034198
  83 H :    0.022018
  84 H :    0.027824
  85 H :    0.023099
  86 H :    0.004011
  87 H :    0.027386
  88 H :    0.030641
  89 H :    0.030111
  90 H :    0.027678
  91 H :    0.030914
  92 H :    0.035203
  93 H :    0.020940
  94 H :    0.015278
  95 H :    0.014540
  96 H :    0.018605
  97 H :    0.029273
  98 H :    0.019539
  99 H :    0.036633

  Mayer bond orders larger than 0.100000
B(  0-C ,  1-C ) :   1.6224 B(  0-C ,  6-C ) :   0.9938 B(  0-C , 18-C ) :   1.0802
B(  1-C ,  2-C ) :   1.1442 B(  1-C ,  4-C ) :   1.1514 B(  2-C ,  3-N ) :   2.9751
B(  4-C ,  5-N ) :   2.9948 B(  6-C ,  7-C ) :   1.2787 B(  6-C , 11-C ) :   1.3948
B(  7-C ,  8-C ) :   1.4142 B(  7-C , 16-C ) :   0.9361 B(  8-C ,  9-C ) :   1.2271
B(  8-C , 67-H ) :   1.0229 B(  9-C , 10-C ) :   1.3187 B(  9-C , 14-C ) :   1.1664
B( 10-C , 11-C ) :   1.3180 B( 10-C , 12-S ) :   1.0863 B( 11-C , 68-H ) :   0.9850
B( 12-S , 13-C ) :   1.0966 B( 13-C , 14-C ) :   1.5997 B( 13-C , 15-Br) :   1.0229
B( 14-C , 69-H ) :   1.0011 B( 16-C , 17-O ) :   2.1582 B( 16-C , 18-C ) :   0.9750
B( 18-C , 19-C ) :   1.5643 B( 19-C , 20-C ) :   1.1652 B( 19-C , 70-H ) :   0.9354
B( 20-C , 21-S ) :   1.1067 B( 20-C , 25-C ) :   1.4314 B( 21-S , 22-C ) :   1.1648
B( 22-C , 23-C ) :   1.5581 B( 22-C , 71-H ) :   0.9653 B( 23-C , 24-C ) :   1.0956
B( 23-C , 25-C ) :   1.2626 B( 24-C , 72-H ) :   0.9501 B( 24-C , 73-H ) :   0.9449
B( 24-C , 74-H ) :   0.9446 B( 25-C , 26-C ) :   1.0972 B( 26-C , 27-C ) :   1.7247
B( 26-C , 75-H ) :   0.9306 B( 27-C , 28-C ) :   1.1689 B( 27-C , 76-H ) :   0.9578
B( 28-C , 29-C ) :   1.6607 B( 28-C , 77-H ) :   0.9637 B( 29-C , 30-C ) :   1.1620
B( 29-C , 78-H ) :   0.9320 B( 30-C , 31-S ) :   1.1082 B( 30-C , 34-C ) :   1.4896
B( 31-S , 32-C ) :   1.1078 B( 32-C , 33-C ) :   1.4638 B( 32-C , 40-C ) :   1.1715
B( 33-C , 34-C ) :   1.2657 B( 33-C , 39-S ) :   1.0565 B( 34-C , 35-S ) :   1.0596
B( 35-S , 36-C ) :   1.0006 B( 36-C , 37-C ) :   1.0701 B( 36-C , 79-H ) :   0.9475
B( 36-C , 80-H ) :   0.9521 B( 37-C , 38-C ) :   1.0607 B( 37-C , 81-H ) :   0.9418
B( 37-C , 82-H ) :   0.9377 B( 38-C , 39-S ) :   0.9736 B( 38-C , 83-H ) :   0.9463
B( 38-C , 84-H ) :   0.9502 B( 40-C , 41-C ) :   1.5936 B( 40-C , 85-H ) :   0.9561
B( 41-C , 42-C ) :   1.1963 B( 41-C , 86-H ) :   0.9529 B( 42-C , 43-C ) :   1.5103
B( 42-C , 87-H ) :   0.9879 B( 43-C , 44-C ) :   1.1598 B( 43-C , 47-S ) :   1.0480
B( 44-C , 45-C ) :   1.5590 B( 44-C , 88-H ) :   1.0008 B( 45-C , 46-C ) :   1.2054
B( 45-C , 89-H ) :   0.9950 B( 46-C , 47-S ) :   1.0412 B( 46-C , 48-C ) :   1.4900
B( 48-C , 49-C ) :   1.1811 B( 48-C , 52-S ) :   1.0179 B( 49-C , 50-C ) :   1.5906
B( 49-C , 90-H ) :   0.9930 B( 50-C , 51-C ) :   1.1318 B( 50-C , 91-H ) :   1.0012
B( 51-C , 52-S ) :   1.0422 B( 51-C , 53-C ) :   1.5574 B( 53-C , 54-C ) :   1.1668
B( 53-C , 92-H ) :   0.9489 B( 54-C , 55-C ) :   1.4301 B( 54-C , 61-C ) :   0.1108
B( 54-C , 63-C ) :   1.1485 B( 55-C , 56-O ) :   1.1877 B( 55-C , 58-C ) :   1.1725
B( 56-O , 57-C ) :   0.9316 B( 57-C , 93-H ) :   0.9770 B( 57-C , 94-H ) :   0.9744
B( 57-C , 95-H ) :   0.9740 B( 58-C , 59-O ) :   1.1311 B( 58-C , 61-C ) :   1.3684
B( 59-O , 60-C ) :   0.9584 B( 60-C , 96-H ) :   0.9689 B( 60-C , 97-H ) :   0.9774
B( 60-C , 98-H ) :   0.9686 B( 61-C , 62-C ) :   1.1417 B( 61-C , 99-H ) :   1.0394
B( 62-C , 63-C ) :   1.1617 B( 62-C , 66-N ) :   1.5441 B( 63-C , 64-N ) :   1.5122
B( 64-N , 65-S ) :   1.2255 B( 64-N , 66-N ) :   0.1416 B( 65-S , 66-N ) :   1.2495

-----------------------------------------------------------------------------
         ABSORPTION SPECTRUM VIA TRANSITION ELECTRIC DIPOLE MOMENTS
-----------------------------------------------------------------------------
State   Energy  Wavelength   fosc         T2         TX        TY        TZ
        (cm-1)    (nm)                  (au**2)     (au)      (au)      (au)
-----------------------------------------------------------------------------
   0   10658.1    938.3   0.960844551  29.67911   1.99126  -0.43795  -5.05195
   1   13813.8    723.9   0.371155456   8.84543  -0.80629   2.29677   1.70885
   2   17251.9    579.6   0.126534930   2.41462   0.10073  -1.31488   0.82192
   3   17879.8    559.3   0.158494077   2.91827  -0.15729  -0.95882  -1.40506
   4   19695.4    507.7   0.070927951   1.18558  -0.23259  -0.06268  -1.06186
   5   21437.1    466.5   0.338947052   5.20524  -0.24565   1.02082  -2.02554
   6   22430.5    445.8   0.018251420   0.26788   0.24986  -0.44690   0.07568
   7   23538.8    424.8   0.270010734   3.77636   1.03917  -1.48969   0.69087
   8   24486.4    408.4   0.241205488   3.24293   0.37411  -0.80586   1.56638
   9   24724.0    404.5   0.136791234   1.82144  -0.93637   0.04069   0.97108
  10   24949.3    400.8   0.009588088   0.12652  -0.13451  -0.32740   0.03511
  11   26363.8    379.3   0.026638780   0.33265   0.08653   0.39834   0.40802
  12   26657.3    375.1   0.093991634   1.16078   0.33167  -0.76769   0.67928
  13   27073.0    369.4   0.146176696   1.77753   0.90481  -0.97747   0.05836
  14   27813.1    359.5   0.160151995   1.89565  -0.68081   1.15165  -0.32536
  15   28134.7    355.4   0.004115530   0.04816   0.20345  -0.07537   0.03291
  16   28879.4    346.3   0.053385268   0.60857  -0.12204   0.12530  -0.76025
  17   29155.6    343.0   0.021295636   0.24046   0.38128  -0.28654   0.11391
  18   29238.9    342.0   0.116029725   1.30642  -0.05888  -0.36038   1.08309
  19   29643.5    337.3   0.220302643   2.44662  -0.19908  -0.21644   1.53627
  20   29789.2    335.7   0.080214639   0.88648   0.52406  -0.02677  -0.78174
  21   30320.2    329.8   0.052529157   0.57035  -0.14226   0.32919  -0.66464
  22   30771.8    325.0   0.048124766   0.51486   0.20408  -0.15838  -0.66942
  23   30927.5    323.3   0.262341313   2.79253  -0.37737  -0.32009   1.59614
  24   31033.2    322.2   0.006209104   0.06587  -0.03427  -0.03261  -0.25225
  25   31648.9    316.0   0.050593919   0.52628   0.14653  -0.49335   0.51129
  26   31905.8    313.4   0.135241996   1.39546  -0.87876   0.72160   0.32022
  27   32050.5    312.0   0.030517497   0.31347   0.14787  -0.49341   0.21942
  28   32535.4    307.4   0.299016920   3.02563  -0.29849   1.18047  -1.24218
  29   33220.7    301.0   0.220326331   2.18340  -0.37298   0.11700   1.42499
  30   33460.8    298.9   0.032547335   0.32022   0.04132  -0.13810  -0.54722
  31   33807.9    295.8   0.153067856   1.49053   0.20724  -0.84448   0.85699
  32   33849.7    295.4   0.021675223   0.21081   0.08176   0.26770   0.36395
  33   34176.2    292.6   0.163890372   1.57872  -0.23252   0.54704  -1.10698
  34   34432.3    290.4   0.019294100   0.18447   0.18922  -0.19185   0.33446
  35   34995.3    285.8   0.024073254   0.22646  -0.20396   0.22108   0.36877
  36   35149.5    284.5   0.004770816   0.04468   0.13497  -0.07340  -0.14519
  37   35480.5    281.8   0.028070654   0.26046   0.33719  -0.03280  -0.38169
  38   35592.6    281.0   0.026766144   0.24757   0.05523   0.23184   0.43678
  39   35924.0    278.4   0.053096452   0.48658  -0.06674   0.39447  -0.57142
  40   36221.8    276.1   0.049640876   0.45117  -0.41974   0.41202  -0.32440
  41   36311.1    275.4   0.092155525   0.83552   0.19770   0.42602  -0.78419
  42   36478.5    274.1   0.006560185   0.05920   0.09112   0.10516  -0.19961
  43   36767.8    272.0   0.094025319   0.84188   0.41015  -0.41804  -0.70633
  44   36952.0    270.6   0.023386497   0.20835  -0.22855   0.39502  -0.00886
  45   37195.3    268.9   0.096622985   0.85520   0.62110  -0.68183   0.06738
  46   37380.0    267.5   0.003162617   0.02785   0.07948   0.01702   0.14576
  47   37473.5    266.9   0.061444015   0.53980   0.30429  -0.22707  -0.62900
  48   37649.5    265.6   0.003954891   0.03458   0.06931   0.02168   0.17120
  49   37863.8    264.1   0.006786465   0.05901  -0.01880  -0.22699   0.08442
  50   37963.0    263.4   0.020085930   0.17418   0.01978  -0.23929  -0.34137
  51   38296.8    261.1   0.006291645   0.05409  -0.17778  -0.14961   0.00970
  52   38538.1    259.5   0.004325478   0.03695   0.04763   0.05136  -0.17901
  53   38933.4    256.8   0.016676038   0.14101   0.22166  -0.01804  -0.30257
  54   39321.8    254.3   0.004908745   0.04110   0.17129  -0.08612  -0.06588
  55   39348.6    254.1   0.026110984   0.21846  -0.30444   0.20071  -0.29239
  56   39569.7    252.7   0.060593994   0.50413   0.12588  -0.14459  -0.68365
  57   39780.5    251.4   0.136519043   1.12979  -0.46782  -0.02586   0.95408
  58   40063.6    249.6   0.021986745   0.18067   0.21555   0.18501  -0.31619
  59   40092.7    249.4   0.001558323   0.01280   0.03478   0.01852   0.10603

FINAL SINGLE POINT ENERGY     -8163.251932925126

DIPOLE MOMENT
-------------
                                X             Y             Z
Electronic contribution:     59.06192     -13.63879      13.63321
Nuclear contribution   :    -59.81988      12.09300     -11.64603
                        -----------------------------------------
Total Dipole Moment    :     -0.75795      -1.54579       1.98718
                        -----------------------------------------
Magnitude (a.u.)       :      2.62923
Magnitude (Debye)      :      6.68298

Rotational constants in cm-1:     0.001727     0.000406     0.000358
Rotational constants in MHz :    51.778142    12.171635    10.745493

                             ****ORCA TERMINATED NORMALLY****
TOTAL RUN TIME: 0 days 0 hours 12 minutes 34 seconds 633 msec
