                         Program Version 4.2.0 -  RELEASE  -
|  1> # ORCA input file
|  2> # SCF done       -162.257162480336          0.000938245477
|  3> ! CAM-B3LYP def2-SVP def2/J RIJCOSX Grid4 TightSCF
|  4> %maxcore 5000
|  5> %tddft
|  6>     Mode sTDDFT
|  7>     Ethresh 5.0
|  8>     maxcore 5000
|  9> end
| 10>
| 11> %pal
| 12>   nprocs 6
| 13>   end
| 14> * xyz 0 1
| 15>    C       -2.25724        -0.49263        -1.04903
| 16>    C       -2.26700        -1.71867        -0.41249
| 17>    C       -1.48275        -2.82213        -0.80278
| 18>    N       -0.87813        -3.76620        -1.05583
| 19>    C       -3.00319        -2.05120         0.73150
| 20>    N       -3.55515        -2.40603         1.67944
| 21>    C       -1.40207        -0.16014        -2.17852
| 22>    C       -1.56244         1.21390        -2.47799
| 23>    C       -0.87774         1.83942        -3.48926
| 24>    C        0.00551         1.06805        -4.25385
| 25>    C        0.15413        -0.30670        -3.95382
| 26>    C       -0.53406        -0.93742        -2.92532
| 27>    S        1.28962        -1.07445        -5.02325
| 28>    C        1.54611         0.44226        -5.84515
| 29>    C        0.81983         1.47104        -5.34677
| 30>   Br        2.74839         0.52400        -7.28299
| 31>    C       -2.54729         1.80974        -1.54893
| 32>    O       -2.85290         2.98041        -1.50397
| 33>    C       -3.02538         0.68498        -0.70590
| 34>    C       -4.03696         0.69259         0.22339
| 35>    C       -4.89124         1.73350         0.62792
| 36>    O       -4.83754         2.96356         0.03666
| 37>    C       -5.74192         3.75003         0.56072
| 38>    C       -6.45377         3.08370         1.53856
| 39>    N       -7.50146         3.61438         2.30291
| 40>    O       -7.81883         4.76972         2.11355
| 41>    O       -8.03977         2.87339         3.12223
| 42>    C       -5.91268         1.75160         1.60846
| 43>    N       -6.39060         0.84837         2.48302
| 44>    C       -6.01355        -0.44417         2.75161
| 45>    C       -6.67502        -1.22417         3.61910
| 46>    C       -7.87355        -0.75742         4.39014
| 47>    C       -6.14681        -2.61105         3.89298
| 48>    N       -5.27787        -2.60293         5.04861
| 49>    C       -3.95358        -2.42891         4.96678
| 50>    C       -3.15005        -2.20317         6.04906
| 51>    C       -1.76097        -2.06938         5.96165
| 52>    C       -0.94585        -1.84480         7.04827
| 53>    C        0.45588        -1.68393         7.07039
| 54>    C        0.97665        -1.47858         8.31658
| 55>    C        0.00767        -1.46899         9.34034
| 56>    S       -1.58498        -1.72205         8.68267
| 57>    C        0.18103        -1.29855        10.70668
| 58>    C        1.36460        -1.08810        11.43710
| 59>    C        1.16348        -0.97037        12.78220
| 60>    C       -0.19167        -1.08190        13.18144
| 61>    S       -1.20217        -1.34012        11.77647
| 62>    C       -0.64416        -1.00414        14.47789
| 63>    C       -1.96696        -1.10680        14.94223
| 64>    S       -2.27681        -0.99254        16.67293
| 65>    C       -3.97948        -1.19035        16.52193
| 66>    C       -4.32123        -1.34054        15.19965
| 67>    C       -3.19264        -1.29287        14.32030
| 68>    O       -3.58925        -1.44077        13.03770
| 69>    C       -4.93870        -1.58190        13.08357
| 70>    N       -5.62435        -1.75493        11.86460
| 71>    O       -6.83625        -1.87903        11.93428
| 72>    O       -4.98223        -1.77012        10.83324
| 73>    C       -5.44832        -1.53136        14.35567
| 74>    H       -1.01922         2.89047        -3.68668
| 75>    H       -0.38503        -1.98775        -2.73973
| 76>    H        0.85576         2.47340        -5.73306
| 77>    H       -4.23809        -0.24940         0.70554
| 78>    H       -5.83089         4.75701         0.20106
| 79>    H       -7.17026         1.21248         3.03740
| 80>    H       -5.14531        -0.82656         2.24432
| 81>    H       -8.68848        -0.48930         3.71780
| 82>    H       -7.64136         0.12164         4.99193
| 83>    H       -8.23165        -1.53807         5.05531
| 84>    H       -5.56516        -2.96801         3.04159
| 85>    H       -6.97316        -3.30194         4.08067
| 86>    H       -5.71143        -2.45944         5.95102
| 87>    H       -3.53232        -2.51240         3.97392
| 88>    H       -3.59916        -2.12384         7.03104
| 89>    H       -1.29458        -2.14297         4.98787
| 90>    H        1.04032        -1.72487         6.16775
| 91>    H        2.02263        -1.33693         8.52163
| 92>    H        2.32767        -1.02916        10.96201
| 93>    H        1.94576        -0.80760        13.50236
| 94>    H        0.10460        -0.84747        15.24284
| 95>    H       -4.60212        -1.18367        17.39113
| 96>    H       -6.47989        -1.61941        14.62605
| 97> *
| 98>
| 99>                          ****END OF INPUT****

CARTESIAN COORDINATES (ANGSTROEM)
---------------------------------
  C     -2.257240   -0.492630   -1.049030
  C     -2.267000   -1.718670   -0.412490
  C     -1.482750   -2.822130   -0.802780
  N     -0.878130   -3.766200   -1.055830
  C     -3.003190   -2.051200    0.731500
  N     -3.555150   -2.406030    1.679440
  C     -1.402070   -0.160140   -2.178520
  C     -1.562440    1.213900   -2.477990
  C     -0.877740    1.839420   -3.489260
  C      0.005510    1.068050   -4.253850
  C      0.154130   -0.306700   -3.953820
  C     -0.534060   -0.937420   -2.925320
  S      1.289620   -1.074450   -5.023250
  C      1.546110    0.442260   -5.845150
  C      0.819830    1.471040   -5.346770
  Br     2.748390    0.524000   -7.282990
  C     -2.547290    1.809740   -1.548930
  O     -2.852900    2.980410   -1.503970
  C     -3.025380    0.684980   -0.705900
  C     -4.036960    0.692590    0.223390
  C     -4.891240    1.733500    0.627920
  O     -4.837540    2.963560    0.036660
  C     -5.741920    3.750030    0.560720
  C     -6.453770    3.083700    1.538560
  N     -7.501460    3.614380    2.302910
  O     -7.818830    4.769720    2.113550
  O     -8.039770    2.873390    3.122230
  C     -5.912680    1.751600    1.608460
  N     -6.390600    0.848370    2.483020
  C     -6.013550   -0.444170    2.751610
  C     -6.675020   -1.224170    3.619100
  C     -7.873550   -0.757420    4.390140
  C     -6.146810   -2.611050    3.892980
  N     -5.277870   -2.602930    5.048610
  C     -3.953580   -2.428910    4.966780
  C     -3.150050   -2.203170    6.049060
  C     -1.760970   -2.069380    5.961650
  C     -0.945850   -1.844800    7.048270
  C      0.455880   -1.683930    7.070390
  C      0.976650   -1.478580    8.316580
  C      0.007670   -1.468990    9.340340
  S     -1.584980   -1.722050    8.682670
  C      0.181030   -1.298550   10.706680
  C      1.364600   -1.088100   11.437100
  C      1.163480   -0.970370   12.782200
  C     -0.191670   -1.081900   13.181440
  S     -1.202170   -1.340120   11.776470
  C     -0.644160   -1.004140   14.477890
  C     -1.966960   -1.106800   14.942230
  S     -2.276810   -0.992540   16.672930
  C     -3.979480   -1.190350   16.521930
  C     -4.321230   -1.340540   15.199650
  C     -3.192640   -1.292870   14.320300
  O     -3.589250   -1.440770   13.037700
  C     -4.938700   -1.581900   13.083570
  N     -5.624350   -1.754930   11.864600
  O     -6.836250   -1.879030   11.934280
  O     -4.982230   -1.770120   10.833240
  C     -5.448320   -1.531360   14.355670
  H     -1.019220    2.890470   -3.686680
  H     -0.385030   -1.987750   -2.739730
  H      0.855760    2.473400   -5.733060
  H     -4.238090   -0.249400    0.705540
  H     -5.830890    4.757010    0.201060
  H     -7.170260    1.212480    3.037400
  H     -5.145310   -0.826560    2.244320
  H     -8.688480   -0.489300    3.717800
  H     -7.641360    0.121640    4.991930
  H     -8.231650   -1.538070    5.055310
  H     -5.565160   -2.968010    3.041590
  H     -6.973160   -3.301940    4.080670
  H     -5.711430   -2.459440    5.951020
  H     -3.532320   -2.512400    3.973920
  H     -3.599160   -2.123840    7.031040
  H     -1.294580   -2.142970    4.987870
  H      1.040320   -1.724870    6.167750
  H      2.022630   -1.336930    8.521630
  H      2.327670   -1.029160   10.962010
  H      1.945760   -0.807600   13.502360
  H      0.104600   -0.847470   15.242840
  H     -4.602120   -1.183670   17.391130
  H     -6.479890   -1.619410   14.626050

 Total Charge           Charge          ....    0
 Multiplicity           Mult            ....    1
 Number of Electrons    NEL             ....  466
 Basis Dimension        Dim             ....  975

ORBITAL ENERGIES
----------------

  NO   OCC          E(Eh)            E(eV)
   0   2.0000    -482.889757    -13140.0983
   1   2.0000     -88.979767     -2421.2626
   2   2.0000     -88.950961     -2420.4787
   3   2.0000     -88.917305     -2419.5629
   4   2.0000     -88.912731     -2419.4384
   5   2.0000     -62.567433     -1702.5464
   6   2.0000     -56.401390     -1534.7598
   7   2.0000     -56.398664     -1534.6857
   8   2.0000     -56.398635     -1534.6849
   9   2.0000     -19.335188      -526.1372
  10   2.0000     -19.287038      -524.8270
  11   2.0000     -19.271089      -524.3930
  12   2.0000     -19.269267      -524.3434
  13   2.0000     -19.230748      -523.2952
  14   2.0000     -19.227874      -523.2170
  15   2.0000     -19.216197      -522.8993
  16   2.0000     -14.680923      -399.4882
  17   2.0000     -14.641458      -398.4143
  18   2.0000     -14.483493      -394.1159
  19   2.0000     -14.437929      -392.8760
  20   2.0000     -14.435436      -392.8082
  21   2.0000     -14.419921      -392.3860
  22   2.0000     -10.396847      -282.9126
  23   2.0000     -10.383355      -282.5454
  24   2.0000     -10.370810      -282.2041
  25   2.0000     -10.369879      -282.1788
  26   2.0000     -10.368274      -282.1351
  27   2.0000     -10.363776      -282.0127
  28   2.0000     -10.355200      -281.7793
  29   2.0000     -10.352464      -281.7049
  30   2.0000     -10.346771      -281.5500
  31   2.0000     -10.345474      -281.5147
  32   2.0000     -10.337999      -281.3113
  33   2.0000     -10.329834      -281.0891
  34   2.0000     -10.324083      -280.9326
  35   2.0000     -10.322594      -280.8921
  36   2.0000     -10.319492      -280.8077
  37   2.0000     -10.312699      -280.6228
  38   2.0000     -10.312632      -280.6210
  39   2.0000     -10.312584      -280.6197
  40   2.0000     -10.311333      -280.5856
  41   2.0000     -10.307185      -280.4728
  42   2.0000     -10.306055      -280.4420
  43   2.0000     -10.304795      -280.4077
  44   2.0000     -10.301007      -280.3047
  45   2.0000     -10.297434      -280.2074
  46   2.0000     -10.296108      -280.1713
  47   2.0000     -10.294562      -280.1293
  48   2.0000     -10.288269      -279.9580
  49   2.0000     -10.288063      -279.9524
  50   2.0000     -10.286106      -279.8992
  51   2.0000     -10.285006      -279.8692
  52   2.0000     -10.282612      -279.8041
  53   2.0000     -10.277812      -279.6735
  54   2.0000     -10.272436      -279.5272
  55   2.0000     -10.271395      -279.4989
  56   2.0000     -10.269152      -279.4378
  57   2.0000     -10.265456      -279.3373
  58   2.0000     -10.262363      -279.2531
  59   2.0000     -10.258392      -279.1450
  60   2.0000     -10.256204      -279.0855
  61   2.0000     -10.252915      -278.9960
  62   2.0000     -10.244376      -278.7636
  63   2.0000      -8.796842      -239.3742
  64   2.0000      -8.075792      -219.7535
  65   2.0000      -8.046013      -218.9431
  66   2.0000      -8.013719      -218.0644
  67   2.0000      -8.008944      -217.9344
  68   2.0000      -6.633141      -180.4969
  69   2.0000      -6.618584      -180.1008
  70   2.0000      -6.618358      -180.0947
  71   2.0000      -6.045464      -164.5054
  72   2.0000      -6.041219      -164.3899
  73   2.0000      -6.037003      -164.2752
  74   2.0000      -6.015392      -163.6871
  75   2.0000      -6.011128      -163.5711
  76   2.0000      -6.008208      -163.4916
  77   2.0000      -5.983407      -162.8168
  78   2.0000      -5.979367      -162.7069
  79   2.0000      -5.978696      -162.6886
  80   2.0000      -5.974686      -162.5795
  81   2.0000      -5.974547      -162.5757
  82   2.0000      -5.969769      -162.4457
  83   2.0000      -2.749049       -74.8054
  84   2.0000      -2.744918       -74.6930
  85   2.0000      -2.744748       -74.6884
  86   2.0000      -2.733179       -74.3736
  87   2.0000      -2.733162       -74.3731
  88   2.0000      -1.348446       -36.6931
  89   2.0000      -1.311546       -35.6890
  90   2.0000      -1.264294       -34.4032
  91   2.0000      -1.209405       -32.9096
  92   2.0000      -1.167571       -31.7712
  93   2.0000      -1.132667       -30.8214
  94   2.0000      -1.126807       -30.6620
  95   2.0000      -1.087249       -29.5856
  96   2.0000      -1.037288       -28.2261
  97   2.0000      -1.033737       -28.1294
  98   2.0000      -1.023511       -27.8512
  99   2.0000      -1.006463       -27.3872
 100   2.0000      -0.995942       -27.1010
 101   2.0000      -0.973703       -26.4958
 102   2.0000      -0.972934       -26.4749
 103   2.0000      -0.967101       -26.3162
 104   2.0000      -0.952356       -25.9149
 105   2.0000      -0.945842       -25.7377
 106   2.0000      -0.933231       -25.3945
 107   2.0000      -0.917883       -24.9769
 108   2.0000      -0.914766       -24.8920
 109   2.0000      -0.910169       -24.7670
 110   2.0000      -0.891211       -24.2511
 111   2.0000      -0.887641       -24.1539
 112   2.0000      -0.880453       -23.9583
 113   2.0000      -0.874113       -23.7858
 114   2.0000      -0.857838       -23.3430
 115   2.0000      -0.851993       -23.1839
 116   2.0000      -0.836309       -22.7571
 117   2.0000      -0.833742       -22.6873
 118   2.0000      -0.828646       -22.5486
 119   2.0000      -0.817218       -22.2376
 120   2.0000      -0.807363       -21.9695
 121   2.0000      -0.799917       -21.7668
 122   2.0000      -0.793468       -21.5914
 123   2.0000      -0.784366       -21.3437
 124   2.0000      -0.778403       -21.1814
 125   2.0000      -0.767538       -20.8858
 126   2.0000      -0.765961       -20.8429
 127   2.0000      -0.740908       -20.1611
 128   2.0000      -0.733925       -19.9711
 129   2.0000      -0.723117       -19.6770
 130   2.0000      -0.711227       -19.3535
 131   2.0000      -0.699971       -19.0472
 132   2.0000      -0.695385       -18.9224
 133   2.0000      -0.688571       -18.7370
 134   2.0000      -0.685011       -18.6401
 135   2.0000      -0.683094       -18.5879
 136   2.0000      -0.669453       -18.2167
 137   2.0000      -0.663375       -18.0514
 138   2.0000      -0.661108       -17.9897
 139   2.0000      -0.658823       -17.9275
 140   2.0000      -0.652716       -17.7613
 141   2.0000      -0.644455       -17.5365
 142   2.0000      -0.643328       -17.5058
 143   2.0000      -0.632399       -17.2084
 144   2.0000      -0.628468       -17.1015
 145   2.0000      -0.625684       -17.0257
 146   2.0000      -0.619448       -16.8560
 147   2.0000      -0.612938       -16.6789
 148   2.0000      -0.607640       -16.5347
 149   2.0000      -0.605304       -16.4712
 150   2.0000      -0.603316       -16.4171
 151   2.0000      -0.601159       -16.3584
 152   2.0000      -0.600244       -16.3335
 153   2.0000      -0.597073       -16.2472
 154   2.0000      -0.590849       -16.0778
 155   2.0000      -0.587771       -15.9941
 156   2.0000      -0.584671       -15.9097
 157   2.0000      -0.572288       -15.5728
 158   2.0000      -0.571636       -15.5550
 159   2.0000      -0.568118       -15.4593
 160   2.0000      -0.558628       -15.2010
 161   2.0000      -0.553921       -15.0730
 162   2.0000      -0.550760       -14.9869
 163   2.0000      -0.546366       -14.8674
 164   2.0000      -0.546077       -14.8595
 165   2.0000      -0.544596       -14.8192
 166   2.0000      -0.542372       -14.7587
 167   2.0000      -0.536527       -14.5996
 168   2.0000      -0.530607       -14.4385
 169   2.0000      -0.530136       -14.4257
 170   2.0000      -0.522477       -14.2173
 171   2.0000      -0.515951       -14.0397
 172   2.0000      -0.515234       -14.0202
 173   2.0000      -0.509888       -13.8748
 174   2.0000      -0.503918       -13.7123
 175   2.0000      -0.502265       -13.6673
 176   2.0000      -0.501417       -13.6443
 177   2.0000      -0.499120       -13.5818
 178   2.0000      -0.498506       -13.5650
 179   2.0000      -0.495457       -13.4821
 180   2.0000      -0.493820       -13.4375
 181   2.0000      -0.483745       -13.1634
 182   2.0000      -0.480282       -13.0691
 183   2.0000      -0.474923       -12.9233
 184   2.0000      -0.474478       -12.9112
 185   2.0000      -0.471721       -12.8362
 186   2.0000      -0.470749       -12.8097
 187   2.0000      -0.463285       -12.6066
 188   2.0000      -0.462022       -12.5723
 189   2.0000      -0.453914       -12.3516
 190   2.0000      -0.453219       -12.3327
 191   2.0000      -0.451999       -12.2995
 192   2.0000      -0.450897       -12.2695
 193   2.0000      -0.446366       -12.1462
 194   2.0000      -0.445709       -12.1284
 195   2.0000      -0.442772       -12.0484
 196   2.0000      -0.439679       -11.9643
 197   2.0000      -0.437782       -11.9127
 198   2.0000      -0.436357       -11.8739
 199   2.0000      -0.434809       -11.8317
 200   2.0000      -0.432572       -11.7709
 201   2.0000      -0.424849       -11.5607
 202   2.0000      -0.417756       -11.3677
 203   2.0000      -0.417200       -11.3526
 204   2.0000      -0.414205       -11.2711
 205   2.0000      -0.412786       -11.2325
 206   2.0000      -0.408942       -11.1279
 207   2.0000      -0.405849       -11.0437
 208   2.0000      -0.401711       -10.9311
 209   2.0000      -0.399240       -10.8639
 210   2.0000      -0.394367       -10.7313
 211   2.0000      -0.393540       -10.7088
 212   2.0000      -0.390155       -10.6167
 213   2.0000      -0.387934       -10.5562
 214   2.0000      -0.378893       -10.3102
 215   2.0000      -0.377883       -10.2827
 216   2.0000      -0.367769       -10.0075
 217   2.0000      -0.364245        -9.9116
 218   2.0000      -0.363831        -9.9003
 219   2.0000      -0.362387        -9.8610
 220   2.0000      -0.357035        -9.7154
 221   2.0000      -0.337525        -9.1845
 222   2.0000      -0.332276        -9.0417
 223   2.0000      -0.323296        -8.7973
 224   2.0000      -0.319916        -8.7054
 225   2.0000      -0.312241        -8.4965
 226   2.0000      -0.300892        -8.1877
 227   2.0000      -0.299816        -8.1584
 228   2.0000      -0.295793        -8.0489
 229   2.0000      -0.285992        -7.7822
 230   2.0000      -0.273310        -7.4371
 231   2.0000      -0.240833        -6.5534
 232   2.0000      -0.175923        -4.7871
 233   0.0000      -0.101227        -2.7545
 234   0.0000      -0.070438        -1.9167
 235   0.0000      -0.064214        -1.7473
 236   0.0000      -0.055320        -1.5053
 237   0.0000      -0.040503        -1.1021

MULLIKEN ATOMIC CHARGES
-----------------------
   0 C :    0.320098
   1 C :   -0.375120
   2 C :   -0.188459
   3 N :    0.150295
   4 C :   -0.135258
   5 N :    0.120809
   6 C :    0.008702
   7 C :   -0.013622
   8 C :   -0.074568
   9 C :    0.119188
  10 C :   -0.093713
  11 C :   -0.015921
  12 S :    0.187914
  13 C :   -0.120902
  14 C :    0.037630
  15 Br:    0.027273
  16 C :    0.127663
  17 O :   -0.133350
  18 C :   -0.086242
  19 C :   -0.041663
  20 C :    0.013040
  21 O :   -0.119048
  22 C :    0.126898
  23 C :    0.081886
  24 N :    0.293196
  25 O :   -0.226835
  26 O :   -0.268606
  27 C :    0.085739
  28 N :    0.018487
  29 C :    0.066232
  30 C :   -0.222138
  31 C :    0.064367
  32 C :    0.201654
  33 N :   -0.132207
  34 C :    0.058993
  35 C :   -0.043154
  36 C :    0.007498
  37 C :   -0.048419
  38 C :    0.044317
  39 C :    0.001025
  40 C :   -0.032445
  41 S :    0.072464
  42 C :   -0.058766
  43 C :    0.040176
  44 C :    0.008910
  45 C :   -0.020983
  46 S :    0.076433
  47 C :    0.022862
  48 C :   -0.217035
  49 S :    0.126344
  50 C :   -0.155872
  51 C :    0.133200
  52 C :    0.182955
  53 O :   -0.193173
  54 C :    0.245148
  55 N :    0.274400
  56 O :   -0.263377
  57 O :   -0.237123
  58 C :   -0.089059
  59 H :   -0.009771
  60 H :   -0.004666
  61 H :   -0.002553
  62 H :   -0.026619
  63 H :    0.045270
  64 H :    0.139098
  65 H :   -0.019911
  66 H :    0.041844
  67 H :    0.049114
  68 H :    0.014980
  69 H :    0.032678
  70 H :    0.012602
  71 H :    0.122431
  72 H :    0.001903
  73 H :   -0.002706
  74 H :   -0.021107
  75 H :   -0.022934
  76 H :   -0.024895
  77 H :   -0.024780
  78 H :   -0.027069
  79 H :   -0.036791
  80 H :    0.020159
  81 H :    0.004985
Sum of atomic charges:   -0.0000000

LOEWDIN ATOMIC CHARGES
----------------------
   0 C :    0.088143
   1 C :   -0.165762
   2 C :   -0.021351
   3 N :   -0.056901
   4 C :    0.011719
   5 N :   -0.076977
   6 C :   -0.025988
   7 C :   -0.047443
   8 C :    0.020215
   9 C :   -0.030009
  10 C :   -0.145535
  11 C :   -0.007271
  12 S :    0.433362
  13 C :   -0.269310
  14 C :   -0.070690
  15 Br:    0.139338
  16 C :    0.073683
  17 O :   -0.139396
  18 C :   -0.109254
  19 C :    0.045294
  20 C :   -0.032741
  21 O :    0.077246
  22 C :    0.131713
  23 C :   -0.114209
  24 N :    0.296481
  25 O :   -0.189630
  26 O :   -0.217560
  27 C :    0.046418
  28 N :    0.062045
  29 C :   -0.004612
  30 C :   -0.064359
  31 C :   -0.058034
  32 C :    0.046310
  33 N :    0.016311
  34 C :    0.058605
  35 C :   -0.130036
  36 C :   -0.018102
  37 C :   -0.188887
  38 C :   -0.022816
  39 C :   -0.063177
  40 C :   -0.160056
  41 S :    0.377371
  42 C :   -0.215332
  43 C :   -0.026861
  44 C :   -0.062930
  45 C :   -0.134418
  46 S :    0.389746
  47 C :   -0.124554
  48 C :   -0.187138
  49 S :    0.455355
  50 C :   -0.213369
  51 C :   -0.081196
  52 C :   -0.002504
  53 O :   -0.002364
  54 C :    0.021554
  55 N :    0.274267
  56 O :   -0.223406
  57 O :   -0.199634
  58 C :   -0.012777
  59 H :    0.040822
  60 H :    0.041365
  61 H :    0.039264
  62 H :    0.044926
  63 H :    0.048323
  64 H :    0.077528
  65 H :    0.021552
  66 H :    0.040403
  67 H :    0.040037
  68 H :    0.033737
  69 H :    0.036356
  70 H :    0.026080
  71 H :    0.080778
  72 H :    0.026346
  73 H :    0.019485
  74 H :    0.030906
  75 H :    0.029267
  76 H :    0.026647
  77 H :    0.027693
  78 H :    0.026296
  79 H :    0.027216
  80 H :    0.022953
  81 H :    0.043435

  Mayer bond orders larger than 0.100000
B(  0-C ,  1-C ) :   1.5631 B(  0-C ,  6-C ) :   1.0089 B(  0-C , 18-C ) :   1.1050
B(  1-C ,  2-C ) :   1.1450 B(  1-C ,  4-C ) :   1.1748 B(  2-C ,  3-N ) :   2.9675
B(  4-C ,  5-N ) :   2.8589 B(  6-C ,  7-C ) :   1.2700 B(  6-C , 11-C ) :   1.4052
B(  7-C ,  8-C ) :   1.4351 B(  7-C , 16-C ) :   0.9363 B(  8-C ,  9-C ) :   1.2411
B(  8-C , 59-H ) :   1.0158 B(  9-C , 10-C ) :   1.3035 B(  9-C , 14-C ) :   1.1666
B( 10-C , 11-C ) :   1.3359 B( 10-C , 12-S ) :   1.0850 B( 11-C , 60-H ) :   0.9777
B( 12-S , 13-C ) :   1.0880 B( 13-C , 14-C ) :   1.6151 B( 13-C , 15-Br) :   1.0213
B( 14-C , 61-H ) :   1.0003 B( 16-C , 17-O ) :   2.2787 B( 16-C , 18-C ) :   0.9174
B( 18-C , 19-C ) :   1.5127 B( 19-C , 20-C ) :   1.2940 B( 19-C , 62-H ) :   0.9255
B( 20-C , 21-O ) :   1.0852 B( 20-C , 27-C ) :   1.2379 B( 21-O , 22-C ) :   1.2819
B( 22-C , 23-C ) :   1.3918 B( 22-C , 63-H ) :   1.0150 B( 23-C , 24-N ) :   0.9614
B( 23-C , 27-C ) :   1.2294 B( 24-N , 25-O ) :   1.5593 B( 24-N , 26-O ) :   1.4537
B( 25-O , 26-O ) :   0.2545 B( 26-O , 64-H ) :   0.1197 B( 27-C , 28-N ) :   1.3544
B( 28-N , 29-C ) :   1.0871 B( 28-N , 64-H ) :   0.8391 B( 29-C , 30-C ) :   1.8252
B( 29-C , 65-H ) :   0.9414 B( 30-C , 31-C ) :   1.0729 B( 30-C , 32-C ) :   1.0518
B( 31-C , 66-H ) :   0.9466 B( 31-C , 67-H ) :   0.9499 B( 31-C , 68-H ) :   0.9458
B( 32-C , 33-N ) :   1.0152 B( 32-C , 69-H ) :   0.9300 B( 32-C , 70-H ) :   0.9341
B( 33-N , 34-C ) :   1.2583 B( 33-N , 71-H ) :   0.9370 B( 34-C , 35-C ) :   1.5441
B( 34-C , 72-H ) :   0.9594 B( 35-C , 36-C ) :   1.2013 B( 35-C , 73-H ) :   0.9659
B( 36-C , 37-C ) :   1.5422 B( 36-C , 74-H ) :   0.9831 B( 37-C , 38-C ) :   1.1678
B( 37-C , 41-S ) :   1.0106 B( 38-C , 39-C ) :   1.5598 B( 38-C , 75-H ) :   0.9986
B( 39-C , 40-C ) :   1.2061 B( 39-C , 76-H ) :   0.9953 B( 40-C , 41-S ) :   1.0756
B( 40-C , 42-C ) :   1.4650 B( 42-C , 43-C ) :   1.2162 B( 42-C , 46-S ) :   1.0190
B( 43-C , 44-C ) :   1.5603 B( 43-C , 77-H ) :   0.9931 B( 44-C , 45-C ) :   1.1609
B( 44-C , 78-H ) :   0.9993 B( 45-C , 46-S ) :   1.0617 B( 45-C , 47-C ) :   1.5656
B( 47-C , 48-C ) :   1.1671 B( 47-C , 79-H ) :   0.9411 B( 48-C , 49-S ) :   1.1349
B( 48-C , 50-C ) :   0.1069 B( 48-C , 52-C ) :   1.4194 B( 49-S , 50-C ) :   1.1553
B( 50-C , 51-C ) :   1.4338 B( 50-C , 80-H ) :   0.9774 B( 51-C , 52-C ) :   1.2310
B( 51-C , 58-C ) :   1.0658 B( 52-C , 53-O ) :   1.0772 B( 53-O , 54-C ) :   1.1284
B( 54-C , 55-N ) :   0.9239 B( 54-C , 58-C ) :   1.5612 B( 55-N , 56-O ) :   1.5226
B( 55-N , 57-O ) :   1.5115 B( 56-O , 57-O ) :   0.2743 B( 58-C , 81-H ) :   1.0265

-----------------------------------------------------------------------------
         ABSORPTION SPECTRUM VIA TRANSITION ELECTRIC DIPOLE MOMENTS
-----------------------------------------------------------------------------
State   Energy  Wavelength   fosc         T2         TX        TY        TZ
        (cm-1)    (nm)                  (au**2)     (au)      (au)      (au)
-----------------------------------------------------------------------------
   0    5678.7   1761.0   0.018612861   1.07904  -0.07791   0.13024  -1.02762
   1   10496.2    952.7   0.157624446   4.94389   0.52390  -0.10877  -2.15814
   2   13100.1    763.4   0.012964494   0.32580   0.19827  -0.10016   0.52579
   3   14547.0    687.4   0.274791060   6.21876  -0.29055  -0.04211  -2.47640
   4   15409.4    649.0   0.731922644  15.63707  -0.24454  -0.43352  -3.92292
   5   18876.4    529.8   0.152073987   2.65224  -1.21744   0.47028   0.97412
   6   20842.0    479.8   0.418150629   6.60496  -1.88057   0.96046   1.46490
   7   24005.9    416.6   0.009920473   0.13605  -0.29176   0.11086   0.19656
   8   24151.2    414.1   0.030320447   0.41331   0.03805  -0.49259   0.41136
   9   25564.3    391.2   0.032225228   0.41499   0.63319  -0.06907  -0.09636
  10   26118.0    382.9   0.006810572   0.08585  -0.25728   0.11245  -0.08370
  11   26530.4    376.9   0.035001087   0.43432   0.42738   0.16654  -0.47321
  12   27346.6    365.7   0.012203867   0.14692  -0.14189   0.09161  -0.34408
  13   27612.5    362.2   0.315477013   3.76129  -0.16811  -0.68715   1.80579
  14   28038.4    356.7   0.008337044   0.09789   0.06161   0.11217  -0.28550
  15   29026.8    344.5   0.528108652   5.98962   2.42810  -0.01458  -0.30619
  16   29240.6    342.0   0.470453930   5.29671  -2.25863  -0.06558  -0.43702
  17   29594.9    337.9   0.044212734   0.49182   0.23836   0.61451   0.23954
  18   29748.4    336.2   0.408343525   4.51895  -1.49163  -0.92039   1.20286
  19   30541.1    327.4   0.009184976   0.09901   0.17488   0.16073  -0.20638
  20   30747.2    325.2   0.009582435   0.10260  -0.31392  -0.04247  -0.04744
  21   31544.4    317.0   0.015424664   0.16098   0.16441   0.33306   0.15173
  22   31802.2    314.4   0.266774017   2.76161  -0.95935   1.21456   0.60507
  23   32038.9    312.1   0.000062204   0.00064   0.01807  -0.01452   0.01010
  24   32415.8    308.5   0.017607816   0.17882   0.29499  -0.12785   0.27469
  25   32954.1    303.5   0.015165933   0.15151   0.35353  -0.05746  -0.15240
  26   33279.7    300.5   0.489814048   4.84537   0.84191   1.34072  -1.52939
  27   33851.2    295.4   0.089909401   0.87439   0.75280   0.16164  -0.53061
  28   34786.9    287.5   0.001433422   0.01357   0.05926  -0.02547   0.09698
  29   34969.7    286.0   0.022934446   0.21591   0.13050   0.05445   0.44262
  30   35187.3    284.2   0.000974295   0.00912  -0.03310   0.04284   0.07864
  31   35390.2    282.6   0.332065901   3.08900  -0.96964  -0.31853  -1.43085
  32   35948.1    278.2   0.085701219   0.78485   0.57802  -0.12156   0.66028
  33   36000.2    277.8   0.034999250   0.32006   0.10268  -0.32475  -0.45172
  34   36078.4    277.2   0.010410261   0.09499  -0.27049   0.07157   0.12925
  35   36216.0    276.1   0.040321811   0.36653  -0.00888  -0.00015  -0.60536
  36   36586.9    273.3   0.001342882   0.01208   0.06801   0.07395   0.04460
  37   36780.0    271.9   0.084478685   0.75616   0.35293   0.29421   0.73827
  38   36826.9    271.5   0.015566064   0.13915  -0.32456   0.18246  -0.02287
  39   37277.9    268.3   0.021360042   0.18864   0.28593  -0.30635  -0.11415
  40   38218.3    261.7   0.077979402   0.67171   0.50605  -0.43560  -0.47526
  41   38865.4    257.3   0.051112310   0.43295   0.22633  -0.61687   0.03451
  42   38988.8    256.5   0.024755805   0.20903   0.29244  -0.30806   0.16914
  43   39003.1    256.4   0.000161604   0.00136   0.02077  -0.02201   0.02117
  44   39087.3    255.8   0.243034627   2.04695   0.77246  -1.03387  -0.61756
  45   39480.6    253.3   0.003976429   0.03316   0.06571  -0.04661   0.16330
  46   39722.7    251.7   0.057528347   0.47678  -0.21436   0.28263   0.59241
  47   39808.9    251.2   0.006417997   0.05308  -0.13810   0.17568  -0.05604
  48   39833.2    251.0   0.020205294   0.16699   0.34698  -0.01756   0.21516
  49   40200.0    248.8   0.000304157   0.00249   0.02871   0.01952  -0.03586
  50   40245.6    248.5   0.010647036   0.08709  -0.10038  -0.04393   0.27402
  51   40292.8    248.2   0.004278667   0.03496   0.17612  -0.02857  -0.05590

FINAL SINGLE POINT ENERGY     -6594.185064028464

DIPOLE MOMENT
-------------
                                X             Y             Z
Electronic contribution:     68.91753      18.00147    -136.13174
Nuclear contribution   :    -69.42899     -16.70668     133.03598
                        -----------------------------------------
Total Dipole Moment    :     -0.51146       1.29479      -3.09576
                        -----------------------------------------
Magnitude (a.u.)       :      3.39438
Magnitude (Debye)      :      8.62782

Rotational constants in cm-1:     0.001676     0.000323     0.000289
Rotational constants in MHz :    50.248605     9.690869     8.674374

                             ****ORCA TERMINATED NORMALLY****
TOTAL RUN TIME: 0 days 0 hours 7 minutes 28 seconds 577 msec
