                         Program Version 4.2.0 -  RELEASE  -
|  1> # ORCA input file
|  2> # SCF done       -195.221099410427          0.000650760662
|  3> ! CAM-B3LYP def2-SVP def2/J RIJCOSX Grid4 TightSCF
|  4> %maxcore 5000
|  5> %tddft
|  6>     Mode sTDDFT
|  7>     Ethresh 5.0
|  8>     maxcore 5000
|  9> end
| 10>
| 11> %pal
| 12>   nprocs 6
| 13>   end
| 14> * xyz 0 1
| 15>    C       11.33583        -7.91410        -2.16785
| 16>    C       11.22737        -9.21529        -1.76206
| 17>    F       12.16749       -10.10365        -2.13128
| 18>    C       10.16649        -9.66842        -0.96632
| 19>    C        9.20240        -8.77895        -0.58063
| 20>    C        9.26497        -7.42530        -0.96990
| 21>    C       10.35176        -6.98445        -1.78018
| 22>    C       10.43298        -5.63236        -2.18902
| 23>    C        9.46143        -4.75405        -1.79470
| 24>    C        8.38375        -5.19731        -0.97414
| 25>    C        8.27655        -6.49697        -0.57186
| 26>    C        7.50380        -4.05335        -0.66681
| 27>    O        6.46885        -4.05324        -0.03989
| 28>    C        8.19736        -2.86678        -1.23762
| 29>    C        9.26355        -3.33636        -2.08700
| 30>    C        9.80122        -2.66579        -3.15755
| 31>    C        9.33013        -1.40869        -3.58448
| 32>    N        8.93446        -0.40489        -3.97755
| 33>    C       10.80980        -3.18994        -3.98790
| 34>    N       11.65813        -3.55769        -4.66879
| 35>    C        7.82293        -1.62195        -0.81123
| 36>    C        8.53376        -0.41345        -0.79432
| 37>    S       10.25225        -0.30513        -1.02034
| 38>    C       10.29907         1.38703        -0.67858
| 39>    C        9.00551         1.87002        -0.39360
| 40>    C        8.01059         0.85201        -0.45211
| 41>    C        6.66453         1.17076        -0.20575
| 42>    C        6.33989         2.46374         0.09769
| 43>    F        5.06567         2.79133         0.34167
| 44>    C        7.32707         3.47300         0.15945
| 45>    F        6.95560         4.72388         0.45931
| 46>    C        8.64261         3.19200        -0.08187
| 47>    C       11.50044         2.12275        -0.68112
| 48>    C       12.70106         1.60749        -1.05944
| 49>    C       13.95982         2.25053        -1.04212
| 50>    S       15.29725         1.40228        -1.76493
| 51>    C       16.42483         2.64838        -1.35598
| 52>    C       15.76951         3.67995        -0.68924
| 53>    C       14.39421         3.46798        -0.51728
| 54>    S       13.29621         4.56826         0.30269
| 55>    C       14.21483         5.86176         1.09025
| 56>    O       13.58753         6.60997         1.78481
| 57>    C       15.69551         6.08969         0.88355
| 58>    O       16.23136         7.02043         1.41709
| 59>    S       16.69443         5.08788        -0.17006
| 60>    C       17.82779         2.60136        -1.60621
| 61>    C       18.51548         1.70148        -2.33182
| 62>    C       17.89197         0.56545        -3.07307
| 63>    C       20.00449         1.82765        -2.44979
| 64>    N       20.65459         0.58962        -2.07235
| 65>    C       21.94048         0.32091        -2.32499
| 66>    C       22.82593         1.21187        -2.85731
| 67>    C       24.12396         0.84587        -3.23285
| 68>    C       25.03608         1.60538        -3.92033
| 69>    C       26.45980         1.19817        -3.91226
| 70>    O       26.91023         0.13900        -3.53000
| 71>    C       27.20642         2.36847        -4.41490
| 72>    C       28.55450         2.55810        -4.49532
| 73>    C       29.05008         3.79833        -4.95816
| 74>    C       28.12933         4.82104        -5.32624
| 75>    C       28.62771         6.06131        -5.76963
| 76>    C       29.97918         6.25544        -5.83939
| 77>    C       30.90059         5.26125        -5.48539
| 78>    C       30.43340         4.05125        -5.05244
| 79>    F       30.45736         7.44157        -6.26104
| 80>    C       26.73543         4.58966        -5.24456
| 81>    C       26.27941         3.37846        -4.80085
| 82>    C       24.92164         2.85893        -4.61836
| 83>    C       23.79940         3.41206        -5.19409
| 84>    C       22.52276         2.82835        -5.23576
| 85>    N       21.45614         2.40378        -5.32445
| 86>    C       23.80331         4.62855        -5.90750
| 87>    N       23.72801         5.61711        -6.48758
| 88>    H       12.16443        -7.60157        -2.78397
| 89>    H       10.13358       -10.70664        -0.67649
| 90>    H        8.37533        -9.10438         0.03216
| 91>    H       11.26865        -5.32276        -2.79675
| 92>    H        7.44757        -6.81475         0.04250
| 93>    H        6.85994        -1.60003        -0.30947
| 94>    H        5.88894         0.42455        -0.25593
| 95>    H        9.37282         3.98271        -0.03309
| 96>    H       11.42504         3.15235        -0.37078
| 97>    H       12.72335         0.58876        -1.42848
| 98>    H       18.37389         3.41130        -1.13931
| 99>    H       17.06710         0.92139        -3.68954
|100>    H       17.47742        -0.17561        -2.38823
|101>    H       18.61964         0.08352        -3.72050
|102>    H       20.37202         2.64902        -1.82401
|103>    H       20.27044         2.05661        -3.49680
|104>    H       20.06875        -0.13336        -1.68778
|105>    H       22.25867        -0.69133        -2.11188
|106>    H       22.51447         2.22982        -3.01538
|107>    H       24.48830        -0.12480        -2.91255
|108>    H       29.23695         1.77371        -4.20401
|109>    H       27.94734         6.84894        -6.05366
|110>    H       31.95565         5.47171        -5.56084
|111>    H       31.12362         3.26943        -4.77292
|112>    H       26.06549         5.38722        -5.52342
|113> *
|114>
|115>                          ****END OF INPUT****

CARTESIAN COORDINATES (ANGSTROEM)
---------------------------------
  C     11.335830   -7.914100   -2.167850
  C     11.227370   -9.215290   -1.762060
  F     12.167490  -10.103650   -2.131280
  C     10.166490   -9.668420   -0.966320
  C      9.202400   -8.778950   -0.580630
  C      9.264970   -7.425300   -0.969900
  C     10.351760   -6.984450   -1.780180
  C     10.432980   -5.632360   -2.189020
  C      9.461430   -4.754050   -1.794700
  C      8.383750   -5.197310   -0.974140
  C      8.276550   -6.496970   -0.571860
  C      7.503800   -4.053350   -0.666810
  O      6.468850   -4.053240   -0.039890
  C      8.197360   -2.866780   -1.237620
  C      9.263550   -3.336360   -2.087000
  C      9.801220   -2.665790   -3.157550
  C      9.330130   -1.408690   -3.584480
  N      8.934460   -0.404890   -3.977550
  C     10.809800   -3.189940   -3.987900
  N     11.658130   -3.557690   -4.668790
  C      7.822930   -1.621950   -0.811230
  C      8.533760   -0.413450   -0.794320
  S     10.252250   -0.305130   -1.020340
  C     10.299070    1.387030   -0.678580
  C      9.005510    1.870020   -0.393600
  C      8.010590    0.852010   -0.452110
  C      6.664530    1.170760   -0.205750
  C      6.339890    2.463740    0.097690
  F      5.065670    2.791330    0.341670
  C      7.327070    3.473000    0.159450
  F      6.955600    4.723880    0.459310
  C      8.642610    3.192000   -0.081870
  C     11.500440    2.122750   -0.681120
  C     12.701060    1.607490   -1.059440
  C     13.959820    2.250530   -1.042120
  S     15.297250    1.402280   -1.764930
  C     16.424830    2.648380   -1.355980
  C     15.769510    3.679950   -0.689240
  C     14.394210    3.467980   -0.517280
  S     13.296210    4.568260    0.302690
  C     14.214830    5.861760    1.090250
  O     13.587530    6.609970    1.784810
  C     15.695510    6.089690    0.883550
  O     16.231360    7.020430    1.417090
  S     16.694430    5.087880   -0.170060
  C     17.827790    2.601360   -1.606210
  C     18.515480    1.701480   -2.331820
  C     17.891970    0.565450   -3.073070
  C     20.004490    1.827650   -2.449790
  N     20.654590    0.589620   -2.072350
  C     21.940480    0.320910   -2.324990
  C     22.825930    1.211870   -2.857310
  C     24.123960    0.845870   -3.232850
  C     25.036080    1.605380   -3.920330
  C     26.459800    1.198170   -3.912260
  O     26.910230    0.139000   -3.530000
  C     27.206420    2.368470   -4.414900
  C     28.554500    2.558100   -4.495320
  C     29.050080    3.798330   -4.958160
  C     28.129330    4.821040   -5.326240
  C     28.627710    6.061310   -5.769630
  C     29.979180    6.255440   -5.839390
  C     30.900590    5.261250   -5.485390
  C     30.433400    4.051250   -5.052440
  F     30.457360    7.441570   -6.261040
  C     26.735430    4.589660   -5.244560
  C     26.279410    3.378460   -4.800850
  C     24.921640    2.858930   -4.618360
  C     23.799400    3.412060   -5.194090
  C     22.522760    2.828350   -5.235760
  N     21.456140    2.403780   -5.324450
  C     23.803310    4.628550   -5.907500
  N     23.728010    5.617110   -6.487580
  H     12.164430   -7.601570   -2.783970
  H     10.133580  -10.706640   -0.676490
  H      8.375330   -9.104380    0.032160
  H     11.268650   -5.322760   -2.796750
  H      7.447570   -6.814750    0.042500
  H      6.859940   -1.600030   -0.309470
  H      5.888940    0.424550   -0.255930
  H      9.372820    3.982710   -0.033090
  H     11.425040    3.152350   -0.370780
  H     12.723350    0.588760   -1.428480
  H     18.373890    3.411300   -1.139310
  H     17.067100    0.921390   -3.689540
  H     17.477420   -0.175610   -2.388230
  H     18.619640    0.083520   -3.720500
  H     20.372020    2.649020   -1.824010
  H     20.270440    2.056610   -3.496800
  H     20.068750   -0.133360   -1.687780
  H     22.258670   -0.691330   -2.111880
  H     22.514470    2.229820   -3.015380
  H     24.488300   -0.124800   -2.912550
  H     29.236950    1.773710   -4.204010
  H     27.947340    6.848940   -6.053660
  H     31.955650    5.471710   -5.560840
  H     31.123620    3.269430   -4.772920
  H     26.065490    5.387220   -5.523420

 Total Charge           Charge          ....    0
 Multiplicity           Mult            ....    1
 Number of Electrons    NEL             ....  528
 Basis Dimension        Dim             .... 1163

ORBITAL ENERGIES
----------------

  NO   OCC          E(Eh)            E(eV)
   0   2.0000     -88.995045     -2421.6783
   1   2.0000     -88.991165     -2421.5727
   2   2.0000     -88.987299     -2421.4675
   3   2.0000     -88.983312     -2421.3590
   4   2.0000     -24.801658      -674.8874
   5   2.0000     -24.798920      -674.8129
   6   2.0000     -24.787786      -674.5100
   7   2.0000     -24.779568      -674.2863
   8   2.0000     -19.257344      -524.0190
   9   2.0000     -19.253475      -523.9137
  10   2.0000     -19.212579      -522.8009
  11   2.0000     -19.200782      -522.4798
  12   2.0000     -14.477984      -393.9660
  13   2.0000     -14.417293      -392.3145
  14   2.0000     -14.415196      -392.2574
  15   2.0000     -14.414438      -392.2368
  16   2.0000     -14.406307      -392.0155
  17   2.0000     -10.420747      -283.5629
  18   2.0000     -10.418571      -283.5037
  19   2.0000     -10.386822      -282.6398
  20   2.0000     -10.382886      -282.5327
  21   2.0000     -10.371065      -282.2110
  22   2.0000     -10.364558      -282.0340
  23   2.0000     -10.362644      -281.9819
  24   2.0000     -10.355015      -281.7743
  25   2.0000     -10.352420      -281.7037
  26   2.0000     -10.349771      -281.6316
  27   2.0000     -10.345177      -281.5066
  28   2.0000     -10.343903      -281.4719
  29   2.0000     -10.343014      -281.4477
  30   2.0000     -10.342525      -281.4344
  31   2.0000     -10.342340      -281.4294
  32   2.0000     -10.341952      -281.4188
  33   2.0000     -10.334003      -281.2025
  34   2.0000     -10.331657      -281.1387
  35   2.0000     -10.328879      -281.0631
  36   2.0000     -10.327175      -281.0167
  37   2.0000     -10.323775      -280.9242
  38   2.0000     -10.323064      -280.9049
  39   2.0000     -10.320440      -280.8335
  40   2.0000     -10.320310      -280.8299
  41   2.0000     -10.317846      -280.7629
  42   2.0000     -10.317255      -280.7468
  43   2.0000     -10.317067      -280.7417
  44   2.0000     -10.314915      -280.6831
  45   2.0000     -10.314101      -280.6609
  46   2.0000     -10.311192      -280.5818
  47   2.0000     -10.310484      -280.5625
  48   2.0000     -10.308141      -280.4988
  49   2.0000     -10.307349      -280.4772
  50   2.0000     -10.306976      -280.4671
  51   2.0000     -10.306612      -280.4572
  52   2.0000     -10.304734      -280.4061
  53   2.0000     -10.302082      -280.3339
  54   2.0000     -10.300483      -280.2904
  55   2.0000     -10.299229      -280.2563
  56   2.0000     -10.298996      -280.2499
  57   2.0000     -10.298279      -280.2304
  58   2.0000     -10.297001      -280.1956
  59   2.0000     -10.295741      -280.1614
  60   2.0000     -10.295603      -280.1576
  61   2.0000     -10.295166      -280.1457
  62   2.0000     -10.293410      -280.0979
  63   2.0000     -10.291045      -280.0336
  64   2.0000     -10.290924      -280.0303
  65   2.0000     -10.290648      -280.0228
  66   2.0000     -10.290504      -280.0188
  67   2.0000     -10.289864      -280.0014
  68   2.0000     -10.288076      -279.9528
  69   2.0000     -10.282521      -279.8016
  70   2.0000     -10.280146      -279.7370
  71   2.0000     -10.278378      -279.6889
  72   2.0000     -10.278143      -279.6825
  73   2.0000      -8.090068      -220.1420
  74   2.0000      -8.085647      -220.0216
  75   2.0000      -8.083354      -219.9592
  76   2.0000      -8.079775      -219.8618
  77   2.0000      -6.059370      -164.8838
  78   2.0000      -6.055200      -164.7704
  79   2.0000      -6.054630      -164.7549
  80   2.0000      -6.053301      -164.7187
  81   2.0000      -6.052157      -164.6876
  82   2.0000      -6.050571      -164.6444
  83   2.0000      -6.049686      -164.6203
  84   2.0000      -6.048570      -164.5899
  85   2.0000      -6.048403      -164.5854
  86   2.0000      -6.045036      -164.4938
  87   2.0000      -6.044285      -164.4734
  88   2.0000      -6.040614      -164.3735
  89   2.0000      -1.324025       -36.0285
  90   2.0000      -1.308602       -35.6089
  91   2.0000      -1.302720       -35.4488
  92   2.0000      -1.294091       -35.2140
  93   2.0000      -1.193613       -32.4799
  94   2.0000      -1.161396       -31.6032
  95   2.0000      -1.128216       -30.7003
  96   2.0000      -1.115482       -30.3538
  97   2.0000      -1.073556       -29.2129
  98   2.0000      -1.037770       -28.2392
  99   2.0000      -1.028622       -27.9902
 100   2.0000      -1.018098       -27.7039
 101   2.0000      -1.012487       -27.5512
 102   2.0000      -1.001323       -27.2474
 103   2.0000      -0.995031       -27.0762
 104   2.0000      -0.994541       -27.0628
 105   2.0000      -0.987891       -26.8819
 106   2.0000      -0.977442       -26.5976
 107   2.0000      -0.968164       -26.3451
 108   2.0000      -0.964985       -26.2586
 109   2.0000      -0.956301       -26.0223
 110   2.0000      -0.951196       -25.8834
 111   2.0000      -0.935956       -25.4687
 112   2.0000      -0.927864       -25.2485
 113   2.0000      -0.922239       -25.0954
 114   2.0000      -0.918506       -24.9938
 115   2.0000      -0.904638       -24.6165
 116   2.0000      -0.900265       -24.4974
 117   2.0000      -0.890609       -24.2347
 118   2.0000      -0.886070       -24.1112
 119   2.0000      -0.883625       -24.0447
 120   2.0000      -0.876879       -23.8611
 121   2.0000      -0.868797       -23.6412
 122   2.0000      -0.859669       -23.3928
 123   2.0000      -0.853024       -23.2120
 124   2.0000      -0.852121       -23.1874
 125   2.0000      -0.837253       -22.7828
 126   2.0000      -0.835737       -22.7416
 127   2.0000      -0.827299       -22.5119
 128   2.0000      -0.826205       -22.4822
 129   2.0000      -0.816340       -22.2137
 130   2.0000      -0.806279       -21.9400
 131   2.0000      -0.783152       -21.3107
 132   2.0000      -0.775618       -21.1056
 133   2.0000      -0.766249       -20.8507
 134   2.0000      -0.762112       -20.7381
 135   2.0000      -0.754271       -20.5248
 136   2.0000      -0.753310       -20.4986
 137   2.0000      -0.747728       -20.3467
 138   2.0000      -0.726797       -19.7771
 139   2.0000      -0.720855       -19.6155
 140   2.0000      -0.712976       -19.4011
 141   2.0000      -0.710232       -19.3264
 142   2.0000      -0.705816       -19.2062
 143   2.0000      -0.701548       -19.0901
 144   2.0000      -0.701079       -19.0773
 145   2.0000      -0.691196       -18.8084
 146   2.0000      -0.681046       -18.5322
 147   2.0000      -0.680379       -18.5140
 148   2.0000      -0.675323       -18.3765
 149   2.0000      -0.666540       -18.1375
 150   2.0000      -0.663563       -18.0565
 151   2.0000      -0.659021       -17.9329
 152   2.0000      -0.649387       -17.6707
 153   2.0000      -0.646555       -17.5936
 154   2.0000      -0.636746       -17.3267
 155   2.0000      -0.633056       -17.2263
 156   2.0000      -0.629738       -17.1360
 157   2.0000      -0.628607       -17.1053
 158   2.0000      -0.626791       -17.0559
 159   2.0000      -0.622992       -16.9525
 160   2.0000      -0.619532       -16.8583
 161   2.0000      -0.611868       -16.6498
 162   2.0000      -0.609025       -16.5724
 163   2.0000      -0.606820       -16.5124
 164   2.0000      -0.602436       -16.3931
 165   2.0000      -0.592411       -16.1203
 166   2.0000      -0.589216       -16.0334
 167   2.0000      -0.588361       -16.0101
 168   2.0000      -0.585556       -15.9338
 169   2.0000      -0.580133       -15.7862
 170   2.0000      -0.574692       -15.6382
 171   2.0000      -0.570840       -15.5333
 172   2.0000      -0.566442       -15.4137
 173   2.0000      -0.564089       -15.3496
 174   2.0000      -0.562909       -15.3175
 175   2.0000      -0.561102       -15.2684
 176   2.0000      -0.560277       -15.2459
 177   2.0000      -0.557800       -15.1785
 178   2.0000      -0.555426       -15.1139
 179   2.0000      -0.552875       -15.0445
 180   2.0000      -0.551898       -15.0179
 181   2.0000      -0.549450       -14.9513
 182   2.0000      -0.548838       -14.9346
 183   2.0000      -0.546564       -14.8728
 184   2.0000      -0.544136       -14.8067
 185   2.0000      -0.539824       -14.6893
 186   2.0000      -0.536902       -14.6098
 187   2.0000      -0.535366       -14.5680
 188   2.0000      -0.531854       -14.4725
 189   2.0000      -0.529683       -14.4134
 190   2.0000      -0.527425       -14.3520
 191   2.0000      -0.525659       -14.3039
 192   2.0000      -0.524900       -14.2832
 193   2.0000      -0.524163       -14.2632
 194   2.0000      -0.519280       -14.1303
 195   2.0000      -0.517632       -14.0855
 196   2.0000      -0.516550       -14.0560
 197   2.0000      -0.513886       -13.9836
 198   2.0000      -0.513060       -13.9611
 199   2.0000      -0.509037       -13.8516
 200   2.0000      -0.505292       -13.7497
 201   2.0000      -0.501140       -13.6367
 202   2.0000      -0.497914       -13.5489
 203   2.0000      -0.496089       -13.4993
 204   2.0000      -0.495185       -13.4747
 205   2.0000      -0.495001       -13.4697
 206   2.0000      -0.492702       -13.4071
 207   2.0000      -0.491357       -13.3705
 208   2.0000      -0.488105       -13.2820
 209   2.0000      -0.483711       -13.1624
 210   2.0000      -0.482584       -13.1318
 211   2.0000      -0.478158       -13.0113
 212   2.0000      -0.476896       -12.9770
 213   2.0000      -0.475018       -12.9259
 214   2.0000      -0.469015       -12.7625
 215   2.0000      -0.466993       -12.7075
 216   2.0000      -0.459944       -12.5157
 217   2.0000      -0.458432       -12.4746
 218   2.0000      -0.456486       -12.4216
 219   2.0000      -0.454846       -12.3770
 220   2.0000      -0.454181       -12.3589
 221   2.0000      -0.452163       -12.3040
 222   2.0000      -0.451021       -12.2729
 223   2.0000      -0.448374       -12.2009
 224   2.0000      -0.445491       -12.1224
 225   2.0000      -0.444949       -12.1077
 226   2.0000      -0.443594       -12.0708
 227   2.0000      -0.442005       -12.0276
 228   2.0000      -0.439482       -11.9589
 229   2.0000      -0.438396       -11.9294
 230   2.0000      -0.437821       -11.9137
 231   2.0000      -0.436782       -11.8855
 232   2.0000      -0.432477       -11.7683
 233   2.0000      -0.428209       -11.6522
 234   2.0000      -0.427461       -11.6318
 235   2.0000      -0.424716       -11.5571
 236   2.0000      -0.420798       -11.4505
 237   2.0000      -0.418875       -11.3982
 238   2.0000      -0.418277       -11.3819
 239   2.0000      -0.417766       -11.3680
 240   2.0000      -0.414212       -11.2713
 241   2.0000      -0.408276       -11.1097
 242   2.0000      -0.404590       -11.0094
 243   2.0000      -0.404449       -11.0056
 244   2.0000      -0.394138       -10.7250
 245   2.0000      -0.387233       -10.5372
 246   2.0000      -0.379650       -10.3308
 247   2.0000      -0.374975       -10.2036
 248   2.0000      -0.373483       -10.1630
 249   2.0000      -0.363662        -9.8958
 250   2.0000      -0.354807        -9.6548
 251   2.0000      -0.352351        -9.5879
 252   2.0000      -0.348145        -9.4735
 253   2.0000      -0.334584        -9.1045
 254   2.0000      -0.329135        -8.9562
 255   2.0000      -0.325490        -8.8570
 256   2.0000      -0.319950        -8.7063
 257   2.0000      -0.314671        -8.5626
 258   2.0000      -0.307524        -8.3682
 259   2.0000      -0.302561        -8.2331
 260   2.0000      -0.297439        -8.0937
 261   2.0000      -0.292453        -7.9581
 262   2.0000      -0.271517        -7.3884
 263   2.0000      -0.253339        -6.8937
 264   0.0000      -0.116654        -3.1743
 265   0.0000      -0.077767        -2.1162
 266   0.0000      -0.074636        -2.0309
 267   0.0000      -0.065930        -1.7940
 268   0.0000      -0.050647        -1.3782

MULLIKEN ATOMIC CHARGES
-----------------------
   0 C :   -0.100034
   1 C :    0.302187
   2 F :   -0.190944
   3 C :   -0.028065
   4 C :   -0.010896
   5 C :    0.101172
   6 C :    0.104750
   7 C :   -0.089962
   8 C :    0.041121
   9 C :    0.012411
  10 C :   -0.083709
  11 C :    0.138585
  12 O :   -0.149592
  13 C :   -0.140818
  14 C :    0.254434
  15 C :   -0.332097
  16 C :   -0.222903
  17 N :    0.177568
  18 C :   -0.171397
  19 N :    0.141588
  20 C :    0.011740
  21 C :   -0.110653
  22 S :    0.173883
  23 C :   -0.069442
  24 C :    0.112306
  25 C :    0.166628
  26 C :   -0.110986
  27 C :    0.238393
  28 F :   -0.167109
  29 C :    0.226047
  30 F :   -0.169913
  31 C :   -0.109008
  32 C :   -0.023818
  33 C :    0.052741
  34 C :   -0.127388
  35 S :    0.136752
  36 C :   -0.106174
  37 C :   -0.031397
  38 C :   -0.005764
  39 S :    0.054015
  40 C :    0.095968
  41 O :   -0.118396
  42 C :    0.077059
  43 O :   -0.123036
  44 S :    0.085805
  45 C :    0.006899
  46 C :   -0.240379
  47 C :    0.069297
  48 C :    0.200846
  49 N :   -0.148682
  50 C :    0.087216
  51 C :   -0.054699
  52 C :    0.036728
  53 C :   -0.145970
  54 C :    0.137881
  55 O :   -0.158739
  56 C :    0.005805
  57 C :   -0.081667
  58 C :    0.099932
  59 C :    0.099265
  60 C :   -0.097105
  61 C :    0.302320
  62 C :   -0.034821
  63 C :   -0.009675
  64 F :   -0.193604
  65 C :   -0.083527
  66 C :    0.033986
  67 C :    0.312258
  68 C :   -0.366312
  69 C :   -0.164140
  70 N :    0.122314
  71 C :   -0.182398
  72 N :    0.139592
  73 H :   -0.005228
  74 H :    0.003148
  75 H :   -0.008808
  76 H :   -0.007909
  77 H :   -0.011940
  78 H :    0.020129
  79 H :    0.005784
  80 H :   -0.000106
  81 H :    0.019694
  82 H :    0.001578
  83 H :    0.005948
  84 H :    0.055841
  85 H :    0.041881
  86 H :    0.037255
  87 H :    0.023836
  88 H :    0.060840
  89 H :    0.137370
  90 H :    0.023653
  91 H :    0.021513
  92 H :    0.007520
  93 H :   -0.015993
  94 H :   -0.003152
  95 H :    0.001872
  96 H :   -0.011597
  97 H :   -0.007402
Sum of atomic charges:   -0.0000000

LOEWDIN ATOMIC CHARGES
----------------------
   0 C :   -0.043616
   1 C :    0.092357
   2 F :   -0.065331
   3 C :   -0.037738
   4 C :    0.004655
   5 C :   -0.019271
   6 C :    0.002924
   7 C :    0.007104
   8 C :   -0.015961
   9 C :   -0.058092
  10 C :    0.033074
  11 C :    0.080996
  12 O :   -0.150773
  13 C :   -0.108608
  14 C :    0.060633
  15 C :   -0.154430
  16 C :   -0.040279
  17 N :   -0.051783
  18 C :   -0.020338
  19 N :   -0.059581
  20 C :    0.044459
  21 C :   -0.189113
  22 S :    0.521626
  23 C :   -0.134160
  24 C :   -0.046325
  25 C :   -0.011767
  26 C :   -0.037863
  27 C :    0.076779
  28 F :   -0.044415
  29 C :    0.062458
  30 F :   -0.048690
  31 C :   -0.030655
  32 C :   -0.048619
  33 C :   -0.029959
  34 C :   -0.191723
  35 S :    0.489073
  36 C :   -0.179070
  37 C :   -0.217182
  38 C :   -0.209195
  39 S :    0.394912
  40 C :   -0.107126
  41 O :   -0.092016
  42 C :   -0.113526
  43 O :   -0.096797
  44 S :    0.391510
  45 C :   -0.066297
  46 C :   -0.019729
  47 C :   -0.067493
  48 C :    0.041145
  49 N :    0.034323
  50 C :    0.090792
  51 C :   -0.114835
  52 C :    0.079324
  53 C :   -0.129140
  54 C :    0.079295
  55 O :   -0.161483
  56 C :   -0.057110
  57 C :    0.029642
  58 C :   -0.019771
  59 C :    0.001358
  60 C :   -0.042517
  61 C :    0.091142
  62 C :   -0.039520
  63 C :    0.002872
  64 F :   -0.067821
  65 C :    0.009032
  66 C :   -0.017182
  67 C :    0.077863
  68 C :   -0.162547
  69 C :   -0.001201
  70 N :   -0.079654
  71 C :   -0.020496
  72 N :   -0.064319
  73 H :    0.042063
  74 H :    0.041784
  75 H :    0.035800
  76 H :    0.037906
  77 H :    0.039658
  78 H :    0.048906
  79 H :    0.046041
  80 H :    0.043850
  81 H :    0.020834
  82 H :    0.027262
  83 H :    0.029172
  84 H :    0.040803
  85 H :    0.032997
  86 H :    0.039407
  87 H :    0.029122
  88 H :    0.040905
  89 H :    0.085950
  90 H :    0.037132
  91 H :    0.030600
  92 H :    0.040850
  93 H :    0.038106
  94 H :    0.042692
  95 H :    0.040895
  96 H :    0.034739
  97 H :    0.038298

  Mayer bond orders larger than 0.100000
B(  0-C ,  1-C ) :   1.4387 B(  0-C ,  6-C ) :   1.2039 B(  0-C , 73-H ) :   1.0067
B(  1-C ,  2-F ) :   1.0884 B(  1-C ,  3-C ) :   1.2573 B(  3-C ,  4-C ) :   1.4589
B(  3-C , 74-H ) :   0.9926 B(  4-C ,  5-C ) :   1.2349 B(  4-C , 75-H ) :   0.9972
B(  5-C ,  6-C ) :   1.2596 B(  5-C , 10-C ) :   1.1878 B(  6-C ,  7-C ) :   1.1973
B(  7-C ,  8-C ) :   1.4675 B(  7-C , 76-H ) :   0.9946 B(  8-C ,  9-C ) :   1.2171
B(  8-C , 14-C ) :   0.9982 B(  9-C , 10-C ) :   1.4753 B(  9-C , 11-C ) :   0.9221
B( 10-C , 77-H ) :   1.0156 B( 11-C , 12-O ) :   2.2506 B( 11-C , 13-C ) :   0.9515
B( 13-C , 14-C ) :   1.0612 B( 13-C , 20-C ) :   1.5731 B( 14-C , 15-C ) :   1.6264
B( 15-C , 16-C ) :   1.1584 B( 15-C , 18-C ) :   1.1356 B( 16-C , 17-N ) :   3.0259
B( 18-C , 19-N ) :   2.9810 B( 20-C , 21-C ) :   1.2370 B( 20-C , 78-H ) :   0.9319
B( 21-C , 22-S ) :   1.1101 B( 21-C , 25-C ) :   1.2740 B( 22-S , 23-C ) :   1.1881
B( 23-C , 24-C ) :   1.2847 B( 23-C , 32-C ) :   1.2329 B( 24-C , 25-C ) :   1.2364
B( 24-C , 31-C ) :   1.1740 B( 25-C , 26-C ) :   1.1909 B( 26-C , 27-C ) :   1.4799
B( 26-C , 31-C ) :   0.1108 B( 26-C , 79-H ) :   0.9979 B( 27-C , 28-F ) :   1.1382
B( 27-C , 29-C ) :   1.1639 B( 29-C , 30-F ) :   1.1391 B( 29-C , 31-C ) :   1.4949
B( 31-C , 80-H ) :   0.9971 B( 32-C , 33-C ) :   1.6096 B( 32-C , 81-H ) :   0.9516
B( 33-C , 34-C ) :   1.1785 B( 33-C , 82-H ) :   0.9477 B( 34-C , 35-S ) :   1.1164
B( 34-C , 36-C ) :   0.1068 B( 34-C , 38-C ) :   1.5009 B( 35-S , 36-C ) :   1.1289
B( 36-C , 37-C ) :   1.5417 B( 36-C , 45-C ) :   1.1186 B( 37-C , 38-C ) :   1.3166
B( 37-C , 44-S ) :   0.9738 B( 38-C , 39-S ) :   0.9706 B( 39-S , 40-C ) :   1.0375
B( 39-S , 41-O ) :   0.1332 B( 40-C , 41-O ) :   2.1747 B( 40-C , 42-C ) :   0.7731
B( 42-C , 43-O ) :   2.1620 B( 42-C , 44-S ) :   1.0537 B( 43-O , 44-S ) :   0.1407
B( 45-C , 46-C ) :   1.8005 B( 45-C , 83-H ) :   0.9448 B( 46-C , 47-C ) :   1.0819
B( 46-C , 48-C ) :   1.0365 B( 47-C , 84-H ) :   0.9336 B( 47-C , 85-H ) :   0.9392
B( 47-C , 86-H ) :   0.9452 B( 48-C , 49-N ) :   0.9551 B( 48-C , 87-H ) :   0.9350
B( 48-C , 88-H ) :   0.8940 B( 49-N , 50-C ) :   1.3224 B( 49-N , 89-H ) :   0.9349
B( 50-C , 51-C ) :   1.5133 B( 50-C , 90-H ) :   0.9680 B( 51-C , 52-C ) :   1.2339
B( 51-C , 91-H ) :   0.9517 B( 52-C , 53-C ) :   1.5159 B( 52-C , 92-H ) :   0.9535
B( 53-C , 54-C ) :   0.9634 B( 53-C , 67-C ) :   1.0895 B( 54-C , 55-O ) :   2.2545
B( 54-C , 56-C ) :   0.9192 B( 56-C , 57-C ) :   1.4820 B( 56-C , 66-C ) :   1.2185
B( 57-C , 58-C ) :   1.1816 B( 57-C , 93-H ) :   1.0146 B( 58-C , 59-C ) :   1.2618
B( 58-C , 63-C ) :   1.2379 B( 59-C , 60-C ) :   1.2034 B( 59-C , 65-C ) :   1.1994
B( 60-C , 61-C ) :   1.4396 B( 60-C , 94-H ) :   1.0059 B( 61-C , 62-C ) :   1.2581
B( 61-C , 64-F ) :   1.0847 B( 62-C , 63-C ) :   1.4555 B( 62-C , 95-H ) :   0.9938
B( 63-C , 96-H ) :   0.9966 B( 65-C , 66-C ) :   1.4661 B( 65-C , 97-H ) :   0.9910
B( 66-C , 67-C ) :   0.9910 B( 67-C , 68-C ) :   1.5806 B( 68-C , 69-C ) :   1.1916
B( 68-C , 71-C ) :   1.1312 B( 69-C , 70-N ) :   2.9034 B( 70-N , 88-H ) :   0.1055
B( 71-C , 72-N ) :   2.9773

-----------------------------------------------------------------------------
         ABSORPTION SPECTRUM VIA TRANSITION ELECTRIC DIPOLE MOMENTS
-----------------------------------------------------------------------------
State   Energy  Wavelength   fosc         T2         TX        TY        TZ
        (cm-1)    (nm)                  (au**2)     (au)      (au)      (au)
-----------------------------------------------------------------------------
   0   13931.8    717.8   0.792724417  18.73222   2.68389   3.32999   0.66341
   1   23243.8    430.2   0.124777746   1.76728  -1.26436   0.10277   0.39764
   2   23977.5    417.1   0.683090804   9.37888  -2.42673  -0.78782   1.69387
   3   24293.6    411.6   0.074087547   1.00399   0.25538   0.72825  -0.63908
   4   24739.5    404.2   0.150460703   2.00220   0.91090   0.66920  -0.85125
   5   24840.6    402.6   0.282951443   3.74995   1.84497  -0.54406  -0.22369
   6   25412.0    393.5   0.024914902   0.32277   0.03300   0.56246  -0.07293
   7   26614.0    375.7   0.114079411   1.41115  -0.63412  -0.85579   0.52599
   8   28128.5    355.5   0.105401389   1.23360  -0.75294   0.81649   0.00473
   9   28318.9    353.1   0.053718906   0.62449   0.47524   0.54532  -0.31822
  10   28649.9    349.0   0.036247236   0.41651   0.06942   0.38339   0.51449
  11   28913.8    345.9   0.051180596   0.58274   0.61064   0.40697  -0.21034
  12   29260.1    341.8   0.502125512   5.64952   1.60196  -1.71073  -0.39581
  13   29382.9    340.3   0.080453465   0.90142   0.68196  -0.59342  -0.29018
  14   29802.1    335.5   0.000128171   0.00142   0.03150  -0.01350   0.01554
  15   29867.0    334.8   0.087811784   0.96791   0.67577   0.47723  -0.53245
  16   30880.9    323.8   0.259323707   2.76457   1.61070  -0.30057  -0.28261
  17   31277.8    319.7   0.053352674   0.56156   0.61710   0.29427  -0.30686
  18   31934.9    313.1   0.003082131   0.03177   0.17532  -0.01438  -0.02877
  19   32358.0    309.0   0.059553774   0.60590  -0.77486   0.07218   0.01690
  20   32376.8    308.9   0.095285538   0.96888   0.18296  -0.87955   0.40224
  21   32720.6    305.6   0.581544946   5.85110  -2.38148  -0.28527   0.31348
  22   32826.2    304.6   0.005517284   0.05533   0.14301  -0.18327  -0.03592
  23   33250.2    300.7   0.582683467   5.76917   0.43923  -2.36011  -0.07837
  24   33479.3    298.7   0.048088102   0.47286  -0.28977   0.31580  -0.53775
  25   33919.3    294.8   0.034206729   0.33200  -0.44068   0.19593   0.31530
  26   34714.4    288.1   0.005207775   0.04939  -0.15920  -0.15498   0.00520
  27   35194.3    284.1   0.003924769   0.03671  -0.08334   0.16760   0.04094
  28   35379.3    282.7   0.078015186   0.72595   0.30875   0.56559   0.55743
  29   35542.0    281.4   0.862683040   7.99071   2.77566   0.48938  -0.21656
  30   36007.1    277.7   0.285798002   2.61304  -0.07399   1.61444   0.03410
  31   36291.6    275.5   0.045010103   0.40830  -0.34408   0.05243   0.53587
  32   36782.0    271.9   0.002968539   0.02657  -0.02579   0.15382   0.04736
  33   37377.7    267.5   0.047823043   0.42121  -0.15794   0.01489   0.62932
  34   37722.0    265.1   0.003086453   0.02694   0.01269   0.15011   0.06514
  35   37764.1    264.8   0.001458979   0.01272   0.01796   0.01818   0.10984
  36   38089.6    262.5   0.002699345   0.02333  -0.09701  -0.09246  -0.07328
  37   38440.1    260.1   0.319344462   2.73496  -0.54361  -1.11161   1.09717
  38   38617.2    259.0   0.003667376   0.03126  -0.07421  -0.14570   0.06730
  39   39037.5    256.2   0.016254637   0.13708   0.27622   0.24403  -0.03508
  40   39159.3    255.4   0.091882567   0.77246  -0.63090  -0.59816   0.12893
  41   39773.9    251.4   0.228449686   1.89090  -0.05697  -1.21356   0.64415
  42   39903.8    250.6   0.131627824   1.08595   0.42863  -0.94763  -0.06491
  43   40099.2    249.4   0.001063948   0.00873   0.05771  -0.07069   0.02018
  44   40223.1    248.6   0.058195671   0.47631  -0.31216   0.58780  -0.18264

FINAL SINGLE POINT ENERGY     -4711.360381399897

DIPOLE MOMENT
-------------
                                X             Y             Z
Electronic contribution:    -50.65442      18.79894      10.28431
Nuclear contribution   :     51.43903     -21.57824      -7.88496
                        -----------------------------------------
Total Dipole Moment    :      0.78460      -2.77929       2.39935
                        -----------------------------------------
Magnitude (a.u.)       :      3.75459
Magnitude (Debye)      :      9.54342

Rotational constants in cm-1:     0.001071     0.000243     0.000205
Rotational constants in MHz :    32.103388     7.281173     6.152499

                             ****ORCA TERMINATED NORMALLY****
TOTAL RUN TIME: 0 days 0 hours 14 minutes 30 seconds 691 msec
