                         Program Version 4.2.0 -  RELEASE  -
|  1> # ORCA input file
|  2> # SCF done       -175.795790837200          0.000888374139
|  3> ! CAM-B3LYP def2-SVP def2/J RIJCOSX Grid4 TightSCF
|  4> %maxcore 5000
|  5> %tddft
|  6>     Mode sTDDFT
|  7>     Ethresh 5.0
|  8>     maxcore 5000
|  9> end
| 10>
| 11> %pal
| 12>   nprocs 6
| 13>   end
| 14> * xyz 0 1
| 15>    C      -10.19238         6.34568        -0.00481
| 16>    C      -10.00367         7.31144         0.95509
| 17>    C      -10.86439         8.40880         1.15068
| 18>    N      -11.52255         9.32882         1.35091
| 19>    C       -8.95823         7.31836         1.90011
| 20>    N       -8.15188         7.38711         2.71605
| 21>    C      -11.34130         6.26194        -0.90423
| 22>    C      -11.23879         5.06084        -1.64643
| 23>    C      -12.17100         4.68655        -2.58061
| 24>    C      -13.26145         5.53938        -2.79188
| 25>    C      -13.35403         6.73661        -2.04741
| 26>    C      -12.40805         7.11598        -1.10110
| 27>    S      -14.77520         7.64506        -2.47087
| 28>    C      -15.21879         6.41696        -3.62542
| 29>    C      -14.35009         5.38104        -3.69327
| 30>   Br      -16.78777         6.61819        -4.63550
| 31>    C       -9.99559         4.36091        -1.26016
| 32>    O       -9.56606         3.32990        -1.75779
| 33>    C       -9.36118         5.19083        -0.24032
| 34>    C       -8.08239         5.01020         0.26639
| 35>    C       -7.28241         3.87379         0.30230
| 36>    C       -7.61038         2.52700         0.26843
| 37>    C       -6.64709         1.49413         0.43093
| 38>    C       -7.17455         0.24661         0.54112
| 39>    C       -8.58693         0.23204         0.48632
| 40>    S       -9.20604         1.85213         0.22657
| 41>    C       -9.41599        -0.86203         0.59784
| 42>    C      -10.83260        -0.88418         0.53752
| 43>    C      -11.37329        -2.11471         0.70795
| 44>    C      -10.42084        -3.15534         0.93311
| 45>    S       -8.79419        -2.47207         0.87167
| 46>    C      -10.70539        -4.47425         1.07577
| 47>    C       -9.76272        -5.54596         1.31618
| 48>    C       -8.79155        -5.47295         2.31712
| 49>    C       -7.85837        -6.49487         2.47816
| 50>    S       -6.81837        -6.30302         3.87614
| 51>    C       -7.96493        -5.05136         4.56405
| 52>    C       -8.65688        -4.40778         3.36949
| 53>    C       -7.83822        -7.56527         1.60129
| 54>    C       -8.81501        -7.66064         0.61134
| 55>    C       -8.67482        -8.87752        -0.25882
| 56>    C       -7.75559        -9.85936         0.46250
| 57>    S       -6.71218        -8.89778         1.62651
| 58>    C       -9.80684        -6.70025         0.48968
| 59>    C      -10.83926        -6.91478        -0.52729
| 60>    C      -12.14596        -7.02661        -0.24756
| 61>    C      -13.17182        -7.33581        -1.19427
| 62>    S      -14.79068        -7.63233        -0.62885
| 63>    C      -15.35636        -7.97925        -2.23843
| 64>    C      -14.32218        -7.84660        -3.14503
| 65>    C      -13.10673        -7.48992        -2.56261
| 66>    C      -16.71059        -8.36094        -2.43611
| 67>    C      -17.26455        -8.70465        -3.62468
| 68>    C      -18.61348        -9.11899        -3.76059
| 69>    C      -19.16673        -9.49116        -4.94091
| 70>    C      -20.50391        -9.93398        -5.09530
| 71>    O      -21.35504       -10.02113        -4.03949
| 72>    C      -22.55145       -10.48097        -4.48836
| 73>    C      -22.47048       -10.69378        -5.85738
| 74>    C      -21.16271       -10.34521        -6.24876
| 75>    O      -20.64290       -10.39857        -7.49537
| 76>    O      -23.41786       -11.14932        -6.72510
| 77>    C      -23.64371       -10.67682        -3.59531
| 78>    C      -23.59308       -10.44366        -2.26775
| 79>    C      -24.70297       -10.64727        -1.38351
| 80>    C      -24.65283       -10.42059        -0.07053
| 81>    H      -12.06531         3.76622        -3.13341
| 82>    H      -12.52061         8.04212        -0.56266
| 83>    H      -14.46878         4.54005        -4.35194
| 84>    H       -7.60823         5.89752         0.67003
| 85>    H       -6.23202         4.05880         0.49858
| 86>    H       -5.59488         1.71543         0.46266
| 87>    H       -6.60690        -0.65996         0.65969
| 88>    H      -11.38804         0.02051         0.36346
| 89>    H      -12.42738        -2.32864         0.69126
| 90>    H      -11.73563        -4.75650         0.90946
| 91>    H       -7.39131        -4.34436         5.15776
| 92>    H       -8.67057        -5.57877         5.20790
| 93>    H       -8.02878        -3.59853         2.98655
| 94>    H       -9.62265        -3.98609         3.65074
| 95>    H       -8.23646        -8.57660        -1.21593
| 96>    H       -9.64318        -9.33745        -0.46117
| 97>    H       -7.09715       -10.40305        -0.21057
| 98>    H       -8.32180       -10.57192         1.06299
| 99>    H      -10.48554        -7.07624        -1.53675
|100>    H      -12.47898        -6.93121         0.77867
|101>    H      -14.44688        -8.00830        -4.20034
|102>    H      -12.20182        -7.34559        -3.12552
|103>    H      -17.32674        -8.38983        -1.54649
|104>    H      -16.66529        -8.68290        -4.52441
|105>    H      -19.22275        -9.14790        -2.86764
|106>    H      -18.58981        -9.47341        -5.85432
|107>    H      -21.33186       -10.72236        -8.09000
|108>    H      -24.23281       -11.33034        -6.24555
|109>    H      -24.56199       -11.03882        -4.04210
|110>    H      -22.67049       -10.08409        -1.83525
|111>    H      -25.61992       -11.00572        -1.83490
|112>    H      -23.75343       -10.06421         0.40345
|113>    H      -25.50259       -10.58269         0.56916
|114> *
|115>
|116>                          ****END OF INPUT****

CARTESIAN COORDINATES (ANGSTROEM)
---------------------------------
  C    -10.192380    6.345680   -0.004810
  C    -10.003670    7.311440    0.955090
  C    -10.864390    8.408800    1.150680
  N    -11.522550    9.328820    1.350910
  C     -8.958230    7.318360    1.900110
  N     -8.151880    7.387110    2.716050
  C    -11.341300    6.261940   -0.904230
  C    -11.238790    5.060840   -1.646430
  C    -12.171000    4.686550   -2.580610
  C    -13.261450    5.539380   -2.791880
  C    -13.354030    6.736610   -2.047410
  C    -12.408050    7.115980   -1.101100
  S    -14.775200    7.645060   -2.470870
  C    -15.218790    6.416960   -3.625420
  C    -14.350090    5.381040   -3.693270
  Br   -16.787770    6.618190   -4.635500
  C     -9.995590    4.360910   -1.260160
  O     -9.566060    3.329900   -1.757790
  C     -9.361180    5.190830   -0.240320
  C     -8.082390    5.010200    0.266390
  C     -7.282410    3.873790    0.302300
  C     -7.610380    2.527000    0.268430
  C     -6.647090    1.494130    0.430930
  C     -7.174550    0.246610    0.541120
  C     -8.586930    0.232040    0.486320
  S     -9.206040    1.852130    0.226570
  C     -9.415990   -0.862030    0.597840
  C    -10.832600   -0.884180    0.537520
  C    -11.373290   -2.114710    0.707950
  C    -10.420840   -3.155340    0.933110
  S     -8.794190   -2.472070    0.871670
  C    -10.705390   -4.474250    1.075770
  C     -9.762720   -5.545960    1.316180
  C     -8.791550   -5.472950    2.317120
  C     -7.858370   -6.494870    2.478160
  S     -6.818370   -6.303020    3.876140
  C     -7.964930   -5.051360    4.564050
  C     -8.656880   -4.407780    3.369490
  C     -7.838220   -7.565270    1.601290
  C     -8.815010   -7.660640    0.611340
  C     -8.674820   -8.877520   -0.258820
  C     -7.755590   -9.859360    0.462500
  S     -6.712180   -8.897780    1.626510
  C     -9.806840   -6.700250    0.489680
  C    -10.839260   -6.914780   -0.527290
  C    -12.145960   -7.026610   -0.247560
  C    -13.171820   -7.335810   -1.194270
  S    -14.790680   -7.632330   -0.628850
  C    -15.356360   -7.979250   -2.238430
  C    -14.322180   -7.846600   -3.145030
  C    -13.106730   -7.489920   -2.562610
  C    -16.710590   -8.360940   -2.436110
  C    -17.264550   -8.704650   -3.624680
  C    -18.613480   -9.118990   -3.760590
  C    -19.166730   -9.491160   -4.940910
  C    -20.503910   -9.933980   -5.095300
  O    -21.355040  -10.021130   -4.039490
  C    -22.551450  -10.480970   -4.488360
  C    -22.470480  -10.693780   -5.857380
  C    -21.162710  -10.345210   -6.248760
  O    -20.642900  -10.398570   -7.495370
  O    -23.417860  -11.149320   -6.725100
  C    -23.643710  -10.676820   -3.595310
  C    -23.593080  -10.443660   -2.267750
  C    -24.702970  -10.647270   -1.383510
  C    -24.652830  -10.420590   -0.070530
  H    -12.065310    3.766220   -3.133410
  H    -12.520610    8.042120   -0.562660
  H    -14.468780    4.540050   -4.351940
  H     -7.608230    5.897520    0.670030
  H     -6.232020    4.058800    0.498580
  H     -5.594880    1.715430    0.462660
  H     -6.606900   -0.659960    0.659690
  H    -11.388040    0.020510    0.363460
  H    -12.427380   -2.328640    0.691260
  H    -11.735630   -4.756500    0.909460
  H     -7.391310   -4.344360    5.157760
  H     -8.670570   -5.578770    5.207900
  H     -8.028780   -3.598530    2.986550
  H     -9.622650   -3.986090    3.650740
  H     -8.236460   -8.576600   -1.215930
  H     -9.643180   -9.337450   -0.461170
  H     -7.097150  -10.403050   -0.210570
  H     -8.321800  -10.571920    1.062990
  H    -10.485540   -7.076240   -1.536750
  H    -12.478980   -6.931210    0.778670
  H    -14.446880   -8.008300   -4.200340
  H    -12.201820   -7.345590   -3.125520
  H    -17.326740   -8.389830   -1.546490
  H    -16.665290   -8.682900   -4.524410
  H    -19.222750   -9.147900   -2.867640
  H    -18.589810   -9.473410   -5.854320
  H    -21.331860  -10.722360   -8.090000
  H    -24.232810  -11.330340   -6.245550
  H    -24.561990  -11.038820   -4.042100
  H    -22.670490  -10.084090   -1.835250
  H    -25.619920  -11.005720   -1.834900
  H    -23.753430  -10.064210    0.403450
  H    -25.502590  -10.582690    0.569160

 Total Charge           Charge          ....    0
 Multiplicity           Mult            ....    1
 Number of Electrons    NEL             ....  528
 Basis Dimension        Dim             .... 1131

ORBITAL ENERGIES
----------------

  NO   OCC          E(Eh)            E(eV)
   0   2.0000    -482.875702    -13139.7159
   1   2.0000     -88.962417     -2420.7905
   2   2.0000     -88.961348     -2420.7613
   3   2.0000     -88.957087     -2420.6454
   4   2.0000     -88.953531     -2420.5486
   5   2.0000     -88.926036     -2419.8004
   6   2.0000     -88.922394     -2419.7014
   7   2.0000     -62.553417     -1702.1650
   8   2.0000     -56.387351     -1534.3778
   9   2.0000     -56.384665     -1534.3047
  10   2.0000     -56.384627     -1534.3037
  11   2.0000     -19.282345      -524.6993
  12   2.0000     -19.266487      -524.2678
  13   2.0000     -19.254851      -523.9511
  14   2.0000     -19.195005      -522.3226
  15   2.0000     -14.396844      -391.7580
  16   2.0000     -14.395515      -391.7219
  17   2.0000     -10.346265      -281.5362
  18   2.0000     -10.340947      -281.3915
  19   2.0000     -10.335706      -281.2489
  20   2.0000     -10.335027      -281.2304
  21   2.0000     -10.331750      -281.1412
  22   2.0000     -10.327368      -281.0220
  23   2.0000     -10.322108      -280.8788
  24   2.0000     -10.321848      -280.8718
  25   2.0000     -10.321039      -280.8498
  26   2.0000     -10.320468      -280.8342
  27   2.0000     -10.319895      -280.8186
  28   2.0000     -10.312964      -280.6300
  29   2.0000     -10.309671      -280.5404
  30   2.0000     -10.307365      -280.4777
  31   2.0000     -10.301405      -280.3155
  32   2.0000     -10.300972      -280.3037
  33   2.0000     -10.300770      -280.2982
  34   2.0000     -10.300729      -280.2971
  35   2.0000     -10.300229      -280.2835
  36   2.0000     -10.299556      -280.2652
  37   2.0000     -10.299534      -280.2646
  38   2.0000     -10.298720      -280.2424
  39   2.0000     -10.298065      -280.2246
  40   2.0000     -10.297819      -280.2179
  41   2.0000     -10.294651      -280.1317
  42   2.0000     -10.292262      -280.0667
  43   2.0000     -10.291823      -280.0547
  44   2.0000     -10.289660      -279.9959
  45   2.0000     -10.289112      -279.9810
  46   2.0000     -10.288761      -279.9714
  47   2.0000     -10.288250      -279.9575
  48   2.0000     -10.287446      -279.9356
  49   2.0000     -10.286424      -279.9078
  50   2.0000     -10.286387      -279.9068
  51   2.0000     -10.285581      -279.8849
  52   2.0000     -10.284900      -279.8664
  53   2.0000     -10.284748      -279.8622
  54   2.0000     -10.284182      -279.8468
  55   2.0000     -10.281472      -279.7731
  56   2.0000     -10.280337      -279.7422
  57   2.0000     -10.279730      -279.7257
  58   2.0000     -10.276339      -279.6334
  59   2.0000     -10.276041      -279.6253
  60   2.0000     -10.275710      -279.6163
  61   2.0000     -10.274438      -279.5817
  62   2.0000     -10.273856      -279.5658
  63   2.0000     -10.273067      -279.5444
  64   2.0000     -10.272836      -279.5381
  65   2.0000     -10.272250      -279.5221
  66   2.0000     -10.271210      -279.4938
  67   2.0000     -10.270769      -279.4818
  68   2.0000     -10.267633      -279.3965
  69   2.0000     -10.262909      -279.2679
  70   2.0000      -8.782839      -238.9932
  71   2.0000      -8.058414      -219.2806
  72   2.0000      -8.057159      -219.2464
  73   2.0000      -8.051877      -219.1027
  74   2.0000      -8.049408      -219.0355
  75   2.0000      -8.022206      -218.2953
  76   2.0000      -8.018526      -218.1952
  77   2.0000      -6.619073      -180.1141
  78   2.0000      -6.604596      -179.7202
  79   2.0000      -6.604428      -179.7156
  80   2.0000      -6.028110      -164.0332
  81   2.0000      -6.026913      -164.0006
  82   2.0000      -6.023847      -163.9172
  83   2.0000      -6.022915      -163.8919
  84   2.0000      -6.021448      -163.8519
  85   2.0000      -6.019626      -163.8024
  86   2.0000      -6.018498      -163.7717
  87   2.0000      -6.017990      -163.7578
  88   2.0000      -6.017068      -163.7327
  89   2.0000      -6.014620      -163.6661
  90   2.0000      -6.013517      -163.6361
  91   2.0000      -6.011719      -163.5872
  92   2.0000      -5.992600      -163.0669
  93   2.0000      -5.988928      -162.9670
  94   2.0000      -5.988444      -162.9538
  95   2.0000      -5.984906      -162.8576
  96   2.0000      -5.981923      -162.7764
  97   2.0000      -5.978108      -162.6726
  98   2.0000      -2.734936       -74.4214
  99   2.0000      -2.730870       -74.3107
 100   2.0000      -2.730800       -74.3088
 101   2.0000      -2.719258       -73.9948
 102   2.0000      -2.719246       -73.9945
 103   2.0000      -1.202381       -32.7185
 104   2.0000      -1.158395       -31.5215
 105   2.0000      -1.141103       -31.0510
 106   2.0000      -1.108385       -30.1607
 107   2.0000      -1.008655       -27.4469
 108   2.0000      -1.006637       -27.3920
 109   2.0000      -0.995828       -27.0979
 110   2.0000      -0.994176       -27.0529
 111   2.0000      -0.983142       -26.7526
 112   2.0000      -0.982042       -26.7227
 113   2.0000      -0.975171       -26.5357
 114   2.0000      -0.971423       -26.4338
 115   2.0000      -0.947720       -25.7888
 116   2.0000      -0.930399       -25.3174
 117   2.0000      -0.927246       -25.2316
 118   2.0000      -0.918091       -24.9825
 119   2.0000      -0.907332       -24.6898
 120   2.0000      -0.902819       -24.5670
 121   2.0000      -0.893119       -24.3030
 122   2.0000      -0.890694       -24.2370
 123   2.0000      -0.885347       -24.0915
 124   2.0000      -0.881181       -23.9782
 125   2.0000      -0.870773       -23.6949
 126   2.0000      -0.870234       -23.6803
 127   2.0000      -0.866725       -23.5848
 128   2.0000      -0.856258       -23.3000
 129   2.0000      -0.852784       -23.2054
 130   2.0000      -0.846871       -23.0445
 131   2.0000      -0.841331       -22.8938
 132   2.0000      -0.831010       -22.6129
 133   2.0000      -0.827912       -22.5286
 134   2.0000      -0.823265       -22.4022
 135   2.0000      -0.814169       -22.1547
 136   2.0000      -0.810390       -22.0518
 137   2.0000      -0.798773       -21.7357
 138   2.0000      -0.793864       -21.6021
 139   2.0000      -0.782466       -21.2920
 140   2.0000      -0.770261       -20.9599
 141   2.0000      -0.755393       -20.5553
 142   2.0000      -0.741085       -20.1659
 143   2.0000      -0.737169       -20.0594
 144   2.0000      -0.728544       -19.8247
 145   2.0000      -0.717969       -19.5369
 146   2.0000      -0.707975       -19.2650
 147   2.0000      -0.702526       -19.1167
 148   2.0000      -0.691377       -18.8133
 149   2.0000      -0.690541       -18.7906
 150   2.0000      -0.681769       -18.5519
 151   2.0000      -0.680934       -18.5292
 152   2.0000      -0.673746       -18.3336
 153   2.0000      -0.670280       -18.2392
 154   2.0000      -0.666433       -18.1346
 155   2.0000      -0.656337       -17.8598
 156   2.0000      -0.651978       -17.7412
 157   2.0000      -0.643241       -17.5035
 158   2.0000      -0.642648       -17.4873
 159   2.0000      -0.639956       -17.4141
 160   2.0000      -0.636756       -17.3270
 161   2.0000      -0.630170       -17.1478
 162   2.0000      -0.628500       -17.1024
 163   2.0000      -0.624690       -16.9987
 164   2.0000      -0.619862       -16.8673
 165   2.0000      -0.614908       -16.7325
 166   2.0000      -0.605327       -16.4718
 167   2.0000      -0.604115       -16.4388
 168   2.0000      -0.598168       -16.2770
 169   2.0000      -0.588058       -16.0019
 170   2.0000      -0.581072       -15.8118
 171   2.0000      -0.578781       -15.7494
 172   2.0000      -0.573863       -15.6156
 173   2.0000      -0.569288       -15.4911
 174   2.0000      -0.564987       -15.3741
 175   2.0000      -0.562957       -15.3189
 176   2.0000      -0.562647       -15.3104
 177   2.0000      -0.557401       -15.1676
 178   2.0000      -0.552110       -15.0237
 179   2.0000      -0.549725       -14.9588
 180   2.0000      -0.543165       -14.7803
 181   2.0000      -0.539939       -14.6925
 182   2.0000      -0.537340       -14.6218
 183   2.0000      -0.530810       -14.4441
 184   2.0000      -0.528614       -14.3843
 185   2.0000      -0.525598       -14.3022
 186   2.0000      -0.520873       -14.1737
 187   2.0000      -0.519270       -14.1301
 188   2.0000      -0.517495       -14.0818
 189   2.0000      -0.512604       -13.9487
 190   2.0000      -0.509789       -13.8721
 191   2.0000      -0.507928       -13.8214
 192   2.0000      -0.504601       -13.7309
 193   2.0000      -0.499360       -13.5883
 194   2.0000      -0.497996       -13.5512
 195   2.0000      -0.496601       -13.5132
 196   2.0000      -0.494482       -13.4555
 197   2.0000      -0.491112       -13.3638
 198   2.0000      -0.486129       -13.2282
 199   2.0000      -0.485574       -13.2132
 200   2.0000      -0.484248       -13.1771
 201   2.0000      -0.482311       -13.1244
 202   2.0000      -0.480649       -13.0791
 203   2.0000      -0.479399       -13.0451
 204   2.0000      -0.479218       -13.0402
 205   2.0000      -0.477598       -12.9961
 206   2.0000      -0.475933       -12.9508
 207   2.0000      -0.469851       -12.7853
 208   2.0000      -0.468451       -12.7472
 209   2.0000      -0.467819       -12.7300
 210   2.0000      -0.465951       -12.6792
 211   2.0000      -0.465828       -12.6758
 212   2.0000      -0.461793       -12.5660
 213   2.0000      -0.461326       -12.5533
 214   2.0000      -0.458921       -12.4879
 215   2.0000      -0.456809       -12.4304
 216   2.0000      -0.452342       -12.3088
 217   2.0000      -0.446574       -12.1519
 218   2.0000      -0.443910       -12.0794
 219   2.0000      -0.441681       -12.0187
 220   2.0000      -0.439979       -11.9724
 221   2.0000      -0.436632       -11.8814
 222   2.0000      -0.431175       -11.7329
 223   2.0000      -0.430068       -11.7027
 224   2.0000      -0.428983       -11.6732
 225   2.0000      -0.426812       -11.6141
 226   2.0000      -0.426748       -11.6124
 227   2.0000      -0.424567       -11.5530
 228   2.0000      -0.423588       -11.5264
 229   2.0000      -0.422498       -11.4968
 230   2.0000      -0.421600       -11.4723
 231   2.0000      -0.417188       -11.3523
 232   2.0000      -0.414619       -11.2824
 233   2.0000      -0.413309       -11.2467
 234   2.0000      -0.413079       -11.2405
 235   2.0000      -0.408353       -11.1118
 236   2.0000      -0.405556       -11.0357
 237   2.0000      -0.403163       -10.9706
 238   2.0000      -0.401692       -10.9306
 239   2.0000      -0.393068       -10.6959
 240   2.0000      -0.392385       -10.6773
 241   2.0000      -0.389670       -10.6035
 242   2.0000      -0.384652       -10.4669
 243   2.0000      -0.375393       -10.2150
 244   2.0000      -0.370852       -10.0914
 245   2.0000      -0.365402        -9.9431
 246   2.0000      -0.358545        -9.7565
 247   2.0000      -0.350953        -9.5499
 248   2.0000      -0.346142        -9.4190
 249   2.0000      -0.343389        -9.3441
 250   2.0000      -0.339657        -9.2425
 251   2.0000      -0.334615        -9.1053
 252   2.0000      -0.326027        -8.8716
 253   2.0000      -0.323060        -8.7909
 254   2.0000      -0.313680        -8.5357
 255   2.0000      -0.300121        -8.1667
 256   2.0000      -0.297596        -8.0980
 257   2.0000      -0.292725        -7.9655
 258   2.0000      -0.280942        -7.6448
 259   2.0000      -0.278272        -7.5722
 260   2.0000      -0.267939        -7.2910
 261   2.0000      -0.257157        -6.9976
 262   2.0000      -0.231613        -6.3025
 263   2.0000      -0.220363        -5.9964
 264   0.0000      -0.099669        -2.7121
 265   0.0000      -0.055700        -1.5157
 266   0.0000      -0.053236        -1.4486
 267   0.0000      -0.026737        -0.7276
 268   0.0000      -0.016961        -0.4615

MULLIKEN ATOMIC CHARGES
-----------------------
   0 C :    0.303743
   1 C :   -0.354829
   2 C :   -0.188489
   3 N :    0.137578
   4 C :   -0.212407
   5 N :    0.156001
   6 C :    0.010023
   7 C :   -0.001309
   8 C :   -0.086914
   9 C :    0.121291
  10 C :   -0.094912
  11 C :   -0.025790
  12 S :    0.176800
  13 C :   -0.123959
  14 C :    0.034001
  15 Br:    0.011026
  16 C :    0.116337
  17 O :   -0.182635
  18 C :   -0.105114
  19 C :   -0.006374
  20 C :   -0.012164
  21 C :    0.003382
  22 C :    0.027219
  23 C :    0.034787
  24 C :   -0.075116
  25 S :    0.167550
  26 C :   -0.042638
  27 C :    0.022467
  28 C :    0.060308
  29 C :   -0.041744
  30 S :    0.106606
  31 C :   -0.052117
  32 C :    0.018521
  33 C :   -0.108793
  34 C :   -0.089740
  35 S :    0.006632
  36 C :   -0.063678
  37 C :    0.114588
  38 C :   -0.077482
  39 C :   -0.112160
  40 C :    0.127306
  41 C :   -0.067356
  42 S :    0.012799
  43 C :    0.031451
  44 C :   -0.089931
  45 C :    0.080687
  46 C :   -0.098552
  47 S :    0.113755
  48 C :   -0.075862
  49 C :    0.005555
  50 C :    0.013524
  51 C :    0.055356
  52 C :    0.020032
  53 C :    0.020674
  54 C :   -0.034588
  55 C :    0.075228
  56 O :   -0.223793
  57 C :    0.097903
  58 C :    0.079415
  59 C :    0.090220
  60 O :   -0.179656
  61 O :   -0.203658
  62 C :   -0.053572
  63 C :    0.013099
  64 C :    0.005214
  65 C :   -0.017502
  66 H :   -0.020011
  67 H :   -0.010891
  68 H :   -0.007774
  69 H :    0.024910
  70 H :   -0.006230
  71 H :   -0.004400
  72 H :    0.003301
  73 H :    0.011134
  74 H :    0.003949
  75 H :    0.000094
  76 H :    0.048788
  77 H :    0.060563
  78 H :    0.040497
  79 H :    0.025002
  80 H :    0.029360
  81 H :    0.034823
  82 H :    0.051689
  83 H :    0.064461
  84 H :    0.008298
  85 H :   -0.006432
  86 H :   -0.019577
  87 H :   -0.021880
  88 H :   -0.022131
  89 H :   -0.014397
  90 H :   -0.006819
  91 H :   -0.001715
  92 H :    0.192754
  93 H :    0.191003
  94 H :   -0.035768
  95 H :   -0.002076
  96 H :   -0.014070
  97 H :    0.014228
  98 H :    0.021078
Sum of atomic charges:   -0.0000000

LOEWDIN ATOMIC CHARGES
----------------------
   0 C :    0.077344
   1 C :   -0.153130
   2 C :   -0.018303
   3 N :   -0.067340
   4 C :   -0.024859
   5 N :   -0.063238
   6 C :   -0.021121
   7 C :   -0.044672
   8 C :    0.010419
   9 C :   -0.036494
  10 C :   -0.148905
  11 C :   -0.012835
  12 S :    0.425265
  13 C :   -0.275992
  14 C :   -0.072539
  15 Br:    0.126909
  16 C :    0.052911
  17 O :   -0.182750
  18 C :   -0.123995
  19 C :    0.044297
  20 C :   -0.083353
  21 C :   -0.105537
  22 C :   -0.033802
  23 C :   -0.023978
  24 C :   -0.199918
  25 S :    0.484171
  26 C :   -0.134984
  27 C :   -0.042542
  28 C :    0.002864
  29 C :   -0.153475
  30 S :    0.412985
  31 C :   -0.009006
  32 C :   -0.052505
  33 C :   -0.039482
  34 C :   -0.173641
  35 S :    0.272255
  36 C :   -0.109508
  37 C :   -0.046548
  38 C :   -0.167809
  39 C :   -0.041464
  40 C :   -0.034039
  41 C :   -0.111245
  42 S :    0.283629
  43 C :   -0.023052
  44 C :   -0.021478
  45 C :   -0.038164
  46 C :   -0.184575
  47 S :    0.427215
  48 C :   -0.166396
  49 C :   -0.059349
  50 C :   -0.051992
  51 C :   -0.054916
  52 C :   -0.013237
  53 C :   -0.029362
  54 C :   -0.032689
  55 C :   -0.001963
  56 O :    0.001645
  57 C :   -0.013939
  58 C :   -0.020004
  59 C :   -0.005462
  60 O :   -0.050112
  61 O :   -0.064765
  62 C :   -0.052506
  63 C :   -0.019456
  64 C :   -0.029030
  65 C :   -0.046102
  66 H :    0.036724
  67 H :    0.039537
  68 H :    0.036622
  69 H :    0.046298
  70 H :    0.038413
  71 H :    0.035996
  72 H :    0.032057
  73 H :    0.035912
  74 H :    0.039819
  75 H :    0.036838
  76 H :    0.026293
  77 H :    0.022915
  78 H :    0.020178
  79 H :    0.033856
  80 H :    0.037536
  81 H :    0.038219
  82 H :    0.026815
  83 H :    0.025182
  84 H :    0.027606
  85 H :    0.026919
  86 H :    0.027834
  87 H :    0.027423
  88 H :    0.025857
  89 H :    0.026195
  90 H :    0.028483
  91 H :    0.038894
  92 H :    0.102927
  93 H :    0.098000
  94 H :    0.023614
  95 H :    0.031036
  96 H :    0.025607
  97 H :    0.021983
  98 H :    0.024058

  Mayer bond orders larger than 0.100000
B(  0-C ,  1-C ) :   1.6051 B(  0-C ,  6-C ) :   0.9913 B(  0-C , 18-C ) :   1.1105
B(  1-C ,  2-C ) :   1.1475 B(  1-C ,  4-C ) :   1.1472 B(  2-C ,  3-N ) :   2.9666
B(  4-C ,  5-N ) :   3.0001 B(  6-C ,  7-C ) :   1.2774 B(  6-C , 11-C ) :   1.4243
B(  7-C ,  8-C ) :   1.4345 B(  7-C , 16-C ) :   0.9271 B(  8-C ,  9-C ) :   1.2336
B(  8-C , 66-H ) :   1.0171 B(  9-C , 10-C ) :   1.3222 B(  9-C , 14-C ) :   1.1610
B( 10-C , 11-C ) :   1.3166 B( 10-C , 12-S ) :   1.0796 B( 11-C , 67-H ) :   0.9810
B( 12-S , 13-C ) :   1.0873 B( 13-C , 14-C ) :   1.6189 B( 13-C , 15-Br) :   1.0110
B( 14-C , 68-H ) :   1.0002 B( 16-C , 17-O ) :   2.1450 B( 16-C , 18-C ) :   1.0242
B( 18-C , 19-C ) :   1.4038 B( 19-C , 20-C ) :   1.3811 B( 19-C , 69-H ) :   0.9397
B( 20-C , 21-C ) :   1.4286 B( 20-C , 70-H ) :   0.9491 B( 21-C , 22-C ) :   1.1702
B( 21-C , 25-S ) :   1.1426 B( 22-C , 23-C ) :   1.5767 B( 22-C , 71-H ) :   1.0002
B( 23-C , 24-C ) :   1.1601 B( 23-C , 72-H ) :   0.9914 B( 24-C , 25-S ) :   1.0563
B( 24-C , 26-C ) :   1.5420 B( 26-C , 27-C ) :   1.1410 B( 26-C , 30-S ) :   1.0838
B( 27-C , 28-C ) :   1.6218 B( 27-C , 73-H ) :   0.9924 B( 28-C , 29-C ) :   1.1057
B( 28-C , 74-H ) :   0.9995 B( 29-C , 30-S ) :   1.0164 B( 29-C , 31-C ) :   1.7125
B( 31-C , 32-C ) :   1.0158 B( 31-C , 75-H ) :   0.9447 B( 32-C , 33-C ) :   1.3971
B( 32-C , 43-C ) :   1.3110 B( 33-C , 34-C ) :   1.3944 B( 33-C , 37-C ) :   1.0455
B( 34-C , 35-S ) :   1.0009 B( 34-C , 38-C ) :   1.4698 B( 35-S , 36-C ) :   0.9894
B( 36-C , 37-C ) :   1.0508 B( 36-C , 76-H ) :   0.9528 B( 36-C , 77-H ) :   0.9530
B( 37-C , 78-H ) :   0.8946 B( 37-C , 79-H ) :   0.9253 B( 38-C , 39-C ) :   1.3826
B( 38-C , 42-S ) :   1.0111 B( 39-C , 40-C ) :   1.0467 B( 39-C , 43-C ) :   1.4627
B( 40-C , 41-C ) :   1.0547 B( 40-C , 80-H ) :   0.9117 B( 40-C , 81-H ) :   0.9186
B( 41-C , 42-S ) :   0.9889 B( 41-C , 82-H ) :   0.9523 B( 41-C , 83-H ) :   0.9539
B( 43-C , 44-C ) :   1.0100 B( 44-C , 45-C ) :   1.8116 B( 44-C , 84-H ) :   0.9442
B( 45-C , 46-C ) :   1.0944 B( 45-C , 85-H ) :   0.9516 B( 46-C , 47-S ) :   1.1185
B( 46-C , 50-C ) :   1.5051 B( 47-S , 48-C ) :   1.1247 B( 48-C , 49-C ) :   1.4914
B( 48-C , 51-C ) :   1.1012 B( 49-C , 50-C ) :   1.2868 B( 49-C , 86-H ) :   0.9922
B( 50-C , 87-H ) :   0.9917 B( 51-C , 52-C ) :   1.6667 B( 51-C , 88-H ) :   0.9670
B( 52-C , 53-C ) :   1.1394 B( 52-C , 89-H ) :   0.9815 B( 53-C , 54-C ) :   1.5970
B( 53-C , 90-H ) :   0.9950 B( 54-C , 55-C ) :   1.1622 B( 54-C , 91-H ) :   0.9723
B( 55-C , 56-O ) :   1.1186 B( 55-C , 57-C ) :   0.1134 B( 55-C , 59-C ) :   1.3907
B( 56-O , 57-C ) :   1.1222 B( 57-C , 58-C ) :   1.3265 B( 57-C , 62-C ) :   1.1248
B( 58-C , 59-C ) :   1.2354 B( 58-C , 61-O ) :   1.2254 B( 59-C , 60-O ) :   1.2660
B( 60-O , 92-H ) :   0.9546 B( 61-O , 93-H ) :   0.9590 B( 62-C , 63-C ) :   1.6957
B( 62-C , 94-H ) :   0.9602 B( 63-C , 64-C ) :   1.0995 B( 63-C , 95-H ) :   0.9862
B( 64-C , 65-C ) :   1.8978 B( 64-C , 96-H ) :   0.9735 B( 65-C , 97-H ) :   0.9583
B( 65-C , 98-H ) :   0.9517

-----------------------------------------------------------------------------
         ABSORPTION SPECTRUM VIA TRANSITION ELECTRIC DIPOLE MOMENTS
-----------------------------------------------------------------------------
State   Energy  Wavelength   fosc         T2         TX        TY        TZ
        (cm-1)    (nm)                  (au**2)     (au)      (au)      (au)
-----------------------------------------------------------------------------
   0   14019.7    713.3   1.382435173  32.46238  -0.16608  -5.66971   0.53775
   1   17063.9    586.0   0.025307956   0.48826   0.30018  -0.57645   0.25664
   2   21320.5    469.0   0.005798885   0.08954   0.24845   0.15787   0.05378
   3   21866.4    457.3   1.711214372  25.76343  -4.80016  -1.29272  -1.02508
   4   22503.9    444.4   0.056595671   0.82794  -0.39801   0.47315  -0.66758
   5   23478.6    425.9   0.019691398   0.27611   0.32272  -0.27215  -0.31289
   6   24381.3    410.2   0.039017416   0.52684  -0.29830   0.57704  -0.32384
   7   25712.4    388.9   0.095391473   1.22136   0.70459  -0.11782   0.84323
   8   27180.5    367.9   0.001125044   0.01363   0.09026   0.05313   0.05155
   9   27576.1    362.6   0.023584298   0.28156  -0.24734  -0.00679  -0.46940
  10   28232.0    354.2   0.025690828   0.29958   0.06987   0.52547   0.13630
  11   28523.2    350.6   0.024154542   0.27879   0.21382   0.21724   0.43113
  12   28959.2    345.3   0.024222860   0.27537   0.04793   0.13901   0.50373
  13   29715.0    336.5   0.062916720   0.69705   0.09679   0.00715  -0.82924
  14   30145.7    331.7   0.218065047   2.38142   1.51140   0.27891   0.13891
  15   30629.2    326.5   0.090202236   0.96952   0.31357   0.69984   0.61759
  16   31529.1    317.2   0.190032529   1.98423  -0.99624  -0.70715  -0.70119
  17   31837.3    314.1   0.335470813   3.46892   0.49931   0.07158   1.79290
  18   32154.9    311.0   0.378453649   3.87473   1.16668   0.22030   1.57005
  19   33328.5    300.0   0.040529509   0.40034  -0.51576   0.06132  -0.36135
  20   33749.9    296.3   0.019049184   0.18581   0.09306  -0.29107   0.30403
  21   34282.4    291.7   0.133867991   1.28553  -0.62273  -0.09517  -0.94269
  22   34597.0    289.0   0.246417421   2.34482  -1.39209  -0.05964  -0.63508
  23   34707.3    288.1   0.032609454   0.30931   0.50490  -0.08103   0.21868
  24   34990.7    285.8   0.053343244   0.50188  -0.37301   0.57545  -0.17778
  25   35388.7    282.6   0.185586298   1.72646   0.69324   0.86900   0.70051
  26   35772.0    279.5   0.081910734   0.75383  -0.54330   0.36305   0.57171
  27   36144.0    276.7   0.026313234   0.23967   0.38452   0.18707   0.23837
  28   36703.7    272.5   0.027758359   0.24898   0.19507  -0.01030   0.45915
  29   37002.0    270.3   0.125150772   1.11348  -0.31590   0.20177   0.98640
  30   37412.8    267.3   0.001136455   0.01000  -0.01139   0.04760   0.08721
  31   37850.7    264.2   0.069185994   0.60176  -0.57357   0.48138   0.20260
  32   38025.3    263.0   0.067718020   0.58628   0.50001  -0.09413  -0.57220
  33   38291.7    261.2   0.051098186   0.43932  -0.58374   0.19730  -0.24420
  34   38406.8    260.4   0.197879168   1.69616   0.00700  -0.26251  -1.27562
  35   38845.0    257.4   0.080615898   0.68322  -0.01547   0.75615   0.33349
  36   39299.1    254.5   0.010767758   0.09020  -0.27923   0.10531   0.03377
  37   39562.2    252.8   0.009911055   0.08247   0.09350  -0.13982  -0.23277
  38   39735.9    251.7   0.003630569   0.03008   0.14605  -0.00201   0.09351
  39   40010.0    249.9   0.044849539   0.36903   0.20955   0.50898   0.25702

FINAL SINGLE POINT ENERGY     -7409.029637147454

DIPOLE MOMENT
-------------
                                X             Y             Z
Electronic contribution:    -10.06363     176.90953     -38.11554
Nuclear contribution   :      7.68811    -182.68297      36.23530
                        -----------------------------------------
Total Dipole Moment    :     -2.37552      -5.77344      -1.88024
                        -----------------------------------------
Magnitude (a.u.)       :      6.52004
Magnitude (Debye)      :     16.57263

Rotational constants in cm-1:     0.000580     0.000299     0.000207
Rotational constants in MHz :    17.376782     8.968067     6.210870

                             ****ORCA TERMINATED NORMALLY****
TOTAL RUN TIME: 0 days 0 hours 10 minutes 50 seconds 299 msec
