                         Program Version 4.2.0 -  RELEASE  -
|  1> # ORCA input file
|  2> # SCF done       -171.653504878754          0.000945670623
|  3> ! CAM-B3LYP def2-SVP def2/J RIJCOSX Grid4 TightSCF
|  4> %maxcore 5000
|  5> %tddft
|  6>     Mode sTDDFT
|  7>     Ethresh 5.0
|  8>     maxcore 5000
|  9> end
| 10>
| 11> %pal
| 12>   nprocs 6
| 13>   end
| 14> * xyz 0 1
| 15>    C       -6.29594        -1.23389         1.99350
| 16>    C       -5.65029        -2.37305         2.44105
| 17>    C       -6.31148        -3.41913         3.08942
| 18>    N       -6.81462        -4.27466         3.67639
| 19>    C       -4.25580        -2.55250         2.42346
| 20>    N       -3.12362        -2.74679         2.47069
| 21>    C       -7.72282        -0.98053         2.14141
| 22>    C       -7.97857         0.36876         1.80023
| 23>    C       -9.22420         0.93581         1.89098
| 24>    C      -10.27442         0.13449         2.35756
| 25>    C      -10.01244        -1.21424         2.68584
| 26>    C       -8.75379        -1.79243         2.57469
| 27>    S      -11.44307        -2.02293         3.25710
| 28>    C      -12.36114        -0.55351         3.04855
| 29>    C      -11.63516         0.48618         2.57425
| 30>   Br      -14.18799        -0.53418         3.48284
| 31>    C       -6.70974         1.01618         1.40608
| 32>    O       -6.58074         2.16204         1.02808
| 33>    C       -5.67207        -0.03134         1.52055
| 34>    C       -4.34726         0.15686         1.19271
| 35>    C       -3.69109         1.40880         1.13251
| 36>    S       -2.42204         1.68695        -0.03312
| 37>    C       -2.26935         3.31697         0.47639
| 38>    C       -3.10058         3.64540         1.50716
| 39>    C       -3.15495         4.98355         2.16259
| 40>    C       -3.89923         2.54841         1.91447
| 41>    C       -4.80898         2.51665         3.03559
| 42>    C       -4.86435         1.44171         3.84796
| 43>    C       -5.98219         1.04992         4.63831
| 44>    C       -6.03405        -0.17473         5.21003
| 45>    C       -7.23262        -0.82220         5.64293
| 46>    C       -7.28700        -2.02948         6.23227
| 47>    C       -6.08233        -2.78555         6.70190
| 48>    C       -8.60606        -2.73468         6.42940
| 49>    N       -8.51102        -4.11039         6.01102
| 50>    C       -8.67394        -5.15377         6.82863
| 51>    C       -8.38640        -6.44880         6.49658
| 52>    C       -8.61514        -7.51498         7.37149
| 53>    C       -8.33004        -8.83496         7.11153
| 54>    C       -8.53833        -9.93292         7.97388
| 55>    C       -8.15693       -11.13535         7.45512
| 56>    C       -7.62588       -11.05189         6.15039
| 57>    S       -7.62400        -9.39592         5.59921
| 58>    C       -7.15659       -12.08855         5.36013
| 59>    C       -7.10056       -13.45948         5.68060
| 60>    C       -6.58672       -14.23715         4.68475
| 61>    C       -6.21106       -13.51942         3.52467
| 62>    S       -6.52978       -11.81499         3.74517
| 63>    C       -5.67571       -14.05593         2.37577
| 64>    C       -5.32772       -13.27866         1.25701
| 65>    O       -5.51786       -11.94999         1.32769
| 66>    C       -5.12202       -11.38368         0.16578
| 67>    C       -4.65835       -12.37302        -0.70052
| 68>    C       -4.78834       -13.60296        -0.00288
| 69>    C       -4.45745       -14.96987        -0.46975
| 70>    F       -4.73335       -15.92891         0.42428
| 71>    F       -5.12827       -15.32962        -1.58890
| 72>    F       -3.14816       -15.13564        -0.77017
| 73>    O       -4.22142       -12.02660        -1.92575
| 74>    C       -3.63475       -12.97779        -2.79015
| 75>    C       -5.20709        -9.97043        -0.03694
| 76>    C       -5.66859        -9.11290         0.87470
| 77>    H       -9.38502         1.96901         1.62576
| 78>    H       -8.61745        -2.83188         2.81704
| 79>    H      -12.04143         1.46306         2.38545
| 80>    H       -3.74934        -0.70731         0.92764
| 81>    H       -1.56150         3.95425        -0.01741
| 82>    H       -2.43648         5.66244         1.71140
| 83>    H       -2.93711         4.89104         3.22578
| 84>    H       -4.15341         5.40636         2.05936
| 85>    H       -5.50969         3.33454         3.13341
| 86>    H       -4.06613         0.71053         3.77794
| 87>    H       -6.85714         1.68690         4.62893
| 88>    H       -5.12594        -0.76273         5.23424
| 89>    H       -8.15939        -0.31621         5.39852
| 90>    H       -5.30942        -2.11005         7.05748
| 91>    H       -5.66294        -3.38888         5.89568
| 92>    H       -6.35277        -3.46161         7.51044
| 93>    H       -9.38691        -2.22818         5.84864
| 94>    H       -8.89979        -2.70976         7.48516
| 95>    H       -8.02677        -4.27926         5.12751
| 96>    H       -9.09289        -4.93037         7.80350
| 97>    H       -7.95902        -6.66162         5.52703
| 98>    H       -9.04807        -7.29428         8.33978
| 99>    H       -8.96419        -9.80283         8.95365
|100>    H       -8.24425       -12.07276         7.97395
|101>    H       -7.43679       -13.84014         6.62850
|102>    H       -6.46545       -15.30412         4.74338
|103>    H       -5.52211       -15.12025         2.34187
|104>    H       -3.33584       -12.41081        -3.67058
|105>    H       -4.34706       -13.74919        -3.08917
|106>    H       -2.75076       -13.43782        -2.34353
|107>    H       -4.85924        -9.64279        -1.00564
|108>    H       -6.01262        -9.45270         1.83654
|109>    H       -5.71050        -8.05626         0.68137
|110> *
|111>
|112>                          ****END OF INPUT****

CARTESIAN COORDINATES (ANGSTROEM)
---------------------------------
  C     -6.295940   -1.233890    1.993500
  C     -5.650290   -2.373050    2.441050
  C     -6.311480   -3.419130    3.089420
  N     -6.814620   -4.274660    3.676390
  C     -4.255800   -2.552500    2.423460
  N     -3.123620   -2.746790    2.470690
  C     -7.722820   -0.980530    2.141410
  C     -7.978570    0.368760    1.800230
  C     -9.224200    0.935810    1.890980
  C    -10.274420    0.134490    2.357560
  C    -10.012440   -1.214240    2.685840
  C     -8.753790   -1.792430    2.574690
  S    -11.443070   -2.022930    3.257100
  C    -12.361140   -0.553510    3.048550
  C    -11.635160    0.486180    2.574250
  Br   -14.187990   -0.534180    3.482840
  C     -6.709740    1.016180    1.406080
  O     -6.580740    2.162040    1.028080
  C     -5.672070   -0.031340    1.520550
  C     -4.347260    0.156860    1.192710
  C     -3.691090    1.408800    1.132510
  S     -2.422040    1.686950   -0.033120
  C     -2.269350    3.316970    0.476390
  C     -3.100580    3.645400    1.507160
  C     -3.154950    4.983550    2.162590
  C     -3.899230    2.548410    1.914470
  C     -4.808980    2.516650    3.035590
  C     -4.864350    1.441710    3.847960
  C     -5.982190    1.049920    4.638310
  C     -6.034050   -0.174730    5.210030
  C     -7.232620   -0.822200    5.642930
  C     -7.287000   -2.029480    6.232270
  C     -6.082330   -2.785550    6.701900
  C     -8.606060   -2.734680    6.429400
  N     -8.511020   -4.110390    6.011020
  C     -8.673940   -5.153770    6.828630
  C     -8.386400   -6.448800    6.496580
  C     -8.615140   -7.514980    7.371490
  C     -8.330040   -8.834960    7.111530
  C     -8.538330   -9.932920    7.973880
  C     -8.156930  -11.135350    7.455120
  C     -7.625880  -11.051890    6.150390
  S     -7.624000   -9.395920    5.599210
  C     -7.156590  -12.088550    5.360130
  C     -7.100560  -13.459480    5.680600
  C     -6.586720  -14.237150    4.684750
  C     -6.211060  -13.519420    3.524670
  S     -6.529780  -11.814990    3.745170
  C     -5.675710  -14.055930    2.375770
  C     -5.327720  -13.278660    1.257010
  O     -5.517860  -11.949990    1.327690
  C     -5.122020  -11.383680    0.165780
  C     -4.658350  -12.373020   -0.700520
  C     -4.788340  -13.602960   -0.002880
  C     -4.457450  -14.969870   -0.469750
  F     -4.733350  -15.928910    0.424280
  F     -5.128270  -15.329620   -1.588900
  F     -3.148160  -15.135640   -0.770170
  O     -4.221420  -12.026600   -1.925750
  C     -3.634750  -12.977790   -2.790150
  C     -5.207090   -9.970430   -0.036940
  C     -5.668590   -9.112900    0.874700
  H     -9.385020    1.969010    1.625760
  H     -8.617450   -2.831880    2.817040
  H    -12.041430    1.463060    2.385450
  H     -3.749340   -0.707310    0.927640
  H     -1.561500    3.954250   -0.017410
  H     -2.436480    5.662440    1.711400
  H     -2.937110    4.891040    3.225780
  H     -4.153410    5.406360    2.059360
  H     -5.509690    3.334540    3.133410
  H     -4.066130    0.710530    3.777940
  H     -6.857140    1.686900    4.628930
  H     -5.125940   -0.762730    5.234240
  H     -8.159390   -0.316210    5.398520
  H     -5.309420   -2.110050    7.057480
  H     -5.662940   -3.388880    5.895680
  H     -6.352770   -3.461610    7.510440
  H     -9.386910   -2.228180    5.848640
  H     -8.899790   -2.709760    7.485160
  H     -8.026770   -4.279260    5.127510
  H     -9.092890   -4.930370    7.803500
  H     -7.959020   -6.661620    5.527030
  H     -9.048070   -7.294280    8.339780
  H     -8.964190   -9.802830    8.953650
  H     -8.244250  -12.072760    7.973950
  H     -7.436790  -13.840140    6.628500
  H     -6.465450  -15.304120    4.743380
  H     -5.522110  -15.120250    2.341870
  H     -3.335840  -12.410810   -3.670580
  H     -4.347060  -13.749190   -3.089170
  H     -2.750760  -13.437820   -2.343530
  H     -4.859240   -9.642790   -1.005640
  H     -6.012620   -9.452700    1.836540
  H     -5.710500   -8.056260    0.681370

 Total Charge           Charge          ....    0
 Multiplicity           Mult            ....    1
 Number of Electrons    NEL             ....  492
 Basis Dimension        Dim             .... 1067

ORBITAL ENERGIES
----------------

  NO   OCC          E(Eh)            E(eV)
   0   2.0000    -482.892597    -13140.1756
   1   2.0000     -88.984820     -2421.4000
   2   2.0000     -88.970290     -2421.0047
   3   2.0000     -88.921134     -2419.6671
   4   2.0000     -88.915293     -2419.5081
   5   2.0000     -62.570286     -1702.6240
   6   2.0000     -56.404247     -1534.8376
   7   2.0000     -56.401512     -1534.7632
   8   2.0000     -56.401483     -1534.7624
   9   2.0000     -24.781121      -674.3286
  10   2.0000     -24.773419      -674.1190
  11   2.0000     -24.772936      -674.1059
  12   2.0000     -19.267359      -524.2915
  13   2.0000     -19.231017      -523.3026
  14   2.0000     -19.220620      -523.0197
  15   2.0000     -14.433831      -392.7645
  16   2.0000     -14.429320      -392.6418
  17   2.0000     -14.420353      -392.3978
  18   2.0000     -10.498602      -285.6815
  19   2.0000     -10.370777      -282.2032
  20   2.0000     -10.366921      -282.0983
  21   2.0000     -10.349995      -281.6377
  22   2.0000     -10.344090      -281.4770
  23   2.0000     -10.342608      -281.4367
  24   2.0000     -10.333446      -281.1874
  25   2.0000     -10.333140      -281.1790
  26   2.0000     -10.323508      -280.9169
  27   2.0000     -10.322211      -280.8816
  28   2.0000     -10.316738      -280.7327
  29   2.0000     -10.316705      -280.7318
  30   2.0000     -10.316089      -280.7150
  31   2.0000     -10.315497      -280.6989
  32   2.0000     -10.315170      -280.6900
  33   2.0000     -10.314817      -280.6804
  34   2.0000     -10.314277      -280.6658
  35   2.0000     -10.313102      -280.6338
  36   2.0000     -10.308047      -280.4962
  37   2.0000     -10.304841      -280.4090
  38   2.0000     -10.302922      -280.3568
  39   2.0000     -10.301628      -280.3216
  40   2.0000     -10.300267      -280.2845
  41   2.0000     -10.299041      -280.2511
  42   2.0000     -10.293910      -280.1115
  43   2.0000     -10.293205      -280.0923
  44   2.0000     -10.290800      -280.0269
  45   2.0000     -10.290280      -280.0128
  46   2.0000     -10.288908      -279.9754
  47   2.0000     -10.286531      -279.9107
  48   2.0000     -10.284079      -279.8440
  49   2.0000     -10.283581      -279.8305
  50   2.0000     -10.283429      -279.8263
  51   2.0000     -10.279394      -279.7165
  52   2.0000     -10.276565      -279.6395
  53   2.0000     -10.275159      -279.6013
  54   2.0000     -10.271783      -279.5094
  55   2.0000     -10.270845      -279.4839
  56   2.0000     -10.269130      -279.4372
  57   2.0000     -10.266670      -279.3703
  58   2.0000     -10.263220      -279.2764
  59   2.0000     -10.261201      -279.2215
  60   2.0000     -10.259072      -279.1635
  61   2.0000     -10.251392      -278.9546
  62   2.0000     -10.247461      -278.8476
  63   2.0000     -10.246606      -278.8243
  64   2.0000     -10.245918      -278.8056
  65   2.0000     -10.229769      -278.3662
  66   2.0000      -8.799696      -239.4519
  67   2.0000      -8.080371      -219.8781
  68   2.0000      -8.066295      -219.4950
  69   2.0000      -8.017348      -218.1631
  70   2.0000      -8.010647      -217.9808
  71   2.0000      -6.636058      -180.5763
  72   2.0000      -6.621398      -180.1774
  73   2.0000      -6.621185      -180.1716
  74   2.0000      -6.050081      -164.6311
  75   2.0000      -6.045801      -164.5146
  76   2.0000      -6.041635      -164.4012
  77   2.0000      -6.035564      -164.2360
  78   2.0000      -6.031317      -164.1205
  79   2.0000      -6.028482      -164.0433
  80   2.0000      -5.987019      -162.9151
  81   2.0000      -5.983108      -162.8086
  82   2.0000      -5.980470      -162.7369
  83   2.0000      -5.978308      -162.6780
  84   2.0000      -5.976164      -162.6197
  85   2.0000      -5.971697      -162.4981
  86   2.0000      -2.751894       -74.8829
  87   2.0000      -2.747785       -74.7710
  88   2.0000      -2.747680       -74.7682
  89   2.0000      -2.735999       -74.4503
  90   2.0000      -2.735994       -74.4502
  91   2.0000      -1.365753       -37.1640
  92   2.0000      -1.269325       -34.5401
  93   2.0000      -1.262635       -34.3581
  94   2.0000      -1.190499       -32.3951
  95   2.0000      -1.135361       -30.8947
  96   2.0000      -1.132484       -30.8164
  97   2.0000      -1.038750       -28.2658
  98   2.0000      -1.032158       -28.0864
  99   2.0000      -1.024106       -27.8674
 100   2.0000      -1.007146       -27.4058
 101   2.0000      -1.002722       -27.2855
 102   2.0000      -0.995734       -27.0953
 103   2.0000      -0.968264       -26.3478
 104   2.0000      -0.950097       -25.8534
 105   2.0000      -0.946650       -25.7597
 106   2.0000      -0.933057       -25.3898
 107   2.0000      -0.916746       -24.9459
 108   2.0000      -0.915071       -24.9004
 109   2.0000      -0.907607       -24.6972
 110   2.0000      -0.893793       -24.3213
 111   2.0000      -0.892954       -24.2985
 112   2.0000      -0.886927       -24.1345
 113   2.0000      -0.881840       -23.9961
 114   2.0000      -0.879946       -23.9445
 115   2.0000      -0.871885       -23.7252
 116   2.0000      -0.849893       -23.1268
 117   2.0000      -0.844315       -22.9750
 118   2.0000      -0.836779       -22.7699
 119   2.0000      -0.826256       -22.4836
 120   2.0000      -0.820215       -22.3192
 121   2.0000      -0.811854       -22.0917
 122   2.0000      -0.806015       -21.9328
 123   2.0000      -0.794840       -21.6287
 124   2.0000      -0.793462       -21.5912
 125   2.0000      -0.788936       -21.4681
 126   2.0000      -0.773895       -21.0588
 127   2.0000      -0.767407       -20.8822
 128   2.0000      -0.762902       -20.7596
 129   2.0000      -0.761586       -20.7238
 130   2.0000      -0.757575       -20.6147
 131   2.0000      -0.735611       -20.0170
 132   2.0000      -0.718799       -19.5595
 133   2.0000      -0.708951       -19.2915
 134   2.0000      -0.702280       -19.1100
 135   2.0000      -0.700446       -19.0601
 136   2.0000      -0.690232       -18.7822
 137   2.0000      -0.685254       -18.6467
 138   2.0000      -0.682792       -18.5797
 139   2.0000      -0.667761       -18.1707
 140   2.0000      -0.665269       -18.1029
 141   2.0000      -0.663688       -18.0599
 142   2.0000      -0.658070       -17.9070
 143   2.0000      -0.650732       -17.7073
 144   2.0000      -0.648321       -17.6417
 145   2.0000      -0.644990       -17.5511
 146   2.0000      -0.635568       -17.2947
 147   2.0000      -0.633265       -17.2320
 148   2.0000      -0.628975       -17.1153
 149   2.0000      -0.622203       -16.9310
 150   2.0000      -0.616518       -16.7763
 151   2.0000      -0.605352       -16.4725
 152   2.0000      -0.603395       -16.4192
 153   2.0000      -0.600243       -16.3335
 154   2.0000      -0.597689       -16.2639
 155   2.0000      -0.589427       -16.0391
 156   2.0000      -0.586094       -15.9484
 157   2.0000      -0.579013       -15.7558
 158   2.0000      -0.577947       -15.7267
 159   2.0000      -0.573152       -15.5963
 160   2.0000      -0.563637       -15.3373
 161   2.0000      -0.562075       -15.2949
 162   2.0000      -0.554032       -15.0760
 163   2.0000      -0.552075       -15.0227
 164   2.0000      -0.550364       -14.9762
 165   2.0000      -0.549931       -14.9644
 166   2.0000      -0.545614       -14.8469
 167   2.0000      -0.541986       -14.7482
 168   2.0000      -0.540535       -14.7087
 169   2.0000      -0.534864       -14.5544
 170   2.0000      -0.532410       -14.4876
 171   2.0000      -0.527641       -14.3579
 172   2.0000      -0.524355       -14.2684
 173   2.0000      -0.521789       -14.1986
 174   2.0000      -0.520563       -14.1652
 175   2.0000      -0.518656       -14.1134
 176   2.0000      -0.518350       -14.1050
 177   2.0000      -0.517046       -14.0695
 178   2.0000      -0.513264       -13.9666
 179   2.0000      -0.511852       -13.9282
 180   2.0000      -0.511228       -13.9112
 181   2.0000      -0.509416       -13.8619
 182   2.0000      -0.502570       -13.6756
 183   2.0000      -0.500315       -13.6143
 184   2.0000      -0.496932       -13.5222
 185   2.0000      -0.495873       -13.4934
 186   2.0000      -0.491966       -13.3871
 187   2.0000      -0.487606       -13.2684
 188   2.0000      -0.482271       -13.1233
 189   2.0000      -0.482024       -13.1165
 190   2.0000      -0.481003       -13.0888
 191   2.0000      -0.480153       -13.0656
 192   2.0000      -0.474285       -12.9060
 193   2.0000      -0.471439       -12.8285
 194   2.0000      -0.470255       -12.7963
 195   2.0000      -0.467596       -12.7239
 196   2.0000      -0.466346       -12.6899
 197   2.0000      -0.464058       -12.6277
 198   2.0000      -0.462548       -12.5866
 199   2.0000      -0.462352       -12.5812
 200   2.0000      -0.462177       -12.5765
 201   2.0000      -0.458505       -12.4766
 202   2.0000      -0.456216       -12.4143
 203   2.0000      -0.453565       -12.3421
 204   2.0000      -0.452011       -12.2998
 205   2.0000      -0.448868       -12.2143
 206   2.0000      -0.446659       -12.1542
 207   2.0000      -0.446483       -12.1494
 208   2.0000      -0.443573       -12.0702
 209   2.0000      -0.442029       -12.0282
 210   2.0000      -0.437424       -11.9029
 211   2.0000      -0.436568       -11.8796
 212   2.0000      -0.435812       -11.8590
 213   2.0000      -0.432382       -11.7657
 214   2.0000      -0.430581       -11.7167
 215   2.0000      -0.428359       -11.6562
 216   2.0000      -0.426359       -11.6018
 217   2.0000      -0.421235       -11.4624
 218   2.0000      -0.415591       -11.3088
 219   2.0000      -0.411798       -11.2056
 220   2.0000      -0.411025       -11.1846
 221   2.0000      -0.409627       -11.1465
 222   2.0000      -0.406350       -11.0573
 223   2.0000      -0.395613       -10.7652
 224   2.0000      -0.395494       -10.7619
 225   2.0000      -0.385801       -10.4982
 226   2.0000      -0.383530       -10.4364
 227   2.0000      -0.381894       -10.3919
 228   2.0000      -0.377615       -10.2754
 229   2.0000      -0.366699        -9.9784
 230   2.0000      -0.364008        -9.9052
 231   2.0000      -0.354969        -9.6592
 232   2.0000      -0.353322        -9.6144
 233   2.0000      -0.345432        -9.3997
 234   2.0000      -0.328332        -8.9344
 235   2.0000      -0.326725        -8.8906
 236   2.0000      -0.321895        -8.7592
 237   2.0000      -0.314217        -8.5503
 238   2.0000      -0.310130        -8.4391
 239   2.0000      -0.302618        -8.2347
 240   2.0000      -0.295477        -8.0403
 241   2.0000      -0.291776        -7.9396
 242   2.0000      -0.268114        -7.2958
 243   2.0000      -0.262787        -7.1508
 244   2.0000      -0.228392        -6.2149
 245   2.0000      -0.176373        -4.7994
 246   0.0000      -0.101306        -2.7567
 247   0.0000      -0.073393        -1.9971
 248   0.0000      -0.049169        -1.3380
 249   0.0000      -0.031111        -0.8466
 250   0.0000      -0.017702        -0.4817

MULLIKEN ATOMIC CHARGES
-----------------------
   0 C :    0.332304
   1 C :   -0.371426
   2 C :   -0.108275
   3 N :    0.092552
   4 C :   -0.215738
   5 N :    0.168272
   6 C :    0.025295
   7 C :   -0.010346
   8 C :   -0.083782
   9 C :    0.121500
  10 C :   -0.098272
  11 C :   -0.032351
  12 S :    0.186294
  13 C :   -0.125538
  14 C :    0.038951
  15 Br:    0.027983
  16 C :    0.151784
  17 O :   -0.142845
  18 C :   -0.129171
  19 C :    0.012543
  20 C :   -0.170648
  21 S :    0.146881
  22 C :   -0.103447
  23 C :   -0.088814
  24 C :    0.120604
  25 C :    0.148508
  26 C :   -0.048535
  27 C :    0.036998
  28 C :   -0.011222
  29 C :    0.014398
  30 C :    0.002078
  31 C :   -0.228637
  32 C :    0.100762
  33 C :    0.242660
  34 N :   -0.156522
  35 C :    0.049507
  36 C :   -0.034680
  37 C :    0.004042
  38 C :   -0.048544
  39 C :    0.048735
  40 C :   -0.001629
  41 C :   -0.030246
  42 S :    0.073455
  43 C :   -0.062426
  44 C :    0.031319
  45 C :    0.005997
  46 C :    0.008110
  47 S :    0.093641
  48 C :   -0.105501
  49 C :    0.140116
  50 O :   -0.217636
  51 C :    0.066132
  52 C :    0.147988
  53 C :   -0.172238
  54 C :    0.500150
  55 F :   -0.153312
  56 F :   -0.173561
  57 F :   -0.174711
  58 O :   -0.306533
  59 C :    0.186341
  60 C :   -0.027724
  61 C :   -0.013986
  62 H :   -0.012290
  63 H :   -0.015221
  64 H :   -0.002494
  65 H :    0.040519
  66 H :    0.028431
  67 H :    0.012092
  68 H :    0.034709
  69 H :    0.034515
  70 H :    0.009124
  71 H :    0.011623
  72 H :   -0.008919
  73 H :    0.004053
  74 H :   -0.023811
  75 H :    0.029598
  76 H :    0.041429
  77 H :    0.019353
  78 H :   -0.001628
  79 H :    0.024204
  80 H :    0.132654
  81 H :   -0.005798
  82 H :    0.004650
  83 H :   -0.026567
  84 H :   -0.024427
  85 H :   -0.024112
  86 H :   -0.025495
  87 H :   -0.023129
  88 H :   -0.011313
  89 H :    0.026409
  90 H :    0.029479
  91 H :    0.026947
  92 H :   -0.009648
  93 H :    0.020828
  94 H :    0.006628
Sum of atomic charges:   -0.0000000

LOEWDIN ATOMIC CHARGES
----------------------
   0 C :    0.088257
   1 C :   -0.165027
   2 C :    0.029754
   3 N :   -0.076334
   4 C :   -0.029850
   5 N :   -0.052974
   6 C :   -0.017406
   7 C :   -0.045077
   8 C :    0.016857
   9 C :   -0.034135
  10 C :   -0.148498
  11 C :   -0.012841
  12 S :    0.431369
  13 C :   -0.270960
  14 C :   -0.069765
  15 Br:    0.139135
  16 C :    0.085562
  17 O :   -0.136679
  18 C :   -0.106133
  19 C :    0.071978
  20 C :   -0.186551
  21 S :    0.453612
  22 C :   -0.159302
  23 C :   -0.057464
  24 C :   -0.041799
  25 C :   -0.004175
  26 C :   -0.031943
  27 C :   -0.007048
  28 C :   -0.035287
  29 C :   -0.005763
  30 C :   -0.059435
  31 C :   -0.018821
  32 C :   -0.054202
  33 C :    0.046425
  34 N :    0.010768
  35 C :    0.053526
  36 C :   -0.125870
  37 C :   -0.021117
  38 C :   -0.189152
  39 C :   -0.022518
  40 C :   -0.062232
  41 C :   -0.155944
  42 S :    0.367817
  43 C :   -0.216320
  44 C :   -0.026449
  45 C :   -0.061283
  46 C :   -0.125877
  47 S :    0.391344
  48 C :   -0.122699
  49 C :    0.062927
  50 O :    0.019034
  51 C :   -0.019583
  52 C :    0.028388
  53 C :   -0.186446
  54 C :    0.175584
  55 F :   -0.051088
  56 F :   -0.074305
  57 F :   -0.074988
  58 O :   -0.099302
  59 C :    0.072782
  60 C :   -0.037657
  61 C :   -0.062978
  62 H :    0.040222
  63 H :    0.036412
  64 H :    0.039410
  65 H :    0.046490
  66 H :    0.027541
  67 H :    0.033923
  68 H :    0.039829
  69 H :    0.039721
  70 H :    0.032098
  71 H :    0.031141
  72 H :    0.026930
  73 H :    0.029780
  74 H :    0.025117
  75 H :    0.034018
  76 H :    0.042367
  77 H :    0.035798
  78 H :    0.017958
  79 H :    0.033721
  80 H :    0.058169
  81 H :    0.023212
  82 H :    0.025629
  83 H :    0.028688
  84 H :    0.029066
  85 H :    0.027106
  86 H :    0.027029
  87 H :    0.028217
  88 H :    0.032416
  89 H :    0.025558
  90 H :    0.013464
  91 H :    0.014133
  92 H :    0.035151
  93 H :    0.018808
  94 H :    0.019037

  Mayer bond orders larger than 0.100000
B(  0-C ,  1-C ) :   1.5652 B(  0-C ,  6-C ) :   0.9958 B(  0-C , 18-C ) :   1.1275
B(  1-C ,  2-C ) :   1.1978 B(  1-C ,  4-C ) :   1.1499 B(  2-C ,  3-N ) :   2.8319
B(  3-N , 80-H ) :   0.1086 B(  4-C ,  5-N ) :   2.9906 B(  6-C ,  7-C ) :   1.2773
B(  6-C , 11-C ) :   1.4055 B(  7-C ,  8-C ) :   1.4297 B(  7-C , 16-C ) :   0.9299
B(  8-C ,  9-C ) :   1.2311 B(  8-C , 62-H ) :   1.0173 B(  9-C , 10-C ) :   1.3167
B(  9-C , 14-C ) :   1.1606 B( 10-C , 11-C ) :   1.3202 B( 10-C , 12-S ) :   1.0815
B( 11-C , 63-H ) :   0.9842 B( 12-S , 13-C ) :   1.0868 B( 13-C , 14-C ) :   1.6180
B( 13-C , 15-Br) :   1.0212 B( 14-C , 64-H ) :   1.0001 B( 16-C , 17-O ) :   2.2219
B( 16-C , 18-C ) :   0.9604 B( 18-C , 19-C ) :   1.5304 B( 19-C , 20-C ) :   1.1821
B( 19-C , 65-H ) :   0.9377 B( 20-C , 21-S ) :   1.1014 B( 20-C , 25-C ) :   1.4189
B( 21-S , 22-C ) :   1.1795 B( 22-C , 23-C ) :   1.5380 B( 22-C , 66-H ) :   0.9660
B( 23-C , 24-C ) :   1.0962 B( 23-C , 25-C ) :   1.2866 B( 24-C , 67-H ) :   0.9506
B( 24-C , 68-H ) :   0.9441 B( 24-C , 69-H ) :   0.9450 B( 25-C , 26-C ) :   1.0707
B( 26-C , 27-C ) :   1.7328 B( 26-C , 70-H ) :   0.9396 B( 27-C , 28-C ) :   1.1229
B( 27-C , 71-H ) :   0.9666 B( 28-C , 29-C ) :   1.6752 B( 28-C , 72-H ) :   0.9872
B( 29-C , 30-C ) :   1.1099 B( 29-C , 73-H ) :   0.9672 B( 30-C , 31-C ) :   1.7614
B( 30-C , 74-H ) :   0.9681 B( 31-C , 32-C ) :   1.0749 B( 31-C , 33-C ) :   1.0381
B( 32-C , 75-H ) :   0.9456 B( 32-C , 76-H ) :   0.9365 B( 32-C , 77-H ) :   0.9473
B( 33-C , 34-N ) :   1.0117 B( 33-C , 78-H ) :   0.9359 B( 33-C , 79-H ) :   0.9204
B( 34-N , 35-C ) :   1.2712 B( 34-N , 80-H ) :   0.8948 B( 35-C , 36-C ) :   1.5493
B( 35-C , 81-H ) :   0.9674 B( 36-C , 37-C ) :   1.2011 B( 36-C , 82-H ) :   0.9679
B( 37-C , 38-C ) :   1.5461 B( 37-C , 83-H ) :   0.9763 B( 38-C , 39-C ) :   1.1690
B( 38-C , 42-S ) :   1.0098 B( 39-C , 40-C ) :   1.5626 B( 39-C , 84-H ) :   0.9969
B( 40-C , 41-C ) :   1.2047 B( 40-C , 85-H ) :   0.9946 B( 41-C , 42-S ) :   1.0702
B( 41-C , 43-C ) :   1.4768 B( 43-C , 44-C ) :   1.2169 B( 43-C , 47-S ) :   1.0058
B( 44-C , 45-C ) :   1.5606 B( 44-C , 86-H ) :   0.9933 B( 45-C , 46-C ) :   1.1621
B( 45-C , 87-H ) :   1.0002 B( 46-C , 47-S ) :   1.0714 B( 46-C , 48-C ) :   1.5116
B( 48-C , 49-C ) :   1.2251 B( 48-C , 88-H ) :   0.9633 B( 49-C , 50-O ) :   1.1639
B( 49-C , 53-C ) :   1.3557 B( 50-O , 51-C ) :   1.0893 B( 51-C , 52-C ) :   1.4321
B( 51-C , 60-C ) :   1.1529 B( 52-C , 53-C ) :   1.2264 B( 52-C , 58-O ) :   1.2128
B( 53-C , 54-C ) :   0.9647 B( 54-C , 55-F ) :   1.1482 B( 54-C , 56-F ) :   1.1464
B( 54-C , 57-F ) :   1.1441 B( 58-O , 59-C ) :   0.9379 B( 59-C , 89-H ) :   0.9773
B( 59-C , 90-H ) :   0.9638 B( 59-C , 91-H ) :   0.9657 B( 60-C , 61-C ) :   1.8797
B( 60-C , 92-H ) :   0.9550 B( 61-C , 93-H ) :   0.9558 B( 61-C , 94-H ) :   0.9469

-----------------------------------------------------------------------------
         ABSORPTION SPECTRUM VIA TRANSITION ELECTRIC DIPOLE MOMENTS
-----------------------------------------------------------------------------
State   Energy  Wavelength   fosc         T2         TX        TY        TZ
        (cm-1)    (nm)                  (au**2)     (au)      (au)      (au)
-----------------------------------------------------------------------------
   0    5928.9   1686.7   0.016885953   0.93763  -0.05073  -0.95754   0.13477
   1   12257.5    815.8   0.035559616   0.95506   0.13265  -0.92783  -0.27675
   2   14224.5    703.0   0.892383462  20.65339   1.55471  -3.25557  -2.76361
   3   15659.4    638.6   0.158435255   3.33083  -0.25171  -1.10307  -1.43203
   4   17197.9    581.5   0.027399714   0.52450   0.47068   0.52521  -0.16468
   5   20893.1    478.6   0.024551600   0.38686   0.56460   0.13092   0.22571
   6   21247.0    470.7   0.023126226   0.35833   0.34655   0.35405  -0.33597
   7   22856.3    437.5   0.424171893   6.10959   0.87299   2.03152  -1.10472
   8   23145.4    432.1   0.128204546   1.82354  -0.96522  -0.53576   0.77771
   9   23699.0    422.0   0.047094325   0.65421  -0.25783  -0.64996   0.40654
  10   24587.6    406.7   0.007691119   0.10298   0.04580  -0.29881   0.10768
  11   25296.0    395.3   0.004069263   0.05296   0.08803   0.20013  -0.07181
  12   26332.8    379.8   0.057309591   0.71648  -0.82156   0.11481  -0.16835
  13   27185.9    367.8   0.180978493   2.19159   1.07982  -0.97710   0.26617
  14   27741.6    360.5   0.930254151  11.03939  -0.26079  -3.08086   1.21642
  15   28957.9    345.3   0.230790245   2.62377   1.58837   0.15885  -0.27499
  16   29372.3    340.5   0.011001732   0.12331  -0.34725  -0.05214   0.00313
  17   29945.4    333.9   0.007176662   0.07890  -0.01615   0.26984  -0.07633
  18   30257.1    330.5   0.014139501   0.15384  -0.03038  -0.37292   0.11771
  19   30661.6    326.1   0.281688160   3.02447   0.28734   1.43009  -0.94697
  20   31253.2    320.0   0.041222484   0.43423  -0.48990  -0.15652   0.41198
  21   31604.9    316.4   0.035104914   0.36567  -0.45664   0.38731  -0.08449
  22   31951.6    313.0   0.203465810   2.09640   1.11168  -0.91776   0.13524
  23   32086.1    311.7   0.048471515   0.49733   0.53571  -0.44110   0.12560
  24   32198.8    310.6   0.031568305   0.32277  -0.54900  -0.04218   0.13996
  25   32728.6    305.5   0.027591241   0.27754   0.51763  -0.07616  -0.06161
  26   33344.1    299.9   0.019435626   0.19189   0.17984  -0.39925  -0.01222
  27   33390.6    299.5   0.024236475   0.23896   0.02350  -0.48670   0.03909
  28   33880.9    295.2   0.812213450   7.89207  -2.54186  -0.61701   1.02486
  29   35002.4    285.7   0.101993723   0.95929  -0.19044  -0.86291   0.42239
  30   35033.5    285.4   0.000487404   0.00458  -0.00213   0.05004  -0.04552
  31   35443.4    282.1   0.030616185   0.28437  -0.20527  -0.46316  -0.16650
  32   35829.2    279.1   0.014359450   0.13194  -0.18362  -0.31153  -0.03428
  33   36229.7    276.0   0.015949923   0.14493   0.35698   0.12817  -0.03277
  34   36341.9    275.2   0.007753069   0.07023  -0.16963   0.13900   0.14879
  35   36636.0    273.0   0.007983251   0.07174  -0.17785  -0.12979  -0.15252
  36   36648.2    272.9   0.014125872   0.12689  -0.24675  -0.25288  -0.04540
  37   36852.8    271.3   0.001829116   0.01634   0.09513  -0.04809   0.07055
  38   37156.9    269.1   0.001399633   0.01240  -0.06328  -0.02735   0.08745
  39   37768.0    264.8   0.000609522   0.00531  -0.00950  -0.04619   0.05558
  40   38600.5    259.1   0.021511850   0.18347  -0.28052   0.16693  -0.27733
  41   38751.0    258.1   0.099207047   0.84282  -0.26991   0.56046   0.67517
  42   38830.0    257.5   0.165063276   1.39945   0.62728   0.22820  -0.97668
  43   39095.3    255.8   0.238280727   2.00651   0.11470   1.38446  -0.27681
  44   39219.2    255.0   0.090602690   0.76053   0.06910   0.81529  -0.30177
  45   39370.7    254.0   0.021351730   0.17854  -0.02531  -0.41349   0.08324
  46   39423.3    253.7   0.033301827   0.27809   0.00081   0.52317   0.06619
  47   39815.7    251.2   0.025959921   0.21465   0.15224   0.34796  -0.26532
  48   39898.2    250.6   0.260991371   2.15352  -0.37025  -1.14138   0.84479

FINAL SINGLE POINT ENERGY     -6701.359894004200

DIPOLE MOMENT
-------------
                                X             Y             Z
Electronic contribution:    -82.85598      -2.48369     -27.10608
Nuclear contribution   :     81.53349       8.42035      28.34849
                        -----------------------------------------
Total Dipole Moment    :     -1.32249       5.93667       1.24241
                        -----------------------------------------
Magnitude (a.u.)       :      6.20778
Magnitude (Debye)      :     15.77893

Rotational constants in cm-1:     0.001139     0.000410     0.000350
Rotational constants in MHz :    34.156872    12.278341    10.494895

                             ****ORCA TERMINATED NORMALLY****
TOTAL RUN TIME: 0 days 0 hours 9 minutes 16 seconds 938 msec
