                         Program Version 4.2.0 -  RELEASE  -
|  1> # ORCA input file
|  2> # SCF done       -151.694134624439          0.000996547998
|  3> ! CAM-B3LYP def2-SVP def2/J RIJCOSX Grid4 TightSCF
|  4> %maxcore 5000
|  5> %tddft
|  6>     Mode sTDDFT
|  7>     Ethresh 5.0
|  8>     maxcore 5000
|  9> end
| 10>
| 11> %pal
| 12>   nprocs 6
| 13>   end
| 14> * xyz 0 1
| 15>    C      -11.52490        -8.96448        -7.46475
| 16>    C      -10.51838        -9.10974        -6.53539
| 17>    C       -9.41287        -9.96678        -6.69431
| 18>    N       -8.48634       -10.64427        -6.75833
| 19>    C      -10.42927        -8.44632        -5.29590
| 20>    N      -10.26432        -7.96008        -4.26711
| 21>    C      -11.59351        -9.67551        -8.74130
| 22>    C      -12.77321        -9.28019        -9.41657
| 23>    C      -13.12123        -9.77095       -10.64993
| 24>    C      -12.26120       -10.69776       -11.25063
| 25>    C      -11.08631       -11.08690       -10.56890
| 26>    C      -10.73521       -10.59095        -9.31836
| 27>    S      -10.16480       -12.23903       -11.48932
| 28>    C      -11.35651       -12.18012       -12.76066
| 29>    C      -12.39068       -11.34333       -12.51152
| 30>   Br      -11.12131       -13.22955       -14.29871
| 31>    C      -13.49995        -8.29302        -8.58655
| 32>    O      -14.55434        -7.75647        -8.87015
| 33>    C      -12.68159        -8.11503        -7.37537
| 34>    C      -12.98349        -7.24718        -6.34221
| 35>    C      -14.09851        -6.42195        -6.27660
| 36>    C      -14.30924        -5.55327        -5.21881
| 37>    C      -15.38860        -4.65697        -5.04926
| 38>    C      -15.31482        -3.90552        -3.91094
| 39>    C      -14.17407        -4.17577        -3.12761
| 40>    S      -13.19904        -5.41994        -3.87686
| 41>    C      -13.75930        -3.60668        -1.93689
| 42>    C      -14.37298        -2.57485        -1.18953
| 43>    C      -13.67248        -2.23638        -0.07292
| 44>    C      -12.48019        -2.98565         0.11129
| 45>    S      -12.27438        -4.15126        -1.17533
| 46>    C      -11.55624        -2.87332         1.11480
| 47>    C      -10.41971        -3.72353         1.12350
| 48>    C       -9.38264        -3.70266         2.07397
| 49>    N       -8.36451        -4.52568         2.02472
| 50>    C       -8.31974        -5.43225         1.02781
| 51>    C       -9.34988        -5.44784         0.06053
| 52>    N      -10.35219        -4.61815         0.11769
| 53>    C       -7.23896        -6.36187         0.97313
| 54>    S       -7.20685        -7.57746        -0.27120
| 55>    C       -5.73397        -8.25829         0.35395
| 56>    C       -5.28686        -7.54295         1.45736
| 57>    C       -6.13929        -6.48414         1.81207
| 58>    C       -5.86512        -5.57386         2.96355
| 59>    C       -4.77626        -6.13460         3.87257
| 60>    C       -3.58157        -6.61622         3.03849
| 61>    N       -2.41446        -6.99803         3.81633
| 62>    C       -4.01518        -7.81757         2.19456
| 63>    C       -5.22358        -9.40310        -0.32463
| 64>    C       -4.27671       -10.26766         0.10051
| 65>    C       -3.87869       -11.39796        -0.68278
| 66>    C       -2.97891       -12.32615        -0.31583
| 67>    C       -2.22685       -12.30395         0.97870
| 68>    C       -2.67829       -13.50030        -1.20950
| 69>    N       -1.25756       -13.59728        -1.45606
| 70>    C       -0.66354       -14.80004        -1.75676
| 71>    C        0.49369       -14.94219        -2.39305
| 72>    H      -14.02678        -9.44853       -11.13969
| 73>    H       -9.82725       -10.92004        -8.84171
| 74>    H      -13.21182       -11.18577       -13.18680
| 75>    H      -12.29024        -7.18852        -5.51187
| 76>    H      -14.82356        -6.44520        -7.07694
| 77>    H      -16.18183        -4.59257        -5.77290
| 78>    H      -16.04516        -3.17124        -3.62050
| 79>    H      -15.29636        -2.11078        -1.48910
| 80>    H      -13.96720        -1.47299         0.62620
| 81>    H      -11.68127        -2.14428         1.90041
| 82>    H       -9.38548        -2.99309         2.89144
| 83>    H       -9.34380        -6.14745        -0.76442
| 84>    H       -6.78797        -5.40342         3.51947
| 85>    H       -5.55710        -4.60118         2.56812
| 86>    H       -5.16993        -6.97574         4.45005
| 87>    H       -4.45555        -5.36292         4.57678
| 88>    H       -3.26693        -5.80595         2.36987
| 89>    H       -2.66360        -7.71128         4.49474
| 90>    H       -2.05135        -6.20125         4.32760
| 91>    H       -4.15326        -8.67687         2.86010
| 92>    H       -3.21804        -8.06567         1.49174
| 93>    H       -5.70192        -9.60281        -1.27637
| 94>    H       -3.81379       -10.14598         1.06487
| 95>    H       -4.36971       -11.50054        -1.64276
| 96>    H       -1.86625       -11.30593         1.21453
| 97>    H       -1.37577       -12.97725         0.92065
| 98>    H       -2.87121       -12.63215         1.79461
| 99>    H       -3.25806       -13.42116        -2.14222
|100>    H       -2.98669       -14.42118        -0.70026
|101>    H       -0.86276       -12.79977        -1.93525
|102>    H       -1.19412       -15.65998        -1.36820
|103>    H        1.03340       -14.09643        -2.78361
|104>    H        0.94087       -15.90851        -2.52548
|105> *
|106>
|107>                          ****END OF INPUT****

CARTESIAN COORDINATES (ANGSTROEM)
---------------------------------
  C    -11.524900   -8.964480   -7.464750
  C    -10.518380   -9.109740   -6.535390
  C     -9.412870   -9.966780   -6.694310
  N     -8.486340  -10.644270   -6.758330
  C    -10.429270   -8.446320   -5.295900
  N    -10.264320   -7.960080   -4.267110
  C    -11.593510   -9.675510   -8.741300
  C    -12.773210   -9.280190   -9.416570
  C    -13.121230   -9.770950  -10.649930
  C    -12.261200  -10.697760  -11.250630
  C    -11.086310  -11.086900  -10.568900
  C    -10.735210  -10.590950   -9.318360
  S    -10.164800  -12.239030  -11.489320
  C    -11.356510  -12.180120  -12.760660
  C    -12.390680  -11.343330  -12.511520
  Br   -11.121310  -13.229550  -14.298710
  C    -13.499950   -8.293020   -8.586550
  O    -14.554340   -7.756470   -8.870150
  C    -12.681590   -8.115030   -7.375370
  C    -12.983490   -7.247180   -6.342210
  C    -14.098510   -6.421950   -6.276600
  C    -14.309240   -5.553270   -5.218810
  C    -15.388600   -4.656970   -5.049260
  C    -15.314820   -3.905520   -3.910940
  C    -14.174070   -4.175770   -3.127610
  S    -13.199040   -5.419940   -3.876860
  C    -13.759300   -3.606680   -1.936890
  C    -14.372980   -2.574850   -1.189530
  C    -13.672480   -2.236380   -0.072920
  C    -12.480190   -2.985650    0.111290
  S    -12.274380   -4.151260   -1.175330
  C    -11.556240   -2.873320    1.114800
  C    -10.419710   -3.723530    1.123500
  C     -9.382640   -3.702660    2.073970
  N     -8.364510   -4.525680    2.024720
  C     -8.319740   -5.432250    1.027810
  C     -9.349880   -5.447840    0.060530
  N    -10.352190   -4.618150    0.117690
  C     -7.238960   -6.361870    0.973130
  S     -7.206850   -7.577460   -0.271200
  C     -5.733970   -8.258290    0.353950
  C     -5.286860   -7.542950    1.457360
  C     -6.139290   -6.484140    1.812070
  C     -5.865120   -5.573860    2.963550
  C     -4.776260   -6.134600    3.872570
  C     -3.581570   -6.616220    3.038490
  N     -2.414460   -6.998030    3.816330
  C     -4.015180   -7.817570    2.194560
  C     -5.223580   -9.403100   -0.324630
  C     -4.276710  -10.267660    0.100510
  C     -3.878690  -11.397960   -0.682780
  C     -2.978910  -12.326150   -0.315830
  C     -2.226850  -12.303950    0.978700
  C     -2.678290  -13.500300   -1.209500
  N     -1.257560  -13.597280   -1.456060
  C     -0.663540  -14.800040   -1.756760
  C      0.493690  -14.942190   -2.393050
  H    -14.026780   -9.448530  -11.139690
  H     -9.827250  -10.920040   -8.841710
  H    -13.211820  -11.185770  -13.186800
  H    -12.290240   -7.188520   -5.511870
  H    -14.823560   -6.445200   -7.076940
  H    -16.181830   -4.592570   -5.772900
  H    -16.045160   -3.171240   -3.620500
  H    -15.296360   -2.110780   -1.489100
  H    -13.967200   -1.472990    0.626200
  H    -11.681270   -2.144280    1.900410
  H     -9.385480   -2.993090    2.891440
  H     -9.343800   -6.147450   -0.764420
  H     -6.787970   -5.403420    3.519470
  H     -5.557100   -4.601180    2.568120
  H     -5.169930   -6.975740    4.450050
  H     -4.455550   -5.362920    4.576780
  H     -3.266930   -5.805950    2.369870
  H     -2.663600   -7.711280    4.494740
  H     -2.051350   -6.201250    4.327600
  H     -4.153260   -8.676870    2.860100
  H     -3.218040   -8.065670    1.491740
  H     -5.701920   -9.602810   -1.276370
  H     -3.813790  -10.145980    1.064870
  H     -4.369710  -11.500540   -1.642760
  H     -1.866250  -11.305930    1.214530
  H     -1.375770  -12.977250    0.920650
  H     -2.871210  -12.632150    1.794610
  H     -3.258060  -13.421160   -2.142220
  H     -2.986690  -14.421180   -0.700260
  H     -0.862760  -12.799770   -1.935250
  H     -1.194120  -15.659980   -1.368200
  H      1.033400  -14.096430   -2.783610
  H      0.940870  -15.908510   -2.525480

 Total Charge           Charge          ....    0
 Multiplicity           Mult            ....    1
 Number of Electrons    NEL             ....  452
 Basis Dimension        Dim             ....  997

ORBITAL ENERGIES
----------------

  NO   OCC          E(Eh)            E(eV)
   0   2.0000    -482.875435    -13139.7086
   1   2.0000     -88.963038     -2420.8073
   2   2.0000     -88.951670     -2420.4980
   3   2.0000     -88.949440     -2420.4373
   4   2.0000     -88.945613     -2420.3332
   5   2.0000     -62.553167     -1702.1582
   6   2.0000     -56.387102     -1534.3711
   7   2.0000     -56.384415     -1534.2979
   8   2.0000     -56.384372     -1534.2968
   9   2.0000     -19.196773      -522.3708
  10   2.0000     -14.428608      -392.6224
  11   2.0000     -14.420898      -392.4126
  12   2.0000     -14.402153      -391.9025
  13   2.0000     -14.399321      -391.8254
  14   2.0000     -14.396311      -391.7435
  15   2.0000     -14.376254      -391.1978
  16   2.0000     -10.347035      -281.5571
  17   2.0000     -10.346590      -281.5450
  18   2.0000     -10.327016      -281.0124
  19   2.0000     -10.322364      -280.8858
  20   2.0000     -10.321290      -280.8566
  21   2.0000     -10.320632      -280.8387
  22   2.0000     -10.319852      -280.8175
  23   2.0000     -10.318909      -280.7918
  24   2.0000     -10.318078      -280.7692
  25   2.0000     -10.315394      -280.6961
  26   2.0000     -10.315246      -280.6921
  27   2.0000     -10.312854      -280.6270
  28   2.0000     -10.310824      -280.5718
  29   2.0000     -10.303363      -280.3688
  30   2.0000     -10.301654      -280.3223
  31   2.0000     -10.301067      -280.3063
  32   2.0000     -10.299076      -280.2521
  33   2.0000     -10.295866      -280.1648
  34   2.0000     -10.295555      -280.1563
  35   2.0000     -10.294403      -280.1250
  36   2.0000     -10.293566      -280.1022
  37   2.0000     -10.293292      -280.0947
  38   2.0000     -10.292830      -280.0821
  39   2.0000     -10.291302      -280.0406
  40   2.0000     -10.289548      -279.9928
  41   2.0000     -10.289411      -279.9891
  42   2.0000     -10.289332      -279.9870
  43   2.0000     -10.285417      -279.8804
  44   2.0000     -10.285388      -279.8796
  45   2.0000     -10.284917      -279.8668
  46   2.0000     -10.282876      -279.8113
  47   2.0000     -10.275084      -279.5993
  48   2.0000     -10.275062      -279.5986
  49   2.0000     -10.273021      -279.5431
  50   2.0000     -10.272580      -279.5311
  51   2.0000     -10.270086      -279.4632
  52   2.0000     -10.269204      -279.4393
  53   2.0000     -10.269075      -279.4357
  54   2.0000     -10.268116      -279.4097
  55   2.0000     -10.261824      -279.2384
  56   2.0000     -10.256338      -279.0891
  57   2.0000     -10.256159      -279.0843
  58   2.0000     -10.253351      -279.0079
  59   2.0000     -10.251709      -278.9632
  60   2.0000     -10.221856      -278.1508
  61   2.0000      -8.782606      -238.9868
  62   2.0000      -8.058910      -219.2941
  63   2.0000      -8.047684      -218.9886
  64   2.0000      -8.042688      -218.8527
  65   2.0000      -8.041257      -218.8137
  66   2.0000      -6.618851      -180.1081
  67   2.0000      -6.604336      -179.7131
  68   2.0000      -6.604210      -179.7097
  69   2.0000      -6.028612      -164.0469
  70   2.0000      -6.024344      -163.9307
  71   2.0000      -6.020168      -163.8171
  72   2.0000      -6.017246      -163.7376
  73   2.0000      -6.013167      -163.6266
  74   2.0000      -6.012918      -163.6198
  75   2.0000      -6.010410      -163.5516
  76   2.0000      -6.008949      -163.5118
  77   2.0000      -6.007892      -163.4830
  78   2.0000      -6.006491      -163.4449
  79   2.0000      -6.003777      -163.3711
  80   2.0000      -6.003405      -163.3610
  81   2.0000      -2.734717       -74.4154
  82   2.0000      -2.730690       -74.3059
  83   2.0000      -2.730517       -74.3011
  84   2.0000      -2.719014       -73.9881
  85   2.0000      -2.719003       -73.9878
  86   2.0000      -1.109815       -30.1996
  87   2.0000      -1.083600       -29.4863
  88   2.0000      -1.011791       -27.5322
  89   2.0000      -1.007294       -27.4099
  90   2.0000      -1.005198       -27.3528
  91   2.0000      -1.000212       -27.2172
  92   2.0000      -0.997054       -27.1312
  93   2.0000      -0.983015       -26.7492
  94   2.0000      -0.978706       -26.6319
  95   2.0000      -0.976780       -26.5795
  96   2.0000      -0.972080       -26.4516
  97   2.0000      -0.964092       -26.2343
  98   2.0000      -0.928329       -25.2611
  99   2.0000      -0.914686       -24.8899
 100   2.0000      -0.908048       -24.7092
 101   2.0000      -0.900301       -24.4984
 102   2.0000      -0.892671       -24.2908
 103   2.0000      -0.887156       -24.1407
 104   2.0000      -0.881371       -23.9833
 105   2.0000      -0.870981       -23.7006
 106   2.0000      -0.868017       -23.6200
 107   2.0000      -0.858203       -23.3529
 108   2.0000      -0.851872       -23.1806
 109   2.0000      -0.836671       -22.7670
 110   2.0000      -0.830823       -22.6078
 111   2.0000      -0.822262       -22.3749
 112   2.0000      -0.814768       -22.1710
 113   2.0000      -0.814010       -22.1503
 114   2.0000      -0.803247       -21.8575
 115   2.0000      -0.799305       -21.7502
 116   2.0000      -0.781267       -21.2593
 117   2.0000      -0.769482       -20.9387
 118   2.0000      -0.754693       -20.5362
 119   2.0000      -0.749758       -20.4019
 120   2.0000      -0.743748       -20.2384
 121   2.0000      -0.739741       -20.1294
 122   2.0000      -0.725168       -19.7328
 123   2.0000      -0.710811       -19.3422
 124   2.0000      -0.702971       -19.1288
 125   2.0000      -0.693009       -18.8577
 126   2.0000      -0.680330       -18.5127
 127   2.0000      -0.678834       -18.4720
 128   2.0000      -0.674011       -18.3408
 129   2.0000      -0.663989       -18.0680
 130   2.0000      -0.659453       -17.9446
 131   2.0000      -0.654945       -17.8219
 132   2.0000      -0.646028       -17.5793
 133   2.0000      -0.643039       -17.4980
 134   2.0000      -0.637374       -17.3438
 135   2.0000      -0.633934       -17.2502
 136   2.0000      -0.626183       -17.0393
 137   2.0000      -0.613269       -16.6879
 138   2.0000      -0.607408       -16.5284
 139   2.0000      -0.604704       -16.4548
 140   2.0000      -0.599732       -16.3195
 141   2.0000      -0.588490       -16.0136
 142   2.0000      -0.586851       -15.9690
 143   2.0000      -0.582883       -15.8610
 144   2.0000      -0.579224       -15.7615
 145   2.0000      -0.575393       -15.6572
 146   2.0000      -0.563096       -15.3226
 147   2.0000      -0.561056       -15.2671
 148   2.0000      -0.557595       -15.1729
 149   2.0000      -0.548747       -14.9322
 150   2.0000      -0.542970       -14.7750
 151   2.0000      -0.540415       -14.7054
 152   2.0000      -0.536062       -14.5870
 153   2.0000      -0.529813       -14.4169
 154   2.0000      -0.527730       -14.3603
 155   2.0000      -0.524649       -14.2764
 156   2.0000      -0.522812       -14.2264
 157   2.0000      -0.522580       -14.2201
 158   2.0000      -0.520677       -14.1683
 159   2.0000      -0.514514       -14.0006
 160   2.0000      -0.511631       -13.9222
 161   2.0000      -0.507370       -13.8062
 162   2.0000      -0.504607       -13.7311
 163   2.0000      -0.502671       -13.6784
 164   2.0000      -0.500002       -13.6057
 165   2.0000      -0.494565       -13.4578
 166   2.0000      -0.494140       -13.4462
 167   2.0000      -0.491808       -13.3828
 168   2.0000      -0.490034       -13.3345
 169   2.0000      -0.487897       -13.2763
 170   2.0000      -0.486328       -13.2336
 171   2.0000      -0.479719       -13.0538
 172   2.0000      -0.478405       -13.0181
 173   2.0000      -0.477154       -12.9840
 174   2.0000      -0.475972       -12.9519
 175   2.0000      -0.472368       -12.8538
 176   2.0000      -0.469941       -12.7877
 177   2.0000      -0.467097       -12.7104
 178   2.0000      -0.466250       -12.6873
 179   2.0000      -0.462906       -12.5963
 180   2.0000      -0.456431       -12.4201
 181   2.0000      -0.451665       -12.2904
 182   2.0000      -0.449917       -12.2429
 183   2.0000      -0.445917       -12.1340
 184   2.0000      -0.443833       -12.0773
 185   2.0000      -0.437270       -11.8987
 186   2.0000      -0.434247       -11.8164
 187   2.0000      -0.434000       -11.8097
 188   2.0000      -0.433616       -11.7993
 189   2.0000      -0.430661       -11.7189
 190   2.0000      -0.427773       -11.6403
 191   2.0000      -0.426537       -11.6067
 192   2.0000      -0.425675       -11.5832
 193   2.0000      -0.424956       -11.5636
 194   2.0000      -0.418730       -11.3942
 195   2.0000      -0.413447       -11.2505
 196   2.0000      -0.412455       -11.2235
 197   2.0000      -0.410535       -11.1712
 198   2.0000      -0.409165       -11.1339
 199   2.0000      -0.407363       -11.0849
 200   2.0000      -0.407037       -11.0760
 201   2.0000      -0.400006       -10.8847
 202   2.0000      -0.396017       -10.7762
 203   2.0000      -0.391736       -10.6597
 204   2.0000      -0.390612       -10.6291
 205   2.0000      -0.386582       -10.5194
 206   2.0000      -0.382088       -10.3971
 207   2.0000      -0.378712       -10.3053
 208   2.0000      -0.371787       -10.1168
 209   2.0000      -0.365087        -9.9345
 210   2.0000      -0.359852        -9.7921
 211   2.0000      -0.356747        -9.7076
 212   2.0000      -0.343348        -9.3430
 213   2.0000      -0.337834        -9.1929
 214   2.0000      -0.325657        -8.8616
 215   2.0000      -0.317579        -8.6418
 216   2.0000      -0.313141        -8.5210
 217   2.0000      -0.312526        -8.5043
 218   2.0000      -0.303790        -8.2665
 219   2.0000      -0.301265        -8.1979
 220   2.0000      -0.295255        -8.0343
 221   2.0000      -0.288500        -7.8505
 222   2.0000      -0.278991        -7.5917
 223   2.0000      -0.253788        -6.9059
 224   2.0000      -0.246630        -6.7111
 225   2.0000      -0.221228        -6.0199
 226   0.0000      -0.106958        -2.9105
 227   0.0000      -0.058266        -1.5855
 228   0.0000      -0.042904        -1.1675
 229   0.0000      -0.024067        -0.6549
 230   0.0000      -0.006708        -0.1825

MULLIKEN ATOMIC CHARGES
-----------------------
   0 C :    0.334870
   1 C :   -0.368987
   2 C :   -0.187505
   3 N :    0.129219
   4 C :   -0.193655
   5 N :    0.130112
   6 C :    0.011092
   7 C :   -0.011864
   8 C :   -0.077220
   9 C :    0.116750
  10 C :   -0.092485
  11 C :   -0.024191
  12 S :    0.177676
  13 C :   -0.124335
  14 C :    0.037432
  15 Br:    0.012840
  16 C :    0.135186
  17 O :   -0.165914
  18 C :   -0.086104
  19 C :   -0.044566
  20 C :   -0.021044
  21 C :    0.004360
  22 C :    0.024377
  23 C :    0.046234
  24 C :   -0.056203
  25 S :    0.105260
  26 C :   -0.018800
  27 C :    0.025733
  28 C :    0.050121
  29 C :   -0.004419
  30 S :    0.142968
  31 C :   -0.024554
  32 C :    0.053900
  33 C :    0.019140
  34 N :   -0.049909
  35 C :   -0.014820
  36 C :    0.014868
  37 N :   -0.120977
  38 C :   -0.095677
  39 S :    0.122467
  40 C :   -0.113415
  41 C :   -0.051820
  42 C :   -0.129835
  43 C :    0.169768
  44 C :    0.079364
  45 C :   -0.068306
  46 N :   -0.165899
  47 C :    0.150570
  48 C :    0.037353
  49 C :   -0.006132
  50 C :    0.005638
  51 C :   -0.217503
  52 C :    0.096491
  53 C :    0.230106
  54 N :   -0.205268
  55 C :    0.050190
  56 C :   -0.085994
  57 H :   -0.016813
  58 H :   -0.011380
  59 H :   -0.006335
  60 H :    0.017179
  61 H :    0.014994
  62 H :   -0.000663
  63 H :   -0.006346
  64 H :   -0.013144
  65 H :   -0.007269
  66 H :   -0.011939
  67 H :   -0.003939
  68 H :    0.033437
  69 H :    0.018935
  70 H :    0.005602
  71 H :   -0.015303
  72 H :   -0.017630
  73 H :   -0.003490
  74 H :    0.084384
  75 H :    0.086716
  76 H :    0.008464
  77 H :    0.022981
  78 H :   -0.012232
  79 H :   -0.015303
  80 H :   -0.026967
  81 H :    0.027881
  82 H :    0.021797
  83 H :    0.022533
  84 H :    0.000194
  85 H :    0.012801
  86 H :    0.107762
  87 H :   -0.003439
  88 H :   -0.007665
  89 H :    0.007510
Sum of atomic charges:    0.0000000

LOEWDIN ATOMIC CHARGES
----------------------
   0 C :    0.074025
   1 C :   -0.160299
   2 C :   -0.018270
   3 N :   -0.074109
   4 C :   -0.020240
   5 N :   -0.072835
   6 C :   -0.018018
   7 C :   -0.048232
   8 C :    0.016604
   9 C :   -0.036375
  10 C :   -0.146224
  11 C :   -0.014117
  12 S :    0.425771
  13 C :   -0.275241
  14 C :   -0.071086
  15 Br:    0.128276
  16 C :    0.081247
  17 O :   -0.160176
  18 C :   -0.111526
  19 C :    0.050150
  20 C :   -0.074650
  21 C :   -0.102507
  22 C :   -0.042917
  23 C :   -0.006568
  24 C :   -0.187015
  25 S :    0.416872
  26 C :   -0.162943
  27 C :   -0.034104
  28 C :   -0.014632
  29 C :   -0.134859
  30 S :    0.441256
  31 C :   -0.051043
  32 C :   -0.031294
  33 C :    0.015278
  34 N :   -0.045141
  35 C :   -0.015579
  36 C :    0.016743
  37 N :   -0.057837
  38 C :   -0.199021
  39 S :    0.446145
  40 C :   -0.155707
  41 C :   -0.060024
  42 C :   -0.026024
  43 C :   -0.027864
  44 C :   -0.044840
  45 C :    0.011866
  46 N :   -0.104033
  47 C :   -0.027027
  48 C :   -0.046799
  49 C :   -0.016408
  50 C :   -0.052153
  51 C :   -0.029741
  52 C :   -0.056231
  53 C :    0.043529
  54 N :   -0.042911
  55 C :    0.020917
  56 C :   -0.157137
  57 H :    0.038374
  58 H :    0.039557
  59 H :    0.037374
  60 H :    0.030504
  61 H :    0.037921
  62 H :    0.037901
  63 H :    0.035105
  64 H :    0.030435
  65 H :    0.035324
  66 H :    0.035330
  67 H :    0.024010
  68 H :    0.027087
  69 H :    0.032853
  70 H :    0.034515
  71 H :    0.016141
  72 H :    0.017238
  73 H :    0.019769
  74 H :    0.049063
  75 H :    0.052025
  76 H :    0.026641
  77 H :    0.035118
  78 H :    0.029195
  79 H :    0.025910
  80 H :    0.025246
  81 H :    0.033153
  82 H :    0.030707
  83 H :    0.036035
  84 H :    0.014695
  85 H :    0.030177
  86 H :    0.072367
  87 H :    0.021917
  88 H :    0.012956
  89 H :    0.020437

  Mayer bond orders larger than 0.100000
B(  0-C ,  1-C ) :   1.5707 B(  0-C ,  6-C ) :   0.9866 B(  0-C , 18-C ) :   1.1246
B(  1-C ,  2-C ) :   1.1514 B(  1-C ,  4-C ) :   1.1557 B(  2-C ,  3-N ) :   2.9592
B(  4-C ,  5-N ) :   2.9615 B(  6-C ,  7-C ) :   1.2797 B(  6-C , 11-C ) :   1.4205
B(  7-C ,  8-C ) :   1.4313 B(  7-C , 16-C ) :   0.9330 B(  8-C ,  9-C ) :   1.2378
B(  8-C , 57-H ) :   1.0166 B(  9-C , 10-C ) :   1.3192 B(  9-C , 14-C ) :   1.1599
B( 10-C , 11-C ) :   1.3187 B( 10-C , 12-S ) :   1.0820 B( 11-C , 58-H ) :   0.9796
B( 12-S , 13-C ) :   1.0856 B( 13-C , 14-C ) :   1.6218 B( 13-C , 15-Br) :   1.0119
B( 14-C , 59-H ) :   0.9997 B( 16-C , 17-O ) :   2.1903 B( 16-C , 18-C ) :   0.9670
B( 18-C , 19-C ) :   1.4641 B( 19-C , 20-C ) :   1.2758 B( 19-C , 60-H ) :   0.9414
B( 20-C , 21-C ) :   1.3995 B( 20-C , 61-H ) :   0.9809 B( 21-C , 22-C ) :   1.1812
B( 21-C , 25-S ) :   1.0956 B( 22-C , 23-C ) :   1.5373 B( 22-C , 62-H ) :   1.0016
B( 23-C , 24-C ) :   1.2133 B( 23-C , 63-H ) :   0.9954 B( 24-C , 25-S ) :   1.0460
B( 24-C , 26-C ) :   1.4862 B( 26-C , 27-C ) :   1.1805 B( 26-C , 30-S ) :   1.0099
B( 27-C , 28-C ) :   1.5951 B( 27-C , 64-H ) :   0.9960 B( 28-C , 29-C ) :   1.1319
B( 28-C , 65-H ) :   1.0005 B( 29-C , 30-S ) :   1.0578 B( 29-C , 31-C ) :   1.5767
B( 30-S , 37-N ) :   0.1222 B( 31-C , 32-C ) :   1.1147 B( 31-C , 66-H ) :   0.9819
B( 32-C , 33-C ) :   1.2677 B( 32-C , 37-N ) :   1.3737 B( 33-C , 34-N ) :   1.5996
B( 33-C , 67-H ) :   0.9814 B( 34-N , 35-C ) :   1.4845 B( 35-C , 36-C ) :   1.2778
B( 35-C , 38-C ) :   1.1064 B( 36-C , 37-N ) :   1.5852 B( 36-C , 68-H ) :   0.9677
B( 38-C , 39-S ) :   1.1199 B( 38-C , 40-C ) :   0.1037 B( 38-C , 42-C ) :   1.4955
B( 39-S , 40-C ) :   1.1334 B( 40-C , 41-C ) :   1.4867 B( 40-C , 48-C ) :   1.0949
B( 41-C , 42-C ) :   1.3251 B( 41-C , 47-C ) :   1.0365 B( 42-C , 43-C ) :   1.0672
B( 43-C , 44-C ) :   1.0589 B( 43-C , 69-H ) :   0.8978 B( 43-C , 70-H ) :   0.9008
B( 44-C , 45-C ) :   1.0236 B( 44-C , 71-H ) :   0.9268 B( 44-C , 72-H ) :   0.9280
B( 45-C , 46-N ) :   1.1047 B( 45-C , 47-C ) :   1.0419 B( 45-C , 73-H ) :   0.9263
B( 46-N , 74-H ) :   0.9691 B( 46-N , 75-H ) :   0.9701 B( 47-C , 76-H ) :   0.8941
B( 47-C , 77-H ) :   0.9113 B( 48-C , 49-C ) :   1.7019 B( 48-C , 78-H ) :   0.9570
B( 49-C , 50-C ) :   1.1077 B( 49-C , 79-H ) :   0.9660 B( 50-C , 51-C ) :   1.7540
B( 50-C , 80-H ) :   0.9778 B( 51-C , 52-C ) :   1.0717 B( 51-C , 53-C ) :   1.0506
B( 52-C , 81-H ) :   0.9481 B( 52-C , 82-H ) :   0.9444 B( 52-C , 83-H ) :   0.9445
B( 53-C , 54-N ) :   0.9876 B( 53-C , 84-H ) :   0.9345 B( 53-C , 85-H ) :   0.9232
B( 54-N , 55-C ) :   1.1465 B( 54-N , 86-H ) :   0.9462 B( 55-C , 56-C ) :   1.9095
B( 55-C , 87-H ) :   0.9601 B( 56-C , 88-H ) :   0.9605 B( 56-C , 89-H ) :   0.9527

-----------------------------------------------------------------------------
         ABSORPTION SPECTRUM VIA TRANSITION ELECTRIC DIPOLE MOMENTS
-----------------------------------------------------------------------------
State   Energy  Wavelength   fosc         T2         TX        TY        TZ
        (cm-1)    (nm)                  (au**2)     (au)      (au)      (au)
-----------------------------------------------------------------------------
   0   10944.1    913.7   0.797926010  24.00261   1.72154   1.56095   4.31304
   1   18491.2    540.8   0.632891251  11.26782  -1.96142   2.45292   1.18484
   2   21129.3    473.3   0.646241003  10.06897  -2.55054   1.88151  -0.15381
   3   23797.2    420.2   0.253434420   3.50602  -0.93338   1.42125   0.78414
   4   24261.4    412.2   0.155874218   2.11511  -1.22084   0.64254  -0.46021
   5   24511.8    408.0   0.178185465   2.39317  -1.05162   0.00305  -1.13457
   6   24681.3    405.2   0.010292739   0.13729   0.06847   0.09664   0.35109
   7   25965.0    385.1   0.478502299   6.06696   1.48167  -1.72038  -0.95495
   8   26870.5    372.2   0.000529716   0.00649   0.05370  -0.05851  -0.01352
   9   28323.2    353.1   0.268561505   3.12159   0.87376  -1.37594  -0.68185
  10   28599.6    349.7   0.089152686   1.02624  -0.25286   0.78103   0.59355
  11   29005.0    344.8   0.026739691   0.30350   0.45615   0.12610   0.28201
  12   29278.8    341.5   0.060120381   0.67600   0.51790  -0.63160  -0.09415
  13   29401.4    340.1   0.081171181   0.90889  -0.05171   0.80615   0.50629
  14   30235.3    330.7   0.058288706   0.63467  -0.24635  -0.33619  -0.67893
  15   30766.2    325.0   0.085902681   0.91920  -0.50343   0.65255   0.48984
  16   31512.1    317.3   0.010831724   0.11316  -0.01322  -0.25102  -0.22355
  17   31717.4    315.3   0.000472538   0.00490  -0.01738   0.01483  -0.06620
  18   31976.9    312.7   0.225918805   2.32591  -0.64547  -0.11390  -1.37706
  19   32273.9    309.8   0.250615412   2.55642  -0.21715  -0.61806  -1.45852
  20   32576.6    307.0   0.119501128   1.20765   0.42376  -0.86314  -0.53204
  21   33544.9    298.1   0.059180142   0.58080  -0.10617   0.59157   0.46858
  22   34537.4    289.5   0.166660479   1.58862  -0.21192   0.90484   0.85145
  23   35230.3    283.8   0.036132069   0.33764  -0.53282   0.14674  -0.17947
  24   35338.6    283.0   0.072564025   0.67600  -0.52739   0.26939  -0.57034
  25   35450.8    282.1   0.014423602   0.13394  -0.06754  -0.24785  -0.26068
  26   35919.5    278.4   0.016108597   0.14764  -0.27231  -0.00481  -0.27105
  27   36458.8    274.3   0.113747250   1.02710  -0.77179   0.11404  -0.64687
  28   36677.6    272.6   0.058867301   0.52838  -0.01753   0.59748   0.41364
  29   37513.2    266.6   0.055793542   0.48964   0.58851  -0.22138   0.30705
  30   37686.1    265.3   0.004956213   0.04330   0.16517   0.07509  -0.10186
  31   38039.7    262.9   0.051093610   0.44219  -0.57252   0.31758  -0.11639
  32   38178.7    261.9   0.033168165   0.28601  -0.43459   0.06432  -0.30496
  33   38547.8    259.4   0.099894422   0.85313  -0.63161   0.19522  -0.64505
  34   39688.4    252.0   0.008095869   0.06715  -0.03622   0.25108   0.05291
  35   39749.9    251.6   0.057993185   0.48030  -0.58106   0.31977  -0.20104
  36   40286.9    248.2   0.000052031   0.00043   0.00194  -0.00298  -0.02031

FINAL SINGLE POINT ENERGY     -6301.795542373071

DIPOLE MOMENT
-------------
                                X             Y             Z
Electronic contribution:   -102.74869     -37.44210    -191.86509
Nuclear contribution   :    101.30211      39.83544     194.23445
                        -----------------------------------------
Total Dipole Moment    :     -1.44658       2.39334       2.36936
                        -----------------------------------------
Magnitude (a.u.)       :      3.66531
Magnitude (Debye)      :      9.31649

Rotational constants in cm-1:     0.000932     0.000499     0.000327
Rotational constants in MHz :    27.942711    14.956376     9.803340

                             ****ORCA TERMINATED NORMALLY****
TOTAL RUN TIME: 0 days 0 hours 10 minutes 45 seconds 778 msec
