                         Program Version 4.2.0 -  RELEASE  -
|  1> # ORCA input file
|  2> # SCF done       -211.731136053051          0.000898501857
|  3> ! CAM-B3LYP def2-SVP def2/J RIJCOSX Grid4 TightSCF
|  4> %maxcore 5000
|  5> %tddft
|  6>     Mode sTDDFT
|  7>     Ethresh 5.0
|  8>     maxcore 5000
|  9> end
| 10>
| 11> %pal
| 12>   nprocs 6
| 13>   end
| 14> * xyz 0 1
| 15>    C        1.75061        -8.87754         7.22200
| 16>    C        2.21896       -10.10401         7.60073
| 17>    F        3.26979       -10.19815         8.42503
| 18>    C        1.60586       -11.28358         7.13020
| 19>    F        2.08823       -12.47092         7.51784
| 20>    C        0.53285       -11.21964         6.28618
| 21>    C        0.02814        -9.97035         5.87513
| 22>    C        0.64531        -8.77694         6.35232
| 23>    C        0.15432        -7.51291         5.95623
| 24>    C       -0.92157        -7.44364         5.10827
| 25>    C       -1.52390        -8.63922         4.62845
| 26>    C       -1.07183        -9.87460         4.99464
| 27>    C       -2.63524        -8.31285         3.70873
| 28>    O       -3.30911        -9.10022         3.09646
| 29>    C       -2.64896        -6.81566         3.63367
| 30>    C       -1.63413        -6.30365         4.54429
| 31>    C       -1.43457        -4.99241         4.88059
| 32>    C       -2.18285        -3.90016         4.38858
| 33>    N       -2.75303        -2.96309         4.05132
| 34>    C       -0.45626        -4.55342         5.79968
| 35>    N        0.32533        -4.13549         6.52813
| 36>    C       -3.35087        -6.07744         2.73995
| 37>    C       -4.41409        -6.53990         1.90956
| 38>    O       -4.71046        -5.78558         0.79908
| 39>    C       -5.75401        -6.41288         0.22612
| 40>    C       -6.07703        -7.53914         1.04709
| 41>    N       -5.19911        -7.55633         2.08590
| 42>    C       -7.11535        -8.40577         0.73822
| 43>    C       -7.79274        -8.10014        -0.42955
| 44>    C       -7.44335        -6.97319        -1.23896
| 45>    C       -6.42208        -6.09323        -0.94008
| 46>    O       -8.27242        -6.96859        -2.30050
| 47>    C       -9.07927        -8.05925        -2.12352
| 48>    N       -8.83284        -8.73876        -1.04269
| 49>    C      -10.05910        -8.36227        -3.11523
| 50>    C      -10.87189        -9.43464        -2.99438
| 51>    C      -11.82145        -9.80801        -3.98140
| 52>    O      -12.58672       -10.91390        -3.78093
| 53>    C      -12.14660        -9.27554        -5.21616
| 54>    C      -11.85089        -8.19438        -6.16388
| 55>    O      -11.07601        -7.27521        -6.09451
| 56>    N      -12.69794        -8.45509        -7.23411
| 57>    C      -13.51022        -9.58358        -7.09389
| 58>    O      -14.30192        -9.97124        -7.91247
| 59>    C      -13.14319       -10.10690        -5.77733
| 60>    C      -13.39343       -11.11758        -4.85989
| 61>    C      -14.27089       -12.22016        -4.91947
| 62>    C      -14.41308       -13.11833        -3.89996
| 63>    C      -15.23839       -14.24812        -3.96281
| 64>    C      -15.39145       -15.14781        -2.93438
| 65>    C      -16.15341       -16.34210        -2.95675
| 66>    C      -16.10589       -17.05520        -1.79797
| 67>    C      -15.31794       -16.45380        -0.78877
| 68>    S      -14.62754       -14.95890        -1.36476
| 69>    C      -15.08228       -16.92358         0.49154
| 70>    C      -15.52868       -18.14139         1.05808
| 71>    C      -15.10664       -18.32351         2.33765
| 72>    C      -14.33759       -17.24788         2.85929
| 73>    S      -14.16220       -16.00789         1.65705
| 74>    C      -13.72295       -17.27198         4.09738
| 75>    C      -12.94993       -16.30329         4.74059
| 76>    C      -12.97979       -14.92719         4.61807
| 77>    C      -12.02551       -14.01755         5.21144
| 78>    C      -10.78380       -14.34223         5.69960
| 79>    C       -9.88558       -13.41016         6.25721
| 80>    N       -9.11450       -12.70076         6.72723
| 81>    C      -10.22212       -15.63530         5.67971
| 82>    N       -9.68720       -16.65189         5.68128
| 83>    C      -12.57578       -12.66846         5.12116
| 84>    C      -13.81693       -12.73603         4.44270
| 85>    C      -14.10690       -14.14187         4.09800
| 86>    O      -15.11746       -14.55670         3.55652
| 87>    C      -14.59144       -11.62831         4.20394
| 88>    C      -14.11757       -10.39152         4.65704
| 89>    C      -12.87654       -10.33372         5.33261
| 90>    C      -12.09183       -11.45621         5.57294
| 91>    S      -12.48592        -8.71009         5.81486
| 92>    C      -13.97630        -8.14009         5.11331
| 93>    C      -14.72800        -9.11234         4.54455
| 94>   Br      -14.40198        -6.31472         5.19838
| 95>    H        2.23024        -7.98528         7.59315
| 96>    H        0.07442       -12.13074         5.93494
| 97>    H        0.64745        -6.62947         6.32830
| 98>    H       -1.55000       -10.76522         4.61646
| 99>    H       -3.10737        -5.03374         2.58635
|100>    H       -7.35843        -9.25459         1.35146
|101>    H       -6.16949        -5.24819        -1.55640
|102>    H      -10.10369        -7.70526        -3.97229
|103>    H      -10.80051       -10.06451        -2.11963
|104>    H      -12.72375        -7.87137        -8.05820
|105>    H      -14.83183       -12.32221        -5.83675
|106>    H      -13.84782       -12.96006        -2.99026
|107>    H      -15.77877       -14.44017        -4.88025
|108>    H      -16.70482       -16.63728        -3.83179
|109>    H      -16.61894       -17.98621        -1.63897
|110>    H      -16.13133       -18.84352         0.51115
|111>    H      -15.33094       -19.18943         2.93515
|112>    H      -13.78346       -18.22768         4.60610
|113>    H      -12.27262       -16.69998         5.48856
|114>    H      -15.53435       -11.71099         3.68645
|115>    H      -11.15597       -11.36138         6.09790
|116>    H      -15.67526        -8.93685         4.06806
|117> *
|118>
|119>                          ****END OF INPUT****

CARTESIAN COORDINATES (ANGSTROEM)
---------------------------------
  C      1.750610   -8.877540    7.222000
  C      2.218960  -10.104010    7.600730
  F      3.269790  -10.198150    8.425030
  C      1.605860  -11.283580    7.130200
  F      2.088230  -12.470920    7.517840
  C      0.532850  -11.219640    6.286180
  C      0.028140   -9.970350    5.875130
  C      0.645310   -8.776940    6.352320
  C      0.154320   -7.512910    5.956230
  C     -0.921570   -7.443640    5.108270
  C     -1.523900   -8.639220    4.628450
  C     -1.071830   -9.874600    4.994640
  C     -2.635240   -8.312850    3.708730
  O     -3.309110   -9.100220    3.096460
  C     -2.648960   -6.815660    3.633670
  C     -1.634130   -6.303650    4.544290
  C     -1.434570   -4.992410    4.880590
  C     -2.182850   -3.900160    4.388580
  N     -2.753030   -2.963090    4.051320
  C     -0.456260   -4.553420    5.799680
  N      0.325330   -4.135490    6.528130
  C     -3.350870   -6.077440    2.739950
  C     -4.414090   -6.539900    1.909560
  O     -4.710460   -5.785580    0.799080
  C     -5.754010   -6.412880    0.226120
  C     -6.077030   -7.539140    1.047090
  N     -5.199110   -7.556330    2.085900
  C     -7.115350   -8.405770    0.738220
  C     -7.792740   -8.100140   -0.429550
  C     -7.443350   -6.973190   -1.238960
  C     -6.422080   -6.093230   -0.940080
  O     -8.272420   -6.968590   -2.300500
  C     -9.079270   -8.059250   -2.123520
  N     -8.832840   -8.738760   -1.042690
  C    -10.059100   -8.362270   -3.115230
  C    -10.871890   -9.434640   -2.994380
  C    -11.821450   -9.808010   -3.981400
  O    -12.586720  -10.913900   -3.780930
  C    -12.146600   -9.275540   -5.216160
  C    -11.850890   -8.194380   -6.163880
  O    -11.076010   -7.275210   -6.094510
  N    -12.697940   -8.455090   -7.234110
  C    -13.510220   -9.583580   -7.093890
  O    -14.301920   -9.971240   -7.912470
  C    -13.143190  -10.106900   -5.777330
  C    -13.393430  -11.117580   -4.859890
  C    -14.270890  -12.220160   -4.919470
  C    -14.413080  -13.118330   -3.899960
  C    -15.238390  -14.248120   -3.962810
  C    -15.391450  -15.147810   -2.934380
  C    -16.153410  -16.342100   -2.956750
  C    -16.105890  -17.055200   -1.797970
  C    -15.317940  -16.453800   -0.788770
  S    -14.627540  -14.958900   -1.364760
  C    -15.082280  -16.923580    0.491540
  C    -15.528680  -18.141390    1.058080
  C    -15.106640  -18.323510    2.337650
  C    -14.337590  -17.247880    2.859290
  S    -14.162200  -16.007890    1.657050
  C    -13.722950  -17.271980    4.097380
  C    -12.949930  -16.303290    4.740590
  C    -12.979790  -14.927190    4.618070
  C    -12.025510  -14.017550    5.211440
  C    -10.783800  -14.342230    5.699600
  C     -9.885580  -13.410160    6.257210
  N     -9.114500  -12.700760    6.727230
  C    -10.222120  -15.635300    5.679710
  N     -9.687200  -16.651890    5.681280
  C    -12.575780  -12.668460    5.121160
  C    -13.816930  -12.736030    4.442700
  C    -14.106900  -14.141870    4.098000
  O    -15.117460  -14.556700    3.556520
  C    -14.591440  -11.628310    4.203940
  C    -14.117570  -10.391520    4.657040
  C    -12.876540  -10.333720    5.332610
  C    -12.091830  -11.456210    5.572940
  S    -12.485920   -8.710090    5.814860
  C    -13.976300   -8.140090    5.113310
  C    -14.728000   -9.112340    4.544550
  Br   -14.401980   -6.314720    5.198380
  H      2.230240   -7.985280    7.593150
  H      0.074420  -12.130740    5.934940
  H      0.647450   -6.629470    6.328300
  H     -1.550000  -10.765220    4.616460
  H     -3.107370   -5.033740    2.586350
  H     -7.358430   -9.254590    1.351460
  H     -6.169490   -5.248190   -1.556400
  H    -10.103690   -7.705260   -3.972290
  H    -10.800510  -10.064510   -2.119630
  H    -12.723750   -7.871370   -8.058200
  H    -14.831830  -12.322210   -5.836750
  H    -13.847820  -12.960060   -2.990260
  H    -15.778770  -14.440170   -4.880250
  H    -16.704820  -16.637280   -3.831790
  H    -16.618940  -17.986210   -1.638970
  H    -16.131330  -18.843520    0.511150
  H    -15.330940  -19.189430    2.935150
  H    -13.783460  -18.227680    4.606100
  H    -12.272620  -16.699980    5.488560
  H    -15.534350  -11.710990    3.686450
  H    -11.155970  -11.361380    6.097900
  H    -15.675260   -8.936850    4.068060

 Total Charge           Charge          ....    0
 Multiplicity           Mult            ....    1
 Number of Electrons    NEL             ....  588
 Basis Dimension        Dim             .... 1260

ORBITAL ENERGIES
----------------

  NO   OCC          E(Eh)            E(eV)
   0   2.0000    -482.879678    -13139.8241
   1   2.0000     -88.969526     -2420.9839
   2   2.0000     -88.967899     -2420.9396
   3   2.0000     -88.963372     -2420.8164
   4   2.0000     -62.557385     -1702.2730
   5   2.0000     -56.391328     -1534.4860
   6   2.0000     -56.388629     -1534.4126
   7   2.0000     -56.388590     -1534.4116
   8   2.0000     -24.797937      -674.7862
   9   2.0000     -24.797239      -674.7672
  10   2.0000     -19.320843      -525.7469
  11   2.0000     -19.304773      -525.3096
  12   2.0000     -19.304662      -525.3066
  13   2.0000     -19.221792      -523.0515
  14   2.0000     -19.218413      -522.9596
  15   2.0000     -19.215648      -522.8844
  16   2.0000     -19.203933      -522.5656
  17   2.0000     -14.462578      -393.5467
  18   2.0000     -14.421834      -392.4380
  19   2.0000     -14.421670      -392.4336
  20   2.0000     -14.417679      -392.3250
  21   2.0000     -14.413812      -392.2198
  22   2.0000     -14.404720      -391.9724
  23   2.0000     -14.403794      -391.9472
  24   2.0000     -10.409604      -283.2597
  25   2.0000     -10.407787      -283.2103
  26   2.0000     -10.381576      -282.4970
  27   2.0000     -10.380791      -282.4757
  28   2.0000     -10.376919      -282.3703
  29   2.0000     -10.376670      -282.3635
  30   2.0000     -10.372513      -282.2504
  31   2.0000     -10.371184      -282.2143
  32   2.0000     -10.369211      -282.1606
  33   2.0000     -10.351619      -281.6819
  34   2.0000     -10.351465      -281.6777
  35   2.0000     -10.350895      -281.6622
  36   2.0000     -10.350390      -281.6484
  37   2.0000     -10.349993      -281.6376
  38   2.0000     -10.347580      -281.5720
  39   2.0000     -10.340809      -281.3877
  40   2.0000     -10.332793      -281.1696
  41   2.0000     -10.329683      -281.0850
  42   2.0000     -10.328706      -281.0584
  43   2.0000     -10.328652      -281.0569
  44   2.0000     -10.326485      -280.9979
  45   2.0000     -10.326371      -280.9948
  46   2.0000     -10.323761      -280.9238
  47   2.0000     -10.323697      -280.9221
  48   2.0000     -10.316105      -280.7155
  49   2.0000     -10.314610      -280.6748
  50   2.0000     -10.312565      -280.6192
  51   2.0000     -10.311630      -280.5937
  52   2.0000     -10.311351      -280.5861
  53   2.0000     -10.311166      -280.5811
  54   2.0000     -10.311086      -280.5789
  55   2.0000     -10.310897      -280.5738
  56   2.0000     -10.309636      -280.5395
  57   2.0000     -10.308169      -280.4995
  58   2.0000     -10.307891      -280.4920
  59   2.0000     -10.307474      -280.4806
  60   2.0000     -10.307402      -280.4787
  61   2.0000     -10.307387      -280.4782
  62   2.0000     -10.305872      -280.4370
  63   2.0000     -10.304456      -280.3985
  64   2.0000     -10.304342      -280.3954
  65   2.0000     -10.303005      -280.3590
  66   2.0000     -10.302315      -280.3402
  67   2.0000     -10.301900      -280.3289
  68   2.0000     -10.300903      -280.3018
  69   2.0000     -10.300630      -280.2944
  70   2.0000     -10.300626      -280.2943
  71   2.0000     -10.300474      -280.2901
  72   2.0000     -10.298509      -280.2367
  73   2.0000     -10.297792      -280.2172
  74   2.0000     -10.296942      -280.1940
  75   2.0000     -10.296330      -280.1774
  76   2.0000     -10.295915      -280.1661
  77   2.0000     -10.293676      -280.1052
  78   2.0000     -10.290757      -280.0257
  79   2.0000     -10.289693      -279.9968
  80   2.0000     -10.287792      -279.9451
  81   2.0000     -10.286866      -279.9199
  82   2.0000     -10.283562      -279.8300
  83   2.0000     -10.281727      -279.7800
  84   2.0000      -8.786804      -239.1011
  85   2.0000      -8.065939      -219.4854
  86   2.0000      -8.063794      -219.4270
  87   2.0000      -8.058697      -219.2883
  88   2.0000      -6.623074      -180.2230
  89   2.0000      -6.608536      -179.8274
  90   2.0000      -6.608374      -179.8230
  91   2.0000      -6.035583      -164.2366
  92   2.0000      -6.033475      -164.1792
  93   2.0000      -6.031587      -164.1278
  94   2.0000      -6.029231      -164.0637
  95   2.0000      -6.028236      -164.0367
  96   2.0000      -6.026915      -164.0007
  97   2.0000      -6.025053      -163.9500
  98   2.0000      -6.023963      -163.9204
  99   2.0000      -6.020251      -163.8194
 100   2.0000      -2.738940       -74.5303
 101   2.0000      -2.734890       -74.4201
 102   2.0000      -2.734730       -74.4158
 103   2.0000      -2.723193       -74.1019
 104   2.0000      -2.723184       -74.1016
 105   2.0000      -1.320795       -35.9407
 106   2.0000      -1.305879       -35.5348
 107   2.0000      -1.236403       -33.6442
 108   2.0000      -1.234939       -33.6044
 109   2.0000      -1.233640       -33.5690
 110   2.0000      -1.164251       -31.6809
 111   2.0000      -1.143765       -31.1234
 112   2.0000      -1.133744       -30.8508
 113   2.0000      -1.117978       -30.4217
 114   2.0000      -1.051298       -28.6073
 115   2.0000      -1.031361       -28.0648
 116   2.0000      -1.025630       -27.9088
 117   2.0000      -1.024356       -27.8741
 118   2.0000      -1.017474       -27.6869
 119   2.0000      -1.013145       -27.5691
 120   2.0000      -1.006709       -27.3939
 121   2.0000      -1.003259       -27.3001
 122   2.0000      -1.000059       -27.2130
 123   2.0000      -0.993480       -27.0340
 124   2.0000      -0.984214       -26.7818
 125   2.0000      -0.983126       -26.7522
 126   2.0000      -0.978942       -26.6384
 127   2.0000      -0.964325       -26.2406
 128   2.0000      -0.947063       -25.7709
 129   2.0000      -0.936276       -25.4774
 130   2.0000      -0.934423       -25.4269
 131   2.0000      -0.933896       -25.4126
 132   2.0000      -0.923937       -25.1416
 133   2.0000      -0.912885       -24.8409
 134   2.0000      -0.907808       -24.7027
 135   2.0000      -0.899154       -24.4672
 136   2.0000      -0.894957       -24.3530
 137   2.0000      -0.892645       -24.2901
 138   2.0000      -0.884721       -24.0745
 139   2.0000      -0.876814       -23.8593
 140   2.0000      -0.875092       -23.8125
 141   2.0000      -0.865992       -23.5648
 142   2.0000      -0.857706       -23.3394
 143   2.0000      -0.854287       -23.2463
 144   2.0000      -0.842704       -22.9311
 145   2.0000      -0.841593       -22.9009
 146   2.0000      -0.840324       -22.8664
 147   2.0000      -0.827929       -22.5291
 148   2.0000      -0.820244       -22.3200
 149   2.0000      -0.811668       -22.0866
 150   2.0000      -0.796137       -21.6640
 151   2.0000      -0.782848       -21.3024
 152   2.0000      -0.777542       -21.1580
 153   2.0000      -0.769886       -20.9497
 154   2.0000      -0.769313       -20.9341
 155   2.0000      -0.761084       -20.7101
 156   2.0000      -0.748905       -20.3787
 157   2.0000      -0.742539       -20.2055
 158   2.0000      -0.734126       -19.9766
 159   2.0000      -0.730211       -19.8700
 160   2.0000      -0.721566       -19.6348
 161   2.0000      -0.717066       -19.5123
 162   2.0000      -0.709183       -19.2979
 163   2.0000      -0.707735       -19.2585
 164   2.0000      -0.706753       -19.2317
 165   2.0000      -0.693992       -18.8845
 166   2.0000      -0.688244       -18.7281
 167   2.0000      -0.687697       -18.7132
 168   2.0000      -0.680899       -18.5282
 169   2.0000      -0.679107       -18.4794
 170   2.0000      -0.668400       -18.1881
 171   2.0000      -0.663805       -18.0630
 172   2.0000      -0.658748       -17.9254
 173   2.0000      -0.653498       -17.7826
 174   2.0000      -0.650752       -17.7079
 175   2.0000      -0.648435       -17.6448
 176   2.0000      -0.646934       -17.6040
 177   2.0000      -0.643879       -17.5208
 178   2.0000      -0.642267       -17.4770
 179   2.0000      -0.632554       -17.2127
 180   2.0000      -0.623774       -16.9738
 181   2.0000      -0.622985       -16.9523
 182   2.0000      -0.613901       -16.7051
 183   2.0000      -0.611689       -16.6449
 184   2.0000      -0.608379       -16.5548
 185   2.0000      -0.604461       -16.4482
 186   2.0000      -0.600222       -16.3329
 187   2.0000      -0.594321       -16.1723
 188   2.0000      -0.593732       -16.1563
 189   2.0000      -0.589177       -16.0323
 190   2.0000      -0.587998       -16.0002
 191   2.0000      -0.587430       -15.9848
 192   2.0000      -0.585157       -15.9229
 193   2.0000      -0.581096       -15.8124
 194   2.0000      -0.578748       -15.7485
 195   2.0000      -0.573878       -15.6160
 196   2.0000      -0.572881       -15.5889
 197   2.0000      -0.568145       -15.4600
 198   2.0000      -0.566346       -15.4111
 199   2.0000      -0.563192       -15.3252
 200   2.0000      -0.555440       -15.1143
 201   2.0000      -0.554100       -15.0778
 202   2.0000      -0.552250       -15.0275
 203   2.0000      -0.547869       -14.9083
 204   2.0000      -0.546680       -14.8759
 205   2.0000      -0.544822       -14.8254
 206   2.0000      -0.543893       -14.8001
 207   2.0000      -0.540172       -14.6988
 208   2.0000      -0.538834       -14.6624
 209   2.0000      -0.536822       -14.6077
 210   2.0000      -0.532783       -14.4978
 211   2.0000      -0.532220       -14.4824
 212   2.0000      -0.529306       -14.4032
 213   2.0000      -0.526436       -14.3251
 214   2.0000      -0.525579       -14.3017
 215   2.0000      -0.523851       -14.2547
 216   2.0000      -0.520113       -14.1530
 217   2.0000      -0.517085       -14.0706
 218   2.0000      -0.516334       -14.0501
 219   2.0000      -0.515090       -14.0163
 220   2.0000      -0.511257       -13.9120
 221   2.0000      -0.510055       -13.8793
 222   2.0000      -0.509682       -13.8691
 223   2.0000      -0.505478       -13.7548
 224   2.0000      -0.503800       -13.7091
 225   2.0000      -0.500969       -13.6321
 226   2.0000      -0.499153       -13.5826
 227   2.0000      -0.497475       -13.5370
 228   2.0000      -0.492796       -13.4097
 229   2.0000      -0.491560       -13.3760
 230   2.0000      -0.488027       -13.2799
 231   2.0000      -0.486758       -13.2453
 232   2.0000      -0.486487       -13.2380
 233   2.0000      -0.485525       -13.2118
 234   2.0000      -0.482076       -13.1179
 235   2.0000      -0.479792       -13.0558
 236   2.0000      -0.476443       -12.9647
 237   2.0000      -0.471922       -12.8416
 238   2.0000      -0.470583       -12.8052
 239   2.0000      -0.466719       -12.7001
 240   2.0000      -0.465011       -12.6536
 241   2.0000      -0.463771       -12.6199
 242   2.0000      -0.454349       -12.3635
 243   2.0000      -0.452384       -12.3100
 244   2.0000      -0.451317       -12.2810
 245   2.0000      -0.450285       -12.2529
 246   2.0000      -0.448963       -12.2169
 247   2.0000      -0.448677       -12.2091
 248   2.0000      -0.448121       -12.1940
 249   2.0000      -0.446865       -12.1598
 250   2.0000      -0.443825       -12.0771
 251   2.0000      -0.438662       -11.9366
 252   2.0000      -0.438316       -11.9272
 253   2.0000      -0.436717       -11.8837
 254   2.0000      -0.433724       -11.8022
 255   2.0000      -0.433482       -11.7956
 256   2.0000      -0.432377       -11.7656
 257   2.0000      -0.430160       -11.7052
 258   2.0000      -0.428588       -11.6625
 259   2.0000      -0.424917       -11.5626
 260   2.0000      -0.417872       -11.3709
 261   2.0000      -0.415012       -11.2930
 262   2.0000      -0.414812       -11.2876
 263   2.0000      -0.411665       -11.2020
 264   2.0000      -0.410273       -11.1641
 265   2.0000      -0.403141       -10.9700
 266   2.0000      -0.398883       -10.8541
 267   2.0000      -0.397350       -10.8124
 268   2.0000      -0.393620       -10.7109
 269   2.0000      -0.385570       -10.4919
 270   2.0000      -0.383704       -10.4411
 271   2.0000      -0.378405       -10.2969
 272   2.0000      -0.378246       -10.2926
 273   2.0000      -0.377855       -10.2820
 274   2.0000      -0.372919       -10.1476
 275   2.0000      -0.370949       -10.0940
 276   2.0000      -0.369230       -10.0473
 277   2.0000      -0.364905        -9.9296
 278   2.0000      -0.357202        -9.7200
 279   2.0000      -0.354662        -9.6509
 280   2.0000      -0.352044        -9.5796
 281   2.0000      -0.346887        -9.4393
 282   2.0000      -0.341295        -9.2871
 283   2.0000      -0.328584        -8.9412
 284   2.0000      -0.325816        -8.8659
 285   2.0000      -0.317867        -8.6496
 286   2.0000      -0.314575        -8.5600
 287   2.0000      -0.303793        -8.2666
 288   2.0000      -0.303387        -8.2556
 289   2.0000      -0.299249        -8.1430
 290   2.0000      -0.291840        -7.9414
 291   2.0000      -0.284797        -7.7497
 292   2.0000      -0.272393        -7.4122
 293   2.0000      -0.233604        -6.3567
 294   0.0000      -0.118025        -3.2116
 295   0.0000      -0.103996        -2.8299
 296   0.0000      -0.074441        -2.0256
 297   0.0000      -0.066576        -1.8116
 298   0.0000      -0.058540        -1.5929

MULLIKEN ATOMIC CHARGES
-----------------------
   0 C :   -0.104253
   1 C :    0.241206
   2 F :   -0.170316
   3 C :    0.239441
   4 F :   -0.169613
   5 C :   -0.100837
   6 C :    0.113079
   7 C :    0.111060
   8 C :   -0.078998
   9 C :    0.052699
  10 C :   -0.017751
  11 C :   -0.071936
  12 C :    0.147485
  13 O :   -0.092742
  14 C :   -0.051573
  15 C :    0.302617
  16 C :   -0.334294
  17 C :   -0.198374
  18 N :    0.172464
  19 C :   -0.182662
  20 N :    0.152789
  21 C :   -0.044828
  22 C :    0.091506
  23 O :   -0.196378
  24 C :    0.219585
  25 C :   -0.001392
  26 N :    0.018300
  27 C :   -0.065197
  28 C :    0.023645
  29 C :    0.214025
  30 C :   -0.151912
  31 O :   -0.190548
  32 C :    0.105502
  33 N :   -0.048491
  34 C :   -0.014133
  35 C :    0.016101
  36 C :    0.131028
  37 O :   -0.206732
  38 C :   -0.073126
  39 C :    0.188567
  40 O :   -0.148621
  41 N :   -0.164422
  42 C :    0.163591
  43 O :   -0.140708
  44 C :   -0.022734
  45 C :    0.094099
  46 C :   -0.032447
  47 C :    0.026491
  48 C :   -0.002730
  49 C :   -0.020509
  50 C :    0.049233
  51 C :    0.028639
  52 C :   -0.034194
  53 S :    0.107052
  54 C :   -0.067875
  55 C :    0.039314
  56 C :    0.030860
  57 C :    0.006922
  58 S :    0.172918
  59 C :   -0.014991
  60 C :   -0.008703
  61 C :   -0.102962
  62 C :    0.298167
  63 C :   -0.350672
  64 C :   -0.184557
  65 N :    0.143169
  66 C :   -0.209166
  67 N :    0.155024
  68 C :    0.011281
  69 C :   -0.008940
  70 C :    0.123972
  71 O :   -0.169221
  72 C :   -0.077389
  73 C :    0.117568
  74 C :   -0.095688
  75 C :   -0.020333
  76 S :    0.182068
  77 C :   -0.123677
  78 C :    0.038957
  79 Br:    0.016119
  80 H :    0.006784
  81 H :    0.002658
  82 H :   -0.006291
  83 H :   -0.006284
  84 H :    0.040670
  85 H :   -0.012474
  86 H :   -0.007688
  87 H :    0.028906
  88 H :    0.019555
  89 H :    0.140631
  90 H :    0.016288
  91 H :    0.019795
  92 H :   -0.000801
  93 H :   -0.000577
  94 H :   -0.002963
  95 H :   -0.007458
  96 H :   -0.004291
  97 H :   -0.000933
  98 H :    0.028407
  99 H :   -0.017531
 100 H :   -0.008602
 101 H :   -0.007718
Sum of atomic charges:   -0.0000000

LOEWDIN ATOMIC CHARGES
----------------------
   0 C :   -0.029072
   1 C :    0.067041
   2 F :   -0.047859
   3 C :    0.068959
   4 F :   -0.047291
   5 C :   -0.031789
   6 C :   -0.006552
   7 C :   -0.006492
   8 C :    0.018709
   9 C :   -0.025715
  10 C :   -0.052180
  11 C :    0.032857
  12 C :    0.076551
  13 O :   -0.099273
  14 C :   -0.052433
  15 C :    0.072003
  16 C :   -0.126129
  17 C :   -0.024499
  18 N :   -0.039870
  19 C :   -0.016559
  20 N :   -0.044900
  21 C :    0.041814
  22 C :    0.045778
  23 O :   -0.005753
  24 C :    0.043111
  25 C :   -0.038625
  26 N :   -0.044115
  27 C :   -0.004590
  28 C :   -0.035040
  29 C :    0.044360
  30 C :   -0.063119
  31 O :   -0.002078
  32 C :    0.060133
  33 N :   -0.099580
  34 C :   -0.014982
  35 C :   -0.000354
  36 C :    0.067419
  37 O :    0.017765
  38 C :   -0.092880
  39 C :    0.087715
  40 O :   -0.156470
  41 N :   -0.003614
  42 C :    0.085471
  43 O :   -0.156838
  44 C :   -0.092921
  45 C :    0.067064
  46 C :   -0.029861
  47 C :   -0.009386
  48 C :   -0.037185
  49 C :   -0.140191
  50 C :   -0.016313
  51 C :   -0.027323
  52 C :   -0.149923
  53 S :    0.396923
  54 C :   -0.185992
  55 C :   -0.020744
  56 C :   -0.031819
  57 C :   -0.104693
  58 S :    0.471128
  59 C :   -0.075054
  60 C :    0.044243
  61 C :   -0.114019
  62 C :    0.075973
  63 C :   -0.147416
  64 C :   -0.018574
  65 N :   -0.061193
  66 C :   -0.024888
  67 N :   -0.058923
  68 C :   -0.021784
  69 C :   -0.046057
  70 C :    0.057817
  71 O :   -0.170535
  72 C :    0.014445
  73 C :   -0.034887
  74 C :   -0.147468
  75 C :   -0.011473
  76 S :    0.429075
  77 C :   -0.274182
  78 C :   -0.071719
  79 Br:    0.131125
  80 H :    0.047557
  81 H :    0.046168
  82 H :    0.039727
  83 H :    0.041972
  84 H :    0.053772
  85 H :    0.047658
  86 H :    0.046225
  87 H :    0.043743
  88 H :    0.048791
  89 H :    0.096236
  90 H :    0.047517
  91 H :    0.029337
  92 H :    0.038769
  93 H :    0.038788
  94 H :    0.036291
  95 H :    0.033902
  96 H :    0.036573
  97 H :    0.040092
  98 H :    0.047170
  99 H :    0.038104
 100 H :    0.040203
 101 H :    0.037098

  Mayer bond orders larger than 0.100000
B(  0-C ,  1-C ) :   1.4449 B(  0-C ,  5-C ) :   0.1080 B(  0-C ,  7-C ) :   1.1861
B(  0-C , 80-H ) :   1.0066 B(  1-C ,  2-F ) :   1.1352 B(  1-C ,  3-C ) :   1.1864
B(  3-C ,  4-F ) :   1.1358 B(  3-C ,  5-C ) :   1.4452 B(  5-C ,  6-C ) :   1.1911
B(  5-C , 81-H ) :   1.0073 B(  6-C ,  7-C ) :   1.2532 B(  6-C , 11-C ) :   1.1943
B(  7-C ,  8-C ) :   1.2253 B(  8-C ,  9-C ) :   1.4389 B(  8-C , 82-H ) :   0.9898
B(  9-C , 10-C ) :   1.2232 B(  9-C , 15-C ) :   0.9949 B( 10-C , 11-C ) :   1.4749
B( 10-C , 12-C ) :   0.9344 B( 11-C , 83-H ) :   1.0159 B( 12-C , 13-O ) :   2.2949
B( 12-C , 14-C ) :   0.9022 B( 14-C , 15-C ) :   1.0524 B( 14-C , 21-C ) :   1.6740
B( 15-C , 16-C ) :   1.6559 B( 16-C , 17-C ) :   1.1362 B( 16-C , 19-C ) :   1.1420
B( 17-C , 18-N ) :   2.9935 B( 19-C , 20-N ) :   2.9666 B( 21-C , 22-C ) :   1.1116
B( 21-C , 84-H ) :   0.9308 B( 22-C , 23-O ) :   1.1109 B( 22-C , 26-N ) :   1.7214
B( 23-O , 24-C ) :   1.1303 B( 24-C , 25-C ) :   1.2273 B( 24-C , 30-C ) :   1.3048
B( 25-C , 26-N ) :   1.3191 B( 25-C , 27-C ) :   1.2707 B( 27-C , 28-C ) :   1.2902
B( 27-C , 30-C ) :   0.1484 B( 27-C , 85-H ) :   1.0515 B( 28-C , 29-C ) :   1.2310
B( 28-C , 33-N ) :   1.2941 B( 29-C , 30-C ) :   1.3263 B( 29-C , 31-O ) :   1.1215
B( 30-C , 86-H ) :   1.0465 B( 31-O , 32-C ) :   1.1283 B( 32-C , 33-N ) :   1.7473
B( 32-C , 34-C ) :   1.1081 B( 34-C , 35-C ) :   1.6536 B( 34-C , 87-H ) :   0.9420
B( 35-C , 36-C ) :   1.1421 B( 35-C , 88-H ) :   0.9713 B( 36-C , 37-O ) :   1.1393
B( 36-C , 38-C ) :   1.4196 B( 37-O , 45-C ) :   1.1459 B( 38-C , 39-C ) :   0.8800
B( 38-C , 44-C ) :   1.2903 B( 39-C , 40-O ) :   2.1922 B( 39-C , 41-N ) :   1.0991
B( 41-N , 42-C ) :   1.0711 B( 41-N , 89-H ) :   0.9144 B( 42-C , 43-O ) :   2.2680
B( 42-C , 44-C ) :   0.8829 B( 44-C , 45-C ) :   1.3721 B( 45-C , 46-C ) :   1.1873
B( 46-C , 47-C ) :   1.5771 B( 46-C , 90-H ) :   0.9688 B( 47-C , 48-C ) :   1.1550
B( 47-C , 91-H ) :   0.9795 B( 48-C , 49-C ) :   1.5451 B( 48-C , 92-H ) :   0.9853
B( 49-C , 50-C ) :   1.1475 B( 49-C , 53-S ) :   1.0366 B( 50-C , 51-C ) :   1.5825
B( 50-C , 93-H ) :   1.0001 B( 51-C , 52-C ) :   1.1920 B( 51-C , 94-H ) :   0.9946
B( 52-C , 53-S ) :   1.0735 B( 52-C , 54-C ) :   1.4785 B( 54-C , 55-C ) :   1.1841
B( 54-C , 58-S ) :   1.0767 B( 55-C , 56-C ) :   1.5774 B( 55-C , 95-H ) :   0.9933
B( 56-C , 57-C ) :   1.1650 B( 56-C , 96-H ) :   0.9981 B( 57-C , 58-S ) :   1.1181
B( 57-C , 59-C ) :   1.4717 B( 59-C , 60-C ) :   1.3282 B( 59-C , 97-H ) :   0.9491
B( 60-C , 61-C ) :   1.4610 B( 60-C , 98-H ) :   0.9406 B( 61-C , 62-C ) :   1.0936
B( 61-C , 70-C ) :   0.9976 B( 62-C , 63-C ) :   1.6181 B( 62-C , 68-C ) :   0.9982
B( 63-C , 64-C ) :   1.1421 B( 63-C , 66-C ) :   1.1453 B( 64-C , 65-N ) :   2.9695
B( 66-C , 67-N ) :   2.9990 B( 68-C , 69-C ) :   1.2744 B( 68-C , 75-C ) :   1.4180
B( 69-C , 70-C ) :   0.9329 B( 69-C , 72-C ) :   1.4360 B( 70-C , 71-O ) :   2.1692
B( 72-C , 73-C ) :   1.2353 B( 72-C , 99-H ) :   1.0160 B( 73-C , 74-C ) :   1.3166
B( 73-C , 78-C ) :   1.1642 B( 74-C , 75-C ) :   1.3216 B( 74-C , 76-S ) :   1.0827
B( 75-C ,100-H ) :   0.9802 B( 76-S , 77-C ) :   1.0881 B( 77-C , 78-C ) :   1.6177
B( 77-C , 79-Br) :   1.0138 B( 78-C ,101-H ) :   0.9994

-----------------------------------------------------------------------------
         ABSORPTION SPECTRUM VIA TRANSITION ELECTRIC DIPOLE MOMENTS
-----------------------------------------------------------------------------
State   Energy  Wavelength   fosc         T2         TX        TY        TZ
        (cm-1)    (nm)                  (au**2)     (au)      (au)      (au)
-----------------------------------------------------------------------------
   0   11451.6    873.2   0.785806021  22.59047  -0.29457  -1.72029   4.42089
   1   19217.7    520.4   0.562869085   9.64232  -2.16704  -1.16054  -1.89721
   2   20285.0    493.0   0.670964802  10.88930   2.22270   1.13413   2.15931
   3   21230.7    471.0   0.724848533  11.23982   2.16318   2.51129   0.50389
   4   22137.6    451.7   0.014602379   0.21715  -0.15759  -0.19696   0.39182
   5   22381.8    446.8   0.194007542   2.85365   1.03682  -0.00191   1.33366
   6   23174.3    431.5   0.216844540   3.08047  -1.19148  -0.60182  -1.13959
   7   23727.8    421.4   0.180811897   2.50868  -0.53046  -0.76239  -1.28299
   8   24351.8    410.6   0.223884488   3.02670   1.17768  -0.27792   1.25001
   9   24838.1    402.6   0.209831793   2.78117   0.10283  -1.61013   0.42199
  10   26172.1    382.1   0.074801148   0.94091   0.43019  -0.75198   0.43631
  11   26461.1    377.9   0.248291797   3.08909   0.09667  -1.57725   0.76944
  12   27149.4    368.3   0.141722743   1.71852  -0.18666   1.17188  -0.55712
  13   27244.7    367.0   0.248715325   3.00535   1.38372   0.93066   0.47385
  14   28352.1    352.7   0.119474925   1.38729   0.32789  -1.10457   0.24435
  15   28922.3    345.8   0.004036926   0.04595  -0.02837   0.20914   0.03750
  16   29492.4    339.1   0.223433466   2.49410   1.05952   0.39200   1.10356
  17   29923.1    334.2   0.111585685   1.22766  -0.31409   0.76870  -0.73356
  18   29976.9    333.6   0.022755241   0.24990  -0.42533   0.25714  -0.05366
  19   30208.2    331.0   0.045254799   0.49319  -0.36117   0.59778  -0.07353
  20   30271.8    330.3   0.025695245   0.27944  -0.31685  -0.30579   0.29246
  21   30696.4    325.8   0.107117053   1.14881   0.78171  -0.52716   0.50975
  22   30799.3    324.7   0.060607345   0.64783   0.62114   0.08088   0.50544
  23   31341.6    319.1   0.305696032   3.21103   0.44887  -1.70012   0.34518
  24   31750.2    315.0   0.136406103   1.41437   0.51504  -1.07186   0.01469
  25   31824.8    314.2   0.010749178   0.11120   0.24991   0.12692   0.18064
  26   32069.1    311.8   0.146761251   1.50661  -0.85406   0.88081  -0.03678
  27   33314.0    300.2   0.285046216   2.81685  -0.71022   1.47268  -0.37903
  28   33550.0    298.1   0.045632070   0.44777  -0.21982   0.62257  -0.10886
  29   33717.5    296.6   0.076819278   0.75005  -0.72523   0.11135  -0.46010
  30   34070.4    293.5   0.053335611   0.51537   0.35215  -0.40732   0.47481
  31   34255.7    291.9   0.051465553   0.49461   0.27815  -0.57437   0.29553
  32   34379.3    290.9   0.245506360   2.35094  -0.64178   1.08990  -0.86671
  33   34661.5    288.5   0.270608958   2.57022  -0.60421   1.43643  -0.37658
  34   34965.5    286.0   0.035915236   0.33815   0.42166   0.26246   0.30244
  35   35183.7    284.2   0.043965818   0.41139   0.33769   0.53653   0.09736
  36   35644.8    280.5   0.067244333   0.62106   0.69691  -0.35823  -0.08393
  37   35769.2    279.6   0.029626812   0.27268   0.09296   0.50459   0.09709
  38   35894.2    278.6   0.000896284   0.00822  -0.07107   0.05154   0.02265
  39   36115.1    276.9   0.100714819   0.91808  -0.62630   0.61588  -0.38277
  40   36607.2    273.2   0.027941317   0.25128   0.22801  -0.22220   0.38719
  41   36638.7    272.9   0.001019163   0.00916   0.09257   0.01615   0.01808
  42   36758.7    272.0   0.015668188   0.14032  -0.20007  -0.30117  -0.09795
  43   36845.4    271.4   0.062833850   0.56142   0.64444  -0.25940   0.28076
  44   37191.0    268.9   0.013083878   0.11582  -0.23479  -0.23775  -0.06455
  45   37300.2    268.1   0.003137411   0.02769  -0.00054   0.15771  -0.05308
  46   37592.8    266.0   0.048858753   0.42787   0.51596  -0.08824   0.39226
  47   37724.9    265.1   0.010203591   0.08904   0.04695   0.29468  -0.00182
  48   37850.0    264.2   0.019765825   0.17192  -0.27151  -0.08991   0.30020
  49   38249.2    261.4   0.069568348   0.59878   0.13073  -0.73017   0.22032
  50   39097.2    255.8   0.001217242   0.01025  -0.03032  -0.06633   0.07022
  51   39157.7    255.4   0.010995253   0.09244  -0.20730   0.17988  -0.13080
  52   39435.0    253.6   0.035174118   0.29364  -0.48867   0.21300  -0.09733
  53   39463.6    253.4   0.039132475   0.32645  -0.46751  -0.12155  -0.30515
  54   39788.3    251.3   0.083088149   0.68748  -0.65563  -0.24140  -0.44648
  55   39866.2    250.8   0.034206101   0.28247  -0.52960  -0.00700  -0.04407
  56   40016.2    249.9   0.007301936   0.06007   0.09983   0.21531   0.06123
  57   40239.8    248.5   0.001479946   0.01211   0.06991  -0.06322   0.05678

FINAL SINGLE POINT ENERGY     -7173.020138216438

DIPOLE MOMENT
-------------
                                X             Y             Z
Electronic contribution:     -7.98426      64.25470      59.74320
Nuclear contribution   :      4.57887     -66.61462     -62.99540
                        -----------------------------------------
Total Dipole Moment    :     -3.40539      -2.35992      -3.25221
                        -----------------------------------------
Magnitude (a.u.)       :      5.26714
Magnitude (Debye)      :     13.38800

Rotational constants in cm-1:     0.000615     0.000282     0.000245
Rotational constants in MHz :    18.427922     8.440516     7.339852

                             ****ORCA TERMINATED NORMALLY****
TOTAL RUN TIME: 0 days 0 hours 10 minutes 36 seconds 726 msec
