                         Program Version 4.2.0 -  RELEASE  -
|  1> # ORCA input file
|  2> # SCF done       -183.144210443257          0.000831529896
|  3> ! CAM-B3LYP def2-SVP def2/J RIJCOSX Grid4 TightSCF
|  4> %maxcore 5000
|  5> %tddft
|  6>     Mode sTDDFT
|  7>     Ethresh 5.0
|  8>     maxcore 5000
|  9> end
| 10>
| 11> %pal
| 12>   nprocs 6
| 13>   end
| 14> * xyz 0 1
| 15>    C       -0.14479         2.95262        -4.26984
| 16>    C        0.14542         2.22531        -3.18142
| 17>    C       -0.07106         2.57924        -1.80790
| 18>    C        0.33109         1.64181        -0.92122
| 19>    C        0.89451         0.47676        -1.51225
| 20>    S        0.88887         0.61963        -3.25856
| 21>    C        1.39560        -0.63039        -0.86832
| 22>    C        1.47306        -0.85556         0.53299
| 23>    C        2.03346        -2.04279         0.86594
| 24>    C        2.43196        -2.84441        -0.24554
| 25>    S        2.04672        -1.99797        -1.74068
| 26>    C        3.07015        -4.04216        -0.14541
| 27>    C        3.46606        -4.92700        -1.20054
| 28>    C        4.47897        -5.89194        -0.93567
| 29>    O        5.01063        -5.85983         0.29753
| 30>    C        5.88367        -6.88741         0.72773
| 31>    C        6.12596        -6.67487         2.21372
| 32>    C        4.88439        -6.76743        -1.93109
| 33>    C        4.28542        -6.76816        -3.18671
| 34>    O        4.66087        -7.55392        -4.20928
| 35>    C        5.41458        -8.73237        -3.99132
| 36>    C        4.56303        -9.83403        -3.37171
| 37>    C        3.20942        -5.87572        -3.42960
| 38>    C        2.85245        -4.95658        -2.44558
| 39>    C        2.36070        -6.04089        -4.57593
| 40>    O        2.65106        -6.97217        -5.51051
| 41>    C        1.08658        -5.55551        -4.83192
| 42>    C        0.04303        -4.63270        -4.38591
| 43>    O        0.01470        -3.82069        -3.49462
| 44>    N       -1.01815        -4.88106        -5.25598
| 45>    C       -0.79033        -5.87159        -6.20756
| 46>    O       -1.58792        -6.23774        -7.03270
| 47>    C        0.58001        -6.30182        -5.92827
| 48>    C        1.57000        -7.18297        -6.31093
| 49>    C        1.56673        -8.32302        -7.15709
| 50>    C        2.66715        -8.89637        -7.71293
| 51>    C        2.69175       -10.24867        -8.14252
| 52>    C        2.10861       -11.23621        -7.38858
| 53>    C        2.11731       -12.63796        -7.59208
| 54>    C        1.72380       -13.36506        -6.50440
| 55>    C        1.39774       -12.57671        -5.38156
| 56>    S        1.47705       -10.88257        -5.77982
| 57>    C        1.14294       -12.96827        -4.07218
| 58>    C        0.92704       -14.24921        -3.54131
| 59>    C        0.79616       -14.26153        -2.17626
| 60>    C        0.92512       -12.99671        -1.57302
| 61>    S        1.16462       -11.77146        -2.79385
| 62>    C        0.92156       -12.70798        -0.21301
| 63>    C        1.18207       -11.44515         0.28640
| 64>    C        1.21069       -11.10333         1.63344
| 65>    C        1.54480        -9.82452         2.18166
| 66>    C        2.04225        -8.72405         1.50826
| 67>    C        2.35146        -7.49260         2.10942
| 68>    N        2.64587        -6.46374         2.53247
| 69>    C        2.38099        -8.68394         0.14751
| 70>    N        2.73648        -8.55690        -0.94020
| 71>    C        1.33733        -9.88711         3.62822
| 72>    C        0.93962       -11.20214         3.96803
| 73>    C        0.85546       -12.01488         2.73131
| 74>    O        0.54955       -13.19132         2.67044
| 75>    C        0.68850       -11.58948         5.25934
| 76>    C        0.83360       -10.62928         6.26895
| 77>    C        1.22329        -9.31769         5.91916
| 78>    C        1.47975        -8.92643         4.60922
| 79>    S        1.34031        -8.29117         7.31807
| 80>    C        0.87270        -9.62452         8.33922
| 81>    C        0.63910       -10.77751         7.67005
| 82>   Br        0.73934        -9.36745        10.19374
| 83>    H       -0.59480         3.92530        -4.17679
| 84>    H        0.05974         2.59237        -5.26109
| 85>    H       -0.51950         3.52178        -1.54806
| 86>    H        0.24382         1.74119         0.14628
| 87>    H        1.11809        -0.13098         1.24381
| 88>    H        2.17825        -2.39107         1.87332
| 89>    H        3.33001        -4.37188         0.85225
| 90>    H        6.83129        -6.83625         0.17346
| 91>    H        5.42087        -7.86755         0.54977
| 92>    H        6.62676        -5.72462         2.37608
| 93>    H        6.74139        -7.47725         2.61024
| 94>    H        5.17301        -6.65628         2.73622
| 95>    H        5.66946        -7.47373        -1.72047
| 96>    H        6.30446        -8.52923        -3.38376
| 97>    H        5.74552        -9.02456        -4.99208
| 98>    H        4.14061        -9.50318        -2.42587
| 99>    H        5.16586       -10.72315        -3.20725
|100>    H        3.73980       -10.07924        -4.03822
|101>    H        2.01790        -4.30276        -2.63770
|102>    H       -1.89322        -4.38105        -5.19153
|103>    H        0.59166        -8.76426        -7.31600
|104>    H        3.58093        -8.32180        -7.79524
|105>    H        3.29833       -10.53672        -8.98971
|106>    H        2.44366       -13.06778        -8.52270
|107>    H        1.71609       -14.43991        -6.46620
|108>    H        0.86772       -15.12451        -4.16344
|109>    H        0.62947       -15.14800        -1.59053
|110>    H        0.73679       -13.52013         0.47472
|111>    H        1.38402       -10.66339        -0.43699
|112>    H        0.39108       -12.60081         5.48819
|113>    H        1.77181        -7.91222         4.39451
|114>    H        0.34233       -11.69612         8.14231
|115> *
|116>
|117>                          ****END OF INPUT****

CARTESIAN COORDINATES (ANGSTROEM)
---------------------------------
  C     -0.144790    2.952620   -4.269840
  C      0.145420    2.225310   -3.181420
  C     -0.071060    2.579240   -1.807900
  C      0.331090    1.641810   -0.921220
  C      0.894510    0.476760   -1.512250
  S      0.888870    0.619630   -3.258560
  C      1.395600   -0.630390   -0.868320
  C      1.473060   -0.855560    0.532990
  C      2.033460   -2.042790    0.865940
  C      2.431960   -2.844410   -0.245540
  S      2.046720   -1.997970   -1.740680
  C      3.070150   -4.042160   -0.145410
  C      3.466060   -4.927000   -1.200540
  C      4.478970   -5.891940   -0.935670
  O      5.010630   -5.859830    0.297530
  C      5.883670   -6.887410    0.727730
  C      6.125960   -6.674870    2.213720
  C      4.884390   -6.767430   -1.931090
  C      4.285420   -6.768160   -3.186710
  O      4.660870   -7.553920   -4.209280
  C      5.414580   -8.732370   -3.991320
  C      4.563030   -9.834030   -3.371710
  C      3.209420   -5.875720   -3.429600
  C      2.852450   -4.956580   -2.445580
  C      2.360700   -6.040890   -4.575930
  O      2.651060   -6.972170   -5.510510
  C      1.086580   -5.555510   -4.831920
  C      0.043030   -4.632700   -4.385910
  O      0.014700   -3.820690   -3.494620
  N     -1.018150   -4.881060   -5.255980
  C     -0.790330   -5.871590   -6.207560
  O     -1.587920   -6.237740   -7.032700
  C      0.580010   -6.301820   -5.928270
  C      1.570000   -7.182970   -6.310930
  C      1.566730   -8.323020   -7.157090
  C      2.667150   -8.896370   -7.712930
  C      2.691750  -10.248670   -8.142520
  C      2.108610  -11.236210   -7.388580
  C      2.117310  -12.637960   -7.592080
  C      1.723800  -13.365060   -6.504400
  C      1.397740  -12.576710   -5.381560
  S      1.477050  -10.882570   -5.779820
  C      1.142940  -12.968270   -4.072180
  C      0.927040  -14.249210   -3.541310
  C      0.796160  -14.261530   -2.176260
  C      0.925120  -12.996710   -1.573020
  S      1.164620  -11.771460   -2.793850
  C      0.921560  -12.707980   -0.213010
  C      1.182070  -11.445150    0.286400
  C      1.210690  -11.103330    1.633440
  C      1.544800   -9.824520    2.181660
  C      2.042250   -8.724050    1.508260
  C      2.351460   -7.492600    2.109420
  N      2.645870   -6.463740    2.532470
  C      2.380990   -8.683940    0.147510
  N      2.736480   -8.556900   -0.940200
  C      1.337330   -9.887110    3.628220
  C      0.939620  -11.202140    3.968030
  C      0.855460  -12.014880    2.731310
  O      0.549550  -13.191320    2.670440
  C      0.688500  -11.589480    5.259340
  C      0.833600  -10.629280    6.268950
  C      1.223290   -9.317690    5.919160
  C      1.479750   -8.926430    4.609220
  S      1.340310   -8.291170    7.318070
  C      0.872700   -9.624520    8.339220
  C      0.639100  -10.777510    7.670050
  Br     0.739340   -9.367450   10.193740
  H     -0.594800    3.925300   -4.176790
  H      0.059740    2.592370   -5.261090
  H     -0.519500    3.521780   -1.548060
  H      0.243820    1.741190    0.146280
  H      1.118090   -0.130980    1.243810
  H      2.178250   -2.391070    1.873320
  H      3.330010   -4.371880    0.852250
  H      6.831290   -6.836250    0.173460
  H      5.420870   -7.867550    0.549770
  H      6.626760   -5.724620    2.376080
  H      6.741390   -7.477250    2.610240
  H      5.173010   -6.656280    2.736220
  H      5.669460   -7.473730   -1.720470
  H      6.304460   -8.529230   -3.383760
  H      5.745520   -9.024560   -4.992080
  H      4.140610   -9.503180   -2.425870
  H      5.165860  -10.723150   -3.207250
  H      3.739800  -10.079240   -4.038220
  H      2.017900   -4.302760   -2.637700
  H     -1.893220   -4.381050   -5.191530
  H      0.591660   -8.764260   -7.316000
  H      3.580930   -8.321800   -7.795240
  H      3.298330  -10.536720   -8.989710
  H      2.443660  -13.067780   -8.522700
  H      1.716090  -14.439910   -6.466200
  H      0.867720  -15.124510   -4.163440
  H      0.629470  -15.148000   -1.590530
  H      0.736790  -13.520130    0.474720
  H      1.384020  -10.663390   -0.436990
  H      0.391080  -12.600810    5.488190
  H      1.771810   -7.912220    4.394510
  H      0.342330  -11.696120    8.142310

 Total Charge           Charge          ....    0
 Multiplicity           Mult            ....    1
 Number of Electrons    NEL             ....  534
 Basis Dimension        Dim             .... 1150

ORBITAL ENERGIES
----------------

  NO   OCC          E(Eh)            E(eV)
   0   2.0000    -482.878722    -13139.7980
   1   2.0000     -88.969161     -2420.9739
   2   2.0000     -88.966647     -2420.9055
   3   2.0000     -88.963734     -2420.8263
   4   2.0000     -88.912607     -2419.4351
   5   2.0000     -88.911721     -2419.4109
   6   2.0000     -62.556447     -1702.2475
   7   2.0000     -56.390388     -1534.4605
   8   2.0000     -56.387692     -1534.3871
   9   2.0000     -56.387649     -1534.3859
  10   2.0000     -19.291712      -524.9542
  11   2.0000     -19.240205      -523.5526
  12   2.0000     -19.236951      -523.4640
  13   2.0000     -19.200780      -522.4798
  14   2.0000     -19.198265      -522.4113
  15   2.0000     -19.194119      -522.2985
  16   2.0000     -14.439290      -392.9131
  17   2.0000     -14.407472      -392.0473
  18   2.0000     -14.404640      -391.9702
  19   2.0000     -10.387282      -282.6523
  20   2.0000     -10.383174      -282.5405
  21   2.0000     -10.352031      -281.6931
  22   2.0000     -10.351097      -281.6677
  23   2.0000     -10.350128      -281.6413
  24   2.0000     -10.343363      -281.4572
  25   2.0000     -10.341833      -281.4156
  26   2.0000     -10.333292      -281.1832
  27   2.0000     -10.330773      -281.1146
  28   2.0000     -10.329705      -281.0856
  29   2.0000     -10.329101      -281.0691
  30   2.0000     -10.327367      -281.0220
  31   2.0000     -10.324570      -280.9458
  32   2.0000     -10.322410      -280.8871
  33   2.0000     -10.317625      -280.7569
  34   2.0000     -10.317485      -280.7530
  35   2.0000     -10.315020      -280.6860
  36   2.0000     -10.314820      -280.6805
  37   2.0000     -10.313091      -280.6335
  38   2.0000     -10.312923      -280.6289
  39   2.0000     -10.311491      -280.5899
  40   2.0000     -10.310307      -280.5577
  41   2.0000     -10.309894      -280.5465
  42   2.0000     -10.301751      -280.3249
  43   2.0000     -10.300524      -280.2915
  44   2.0000     -10.296739      -280.1885
  45   2.0000     -10.295463      -280.1538
  46   2.0000     -10.294935      -280.1394
  47   2.0000     -10.294806      -280.1359
  48   2.0000     -10.294361      -280.1238
  49   2.0000     -10.289420      -279.9893
  50   2.0000     -10.288475      -279.9636
  51   2.0000     -10.282441      -279.7994
  52   2.0000     -10.282343      -279.7968
  53   2.0000     -10.281995      -279.7873
  54   2.0000     -10.280133      -279.7366
  55   2.0000     -10.279175      -279.7106
  56   2.0000     -10.276231      -279.6305
  57   2.0000     -10.275666      -279.6151
  58   2.0000     -10.275065      -279.5987
  59   2.0000     -10.271419      -279.4995
  60   2.0000     -10.267141      -279.3831
  61   2.0000     -10.266254      -279.3590
  62   2.0000     -10.259799      -279.1833
  63   2.0000     -10.259452      -279.1739
  64   2.0000     -10.258992      -279.1614
  65   2.0000     -10.257993      -279.1342
  66   2.0000     -10.256594      -279.0961
  67   2.0000     -10.255518      -279.0668
  68   2.0000     -10.248622      -278.8792
  69   2.0000     -10.248478      -278.8753
  70   2.0000     -10.243921      -278.7513
  71   2.0000     -10.243906      -278.7508
  72   2.0000      -8.785876      -239.0758
  73   2.0000      -8.064187      -219.4377
  74   2.0000      -8.062682      -219.3967
  75   2.0000      -8.059501      -219.3102
  76   2.0000      -8.008641      -217.9262
  77   2.0000      -8.008496      -217.9222
  78   2.0000      -6.622133      -180.1974
  79   2.0000      -6.607613      -179.8023
  80   2.0000      -6.607462      -179.7982
  81   2.0000      -6.033937      -164.1918
  82   2.0000      -6.032358      -164.1488
  83   2.0000      -6.029727      -164.0772
  84   2.0000      -6.029034      -164.0583
  85   2.0000      -6.028122      -164.0335
  86   2.0000      -6.025303      -163.9568
  87   2.0000      -6.025005      -163.9487
  88   2.0000      -6.023896      -163.9185
  89   2.0000      -6.020858      -163.8359
  90   2.0000      -5.978481      -162.6827
  91   2.0000      -5.978326      -162.6785
  92   2.0000      -5.974464      -162.5734
  93   2.0000      -5.974403      -162.5718
  94   2.0000      -5.969322      -162.4335
  95   2.0000      -5.968969      -162.4239
  96   2.0000      -2.738006       -74.5049
  97   2.0000      -2.733943       -74.3944
  98   2.0000      -2.733803       -74.3905
  99   2.0000      -2.722273       -74.0768
 100   2.0000      -2.722262       -74.0765
 101   2.0000      -1.213280       -33.0150
 102   2.0000      -1.148809       -31.2607
 103   2.0000      -1.146153       -31.1884
 104   2.0000      -1.140737       -31.0410
 105   2.0000      -1.119719       -30.4691
 106   2.0000      -1.113657       -30.3042
 107   2.0000      -1.027513       -27.9600
 108   2.0000      -1.018206       -27.7068
 109   2.0000      -1.012159       -27.5422
 110   2.0000      -1.004443       -27.3323
 111   2.0000      -0.994538       -27.0628
 112   2.0000      -0.985504       -26.8169
 113   2.0000      -0.977717       -26.6050
 114   2.0000      -0.964880       -26.2557
 115   2.0000      -0.947610       -25.7858
 116   2.0000      -0.940249       -25.5855
 117   2.0000      -0.935045       -25.4439
 118   2.0000      -0.932034       -25.3619
 119   2.0000      -0.910120       -24.7656
 120   2.0000      -0.906660       -24.6715
 121   2.0000      -0.897579       -24.4244
 122   2.0000      -0.894334       -24.3361
 123   2.0000      -0.879817       -23.9410
 124   2.0000      -0.875212       -23.8157
 125   2.0000      -0.869091       -23.6492
 126   2.0000      -0.866842       -23.5880
 127   2.0000      -0.858202       -23.3529
 128   2.0000      -0.846934       -23.0462
 129   2.0000      -0.842694       -22.9309
 130   2.0000      -0.840204       -22.8631
 131   2.0000      -0.832903       -22.6645
 132   2.0000      -0.829762       -22.5790
 133   2.0000      -0.819005       -22.2863
 134   2.0000      -0.818797       -22.2806
 135   2.0000      -0.809310       -22.0224
 136   2.0000      -0.799123       -21.7452
 137   2.0000      -0.791080       -21.5264
 138   2.0000      -0.784771       -21.3547
 139   2.0000      -0.767458       -20.8836
 140   2.0000      -0.756016       -20.5723
 141   2.0000      -0.752021       -20.4635
 142   2.0000      -0.748563       -20.3694
 143   2.0000      -0.746303       -20.3079
 144   2.0000      -0.734538       -19.9878
 145   2.0000      -0.730161       -19.8687
 146   2.0000      -0.715065       -19.4579
 147   2.0000      -0.705967       -19.2103
 148   2.0000      -0.695089       -18.9143
 149   2.0000      -0.687314       -18.7028
 150   2.0000      -0.685380       -18.6501
 151   2.0000      -0.683251       -18.5922
 152   2.0000      -0.679219       -18.4825
 153   2.0000      -0.668700       -18.1962
 154   2.0000      -0.660424       -17.9711
 155   2.0000      -0.656832       -17.8733
 156   2.0000      -0.652871       -17.7655
 157   2.0000      -0.648687       -17.6517
 158   2.0000      -0.647754       -17.6263
 159   2.0000      -0.637299       -17.3418
 160   2.0000      -0.628367       -17.0987
 161   2.0000      -0.622614       -16.9422
 162   2.0000      -0.620401       -16.8820
 163   2.0000      -0.612446       -16.6655
 164   2.0000      -0.610775       -16.6200
 165   2.0000      -0.602324       -16.3901
 166   2.0000      -0.596149       -16.2220
 167   2.0000      -0.591745       -16.1022
 168   2.0000      -0.589290       -16.0354
 169   2.0000      -0.584478       -15.9044
 170   2.0000      -0.580582       -15.7984
 171   2.0000      -0.579534       -15.7699
 172   2.0000      -0.576820       -15.6961
 173   2.0000      -0.573503       -15.6058
 174   2.0000      -0.570142       -15.5143
 175   2.0000      -0.569810       -15.5053
 176   2.0000      -0.563650       -15.3377
 177   2.0000      -0.560961       -15.2645
 178   2.0000      -0.551102       -14.9963
 179   2.0000      -0.549435       -14.9509
 180   2.0000      -0.543701       -14.7949
 181   2.0000      -0.537593       -14.6287
 182   2.0000      -0.536844       -14.6083
 183   2.0000      -0.535499       -14.5717
 184   2.0000      -0.531128       -14.4527
 185   2.0000      -0.527572       -14.3560
 186   2.0000      -0.525628       -14.3031
 187   2.0000      -0.523434       -14.2434
 188   2.0000      -0.521546       -14.1920
 189   2.0000      -0.518388       -14.1060
 190   2.0000      -0.516637       -14.0584
 191   2.0000      -0.514994       -14.0137
 192   2.0000      -0.514127       -13.9901
 193   2.0000      -0.505780       -13.7630
 194   2.0000      -0.503692       -13.7061
 195   2.0000      -0.502399       -13.6710
 196   2.0000      -0.499200       -13.5839
 197   2.0000      -0.496933       -13.5222
 198   2.0000      -0.493617       -13.4320
 199   2.0000      -0.486737       -13.2448
 200   2.0000      -0.485923       -13.2226
 201   2.0000      -0.484393       -13.1810
 202   2.0000      -0.482600       -13.1322
 203   2.0000      -0.481692       -13.1075
 204   2.0000      -0.481429       -13.1004
 205   2.0000      -0.479693       -13.0531
 206   2.0000      -0.476092       -12.9551
 207   2.0000      -0.474392       -12.9089
 208   2.0000      -0.471669       -12.8348
 209   2.0000      -0.467914       -12.7326
 210   2.0000      -0.466762       -12.7012
 211   2.0000      -0.466066       -12.6823
 212   2.0000      -0.463233       -12.6052
 213   2.0000      -0.462576       -12.5873
 214   2.0000      -0.460935       -12.5427
 215   2.0000      -0.459147       -12.4940
 216   2.0000      -0.457161       -12.4400
 217   2.0000      -0.453159       -12.3311
 218   2.0000      -0.451771       -12.2933
 219   2.0000      -0.449641       -12.2353
 220   2.0000      -0.448376       -12.2009
 221   2.0000      -0.444913       -12.1067
 222   2.0000      -0.439577       -11.9615
 223   2.0000      -0.437662       -11.9094
 224   2.0000      -0.436645       -11.8817
 225   2.0000      -0.432562       -11.7706
 226   2.0000      -0.430753       -11.7214
 227   2.0000      -0.430413       -11.7121
 228   2.0000      -0.422855       -11.5065
 229   2.0000      -0.421418       -11.4674
 230   2.0000      -0.420720       -11.4484
 231   2.0000      -0.418659       -11.3923
 232   2.0000      -0.415632       -11.3099
 233   2.0000      -0.412088       -11.2135
 234   2.0000      -0.404391       -11.0040
 235   2.0000      -0.403430       -10.9779
 236   2.0000      -0.401690       -10.9305
 237   2.0000      -0.398865       -10.8537
 238   2.0000      -0.396419       -10.7871
 239   2.0000      -0.390201       -10.6179
 240   2.0000      -0.387348       -10.5403
 241   2.0000      -0.382278       -10.4023
 242   2.0000      -0.377420       -10.2701
 243   2.0000      -0.376187       -10.2366
 244   2.0000      -0.368320       -10.0225
 245   2.0000      -0.368194       -10.0191
 246   2.0000      -0.367202        -9.9921
 247   2.0000      -0.364648        -9.9226
 248   2.0000      -0.355955        -9.6860
 249   2.0000      -0.354703        -9.6519
 250   2.0000      -0.353444        -9.6177
 251   2.0000      -0.348108        -9.4725
 252   2.0000      -0.344531        -9.3752
 253   2.0000      -0.338004        -9.1976
 254   2.0000      -0.330818        -9.0020
 255   2.0000      -0.322880        -8.7860
 256   2.0000      -0.321290        -8.7427
 257   2.0000      -0.311293        -8.4707
 258   2.0000      -0.309828        -8.4308
 259   2.0000      -0.305466        -8.3121
 260   2.0000      -0.298950        -8.1348
 261   2.0000      -0.293490        -7.9863
 262   2.0000      -0.284751        -7.7485
 263   2.0000      -0.273080        -7.4309
 264   2.0000      -0.249573        -6.7912
 265   2.0000      -0.229536        -6.2460
 266   2.0000      -0.192285        -5.2324
 267   0.0000      -0.115025        -3.1300
 268   0.0000      -0.064840        -1.7644
 269   0.0000      -0.047622        -1.2958
 270   0.0000      -0.034911        -0.9500
 271   0.0000      -0.022955        -0.6246

MULLIKEN ATOMIC CHARGES
-----------------------
   0 C :   -0.041975
   1 C :   -0.059772
   2 C :    0.044290
   3 C :    0.030106
   4 C :   -0.078174
   5 S :    0.070174
   6 C :   -0.043189
   7 C :    0.026779
   8 C :    0.033040
   9 C :   -0.009733
  10 S :    0.084137
  11 C :   -0.045077
  12 C :    0.041629
  13 C :    0.236243
  14 O :   -0.291514
  15 C :    0.130524
  16 C :    0.022627
  17 C :   -0.181358
  18 C :    0.225942
  19 O :   -0.285665
  20 C :    0.162611
  21 C :   -0.003299
  22 C :    0.039485
  23 C :   -0.121357
  24 C :    0.127832
  25 O :   -0.178846
  26 C :   -0.103075
  27 C :    0.188222
  28 O :   -0.145119
  29 N :   -0.162361
  30 C :    0.160353
  31 O :   -0.149693
  32 C :   -0.023584
  33 C :    0.062483
  34 C :   -0.023999
  35 C :   -0.014209
  36 C :    0.045356
  37 C :   -0.071755
  38 C :    0.061435
  39 C :    0.026042
  40 C :   -0.021979
  41 S :    0.105095
  42 C :   -0.055185
  43 C :    0.048675
  44 C :    0.019319
  45 C :    0.001858
  46 S :    0.110212
  47 C :   -0.019367
  48 C :   -0.035817
  49 C :   -0.100577
  50 C :    0.333862
  51 C :   -0.386568
  52 C :   -0.145228
  53 N :    0.111809
  54 C :   -0.180086
  55 N :    0.141675
  56 C :    0.007512
  57 C :   -0.008619
  58 C :    0.136876
  59 O :   -0.166444
  60 C :   -0.077056
  61 C :    0.116071
  62 C :   -0.092273
  63 C :   -0.026243
  64 S :    0.177260
  65 C :   -0.123635
  66 C :    0.036608
  67 Br:    0.015267
  68 H :    0.008736
  69 H :    0.012406
  70 H :   -0.021980
  71 H :   -0.017983
  72 H :   -0.023391
  73 H :   -0.011804
  74 H :    0.008487
  75 H :    0.015912
  76 H :    0.018371
  77 H :    0.022607
  78 H :    0.008418
  79 H :    0.035685
  80 H :   -0.045733
  81 H :    0.009505
  82 H :    0.009582
  83 H :    0.021442
  84 H :    0.003464
  85 H :    0.012244
  86 H :    0.008463
  87 H :    0.136830
  88 H :    0.043376
  89 H :    0.031961
  90 H :    0.012035
  91 H :    0.002966
  92 H :   -0.002057
  93 H :   -0.003918
  94 H :   -0.000347
  95 H :    0.014994
  96 H :    0.015859
  97 H :   -0.015760
  98 H :   -0.012482
  99 H :   -0.006463
Sum of atomic charges:   -0.0000000

LOEWDIN ATOMIC CHARGES
----------------------
   0 C :   -0.098271
   1 C :   -0.137084
   2 C :   -0.045253
   3 C :   -0.025458
   4 C :   -0.191098
   5 S :    0.343575
   6 C :   -0.175251
   7 C :   -0.044182
   8 C :   -0.023702
   9 C :   -0.147812
  10 S :    0.388063
  11 C :   -0.041690
  12 C :   -0.069539
  13 C :    0.093072
  14 O :   -0.073423
  15 C :    0.083107
  16 C :   -0.062459
  17 C :   -0.113198
  18 C :    0.092264
  19 O :   -0.077368
  20 C :    0.081938
  21 C :   -0.080023
  22 C :   -0.096062
  23 C :    0.016461
  24 C :    0.103767
  25 O :    0.033615
  26 C :   -0.119529
  27 C :    0.087690
  28 O :   -0.153876
  29 N :   -0.005373
  30 C :    0.082779
  31 O :   -0.165069
  32 C :   -0.077239
  33 C :    0.035748
  34 C :   -0.022649
  35 C :   -0.034589
  36 C :   -0.009339
  37 C :   -0.150493
  38 C :   -0.006579
  39 C :   -0.035443
  40 C :   -0.142831
  41 S :    0.429683
  42 C :   -0.200423
  43 C :   -0.004955
  44 C :   -0.048768
  45 C :   -0.100655
  46 S :    0.419186
  47 C :   -0.077976
  48 C :    0.048319
  49 C :   -0.117735
  50 C :    0.077972
  51 C :   -0.173543
  52 C :   -0.009207
  53 N :   -0.075677
  54 C :   -0.009075
  55 N :   -0.064374
  56 C :   -0.019399
  57 C :   -0.047266
  58 C :    0.081622
  59 O :   -0.160477
  60 C :    0.016777
  61 C :   -0.036143
  62 C :   -0.146851
  63 C :   -0.015167
  64 S :    0.425696
  65 C :   -0.274785
  66 C :   -0.070789
  67 Br:    0.129742
  68 H :    0.023728
  69 H :    0.021769
  70 H :    0.028940
  71 H :    0.029717
  72 H :    0.027500
  73 H :    0.033701
  74 H :    0.036249
  75 H :    0.012490
  76 H :    0.013254
  77 H :    0.029305
  78 H :    0.027227
  79 H :    0.030922
  80 H :    0.025855
  81 H :    0.008824
  82 H :    0.020948
  83 H :    0.023603
  84 H :    0.024867
  85 H :    0.013571
  86 H :    0.023713
  87 H :    0.093831
  88 H :    0.043357
  89 H :    0.041883
  90 H :    0.038925
  91 H :    0.039309
  92 H :    0.035805
  93 H :    0.035991
  94 H :    0.038332
  95 H :    0.038479
  96 H :    0.029940
  97 H :    0.038698
  98 H :    0.038807
  99 H :    0.037531

  Mayer bond orders larger than 0.100000
B(  0-C ,  1-C ) :   1.8601 B(  0-C , 68-H ) :   0.9496 B(  0-C , 69-H ) :   0.9418
B(  1-C ,  2-C ) :   1.0810 B(  1-C ,  5-S ) :   1.0124 B(  2-C ,  3-C ) :   1.6581
B(  2-C , 70-H ) :   0.9920 B(  3-C ,  4-C ) :   1.1544 B(  3-C , 71-H ) :   0.9915
B(  4-C ,  5-S ) :   1.0322 B(  4-C ,  6-C ) :   1.5650 B(  6-C ,  7-C ) :   1.1500
B(  6-C , 10-S ) :   1.0602 B(  7-C ,  8-C ) :   1.6251 B(  7-C , 72-H ) :   0.9922
B(  8-C ,  9-C ) :   1.1165 B(  8-C , 73-H ) :   1.0000 B(  9-C , 10-S ) :   1.0238
B(  9-C , 11-C ) :   1.6372 B( 11-C , 12-C ) :   1.0806 B( 11-C , 74-H ) :   0.9601
B( 12-C , 13-C ) :   1.2737 B( 12-C , 23-C ) :   1.3693 B( 13-C , 14-O ) :   1.2115
B( 13-C , 17-C ) :   1.2888 B( 14-O , 15-C ) :   0.9339 B( 15-C , 16-C ) :   1.0973
B( 15-C , 75-H ) :   0.9497 B( 15-C , 76-H ) :   0.9494 B( 16-C , 77-H ) :   0.9658
B( 16-C , 78-H ) :   0.9587 B( 16-C , 79-H ) :   0.9614 B( 17-C , 18-C ) :   1.2565
B( 17-C , 80-H ) :   0.9954 B( 18-C , 19-O ) :   1.2145 B( 18-C , 22-C ) :   1.2836
B( 19-O , 20-C ) :   0.9438 B( 20-C , 21-C ) :   1.1114 B( 20-C , 81-H ) :   0.9484
B( 20-C , 82-H ) :   0.9549 B( 21-C , 83-H ) :   0.9471 B( 21-C , 84-H ) :   0.9536
B( 21-C , 85-H ) :   0.9559 B( 22-C , 23-C ) :   1.3530 B( 22-C , 24-C ) :   1.0764
B( 23-C , 86-H ) :   0.9659 B( 24-C , 25-O ) :   1.2035 B( 24-C , 26-C ) :   1.4032
B( 25-O , 33-C ) :   1.1456 B( 26-C , 27-C ) :   0.8906 B( 26-C , 32-C ) :   1.2901
B( 27-C , 28-O ) :   2.1776 B( 27-C , 29-N ) :   1.0814 B( 29-N , 30-C ) :   1.0879
B( 29-N , 87-H ) :   0.9158 B( 30-C , 31-O ) :   2.2642 B( 30-C , 32-C ) :   0.8750
B( 32-C , 33-C ) :   1.4058 B( 33-C , 34-C ) :   1.1770 B( 34-C , 35-C ) :   1.6457
B( 34-C , 88-H ) :   0.9529 B( 35-C , 36-C ) :   1.1289 B( 35-C , 89-H ) :   0.9608
B( 36-C , 37-C ) :   1.6047 B( 36-C , 90-H ) :   0.9658 B( 37-C , 38-C ) :   1.1512
B( 37-C , 41-S ) :   1.0320 B( 38-C , 39-C ) :   1.5817 B( 38-C , 91-H ) :   0.9953
B( 39-C , 40-C ) :   1.2043 B( 39-C , 92-H ) :   0.9951 B( 40-C , 41-S ) :   1.0982
B( 40-C , 42-C ) :   1.4236 B( 42-C , 43-C ) :   1.2456 B( 42-C , 46-S ) :   1.0498
B( 43-C , 44-C ) :   1.5054 B( 43-C , 93-H ) :   0.9966 B( 44-C , 45-C ) :   1.2116
B( 44-C , 94-H ) :   1.0019 B( 45-C , 46-S ) :   1.1024 B( 45-C , 47-C ) :   1.3656
B( 47-C , 48-C ) :   1.3165 B( 47-C , 95-H ) :   0.9786 B( 48-C , 49-C ) :   1.4203
B( 48-C , 96-H ) :   0.9456 B( 49-C , 50-C ) :   1.1481 B( 49-C , 58-C ) :   0.9743
B( 50-C , 51-C ) :   1.5296 B( 50-C , 56-C ) :   0.9868 B( 51-C , 52-C ) :   1.1778
B( 51-C , 54-C ) :   1.1813 B( 52-C , 53-N ) :   2.8232 B( 54-C , 55-N ) :   2.8681
B( 56-C , 57-C ) :   1.2772 B( 56-C , 63-C ) :   1.4245 B( 57-C , 58-C ) :   0.9326
B( 57-C , 60-C ) :   1.4374 B( 58-C , 59-O ) :   2.1872 B( 60-C , 61-C ) :   1.2349
B( 60-C , 97-H ) :   1.0161 B( 61-C , 62-C ) :   1.3212 B( 61-C , 66-C ) :   1.1616
B( 62-C , 63-C ) :   1.3161 B( 62-C , 64-S ) :   1.0825 B( 63-C , 98-H ) :   0.9797
B( 64-S , 65-C ) :   1.0860 B( 65-C , 66-C ) :   1.6205 B( 65-C , 67-Br) :   1.0134
B( 66-C , 99-H ) :   1.0000

-----------------------------------------------------------------------------
         ABSORPTION SPECTRUM VIA TRANSITION ELECTRIC DIPOLE MOMENTS
-----------------------------------------------------------------------------
State   Energy  Wavelength   fosc         T2         TX        TY        TZ
        (cm-1)    (nm)                  (au**2)     (au)      (au)      (au)
-----------------------------------------------------------------------------
   0    6040.8   1655.4   0.028411006   1.54834  -0.14092  -1.14502   0.46626
   1   10237.6    976.8   0.490059210  15.75884   0.23745   1.04253  -3.82303
   2   15974.0    626.0   0.391850203   8.07575   0.04558  -1.60718  -2.34321
   3   16271.8    614.6   0.162861060   3.29501  -0.00260  -1.07774  -1.46065
   4   19752.6    506.3   1.085049750  18.08426  -0.99831   4.12972  -0.18178
   5   20324.7    492.0   0.032845110   0.53201  -0.03491   0.47521   0.55224
   6   20677.0    483.6   0.082205837   1.30885   0.66412   0.27589   0.88976
   7   21814.1    458.4   0.344356566   5.19693   0.52321  -2.17972   0.41471
   8   21879.4    457.1   0.191219643   2.87722   1.01991  -0.28886   1.32422
   9   23429.4    426.8   0.082573132   1.16025   0.12432  -0.45827  -0.96684
  10   24274.2    412.0   0.142260210   1.92936  -0.33464  -1.00289   0.90089
  11   25208.5    396.7   0.416405865   5.43807  -0.39713   1.02492   2.05667
  12   26241.2    381.1   0.007128802   0.08944   0.14662   0.17757   0.19081
  13   26579.4    376.2   0.094698763   1.17293   0.08486   0.93783  -0.53499
  14   26598.6    376.0   0.011905491   0.14735  -0.01785  -0.37621   0.07418
  15   27542.8    363.1   0.020642793   0.24674   0.02820  -0.41461  -0.27211
  16   28109.1    355.8   0.002678110   0.03137  -0.06761   0.05517   0.15412
  17   28600.9    349.6   0.016657106   0.19173  -0.18042  -0.34385   0.20236
  18   29572.3    338.2   0.062933415   0.70060  -0.27653   0.23483  -0.75431
  19   29825.0    335.3   0.090376452   0.99759   0.51422  -0.69784  -0.49616
  20   30374.1    329.2   0.391236345   4.24044   1.11123  -0.02912   1.73342
  21   30544.4    327.4   0.058241020   0.62773   0.40634   0.50304  -0.45779
  22   30666.0    326.1   0.205521795   2.20636  -0.40631   0.73693  -1.22401
  23   31119.9    321.3   0.064371292   0.68097   0.35548  -0.19821   0.71786
  24   31282.5    319.7   0.005607827   0.05902   0.19843  -0.10374  -0.09423
  25   31639.1    316.1   0.012645561   0.13158   0.33724  -0.04822   0.12459
  26   31846.2    314.0   0.229762872   2.37519  -0.53955  -0.12457   1.43825
  27   31864.1    313.8   0.058297005   0.60231   0.43355  -0.03226  -0.64288
  28   31912.0    313.4   0.063751840   0.65768  -0.45425   0.07775   0.66730
  29   32505.6    307.6   0.019040971   0.19284   0.04886   0.10414  -0.42381
  30   33230.8    300.9   0.149716388   1.48321  -0.17315  -0.08315  -1.20263
  31   33654.5    297.1   0.029737061   0.29089  -0.48322  -0.04629  -0.23504
  32   33891.5    295.1   0.086125582   0.83660   0.76458  -0.32263   0.38460
  33   34118.1    293.1   0.095241204   0.91900   0.20088  -0.41556  -0.84021
  34   34322.6    291.4   0.036462626   0.34974  -0.22111   0.28429   0.46907
  35   34651.1    288.6   0.060856620   0.57818  -0.06541  -0.07426  -0.75392
  36   34949.9    286.1   0.015390221   0.14497  -0.17692   0.19871   0.27236
  37   35293.6    283.3   0.022916437   0.21376   0.06145  -0.09309   0.44869
  38   35432.2    282.2   0.147378297   1.36934  -0.75073  -0.57887   0.68604
  39   35513.0    281.6   0.020401131   0.18912  -0.20009   0.37786   0.07940
  40   35945.7    278.2   0.085645243   0.78439  -0.19759   0.63028  -0.58999
  41   36103.8    277.0   0.045277462   0.41286  -0.07981   0.37050  -0.51886
  42   36252.6    275.8   0.015782794   0.14332   0.33532  -0.16653   0.05615
  43   36399.5    274.7   0.007731878   0.06993   0.15746   0.00809  -0.21230
  44   36465.6    274.2   0.044968572   0.40598   0.10425  -0.62852   0.00818
  45   36663.1    272.8   0.010515184   0.09442   0.06333  -0.29566  -0.05472
  46   37043.2    270.0   0.163106857   1.44957   0.07720  -0.74938  -0.93917
  47   37247.6    268.5   0.019943992   0.17627  -0.11117   0.08272   0.39632
  48   37742.0    265.0   0.072560356   0.63292  -0.52284  -0.50524   0.32294
  49   38026.0    263.0   0.083967807   0.72696   0.30111   0.78352  -0.14959
  50   38273.2    261.3   0.008856852   0.07618  -0.25680   0.01969   0.09924
  51   38372.3    260.6   0.030087485   0.25813  -0.48251  -0.13909   0.07729
  52   38566.4    259.3   0.049153502   0.41959   0.14481  -0.12742   0.61837
  53   39098.1    255.8   0.026304768   0.22149   0.03586  -0.31154  -0.35092
  54   39665.5    252.1   0.022693711   0.18835  -0.40295  -0.14831  -0.06310
  55   39820.4    251.1   0.076065186   0.62886  -0.17471  -0.52890   0.56445
  56   39887.3    250.7   0.020840189   0.17201   0.23215   0.34147  -0.03888
  57   40067.0    249.6   0.022255005   0.18286  -0.19099  -0.30408  -0.23220

FINAL SINGLE POINT ENERGY     -7215.368426468762

DIPOLE MOMENT
-------------
                                X             Y             Z
Electronic contribution:    -36.05453     -24.31419     132.02766
Nuclear contribution   :     37.30111      20.27727    -133.08868
                        -----------------------------------------
Total Dipole Moment    :      1.24658      -4.03692      -1.06102
                        -----------------------------------------
Magnitude (a.u.)       :      4.35620
Magnitude (Debye)      :     11.07258

Rotational constants in cm-1:     0.000838     0.000559     0.000373
Rotational constants in MHz :    25.112592    16.756559    11.176376

                             ****ORCA TERMINATED NORMALLY****
TOTAL RUN TIME: 0 days 0 hours 12 minutes 5 seconds 74 msec
