                         Program Version 4.2.0 -  RELEASE  -
|  1> # ORCA input file
|  2> # SCF done       -177.964674660985          0.000835405106
|  3> ! CAM-B3LYP def2-SVP def2/J RIJCOSX Grid4 TightSCF
|  4> %maxcore 5000
|  5> %tddft
|  6>     Mode sTDDFT
|  7>     Ethresh 5.0
|  8>     maxcore 5000
|  9> end
| 10>
| 11> %pal
| 12>   nprocs 6
| 13>   end
| 14> * xyz 0 1
| 15>    C       -0.72981         0.19615         0.67246
| 16>    N        0.10140        -0.22655        -0.23887
| 17>    N        0.30828        -1.49667        -0.46866
| 18>    C       -0.28513        -2.45991         0.21722
| 19>    C       -1.19377        -2.11482         1.25326
| 20>    C       -1.43776        -0.72172         1.47792
| 21>    N       -2.31685        -0.52518         2.46059
| 22>    S       -2.77684        -1.95063         3.03224
| 23>    N       -1.89098        -2.89349         2.07387
| 24>    C        0.02844        -3.81621        -0.10727
| 25>    S       -0.57460        -5.12378         0.84202
| 26>    C        0.27848        -6.27877        -0.13558
| 27>    C        1.01186        -5.64638        -1.13859
| 28>    C        0.84530        -4.25679        -1.14035
| 29>    C        1.40471        -3.37453        -2.20482
| 30>    N        0.34645        -2.47781        -2.77559
| 31>    O        0.73969        -1.52989        -3.39871
| 32>    O       -0.80200        -2.83382        -2.67492
| 33>    C        1.91830        -4.21732        -3.38014
| 34>    C        2.79712        -5.34617        -2.85946
| 35>    C        1.95433        -6.35096        -2.05941
| 36>    N        2.94332        -7.19330        -1.30420
| 37>    O        3.62851        -7.92009        -1.97200
| 38>    O        3.02820        -7.04356        -0.11145
| 39>    C        0.20344        -7.67348         0.06126
| 40>    C       -0.38197        -8.30947         1.11057
| 41>    C       -0.33307        -9.71951         1.19849
| 42>    N       -0.83528       -10.46310         2.23538
| 43>    C       -1.47628        -9.95483         3.42373
| 44>    C       -0.46131        -9.41394         4.42787
| 45>    C       -0.58503       -11.84283         2.06823
| 46>    O       -0.93660       -12.69102         2.85878
| 47>    C        0.11743       -11.91974         0.80510
| 48>    C        0.24827       -10.61573         0.29142
| 49>    C        0.93863       -10.71798        -0.97426
| 50>    O        1.24463        -9.87084        -1.79637
| 51>    N        1.20071       -12.08533        -1.13530
| 52>    C        1.92793       -12.53232        -2.30062
| 53>    C        3.42031       -12.67957        -2.01421
| 54>    C        0.72617       -12.82474        -0.07250
| 55>    C        0.77988       -14.21051         0.18735
| 56>    C        1.41225       -15.20704        -0.49585
| 57>    C        1.38692       -16.56720        -0.11141
| 58>    C        2.04454       -17.59062        -0.76726
| 59>    C        1.79547       -18.81983        -0.09978
| 60>    C        0.91531       -18.48881         1.04056
| 61>    C        0.68210       -17.15188         1.02407
| 62>    C        0.39520       -19.37543         1.99165
| 63>    N       -0.05142       -20.06518         2.79434
| 64>    C        2.27138       -20.06757        -0.43053
| 65>    C        2.01140       -21.30091         0.24782
| 66>    C        2.67743       -22.30901        -0.40099
| 67>    C        3.39399       -21.74090        -1.52899
| 68>    C        3.15720       -20.40124        -1.55827
| 69>    C        3.67472       -19.51046        -2.50404
| 70>    N        4.11177       -18.79479        -3.28994
| 71>    C        2.69393       -23.70309        -0.06052
| 72>    N        3.41733       -24.51985        -0.80577
| 73>    N        3.50131       -25.80347        -0.58492
| 74>    C        2.87802       -26.39356         0.39863
| 75>    C        2.06894       -25.64658         1.27952
| 76>    C        1.96612       -24.23600         1.04345
| 77>    N        1.17623       -23.63794         1.93030
| 78>    S        0.62324       -24.74250         2.95555
| 79>    N        1.34965       -26.03201         2.33468
| 80>    H       -0.84160         1.26335         0.77911
| 81>    H        2.18533        -2.71212        -1.81896
| 82>    H        2.48108        -3.58146        -4.06375
| 83>    H        1.06749        -4.63957        -3.92118
| 84>    H        3.56945        -4.92472        -2.21038
| 85>    H        3.28883        -5.86253        -3.68383
| 86>    H        1.43102        -7.04035        -2.73146
| 87>    H        0.66115        -8.28255        -0.70632
| 88>    H       -0.85701        -7.74175         1.89734
| 89>    H       -2.01324       -10.79984         3.86374
| 90>    H       -2.19822        -9.18255         3.14442
| 91>    H        0.22027       -10.20564         4.72873
| 92>    H       -0.97745        -9.04638         5.31025
| 93>    H        0.12022        -8.60215         3.99674
| 94>    H        1.78621       -11.75586        -3.05841
| 95>    H        1.48903       -13.46186        -2.66908
| 96>    H        3.84136       -11.70928        -1.76260
| 97>    H        3.92861       -13.05951        -2.89591
| 98>    H        3.59882       -13.35961        -1.18416
| 99>    H        0.24011       -14.47074         1.08899
|100>    H        1.99435       -14.99879        -1.38028
|101>    H        2.65282       -17.48368        -1.64395
|102>    H        0.07826       -16.61126         1.72864
|103>    H        1.39618       -21.41241         1.11836
|104>    H        3.99861       -22.31519        -2.20418
|105>    H        3.01012       -27.45942         0.50039
|106> *
|107>
|108>                          ****END OF INPUT****

CARTESIAN COORDINATES (ANGSTROEM)
---------------------------------
  C     -0.729810    0.196150    0.672460
  N      0.101400   -0.226550   -0.238870
  N      0.308280   -1.496670   -0.468660
  C     -0.285130   -2.459910    0.217220
  C     -1.193770   -2.114820    1.253260
  C     -1.437760   -0.721720    1.477920
  N     -2.316850   -0.525180    2.460590
  S     -2.776840   -1.950630    3.032240
  N     -1.890980   -2.893490    2.073870
  C      0.028440   -3.816210   -0.107270
  S     -0.574600   -5.123780    0.842020
  C      0.278480   -6.278770   -0.135580
  C      1.011860   -5.646380   -1.138590
  C      0.845300   -4.256790   -1.140350
  C      1.404710   -3.374530   -2.204820
  N      0.346450   -2.477810   -2.775590
  O      0.739690   -1.529890   -3.398710
  O     -0.802000   -2.833820   -2.674920
  C      1.918300   -4.217320   -3.380140
  C      2.797120   -5.346170   -2.859460
  C      1.954330   -6.350960   -2.059410
  N      2.943320   -7.193300   -1.304200
  O      3.628510   -7.920090   -1.972000
  O      3.028200   -7.043560   -0.111450
  C      0.203440   -7.673480    0.061260
  C     -0.381970   -8.309470    1.110570
  C     -0.333070   -9.719510    1.198490
  N     -0.835280  -10.463100    2.235380
  C     -1.476280   -9.954830    3.423730
  C     -0.461310   -9.413940    4.427870
  C     -0.585030  -11.842830    2.068230
  O     -0.936600  -12.691020    2.858780
  C      0.117430  -11.919740    0.805100
  C      0.248270  -10.615730    0.291420
  C      0.938630  -10.717980   -0.974260
  O      1.244630   -9.870840   -1.796370
  N      1.200710  -12.085330   -1.135300
  C      1.927930  -12.532320   -2.300620
  C      3.420310  -12.679570   -2.014210
  C      0.726170  -12.824740   -0.072500
  C      0.779880  -14.210510    0.187350
  C      1.412250  -15.207040   -0.495850
  C      1.386920  -16.567200   -0.111410
  C      2.044540  -17.590620   -0.767260
  C      1.795470  -18.819830   -0.099780
  C      0.915310  -18.488810    1.040560
  C      0.682100  -17.151880    1.024070
  C      0.395200  -19.375430    1.991650
  N     -0.051420  -20.065180    2.794340
  C      2.271380  -20.067570   -0.430530
  C      2.011400  -21.300910    0.247820
  C      2.677430  -22.309010   -0.400990
  C      3.393990  -21.740900   -1.528990
  C      3.157200  -20.401240   -1.558270
  C      3.674720  -19.510460   -2.504040
  N      4.111770  -18.794790   -3.289940
  C      2.693930  -23.703090   -0.060520
  N      3.417330  -24.519850   -0.805770
  N      3.501310  -25.803470   -0.584920
  C      2.878020  -26.393560    0.398630
  C      2.068940  -25.646580    1.279520
  C      1.966120  -24.236000    1.043450
  N      1.176230  -23.637940    1.930300
  S      0.623240  -24.742500    2.955550
  N      1.349650  -26.032010    2.334680
  H     -0.841600    1.263350    0.779110
  H      2.185330   -2.712120   -1.818960
  H      2.481080   -3.581460   -4.063750
  H      1.067490   -4.639570   -3.921180
  H      3.569450   -4.924720   -2.210380
  H      3.288830   -5.862530   -3.683830
  H      1.431020   -7.040350   -2.731460
  H      0.661150   -8.282550   -0.706320
  H     -0.857010   -7.741750    1.897340
  H     -2.013240  -10.799840    3.863740
  H     -2.198220   -9.182550    3.144420
  H      0.220270  -10.205640    4.728730
  H     -0.977450   -9.046380    5.310250
  H      0.120220   -8.602150    3.996740
  H      1.786210  -11.755860   -3.058410
  H      1.489030  -13.461860   -2.669080
  H      3.841360  -11.709280   -1.762600
  H      3.928610  -13.059510   -2.895910
  H      3.598820  -13.359610   -1.184160
  H      0.240110  -14.470740    1.088990
  H      1.994350  -14.998790   -1.380280
  H      2.652820  -17.483680   -1.643950
  H      0.078260  -16.611260    1.728640
  H      1.396180  -21.412410    1.118360
  H      3.998610  -22.315190   -2.204180
  H      3.010120  -27.459420    0.500390

 Total Charge           Charge          ....    0
 Multiplicity           Mult            ....    1
 Number of Electrons    NEL             ....  472
 Basis Dimension        Dim             .... 1052

ORBITAL ENERGIES
----------------

  NO   OCC          E(Eh)            E(eV)
   0   2.0000     -89.056892     -2423.3612
   1   2.0000     -89.045750     -2423.0580
   2   2.0000     -88.981452     -2421.3084
   3   2.0000     -19.247652      -523.7552
   4   2.0000     -19.247599      -523.7538
   5   2.0000     -19.236416      -523.4495
   6   2.0000     -19.235122      -523.4143
   7   2.0000     -19.202714      -522.5324
   8   2.0000     -19.197706      -522.3961
   9   2.0000     -14.645529      -398.5251
  10   2.0000     -14.636698      -398.2848
  11   2.0000     -14.471948      -393.8017
  12   2.0000     -14.469054      -393.7230
  13   2.0000     -14.463440      -393.5702
  14   2.0000     -14.460296      -393.4846
  15   2.0000     -14.458958      -393.4483
  16   2.0000     -14.458528      -393.4365
  17   2.0000     -14.453488      -393.2994
  18   2.0000     -14.453168      -393.2907
  19   2.0000     -14.444054      -393.0427
  20   2.0000     -14.443679      -393.0325
  21   2.0000     -14.409149      -392.0929
  22   2.0000     -14.402848      -391.9214
  23   2.0000     -10.385194      -282.5955
  24   2.0000     -10.379949      -282.4528
  25   2.0000     -10.355040      -281.7750
  26   2.0000     -10.353505      -281.7332
  27   2.0000     -10.352733      -281.7122
  28   2.0000     -10.350548      -281.6527
  29   2.0000     -10.343841      -281.4702
  30   2.0000     -10.342210      -281.4258
  31   2.0000     -10.341922      -281.4180
  32   2.0000     -10.340832      -281.3883
  33   2.0000     -10.340325      -281.3746
  34   2.0000     -10.335833      -281.2523
  35   2.0000     -10.333400      -281.1861
  36   2.0000     -10.327242      -281.0185
  37   2.0000     -10.327175      -281.0167
  38   2.0000     -10.324074      -280.9323
  39   2.0000     -10.323652      -280.9209
  40   2.0000     -10.319157      -280.7985
  41   2.0000     -10.318730      -280.7869
  42   2.0000     -10.317187      -280.7449
  43   2.0000     -10.310951      -280.5752
  44   2.0000     -10.310856      -280.5727
  45   2.0000     -10.309756      -280.5427
  46   2.0000     -10.309653      -280.5399
  47   2.0000     -10.307701      -280.4868
  48   2.0000     -10.307690      -280.4865
  49   2.0000     -10.307363      -280.4776
  50   2.0000     -10.305626      -280.4303
  51   2.0000     -10.305329      -280.4223
  52   2.0000     -10.303891      -280.3831
  53   2.0000     -10.302468      -280.3444
  54   2.0000     -10.301481      -280.3176
  55   2.0000     -10.300935      -280.3027
  56   2.0000     -10.300856      -280.3005
  57   2.0000     -10.297579      -280.2114
  58   2.0000     -10.297261      -280.2027
  59   2.0000     -10.286352      -279.9059
  60   2.0000     -10.283415      -279.8260
  61   2.0000     -10.272930      -279.5406
  62   2.0000     -10.270907      -279.4856
  63   2.0000     -10.267764      -279.4001
  64   2.0000     -10.261935      -279.2414
  65   2.0000      -8.148394      -221.7291
  66   2.0000      -8.137374      -221.4292
  67   2.0000      -8.075935      -219.7574
  68   2.0000      -6.119474      -166.5193
  69   2.0000      -6.111652      -166.3065
  70   2.0000      -6.111146      -166.2927
  71   2.0000      -6.108416      -166.2184
  72   2.0000      -6.100518      -166.0035
  73   2.0000      -6.100202      -165.9949
  74   2.0000      -6.045024      -164.4935
  75   2.0000      -6.040999      -164.3840
  76   2.0000      -6.038359      -164.3121
  77   2.0000      -1.329813       -36.1860
  78   2.0000      -1.318586       -35.8805
  79   2.0000      -1.159289       -31.5459
  80   2.0000      -1.150938       -31.3186
  81   2.0000      -1.148202       -31.2442
  82   2.0000      -1.142772       -31.0964
  83   2.0000      -1.140084       -31.0233
  84   2.0000      -1.134785       -30.8791
  85   2.0000      -1.129645       -30.7392
  86   2.0000      -1.120135       -30.4804
  87   2.0000      -1.073037       -29.1988
  88   2.0000      -1.061904       -28.8959
  89   2.0000      -1.025431       -27.9034
  90   2.0000      -1.015244       -27.6262
  91   2.0000      -1.007950       -27.4277
  92   2.0000      -1.001663       -27.2566
  93   2.0000      -0.995164       -27.0798
  94   2.0000      -0.984425       -26.7876
  95   2.0000      -0.978236       -26.6192
  96   2.0000      -0.965139       -26.2628
  97   2.0000      -0.953842       -25.9554
  98   2.0000      -0.936962       -25.4960
  99   2.0000      -0.935236       -25.4491
 100   2.0000      -0.927944       -25.2506
 101   2.0000      -0.925555       -25.1856
 102   2.0000      -0.917889       -24.9770
 103   2.0000      -0.916630       -24.9428
 104   2.0000      -0.912553       -24.8318
 105   2.0000      -0.880527       -23.9604
 106   2.0000      -0.863964       -23.5097
 107   2.0000      -0.857638       -23.3375
 108   2.0000      -0.855484       -23.2789
 109   2.0000      -0.850081       -23.1319
 110   2.0000      -0.842807       -22.9339
 111   2.0000      -0.827513       -22.5178
 112   2.0000      -0.826121       -22.4799
 113   2.0000      -0.813397       -22.1337
 114   2.0000      -0.806212       -21.9382
 115   2.0000      -0.791086       -21.5266
 116   2.0000      -0.776687       -21.1347
 117   2.0000      -0.765847       -20.8398
 118   2.0000      -0.762941       -20.7607
 119   2.0000      -0.759966       -20.6797
 120   2.0000      -0.749389       -20.3919
 121   2.0000      -0.738387       -20.0925
 122   2.0000      -0.729032       -19.8380
 123   2.0000      -0.727868       -19.8063
 124   2.0000      -0.721636       -19.6367
 125   2.0000      -0.716066       -19.4851
 126   2.0000      -0.712878       -19.3984
 127   2.0000      -0.703322       -19.1384
 128   2.0000      -0.698801       -19.0154
 129   2.0000      -0.694265       -18.8919
 130   2.0000      -0.681463       -18.5436
 131   2.0000      -0.673990       -18.3402
 132   2.0000      -0.664156       -18.0726
 133   2.0000      -0.660775       -17.9806
 134   2.0000      -0.657570       -17.8934
 135   2.0000      -0.648434       -17.6448
 136   2.0000      -0.645178       -17.5562
 137   2.0000      -0.641510       -17.4564
 138   2.0000      -0.639760       -17.4087
 139   2.0000      -0.636050       -17.3078
 140   2.0000      -0.632155       -17.2018
 141   2.0000      -0.625845       -17.0301
 142   2.0000      -0.621377       -16.9085
 143   2.0000      -0.619666       -16.8620
 144   2.0000      -0.607152       -16.5215
 145   2.0000      -0.605687       -16.4816
 146   2.0000      -0.604109       -16.4386
 147   2.0000      -0.597313       -16.2537
 148   2.0000      -0.594220       -16.1695
 149   2.0000      -0.592764       -16.1299
 150   2.0000      -0.585381       -15.9290
 151   2.0000      -0.582391       -15.8477
 152   2.0000      -0.580676       -15.8010
 153   2.0000      -0.572481       -15.5780
 154   2.0000      -0.570531       -15.5249
 155   2.0000      -0.567120       -15.4321
 156   2.0000      -0.562757       -15.3134
 157   2.0000      -0.560947       -15.2641
 158   2.0000      -0.557149       -15.1608
 159   2.0000      -0.554623       -15.0921
 160   2.0000      -0.541744       -14.7416
 161   2.0000      -0.540804       -14.7160
 162   2.0000      -0.540030       -14.6950
 163   2.0000      -0.537200       -14.6180
 164   2.0000      -0.532797       -14.4981
 165   2.0000      -0.530485       -14.4352
 166   2.0000      -0.526041       -14.3143
 167   2.0000      -0.525471       -14.2988
 168   2.0000      -0.522037       -14.2054
 169   2.0000      -0.521304       -14.1854
 170   2.0000      -0.517849       -14.0914
 171   2.0000      -0.515825       -14.0363
 172   2.0000      -0.511992       -13.9320
 173   2.0000      -0.509122       -13.8539
 174   2.0000      -0.508222       -13.8294
 175   2.0000      -0.504834       -13.7372
 176   2.0000      -0.503654       -13.7051
 177   2.0000      -0.503253       -13.6942
 178   2.0000      -0.499690       -13.5973
 179   2.0000      -0.492651       -13.4057
 180   2.0000      -0.484502       -13.1840
 181   2.0000      -0.482669       -13.1341
 182   2.0000      -0.482106       -13.1188
 183   2.0000      -0.480348       -13.0709
 184   2.0000      -0.478618       -13.0238
 185   2.0000      -0.474821       -12.9205
 186   2.0000      -0.471525       -12.8309
 187   2.0000      -0.469110       -12.7651
 188   2.0000      -0.464633       -12.6433
 189   2.0000      -0.461077       -12.5465
 190   2.0000      -0.456068       -12.4102
 191   2.0000      -0.454280       -12.3616
 192   2.0000      -0.453090       -12.3292
 193   2.0000      -0.451091       -12.2748
 194   2.0000      -0.447989       -12.1904
 195   2.0000      -0.444014       -12.0822
 196   2.0000      -0.442175       -12.0322
 197   2.0000      -0.439027       -11.9465
 198   2.0000      -0.438546       -11.9335
 199   2.0000      -0.437455       -11.9037
 200   2.0000      -0.434582       -11.8256
 201   2.0000      -0.433270       -11.7899
 202   2.0000      -0.432164       -11.7598
 203   2.0000      -0.431297       -11.7362
 204   2.0000      -0.430194       -11.7062
 205   2.0000      -0.423528       -11.5248
 206   2.0000      -0.417612       -11.3638
 207   2.0000      -0.413806       -11.2602
 208   2.0000      -0.402162       -10.9434
 209   2.0000      -0.397468       -10.8157
 210   2.0000      -0.396255       -10.7826
 211   2.0000      -0.393370       -10.7041
 212   2.0000      -0.391526       -10.6540
 213   2.0000      -0.386013       -10.5039
 214   2.0000      -0.384449       -10.4614
 215   2.0000      -0.382880       -10.4187
 216   2.0000      -0.381801       -10.3893
 217   2.0000      -0.380613       -10.3570
 218   2.0000      -0.376087       -10.2339
 219   2.0000      -0.372139       -10.1264
 220   2.0000      -0.371402       -10.1064
 221   2.0000      -0.369449       -10.0532
 222   2.0000      -0.362606        -9.8670
 223   2.0000      -0.357434        -9.7263
 224   2.0000      -0.355968        -9.6864
 225   2.0000      -0.352888        -9.6026
 226   2.0000      -0.340860        -9.2753
 227   2.0000      -0.339471        -9.2375
 228   2.0000      -0.324110        -8.8195
 229   2.0000      -0.323813        -8.8114
 230   2.0000      -0.316397        -8.6096
 231   2.0000      -0.305876        -8.3233
 232   2.0000      -0.305003        -8.2995
 233   2.0000      -0.297055        -8.0833
 234   2.0000      -0.291481        -7.9316
 235   2.0000      -0.238360        -6.4861
 236   0.0000      -0.129346        -3.5197
 237   0.0000      -0.104438        -2.8419
 238   0.0000      -0.080341        -2.1862
 239   0.0000      -0.073324        -1.9952
 240   0.0000      -0.035716        -0.9719

MULLIKEN ATOMIC CHARGES
-----------------------
   0 C :   -0.023403
   1 N :   -0.014091
   2 N :   -0.115823
   3 C :    0.045055
   4 C :   -0.016241
   5 C :    0.062993
   6 N :   -0.247422
   7 S :    0.543949
   8 N :   -0.274717
   9 C :   -0.134292
  10 S :    0.189609
  11 C :   -0.045801
  12 C :   -0.021885
  13 C :   -0.032046
  14 C :    0.158810
  15 N :    0.202050
  16 O :   -0.219088
  17 O :   -0.235527
  18 C :    0.074294
  19 C :    0.080810
  20 C :    0.091811
  21 N :    0.192220
  22 O :   -0.212837
  23 O :   -0.219127
  24 C :    0.002895
  25 C :   -0.036226
  26 C :    0.150840
  27 N :   -0.263512
  28 C :    0.098523
  29 C :    0.002126
  30 C :    0.151489
  31 O :   -0.184666
  32 C :   -0.035530
  33 C :   -0.069528
  34 C :    0.175010
  35 O :   -0.239078
  36 N :   -0.257703
  37 C :    0.100884
  38 C :    0.000128
  39 C :    0.121465
  40 C :   -0.035181
  41 C :    0.003578
  42 C :    0.112034
  43 C :   -0.112834
  44 C :    0.127009
  45 C :   -0.102840
  46 C :   -0.004210
  47 C :   -0.166559
  48 N :    0.134182
  49 C :    0.115911
  50 C :   -0.118895
  51 C :    0.041162
  52 C :   -0.003822
  53 C :   -0.090084
  54 C :   -0.174236
  55 N :    0.125749
  56 C :    0.001507
  57 N :   -0.044524
  58 N :   -0.037642
  59 C :   -0.009920
  60 C :    0.039068
  61 C :    0.017676
  62 N :   -0.249272
  63 S :    0.553242
  64 N :   -0.253413
  65 H :    0.011324
  66 H :    0.042112
  67 H :    0.037398
  68 H :    0.024951
  69 H :    0.023447
  70 H :    0.040370
  71 H :    0.064896
  72 H :    0.021449
  73 H :   -0.023686
  74 H :    0.045047
  75 H :    0.024132
  76 H :    0.032400
  77 H :    0.024109
  78 H :    0.019231
  79 H :    0.042892
  80 H :    0.026510
  81 H :    0.038130
  82 H :    0.027339
  83 H :    0.020490
  84 H :    0.004405
  85 H :   -0.012227
  86 H :    0.000558
  87 H :    0.014765
  88 H :    0.015516
  89 H :    0.012465
  90 H :    0.007879
Sum of atomic charges:   -0.0000000

LOEWDIN ATOMIC CHARGES
----------------------
   0 C :    0.009868
   1 N :   -0.026830
   2 N :   -0.059258
   3 C :   -0.011012
   4 C :   -0.065713
   5 C :   -0.065719
   6 N :   -0.265114
   7 S :    0.679919
   8 N :   -0.284842
   9 C :   -0.169237
  10 S :    0.504184
  11 C :   -0.159452
  12 C :   -0.053446
  13 C :   -0.037030
  14 C :    0.014410
  15 N :    0.280379
  16 O :   -0.186612
  17 O :   -0.213619
  18 C :   -0.019796
  19 C :   -0.016868
  20 C :    0.016341
  21 N :    0.273188
  22 O :   -0.183257
  23 O :   -0.194619
  24 C :    0.023694
  25 C :   -0.051747
  26 C :    0.091393
  27 N :   -0.002619
  28 C :    0.036866
  29 C :   -0.060452
  30 C :    0.083553
  31 O :   -0.186507
  32 C :   -0.098076
  33 C :   -0.129335
  34 C :    0.082040
  35 O :   -0.216190
  36 N :    0.005001
  37 C :    0.036285
  38 C :   -0.061985
  39 C :    0.058208
  40 C :   -0.014955
  41 C :   -0.009485
  42 C :   -0.009434
  43 C :   -0.027351
  44 C :    0.042636
  45 C :   -0.073748
  46 C :    0.056531
  47 C :   -0.030601
  48 N :   -0.059586
  49 C :    0.030974
  50 C :    0.003564
  51 C :   -0.033316
  52 C :    0.072385
  53 C :   -0.092110
  54 C :   -0.027601
  55 N :   -0.071347
  56 C :   -0.000421
  57 N :   -0.053133
  58 N :   -0.037496
  59 C :    0.012383
  60 C :   -0.070800
  61 C :   -0.057250
  62 N :   -0.262952
  63 S :    0.687810
  64 N :   -0.270170
  65 H :    0.037836
  66 H :    0.047589
  67 H :    0.040071
  68 H :    0.033157
  69 H :    0.033461
  70 H :    0.040742
  71 H :    0.053114
  72 H :    0.036033
  73 H :    0.024968
  74 H :    0.038554
  75 H :    0.023863
  76 H :    0.033499
  77 H :    0.031134
  78 H :    0.023285
  79 H :    0.037829
  80 H :    0.022943
  81 H :    0.036395
  82 H :    0.033070
  83 H :    0.021975
  84 H :    0.044734
  85 H :    0.035989
  86 H :    0.035116
  87 H :    0.040555
  88 H :    0.034470
  89 H :    0.042690
  90 H :    0.036405

  Mayer bond orders larger than 0.100000
B(  0-C ,  1-N ) :   1.7368 B(  0-C ,  3-C ) :   0.1019 B(  0-C ,  5-C ) :   1.1213
B(  0-C , 65-H ) :   1.0168 B(  1-N ,  2-N ) :   1.2054 B(  2-N ,  3-C ) :   1.6518
B(  3-C ,  4-C ) :   1.0996 B(  3-C ,  9-C ) :   1.1485 B(  4-C ,  5-C ) :   1.2065
B(  4-C ,  8-N ) :   1.5358 B(  5-C ,  6-N ) :   1.5010 B(  6-N ,  7-S ) :   1.3039
B(  6-N ,  8-N ) :   0.1478 B(  7-S ,  8-N ) :   1.2677 B(  9-C , 10-S ) :   1.1664
B(  9-C , 11-C ) :   0.1071 B(  9-C , 13-C ) :   1.4910 B( 10-S , 11-C ) :   1.1032
B( 11-C , 12-C ) :   1.4546 B( 11-C , 24-C ) :   1.1653 B( 12-C , 13-C ) :   1.3770
B( 12-C , 20-C ) :   0.9615 B( 13-C , 14-C ) :   0.9656 B( 14-C , 15-N ) :   0.8332
B( 14-C , 18-C ) :   1.0611 B( 14-C , 66-H ) :   0.8761 B( 15-N , 16-O ) :   1.5769
B( 15-N , 17-O ) :   1.5774 B( 16-O , 17-O ) :   0.2603 B( 18-C , 19-C ) :   1.0989
B( 18-C , 67-H ) :   0.9269 B( 18-C , 68-H ) :   0.9230 B( 19-C , 20-C ) :   1.0762
B( 19-C , 69-H ) :   0.9215 B( 19-C , 70-H ) :   0.9256 B( 20-C , 21-N ) :   0.8348
B( 20-C , 71-H ) :   0.8822 B( 21-N , 22-O ) :   1.5659 B( 21-N , 23-O ) :   1.5905
B( 22-O , 23-O ) :   0.2689 B( 24-C , 25-C ) :   1.5706 B( 24-C , 72-H ) :   0.9283
B( 25-C , 26-C ) :   1.1766 B( 25-C , 73-H ) :   0.9758 B( 26-C , 27-N ) :   1.1739
B( 26-C , 33-C ) :   1.2936 B( 27-N , 28-C ) :   0.9436 B( 27-N , 30-C ) :   1.0298
B( 28-C , 29-C ) :   1.1208 B( 28-C , 74-H ) :   0.9295 B( 28-C , 75-H ) :   0.9506
B( 29-C , 76-H ) :   0.9639 B( 29-C , 77-H ) :   0.9679 B( 29-C , 78-H ) :   0.9686
B( 30-C , 31-O ) :   2.1350 B( 30-C , 32-C ) :   0.9705 B( 32-C , 33-C ) :   1.2698
B( 32-C , 39-C ) :   1.3279 B( 33-C , 34-C ) :   1.0037 B( 34-C , 35-O ) :   1.9513
B( 34-C , 36-N ) :   1.0903 B( 35-O , 72-H ) :   0.1385 B( 36-N , 37-C ) :   0.9381
B( 36-N , 39-C ) :   1.1558 B( 37-C , 38-C ) :   1.1177 B( 37-C , 79-H ) :   0.9250
B( 37-C , 80-H ) :   0.9509 B( 38-C , 81-H ) :   0.9604 B( 38-C , 82-H ) :   0.9687
B( 38-C , 83-H ) :   0.9680 B( 39-C , 40-C ) :   1.1965 B( 40-C , 41-C ) :   1.5207
B( 40-C , 84-H ) :   0.9488 B( 41-C , 42-C ) :   1.1396 B( 41-C , 85-H ) :   0.9823
B( 42-C , 43-C ) :   1.4925 B( 42-C , 46-C ) :   1.0348 B( 43-C , 44-C ) :   1.1279
B( 43-C , 86-H ) :   1.0081 B( 44-C , 45-C ) :   1.0952 B( 44-C , 49-C ) :   1.4103
B( 45-C , 46-C ) :   1.6953 B( 45-C , 47-C ) :   1.0912 B( 46-C , 87-H ) :   1.0145
B( 47-C , 48-N ) :   2.9651 B( 49-C , 50-C ) :   1.0690 B( 49-C , 53-C ) :   1.1218
B( 50-C , 51-C ) :   1.5959 B( 50-C , 88-H ) :   0.9898 B( 51-C , 52-C ) :   1.0623
B( 51-C , 56-C ) :   1.0454 B( 52-C , 53-C ) :   1.6122 B( 52-C , 89-H ) :   1.0344
B( 53-C , 54-C ) :   1.0893 B( 54-C , 55-N ) :   2.9594 B( 56-C , 57-N ) :   1.7807
B( 56-C , 59-C ) :   0.1113 B( 56-C , 61-C ) :   1.1069 B( 57-N , 58-N ) :   1.1866
B( 58-N , 59-C ) :   1.7295 B( 59-C , 60-C ) :   1.1268 B( 59-C , 90-H ) :   1.0155
B( 60-C , 61-C ) :   1.1957 B( 60-C , 64-N ) :   1.4975 B( 61-C , 62-N ) :   1.5562
B( 62-N , 63-S ) :   1.2772 B( 62-N , 64-N ) :   0.1467 B( 63-S , 64-N ) :   1.3013

-----------------------------------------------------------------------------
         ABSORPTION SPECTRUM VIA TRANSITION ELECTRIC DIPOLE MOMENTS
-----------------------------------------------------------------------------
State   Energy  Wavelength   fosc         T2         TX        TY        TZ
        (cm-1)    (nm)                  (au**2)     (au)      (au)      (au)
-----------------------------------------------------------------------------
   0   10402.4    961.3   1.080591233  34.19836   1.25190  -5.66407  -0.74126
   1   16123.2    620.2   0.222704828   4.54731  -0.34554   2.06353   0.41202
   2   17890.9    558.9   0.023113508   0.42531  -0.20487   0.60940   0.10939
   3   18456.9    541.8   0.000083884   0.00150  -0.03096   0.00790  -0.02180
   4   19953.2    501.2   0.008251529   0.13614   0.05330   0.36162  -0.05033
   5   20534.3    487.0   0.000487994   0.00782   0.07102  -0.03875   0.03576
   6   21748.6    459.8   0.017192794   0.26025   0.17044  -0.32549  -0.35391
   7   23646.6    422.9   0.420786718   5.85827  -0.22022   2.40917  -0.07538
   8   24401.2    409.8   0.177646208   2.39674  -0.07156  -1.47945   0.45039
   9   25462.7    392.7   0.032011697   0.41389   0.04297  -0.63901   0.06087
  10   25666.5    389.6   0.000226168   0.00290  -0.04202  -0.01127  -0.03176
  11   26427.8    378.4   0.657600885   8.19177  -0.70010   2.76841   0.19378
  12   27922.6    358.1   0.052009482   0.61320   0.41315  -0.30147  -0.59298
  13   27994.1    357.2   0.007106853   0.08358  -0.20947   0.03998   0.19520
  14   28502.7    350.8   0.105541480   1.21902   0.11567   1.01132  -0.42763
  15   29032.0    344.4   0.035730647   0.40517   0.37148   0.20279  -0.47545
  16   30266.1    330.4   0.001220614   0.01328  -0.00672   0.02362  -0.11258
  17   30454.1    328.4   0.070232658   0.75922  -0.06443  -0.81091   0.31225
  18   31368.5    318.8   0.001817735   0.01908  -0.05187   0.10811   0.06854
  19   31548.7    317.0   0.005442891   0.05680   0.13642  -0.12966  -0.14620
  20   32118.6    311.3   0.086724109   0.88891   0.34335   0.67145  -0.56585
  21   32465.9    308.0   0.001381023   0.01400   0.04960   0.04698   0.09663
  22   32615.4    306.6   0.002042658   0.02062   0.03336   0.13636  -0.03020
  23   33286.8    300.4   0.111062397   1.09843  -0.46117  -0.52480   0.78124
  24   33460.0    298.9   0.017038167   0.16764   0.04758  -0.40543   0.03164
  25   35064.7    285.2   0.014208106   0.13340   0.11980   0.22443  -0.26206
  26   35126.6    284.7   0.000205542   0.00193   0.03444   0.01787   0.02052
  27   35667.4    280.4   0.004539132   0.04190  -0.09798  -0.07576   0.16296
  28   35716.1    280.0   0.076433150   0.70452   0.05976  -0.83338   0.08012
  29   35753.3    279.7   0.081187219   0.74756  -0.16303   0.84866  -0.02752
  30   36336.4    275.2   0.001623013   0.01470   0.02927   0.05151  -0.10580
  31   36386.2    274.8   0.029278606   0.26490  -0.05377   0.50772  -0.06507
  32   36556.7    273.5   0.079755226   0.71824   0.19427   0.71230  -0.41608
  33   36819.1    271.6   0.004124704   0.03688   0.15339  -0.04637   0.10584
  34   36901.6    271.0   0.000518588   0.00463   0.06079  -0.01533  -0.02638
  35   36971.8    270.5   0.036869924   0.32830  -0.33500   0.11626   0.45007
  36   37234.6    268.6   0.081937373   0.72445  -0.49394   0.42374   0.54856
  37   37299.2    268.1   0.212176298   1.87272  -0.01716   1.31403  -0.38178
  38   37321.5    267.9   0.000053058   0.00047   0.01489  -0.01530   0.00352
  39   38149.5    262.1   0.013178853   0.11373   0.13596   0.30563  -0.04279
  40   38327.3    260.9   0.008053645   0.06918   0.16838  -0.10605  -0.17198
  41   38505.2    259.7   0.023543089   0.20129  -0.15593   0.41806   0.04689
  42   38694.3    258.4   0.033850079   0.28800  -0.32630  -0.04498   0.42367
  43   39302.6    254.4   0.043918937   0.36788  -0.38717   0.24012   0.40040
  44   39423.6    253.7   0.002250795   0.01880   0.06096  -0.03290  -0.11831
  45   39593.8    252.6   0.007796870   0.06483  -0.19649  -0.05782  -0.15125
  46   39757.7    251.5   0.000171579   0.00142   0.00914   0.03543   0.00903
  47   40213.6    248.7   0.003605434   0.02952   0.01512  -0.17065   0.01283
  48   40254.3    248.4   0.006229465   0.05095   0.00933   0.09896  -0.20265

FINAL SINGLE POINT ENERGY     -4024.349192625262

DIPOLE MOMENT
-------------
                                X             Y             Z
Electronic contribution:    -14.17307     -16.03292      12.85590
Nuclear contribution   :     12.52688      17.50346     -10.70514
                        -----------------------------------------
Total Dipole Moment    :     -1.64618       1.47054       2.15076
                        -----------------------------------------
Magnitude (a.u.)       :      3.08191
Magnitude (Debye)      :      7.83359

Rotational constants in cm-1:     0.003311     0.000267     0.000249
Rotational constants in MHz :    99.270149     7.998138     7.474783

                             ****ORCA TERMINATED NORMALLY****
TOTAL RUN TIME: 0 days 0 hours 8 minutes 33 seconds 324 msec
