                         Program Version 4.2.0 -  RELEASE  -
|  1> # ORCA input file
|  2> # SCF done       -236.600427333302          0.000950507888
|  3> ! CAM-B3LYP def2-SVP def2/J RIJCOSX Grid4 TightSCF
|  4> %maxcore 5000
|  5> %tddft
|  6>     Mode sTDDFT
|  7>     Ethresh 5.0
|  8>     maxcore 5000
|  9> end
| 10>
| 11> %pal
| 12>   nprocs 6
| 13>   end
| 14> * xyz 0 1
| 15>    C       -1.57689         2.84452         2.98838
| 16>    C       -0.37338         3.49150         3.01793
| 17>    F       -0.32267         4.82331         2.90524
| 18>    C        0.82788         2.76730         3.16643
| 19>    F        1.99094         3.42793         3.19105
| 20>    C        0.80821         1.40557         3.28307
| 21>    C       -0.41623         0.70974         3.25461
| 22>    C       -1.63156         1.44082         3.10582
| 23>    C       -2.87190         0.76448         3.07607
| 24>    C       -2.89588        -0.60162         3.18770
| 25>    C       -1.67766        -1.32413         3.32490
| 26>    C       -0.46463        -0.69722         3.36392
| 27>    C       -1.96069        -2.76873         3.39898
| 28>    O       -1.15410        -3.65227         3.57370
| 29>    C       -3.43131        -2.89479         3.18909
| 30>    C       -4.00096        -1.55207         3.19420
| 31>    C       -5.32793        -1.23284         3.28123
| 32>    C       -6.38138        -2.16484         3.41381
| 33>    N       -7.28194        -2.86248         3.55270
| 34>    C       -5.81702         0.09215         3.30822
| 35>    N       -6.27130         1.14527         3.32938
| 36>    C       -4.12749        -4.01959         2.87822
| 37>    C       -3.70456        -5.37391         2.82559
| 38>    O       -4.60712        -6.23336         2.27205
| 39>    C       -4.10329        -7.46921         2.29140
| 40>    C       -2.83767        -7.42290         2.89859
| 41>    C       -2.58772        -6.08251         3.23493
| 42>    N       -1.96323        -8.51191         3.15106
| 43>    O       -2.35319        -9.62655         2.85645
| 44>    O       -0.88991        -8.25855         3.64698
| 45>    C       -4.80840        -8.56070         1.71632
| 46>    C       -6.00537        -8.40012         1.09901
| 47>    C       -6.67325        -9.42768         0.37160
| 48>    C       -7.27626        -9.23589        -0.85981
| 49>    N       -7.45137        -8.02105        -1.56117
| 50>    O       -6.98223        -6.99936        -1.09035
| 51>    O       -8.07937        -8.07296        -2.60070
| 52>    C       -7.61380       -10.51017        -1.44574
| 53>    C       -7.28254       -11.48215        -0.56985
| 54>    C       -6.79819       -10.87458         0.65599
| 55>    C       -6.69444       -11.48185         1.88180
| 56>    C       -6.14663       -10.91752         3.09297
| 57>    C       -5.83075       -11.92125         3.94129
| 58>    C       -6.25608       -13.17247         3.35924
| 59>    N       -6.13760       -14.40019         4.04711
| 60>    O       -6.54747       -15.41243         3.50532
| 61>    O       -5.62380       -14.36890         5.14803
| 62>    C       -6.89155       -12.93217         2.15572
| 63>    C       -7.66035       -13.87854         1.42570
| 64>    C       -8.81371       -13.57092         0.77792
| 65>    C       -9.59708       -14.49485         0.03600
| 66>    S      -11.03677       -13.92947        -0.77131
| 67>    C      -11.31733       -15.46899        -1.48733
| 68>    C      -10.32979       -16.39647        -1.09225
| 69>    C       -9.37462       -15.82825        -0.22828
| 70>    C      -10.29411       -17.75499        -1.59213
| 71>    O      -10.99715       -18.23546        -2.45144
| 72>    C       -9.21890       -18.66881        -0.93379
| 73>    F       -9.34551       -18.70164         0.40280
| 74>    F       -9.31783       -19.91827        -1.37290
| 75>    F       -7.97158       -18.24659        -1.19763
| 76>    C      -12.36695       -15.69870        -2.40558
| 77>    C      -13.21994       -14.74994        -2.86619
| 78>    C      -14.19433       -14.99234        -3.87206
| 79>    C      -14.17767       -15.90776        -4.87599
| 80>    C      -15.46399       -16.20285        -5.58609
| 81>    O      -16.48123       -15.55732        -5.51287
| 82>    C      -15.22245       -17.45411        -6.32381
| 83>    C      -16.10660       -18.21738        -7.03230
| 84>    C      -15.65044       -19.40630        -7.64288
| 85>    C      -14.28616       -19.79249        -7.49029
| 86>    C      -13.83967       -20.98584        -8.09311
| 87>    C      -14.70443       -21.75536        -8.81965
| 88>    C      -16.05271       -21.37052        -8.97310
| 89>    C      -16.51740       -20.22178        -8.39655
| 90>    F      -16.87625       -22.14362        -9.69049
| 91>    F      -14.27938       -22.88506        -9.39568
| 92>    C      -13.39414       -18.98189        -6.75262
| 93>    C      -13.85197       -17.81920        -6.19152
| 94>    C      -13.15848       -16.78392        -5.42843
| 95>    C      -11.80612       -16.57698        -5.46529
| 96>    C      -11.13275       -15.48679        -4.88103
| 97>    N      -10.52032       -14.62162        -4.43965
| 98>    C      -10.90523       -17.41070        -6.16525
| 99>    N      -10.12683       -18.04420        -6.71991
|100>    H       -2.48613         3.41416         2.87577
|101>    H        1.73560         0.86618         3.39559
|102>    H       -3.77274         1.34438         2.95660
|103>    H        0.44424        -1.26914         3.47278
|104>    H       -5.16315        -3.90997         2.57790
|105>    H       -1.70740        -5.69485         3.70604
|106>    H       -4.30044        -9.51403         1.74193
|107>    H       -6.41128        -7.39992         1.00753
|108>    H       -8.02142       -10.61798        -2.43254
|109>    H       -7.35198       -12.53572        -0.74413
|110>    H       -5.98338        -9.87451         3.26565
|111>    H       -5.36408       -11.84975         4.90516
|112>    H       -7.34997       -14.91073         1.51202
|113>    H       -9.19284       -12.55773         0.81370
|114>    H       -8.53669       -16.35838         0.18415
|115>    H      -12.45514       -16.71317        -2.76839
|116>    H      -13.20001       -13.75731        -2.43322
|117>    H      -15.09729       -14.38962        -3.82817
|118>    H      -17.13911       -17.91718        -7.12575
|119>    H      -12.81071       -21.29249        -7.98853
|120>    H      -17.55157       -19.94214        -8.52281
|121>    H      -12.37238       -19.30632        -6.63903
|122> *
|123>
|124>                          ****END OF INPUT****

CARTESIAN COORDINATES (ANGSTROEM)
---------------------------------
  C     -1.576890    2.844520    2.988380
  C     -0.373380    3.491500    3.017930
  F     -0.322670    4.823310    2.905240
  C      0.827880    2.767300    3.166430
  F      1.990940    3.427930    3.191050
  C      0.808210    1.405570    3.283070
  C     -0.416230    0.709740    3.254610
  C     -1.631560    1.440820    3.105820
  C     -2.871900    0.764480    3.076070
  C     -2.895880   -0.601620    3.187700
  C     -1.677660   -1.324130    3.324900
  C     -0.464630   -0.697220    3.363920
  C     -1.960690   -2.768730    3.398980
  O     -1.154100   -3.652270    3.573700
  C     -3.431310   -2.894790    3.189090
  C     -4.000960   -1.552070    3.194200
  C     -5.327930   -1.232840    3.281230
  C     -6.381380   -2.164840    3.413810
  N     -7.281940   -2.862480    3.552700
  C     -5.817020    0.092150    3.308220
  N     -6.271300    1.145270    3.329380
  C     -4.127490   -4.019590    2.878220
  C     -3.704560   -5.373910    2.825590
  O     -4.607120   -6.233360    2.272050
  C     -4.103290   -7.469210    2.291400
  C     -2.837670   -7.422900    2.898590
  C     -2.587720   -6.082510    3.234930
  N     -1.963230   -8.511910    3.151060
  O     -2.353190   -9.626550    2.856450
  O     -0.889910   -8.258550    3.646980
  C     -4.808400   -8.560700    1.716320
  C     -6.005370   -8.400120    1.099010
  C     -6.673250   -9.427680    0.371600
  C     -7.276260   -9.235890   -0.859810
  N     -7.451370   -8.021050   -1.561170
  O     -6.982230   -6.999360   -1.090350
  O     -8.079370   -8.072960   -2.600700
  C     -7.613800  -10.510170   -1.445740
  C     -7.282540  -11.482150   -0.569850
  C     -6.798190  -10.874580    0.655990
  C     -6.694440  -11.481850    1.881800
  C     -6.146630  -10.917520    3.092970
  C     -5.830750  -11.921250    3.941290
  C     -6.256080  -13.172470    3.359240
  N     -6.137600  -14.400190    4.047110
  O     -6.547470  -15.412430    3.505320
  O     -5.623800  -14.368900    5.148030
  C     -6.891550  -12.932170    2.155720
  C     -7.660350  -13.878540    1.425700
  C     -8.813710  -13.570920    0.777920
  C     -9.597080  -14.494850    0.036000
  S    -11.036770  -13.929470   -0.771310
  C    -11.317330  -15.468990   -1.487330
  C    -10.329790  -16.396470   -1.092250
  C     -9.374620  -15.828250   -0.228280
  C    -10.294110  -17.754990   -1.592130
  O    -10.997150  -18.235460   -2.451440
  C     -9.218900  -18.668810   -0.933790
  F     -9.345510  -18.701640    0.402800
  F     -9.317830  -19.918270   -1.372900
  F     -7.971580  -18.246590   -1.197630
  C    -12.366950  -15.698700   -2.405580
  C    -13.219940  -14.749940   -2.866190
  C    -14.194330  -14.992340   -3.872060
  C    -14.177670  -15.907760   -4.875990
  C    -15.463990  -16.202850   -5.586090
  O    -16.481230  -15.557320   -5.512870
  C    -15.222450  -17.454110   -6.323810
  C    -16.106600  -18.217380   -7.032300
  C    -15.650440  -19.406300   -7.642880
  C    -14.286160  -19.792490   -7.490290
  C    -13.839670  -20.985840   -8.093110
  C    -14.704430  -21.755360   -8.819650
  C    -16.052710  -21.370520   -8.973100
  C    -16.517400  -20.221780   -8.396550
  F    -16.876250  -22.143620   -9.690490
  F    -14.279380  -22.885060   -9.395680
  C    -13.394140  -18.981890   -6.752620
  C    -13.851970  -17.819200   -6.191520
  C    -13.158480  -16.783920   -5.428430
  C    -11.806120  -16.576980   -5.465290
  C    -11.132750  -15.486790   -4.881030
  N    -10.520320  -14.621620   -4.439650
  C    -10.905230  -17.410700   -6.165250
  N    -10.126830  -18.044200   -6.719910
  H     -2.486130    3.414160    2.875770
  H      1.735600    0.866180    3.395590
  H     -3.772740    1.344380    2.956600
  H      0.444240   -1.269140    3.472780
  H     -5.163150   -3.909970    2.577900
  H     -1.707400   -5.694850    3.706040
  H     -4.300440   -9.514030    1.741930
  H     -6.411280   -7.399920    1.007530
  H     -8.021420  -10.617980   -2.432540
  H     -7.351980  -12.535720   -0.744130
  H     -5.983380   -9.874510    3.265650
  H     -5.364080  -11.849750    4.905160
  H     -7.349970  -14.910730    1.512020
  H     -9.192840  -12.557730    0.813700
  H     -8.536690  -16.358380    0.184150
  H    -12.455140  -16.713170   -2.768390
  H    -13.200010  -13.757310   -2.433220
  H    -15.097290  -14.389620   -3.828170
  H    -17.139110  -17.917180   -7.125750
  H    -12.810710  -21.292490   -7.988530
  H    -17.551570  -19.942140   -8.522810
  H    -12.372380  -19.306320   -6.639030

 Total Charge           Charge          ....    0
 Multiplicity           Mult            ....    1
 Number of Electrons    NEL             ....  590
 Basis Dimension        Dim             .... 1304

ORBITAL ENERGIES
----------------

  NO   OCC          E(Eh)            E(eV)
   0   2.0000     -88.995469     -2421.6898
   1   2.0000     -24.818556      -675.3472
   2   2.0000     -24.817660      -675.3229
   3   2.0000     -24.812269      -675.1762
   4   2.0000     -24.805676      -674.9968
   5   2.0000     -24.804975      -674.9777
   6   2.0000     -24.802963      -674.9229
   7   2.0000     -24.802201      -674.9022
   8   2.0000     -19.335734      -526.1521
   9   2.0000     -19.257545      -524.0244
  10   2.0000     -19.255653      -523.9730
  11   2.0000     -19.254646      -523.9456
  12   2.0000     -19.252541      -523.8883
  13   2.0000     -19.251673      -523.8647
  14   2.0000     -19.246144      -523.7142
  15   2.0000     -19.245149      -523.6871
  16   2.0000     -19.235600      -523.4273
  17   2.0000     -19.226263      -523.1732
  18   2.0000     -14.667972      -399.1358
  19   2.0000     -14.660802      -398.9407
  20   2.0000     -14.654780      -398.7768
  21   2.0000     -14.428658      -392.6238
  22   2.0000     -14.427933      -392.6040
  23   2.0000     -14.426945      -392.5771
  24   2.0000     -14.423515      -392.4838
  25   2.0000     -10.528894      -286.5058
  26   2.0000     -10.405933      -283.1598
  27   2.0000     -10.392417      -282.7920
  28   2.0000     -10.389601      -282.7154
  29   2.0000     -10.388945      -282.6976
  30   2.0000     -10.386532      -282.6319
  31   2.0000     -10.386260      -282.6245
  32   2.0000     -10.386004      -282.6175
  33   2.0000     -10.376838      -282.3681
  34   2.0000     -10.372717      -282.2560
  35   2.0000     -10.357297      -281.8364
  36   2.0000     -10.354743      -281.7669
  37   2.0000     -10.354733      -281.7666
  38   2.0000     -10.353232      -281.7258
  39   2.0000     -10.350175      -281.6426
  40   2.0000     -10.349121      -281.6139
  41   2.0000     -10.347623      -281.5731
  42   2.0000     -10.346742      -281.5492
  43   2.0000     -10.344217      -281.4805
  44   2.0000     -10.339590      -281.3546
  45   2.0000     -10.339172      -281.3432
  46   2.0000     -10.338703      -281.3304
  47   2.0000     -10.336672      -281.2751
  48   2.0000     -10.335595      -281.2458
  49   2.0000     -10.330202      -281.0991
  50   2.0000     -10.329983      -281.0931
  51   2.0000     -10.329104      -281.0692
  52   2.0000     -10.326633      -281.0020
  53   2.0000     -10.325721      -280.9772
  54   2.0000     -10.324319      -280.9390
  55   2.0000     -10.320907      -280.8462
  56   2.0000     -10.320817      -280.8437
  57   2.0000     -10.320620      -280.8384
  58   2.0000     -10.319784      -280.8156
  59   2.0000     -10.319536      -280.8089
  60   2.0000     -10.318303      -280.7753
  61   2.0000     -10.317784      -280.7612
  62   2.0000     -10.317062      -280.7415
  63   2.0000     -10.316873      -280.7364
  64   2.0000     -10.316666      -280.7307
  65   2.0000     -10.316373      -280.7228
  66   2.0000     -10.315464      -280.6980
  67   2.0000     -10.315318      -280.6941
  68   2.0000     -10.313536      -280.6456
  69   2.0000     -10.313284      -280.6387
  70   2.0000     -10.312916      -280.6287
  71   2.0000     -10.312545      -280.6186
  72   2.0000     -10.310705      -280.5685
  73   2.0000     -10.309909      -280.5469
  74   2.0000     -10.309007      -280.5223
  75   2.0000     -10.308805      -280.5168
  76   2.0000     -10.308756      -280.5155
  77   2.0000     -10.308271      -280.5023
  78   2.0000     -10.306585      -280.4564
  79   2.0000     -10.306153      -280.4447
  80   2.0000     -10.305144      -280.4172
  81   2.0000     -10.304501      -280.3997
  82   2.0000     -10.301304      -280.3127
  83   2.0000     -10.299993      -280.2771
  84   2.0000     -10.295437      -280.1531
  85   2.0000      -8.091246      -220.1740
  86   2.0000      -6.060200      -164.9064
  87   2.0000      -6.056167      -164.7967
  88   2.0000      -6.053810      -164.7325
  89   2.0000      -1.406542       -38.2740
  90   2.0000      -1.339333       -36.4451
  91   2.0000      -1.332406       -36.2566
  92   2.0000      -1.328940       -36.1623
  93   2.0000      -1.326199       -36.0877
  94   2.0000      -1.326183       -36.0873
  95   2.0000      -1.313996       -35.7557
  96   2.0000      -1.311266       -35.6814
  97   2.0000      -1.309510       -35.6336
  98   2.0000      -1.308529       -35.6069
  99   2.0000      -1.258360       -34.2417
 100   2.0000      -1.170246       -31.8440
 101   2.0000      -1.157805       -31.5055
 102   2.0000      -1.151880       -31.3443
 103   2.0000      -1.150112       -31.2961
 104   2.0000      -1.144102       -31.1326
 105   2.0000      -1.142409       -31.0865
 106   2.0000      -1.032004       -28.0823
 107   2.0000      -1.031382       -28.0653
 108   2.0000      -1.030232       -28.0340
 109   2.0000      -1.025197       -27.8970
 110   2.0000      -1.014818       -27.6146
 111   2.0000      -1.012510       -27.5518
 112   2.0000      -1.010046       -27.4848
 113   2.0000      -1.005925       -27.3726
 114   2.0000      -1.004048       -27.3215
 115   2.0000      -0.992725       -27.0134
 116   2.0000      -0.989167       -26.9166
 117   2.0000      -0.969404       -26.3788
 118   2.0000      -0.955772       -26.0079
 119   2.0000      -0.951057       -25.8796
 120   2.0000      -0.940704       -25.5979
 121   2.0000      -0.937675       -25.5154
 122   2.0000      -0.927135       -25.2286
 123   2.0000      -0.922278       -25.0965
 124   2.0000      -0.919810       -25.0293
 125   2.0000      -0.906435       -24.6654
 126   2.0000      -0.904043       -24.6003
 127   2.0000      -0.899255       -24.4700
 128   2.0000      -0.898831       -24.4584
 129   2.0000      -0.896045       -24.3826
 130   2.0000      -0.890449       -24.2303
 131   2.0000      -0.879978       -23.9454
 132   2.0000      -0.869249       -23.6535
 133   2.0000      -0.851072       -23.1588
 134   2.0000      -0.850001       -23.1297
 135   2.0000      -0.847178       -23.0529
 136   2.0000      -0.846148       -23.0249
 137   2.0000      -0.835107       -22.7244
 138   2.0000      -0.830481       -22.5985
 139   2.0000      -0.824768       -22.4431
 140   2.0000      -0.812966       -22.1219
 141   2.0000      -0.793668       -21.5968
 142   2.0000      -0.791611       -21.5408
 143   2.0000      -0.779199       -21.2031
 144   2.0000      -0.775051       -21.0902
 145   2.0000      -0.758572       -20.6418
 146   2.0000      -0.757875       -20.6228
 147   2.0000      -0.749684       -20.3999
 148   2.0000      -0.739862       -20.1327
 149   2.0000      -0.739461       -20.1218
 150   2.0000      -0.737813       -20.0769
 151   2.0000      -0.727748       -19.8030
 152   2.0000      -0.725457       -19.7407
 153   2.0000      -0.721330       -19.6284
 154   2.0000      -0.715410       -19.4673
 155   2.0000      -0.709225       -19.2990
 156   2.0000      -0.695731       -18.9318
 157   2.0000      -0.695368       -18.9219
 158   2.0000      -0.692365       -18.8402
 159   2.0000      -0.689619       -18.7655
 160   2.0000      -0.687225       -18.7004
 161   2.0000      -0.685044       -18.6410
 162   2.0000      -0.677570       -18.4376
 163   2.0000      -0.669497       -18.2179
 164   2.0000      -0.667514       -18.1640
 165   2.0000      -0.665202       -18.1011
 166   2.0000      -0.662612       -18.0306
 167   2.0000      -0.657744       -17.8981
 168   2.0000      -0.654100       -17.7990
 169   2.0000      -0.652117       -17.7450
 170   2.0000      -0.650078       -17.6895
 171   2.0000      -0.649235       -17.6666
 172   2.0000      -0.648940       -17.6586
 173   2.0000      -0.643368       -17.5069
 174   2.0000      -0.641871       -17.4662
 175   2.0000      -0.639576       -17.4038
 176   2.0000      -0.636693       -17.3253
 177   2.0000      -0.632315       -17.2062
 178   2.0000      -0.629262       -17.1231
 179   2.0000      -0.628069       -17.0906
 180   2.0000      -0.627168       -17.0661
 181   2.0000      -0.621163       -16.9027
 182   2.0000      -0.620506       -16.8848
 183   2.0000      -0.611694       -16.6450
 184   2.0000      -0.599970       -16.3260
 185   2.0000      -0.599819       -16.3219
 186   2.0000      -0.598811       -16.2945
 187   2.0000      -0.597158       -16.2495
 188   2.0000      -0.595968       -16.2171
 189   2.0000      -0.594449       -16.1758
 190   2.0000      -0.593077       -16.1384
 191   2.0000      -0.590343       -16.0641
 192   2.0000      -0.589560       -16.0427
 193   2.0000      -0.586796       -15.9675
 194   2.0000      -0.584893       -15.9158
 195   2.0000      -0.582146       -15.8410
 196   2.0000      -0.578103       -15.7310
 197   2.0000      -0.570337       -15.5197
 198   2.0000      -0.566739       -15.4217
 199   2.0000      -0.564787       -15.3686
 200   2.0000      -0.561509       -15.2794
 201   2.0000      -0.560735       -15.2584
 202   2.0000      -0.559530       -15.2256
 203   2.0000      -0.554523       -15.0893
 204   2.0000      -0.554490       -15.0884
 205   2.0000      -0.551845       -15.0165
 206   2.0000      -0.551231       -14.9998
 207   2.0000      -0.550759       -14.9869
 208   2.0000      -0.548543       -14.9266
 209   2.0000      -0.547287       -14.8924
 210   2.0000      -0.546460       -14.8699
 211   2.0000      -0.543285       -14.7835
 212   2.0000      -0.541344       -14.7307
 213   2.0000      -0.540380       -14.7045
 214   2.0000      -0.539041       -14.6681
 215   2.0000      -0.536861       -14.6087
 216   2.0000      -0.534376       -14.5411
 217   2.0000      -0.532300       -14.4846
 218   2.0000      -0.530042       -14.4232
 219   2.0000      -0.524490       -14.2721
 220   2.0000      -0.524185       -14.2638
 221   2.0000      -0.521475       -14.1901
 222   2.0000      -0.518829       -14.1181
 223   2.0000      -0.516066       -14.0429
 224   2.0000      -0.515659       -14.0318
 225   2.0000      -0.514740       -14.0068
 226   2.0000      -0.513662       -13.9775
 227   2.0000      -0.511417       -13.9164
 228   2.0000      -0.509020       -13.8511
 229   2.0000      -0.507226       -13.8023
 230   2.0000      -0.505247       -13.7485
 231   2.0000      -0.501244       -13.6395
 232   2.0000      -0.500314       -13.6142
 233   2.0000      -0.497503       -13.5377
 234   2.0000      -0.497068       -13.5259
 235   2.0000      -0.496580       -13.5126
 236   2.0000      -0.495397       -13.4804
 237   2.0000      -0.492192       -13.3932
 238   2.0000      -0.491303       -13.3690
 239   2.0000      -0.487489       -13.2652
 240   2.0000      -0.485825       -13.2200
 241   2.0000      -0.483613       -13.1598
 242   2.0000      -0.479091       -13.0367
 243   2.0000      -0.477625       -12.9968
 244   2.0000      -0.473118       -12.8742
 245   2.0000      -0.471813       -12.8387
 246   2.0000      -0.468387       -12.7455
 247   2.0000      -0.463045       -12.6001
 248   2.0000      -0.460966       -12.5435
 249   2.0000      -0.460110       -12.5202
 250   2.0000      -0.455954       -12.4071
 251   2.0000      -0.455481       -12.3943
 252   2.0000      -0.454546       -12.3688
 253   2.0000      -0.451760       -12.2930
 254   2.0000      -0.450976       -12.2717
 255   2.0000      -0.449886       -12.2420
 256   2.0000      -0.445484       -12.1222
 257   2.0000      -0.440211       -11.9787
 258   2.0000      -0.438079       -11.9207
 259   2.0000      -0.435886       -11.8611
 260   2.0000      -0.434906       -11.8344
 261   2.0000      -0.434046       -11.8110
 262   2.0000      -0.427834       -11.6420
 263   2.0000      -0.422159       -11.4875
 264   2.0000      -0.418949       -11.4002
 265   2.0000      -0.413510       -11.2522
 266   2.0000      -0.409297       -11.1375
 267   2.0000      -0.403286       -10.9740
 268   2.0000      -0.401872       -10.9355
 269   2.0000      -0.398129       -10.8336
 270   2.0000      -0.395772       -10.7695
 271   2.0000      -0.394301       -10.7295
 272   2.0000      -0.392755       -10.6874
 273   2.0000      -0.391235       -10.6461
 274   2.0000      -0.390140       -10.6162
 275   2.0000      -0.386097       -10.5062
 276   2.0000      -0.384011       -10.4495
 277   2.0000      -0.379940       -10.3387
 278   2.0000      -0.377221       -10.2647
 279   2.0000      -0.372881       -10.1466
 280   2.0000      -0.371338       -10.1046
 281   2.0000      -0.368286       -10.0216
 282   2.0000      -0.362496        -9.8640
 283   2.0000      -0.360593        -9.8122
 284   2.0000      -0.355880        -9.6840
 285   2.0000      -0.353406        -9.6167
 286   2.0000      -0.345173        -9.3926
 287   2.0000      -0.333305        -9.0697
 288   2.0000      -0.327321        -8.9069
 289   2.0000      -0.324180        -8.8214
 290   2.0000      -0.318408        -8.6643
 291   2.0000      -0.310171        -8.4402
 292   2.0000      -0.306704        -8.3459
 293   2.0000      -0.289382        -7.8745
 294   2.0000      -0.276012        -7.5107
 295   0.0000      -0.140347        -3.8190
 296   0.0000      -0.115799        -3.1510
 297   0.0000      -0.107225        -2.9177
 298   0.0000      -0.083712        -2.2779
 299   0.0000      -0.073840        -2.0093

MULLIKEN ATOMIC CHARGES
-----------------------
   0 C :   -0.104420
   1 C :    0.242091
   2 F :   -0.167553
   3 C :    0.239190
   4 F :   -0.167878
   5 C :   -0.101328
   6 C :    0.112931
   7 C :    0.112675
   8 C :   -0.078171
   9 C :    0.049933
  10 C :   -0.005912
  11 C :   -0.075288
  12 C :    0.160646
  13 O :   -0.143307
  14 C :   -0.072417
  15 C :    0.294285
  16 C :   -0.331268
  17 C :   -0.201941
  18 N :    0.170678
  19 C :   -0.183414
  20 N :    0.154981
  21 C :   -0.014078
  22 C :    0.176600
  23 O :   -0.177806
  24 C :    0.119335
  25 C :    0.150737
  26 C :   -0.071163
  27 N :    0.263869
  28 O :   -0.247389
  29 O :   -0.220663
  30 C :   -0.079122
  31 C :   -0.002923
  32 C :    0.017155
  33 C :    0.093513
  34 N :    0.266689
  35 O :   -0.246137
  36 O :   -0.233175
  37 C :    0.023677
  38 C :   -0.015823
  39 C :    0.039829
  40 C :    0.046151
  41 C :   -0.010906
  42 C :    0.042853
  43 C :    0.087725
  44 N :    0.268387
  45 O :   -0.251337
  46 O :   -0.238440
  47 C :    0.014254
  48 C :   -0.042272
  49 C :    0.055731
  50 C :   -0.086098
  51 S :    0.183008
  52 C :   -0.100756
  53 C :    0.025719
  54 C :    0.030645
  55 C :    0.027862
  56 O :   -0.151627
  57 C :    0.480055
  58 F :   -0.162016
  59 F :   -0.129293
  60 F :   -0.163942
  61 C :    0.007592
  62 C :    0.021052
  63 C :    0.037311
  64 C :   -0.115076
  65 C :    0.132800
  66 O :   -0.134372
  67 C :    0.019445
  68 C :   -0.081069
  69 C :    0.113398
  70 C :    0.109287
  71 C :   -0.104565
  72 C :    0.242102
  73 C :    0.240602
  74 C :   -0.103992
  75 F :   -0.168970
  76 F :   -0.167957
  77 C :   -0.074481
  78 C :    0.024908
  79 C :    0.283104
  80 C :   -0.327984
  81 C :   -0.184905
  82 N :    0.161985
  83 C :   -0.178978
  84 N :    0.163049
  85 H :    0.008537
  86 H :    0.002881
  87 H :   -0.002565
  88 H :   -0.006170
  89 H :    0.037268
  90 H :    0.032810
  91 H :    0.055049
  92 H :    0.048502
  93 H :    0.013603
  94 H :    0.023881
  95 H :    0.007167
  96 H :    0.012242
  97 H :    0.037547
  98 H :    0.013982
  99 H :    0.023242
 100 H :    0.049401
 101 H :    0.015728
 102 H :    0.032939
 103 H :   -0.006846
 104 H :    0.008837
 105 H :    0.001210
 106 H :    0.003130
Sum of atomic charges:   -0.0000000

LOEWDIN ATOMIC CHARGES
----------------------
   0 C :   -0.028450
   1 C :    0.068489
   2 F :   -0.045279
   3 C :    0.069134
   4 F :   -0.045607
   5 C :   -0.032020
   6 C :   -0.007814
   7 C :   -0.005089
   8 C :    0.019896
   9 C :   -0.023662
  10 C :   -0.054577
  11 C :    0.033789
  12 C :    0.087410
  13 O :   -0.131356
  14 C :   -0.077316
  15 C :    0.073443
  16 C :   -0.129803
  17 C :   -0.025657
  18 N :   -0.041444
  19 C :   -0.017617
  20 N :   -0.044347
  21 C :    0.050933
  22 C :    0.025494
  23 O :    0.041134
  24 C :    0.076947
  25 C :   -0.075234
  26 C :    0.011691
  27 N :    0.285771
  28 O :   -0.211571
  29 O :   -0.186289
  30 C :   -0.034646
  31 C :    0.018906
  32 C :    0.005066
  33 C :   -0.024480
  34 N :    0.282981
  35 O :   -0.206183
  36 O :   -0.197726
  37 C :    0.001208
  38 C :   -0.027177
  39 C :    0.030677
  40 C :    0.048543
  41 C :   -0.041037
  42 C :    0.026154
  43 C :   -0.042096
  44 N :    0.283709
  45 O :   -0.213592
  46 O :   -0.202494
  47 C :    0.017189
  48 C :   -0.017036
  49 C :   -0.009109
  50 C :   -0.167393
  51 S :    0.495329
  52 C :   -0.120854
  53 C :   -0.102410
  54 C :   -0.014358
  55 C :    0.047373
  56 O :   -0.108600
  57 C :    0.140811
  58 F :   -0.056307
  59 F :   -0.030709
  60 F :   -0.055890
  61 C :   -0.001083
  62 C :   -0.017393
  63 C :    0.059856
  64 C :   -0.074374
  65 C :    0.083978
  66 O :   -0.134155
  67 C :   -0.056174
  68 C :    0.033121
  69 C :   -0.008602
  70 C :   -0.004394
  71 C :   -0.028772
  72 C :    0.068103
  73 C :    0.068191
  74 C :   -0.032522
  75 F :   -0.046641
  76 F :   -0.045668
  77 C :    0.019212
  78 C :   -0.020139
  79 C :    0.066462
  80 C :   -0.126121
  81 C :   -0.011077
  82 N :   -0.047246
  83 C :   -0.017831
  84 N :   -0.043857
  85 H :    0.048373
  86 H :    0.045995
  87 H :    0.040809
  88 H :    0.041743
  89 H :    0.056891
  90 H :    0.048362
  91 H :    0.043553
  92 H :    0.042630
  93 H :    0.041984
  94 H :    0.036498
  95 H :    0.031736
  96 H :    0.041816
  97 H :    0.040256
  98 H :    0.034052
  99 H :    0.036296
 100 H :    0.040899
 101 H :    0.031480
 102 H :    0.049506
 103 H :    0.041597
 104 H :    0.048520
 105 H :    0.045440
 106 H :    0.041840

  Mayer bond orders larger than 0.100000
B(  0-C ,  1-C ) :   1.4426 B(  0-C ,  5-C ) :   0.1074 B(  0-C ,  7-C ) :   1.1888
B(  0-C , 85-H ) :   1.0070 B(  1-C ,  2-F ) :   1.1377 B(  1-C ,  3-C ) :   1.1879
B(  3-C ,  4-F ) :   1.1380 B(  3-C ,  5-C ) :   1.4444 B(  5-C ,  6-C ) :   1.1916
B(  5-C , 86-H ) :   1.0075 B(  6-C ,  7-C ) :   1.2519 B(  6-C , 11-C ) :   1.1949
B(  7-C ,  8-C ) :   1.2201 B(  8-C ,  9-C ) :   1.4496 B(  8-C , 87-H ) :   0.9910
B(  9-C , 10-C ) :   1.2188 B(  9-C , 15-C ) :   0.9908 B( 10-C , 11-C ) :   1.4671
B( 10-C , 12-C ) :   0.9500 B( 11-C , 88-H ) :   1.0168 B( 12-C , 13-O ) :   2.1974
B( 12-C , 14-C ) :   0.9303 B( 14-C , 15-C ) :   1.0550 B( 14-C , 21-C ) :   1.6129
B( 15-C , 16-C ) :   1.6585 B( 16-C , 17-C ) :   1.1330 B( 16-C , 19-C ) :   1.1415
B( 17-C , 18-N ) :   2.9989 B( 19-C , 20-N ) :   2.9709 B( 21-C , 22-C ) :   1.1571
B( 21-C , 89-H ) :   0.9300 B( 22-C , 23-O ) :   1.0819 B( 22-C , 26-C ) :   1.4024
B( 23-O , 24-C ) :   1.2226 B( 24-C , 25-C ) :   1.3278 B( 24-C , 30-C ) :   1.1876
B( 25-C , 26-C ) :   1.2208 B( 25-C , 27-N ) :   0.9255 B( 26-C , 90-H ) :   1.0151
B( 27-N , 28-O ) :   1.5090 B( 27-N , 29-O ) :   1.5596 B( 28-O , 29-O ) :   0.2703
B( 30-C , 31-C ) :   1.5993 B( 30-C , 91-H ) :   0.9554 B( 31-C , 32-C ) :   1.1073
B( 31-C , 92-H ) :   0.9477 B( 32-C , 33-C ) :   1.5775 B( 32-C , 39-C ) :   1.0178
B( 33-C , 34-N ) :   0.9316 B( 33-C , 37-C ) :   1.1149 B( 34-N , 35-O ) :   1.4994
B( 34-N , 36-O ) :   1.5431 B( 35-O , 36-O ) :   0.2684 B( 37-C , 38-C ) :   1.6133
B( 37-C , 93-H ) :   1.0150 B( 38-C , 39-C ) :   1.0854 B( 38-C , 94-H ) :   0.9900
B( 39-C , 40-C ) :   1.5908 B( 40-C , 41-C ) :   1.0973 B( 40-C , 47-C ) :   0.9947
B( 41-C , 42-C ) :   1.6071 B( 41-C , 95-H ) :   0.9976 B( 42-C , 43-C ) :   1.1102
B( 42-C , 96-H ) :   1.0104 B( 43-C , 44-N ) :   0.9426 B( 43-C , 47-C ) :   1.5662
B( 44-N , 45-O ) :   1.4967 B( 44-N , 46-O ) :   1.5432 B( 45-O , 46-O ) :   0.2627
B( 47-C , 48-C ) :   1.1599 B( 48-C , 49-C ) :   1.6434 B( 48-C , 97-H ) :   0.9433
B( 49-C , 50-C ) :   1.1281 B( 49-C , 98-H ) :   0.9555 B( 50-C , 51-S ) :   1.1169
B( 50-C , 54-C ) :   1.4971 B( 51-S , 52-C ) :   1.1788 B( 52-C , 53-C ) :   1.4004
B( 52-C , 61-C ) :   1.2127 B( 53-C , 54-C ) :   1.2673 B( 53-C , 55-C ) :   0.9670
B( 54-C , 99-H ) :   0.9648 B( 55-C , 56-O ) :   2.1340 B( 55-C , 57-C ) :   0.8891
B( 57-C , 58-F ) :   1.1370 B( 57-C , 59-F ) :   1.1975 B( 57-C , 60-F ) :   1.1166
B( 61-C , 62-C ) :   1.6226 B( 61-C ,100-H ) :   0.9461 B( 62-C , 63-C ) :   1.1363
B( 62-C ,101-H ) :   0.9561 B( 63-C , 64-C ) :   1.7042 B( 63-C ,102-H ) :   0.9275
B( 64-C , 65-C ) :   0.9331 B( 64-C , 79-C ) :   1.0182 B( 65-C , 66-O ) :   2.2739
B( 65-C , 67-C ) :   0.9198 B( 67-C , 68-C ) :   1.4660 B( 67-C , 78-C ) :   1.2216
B( 68-C , 69-C ) :   1.1977 B( 68-C ,103-H ) :   1.0169 B( 69-C , 70-C ) :   1.2539
B( 69-C , 74-C ) :   1.1914 B( 70-C , 71-C ) :   1.1885 B( 70-C , 77-C ) :   1.2212
B( 71-C , 72-C ) :   1.4422 B( 71-C , 74-C ) :   0.1083 B( 71-C ,104-H ) :   1.0072
B( 72-C , 73-C ) :   1.1887 B( 72-C , 76-F ) :   1.1375 B( 73-C , 74-C ) :   1.4448
B( 73-C , 75-F ) :   1.1355 B( 74-C ,105-H ) :   1.0070 B( 77-C , 78-C ) :   1.4523
B( 77-C ,106-H ) :   0.9936 B( 78-C , 79-C ) :   0.9968 B( 79-C , 80-C ) :   1.6661
B( 80-C , 81-C ) :   1.1752 B( 80-C , 83-C ) :   1.1259 B( 81-C , 82-N ) :   2.9735
B( 83-C , 84-N ) :   2.9945

-----------------------------------------------------------------------------
         ABSORPTION SPECTRUM VIA TRANSITION ELECTRIC DIPOLE MOMENTS
-----------------------------------------------------------------------------
State   Energy  Wavelength   fosc         T2         TX        TY        TZ
        (cm-1)    (nm)                  (au**2)     (au)      (au)      (au)
-----------------------------------------------------------------------------
   0   12112.9    825.6   0.403145288  10.95691  -1.97094  -2.21256  -1.47543
   1   16022.8    624.1   0.036107850   0.74189   0.12963   0.85011  -0.04901
   2   18996.9    526.4   0.509753552   8.83390  -1.57069  -0.62431  -2.44481
   3   22115.2    452.2   0.676010075  10.06325  -0.89198  -2.81755  -1.15285
   4   22510.6    444.2   0.131730482   1.92653  -0.08620   1.38504  -0.02761
   5   23868.0    419.0   0.003111982   0.04292  -0.18240   0.07298  -0.06579
   6   24557.3    407.2   0.121153825   1.62417   0.66867   0.98802   0.44819
   7   25141.5    397.7   0.182832221   2.39407  -0.40432  -1.43732  -0.40584
   8   26189.1    381.8   0.161887580   2.03502  -0.88605  -1.10223  -0.18717
   9   26571.0    376.3   0.071140306   0.88142   0.59208   0.01022   0.72853
  10   26861.8    372.3   0.001392142   0.01706  -0.06388  -0.11137  -0.02405
  11   27329.3    365.9   0.252076067   3.03654  -1.66258  -0.46207  -0.24262
  12   27851.9    359.0   0.101562438   1.20048   1.03144  -0.04465   0.36690
  13   27879.5    358.7   0.031644601   0.37367  -0.60025   0.08326  -0.08025
  14   28094.1    355.9   0.020059774   0.23506   0.41004   0.14263   0.21584
  15   28207.4    354.5   0.044222059   0.51612  -0.31668  -0.63195  -0.12834
  16   28559.7    350.1   0.042579245   0.49082   0.54028  -0.05595   0.44248
  17   28730.8    348.1   0.038931475   0.44610  -0.63590   0.20154  -0.03325
  18   28791.6    347.3   0.045901797   0.52485   0.54043   0.24235   0.41720
  19   29154.8    343.0   0.013744177   0.15520  -0.16221   0.11267  -0.34087
  20   29744.6    336.2   0.008086828   0.08950   0.09159   0.18926  -0.21283
  21   29876.6    334.7   0.036378352   0.40086  -0.09913  -0.37990  -0.49669
  22   30662.0    326.1   0.442165316   4.74745  -1.80959  -0.96031  -0.74205
  23   30887.8    323.8   0.094566023   1.00792   0.24399   0.61064  -0.75862
  24   31233.3    320.2   0.003895016   0.04106  -0.13102  -0.13479   0.07563
  25   31431.7    318.2   0.139721758   1.46343   0.25158  -0.85799   0.81485
  26   32065.2    311.9   0.153635068   1.57736  -0.69870  -0.42538  -0.95301
  27   32232.7    310.2   0.103598443   1.05811  -0.79774   0.14471  -0.63308
  28   32282.3    309.8   0.092628747   0.94462  -0.34292   0.24908  -0.87463
  29   32624.5    306.5   0.003827599   0.03862   0.15145   0.12462  -0.01248
  30   32646.2    306.3   0.034966154   0.35261  -0.32012  -0.47508  -0.15629
  31   33039.5    302.7   0.129161736   1.28699   0.47435   0.37153   0.96122
  32   33159.8    301.6   0.313835290   3.11577  -0.81189   0.65985  -1.42169
  33   33276.4    300.5   0.043791864   0.43324  -0.09966   0.53655  -0.36800
  34   33787.0    296.0   0.571727963   5.57077   1.25527   1.94231   0.47171
  35   34142.1    292.9   0.032574669   0.31410   0.29515  -0.42923   0.20675
  36   34408.5    290.6   0.009971164   0.09540   0.22051   0.21557  -0.01746
  37   34416.5    290.6   0.436450484   4.17488   1.76217   1.01618  -0.19238
  38   34684.4    288.3   0.089770955   0.85207  -0.09069   0.20143   0.89626
  39   34701.9    288.2   0.059634984   0.56575  -0.02838  -0.67560   0.32941
  40   34730.1    287.9   0.193752278   1.83661  -1.03298   0.10233  -0.87126
  41   35155.9    284.4   0.040656663   0.38072   0.21597   0.15817   0.55593
  42   35364.9    282.8   0.013287823   0.12370  -0.24846   0.08160   0.23517
  43   35500.1    281.7   0.209402383   1.94190  -0.70077  -1.05193   0.58674
  44   35621.1    280.7   0.042135267   0.38942   0.28531   0.34139   0.43757
  45   36195.8    276.3   0.010526218   0.09574   0.16688  -0.25399   0.05813
  46   36314.5    275.4   0.011864356   0.10756   0.09780  -0.31257  -0.01703
  47   36448.9    274.4   0.126312751   1.14088  -0.13127   0.88554  -0.58264
  48   36629.9    273.0   0.068861831   0.61890   0.20816   0.51819   0.55412
  49   37036.5    270.0   0.045161533   0.40143   0.12137   0.55824  -0.27399
  50   37089.7    269.6   0.106464624   0.94499  -0.32274   0.90663  -0.13727
  51   37136.2    269.3   0.092829448   0.82293  -0.20777  -0.81028  -0.35101
  52   37331.2    267.9   0.037102940   0.32720  -0.15547  -0.54414  -0.08329
  53   37537.3    266.4   0.009697214   0.08505   0.02866   0.00920  -0.29007
  54   37610.6    265.9   0.018406326   0.16111   0.03193   0.39784   0.04262
  55   37777.8    264.7   0.004739570   0.04130   0.17703  -0.09347   0.03503
  56   37883.1    264.0   0.081254231   0.70612   0.29034   0.77503   0.14542
  57   38096.1    262.5   0.027920515   0.24128  -0.13916   0.33132  -0.33487
  58   38423.6    260.3   0.033809703   0.28968  -0.50661   0.16691   0.07190
  59   38664.7    258.6   0.027342234   0.23281   0.09325  -0.08730   0.46528
  60   38820.4    257.6   0.082687417   0.70122   0.63255  -0.53962   0.09959
  61   38954.1    256.7   0.029432608   0.24874   0.17957  -0.14383  -0.44250
  62   39230.2    254.9   0.234737761   1.96987   1.35804  -0.31616   0.16011
  63   39363.5    254.0   0.009065190   0.07582   0.06556   0.26577   0.02970
  64   39423.9    253.7   0.010753598   0.08980   0.08235  -0.28812   0.00240
  65   39563.4    252.8   0.052609345   0.43777   0.48730   0.39627   0.20803
  66   39802.6    251.2   0.223554236   1.84904   0.10584  -1.34012  -0.20476
  67   39924.0    250.5   0.090721540   0.74809   0.64126  -0.57035   0.10754
  68   40052.2    249.7   0.183086572   1.50489   1.19297  -0.14981   0.24348
  69   40245.3    248.5   0.023034752   0.18843   0.23335  -0.36591  -0.00898

FINAL SINGLE POINT ENERGY     -4526.654177948863

DIPOLE MOMENT
-------------
                                X             Y             Z
Electronic contribution:      0.69620     -19.46749     -12.53656
Nuclear contribution   :     -1.46733      20.00137      12.45059
                        -----------------------------------------
Total Dipole Moment    :     -0.77114       0.53388      -0.08596
                        -----------------------------------------
Magnitude (a.u.)       :      0.94185
Magnitude (Debye)      :      2.39399

Rotational constants in cm-1:     0.001481     0.000158     0.000149
Rotational constants in MHz :    44.407936     4.750904     4.470828

                             ****ORCA TERMINATED NORMALLY****
TOTAL RUN TIME: 0 days 0 hours 12 minutes 20 seconds 820 msec
