                         Program Version 4.2.0 -  RELEASE  -
|  1> # ORCA input file
|  2> # SCF done       -211.131527327582          0.000516553171
|  3> ! CAM-B3LYP def2-SVP def2/J RIJCOSX Grid4 TightSCF
|  4> %maxcore 5000
|  5> %tddft
|  6>     Mode sTDDFT
|  7>     Ethresh 5.0
|  8>     maxcore 5000
|  9> end
| 10>
| 11> %pal
| 12>   nprocs 6
| 13>   end
| 14> * xyz 0 1
| 15>    C        0.49572        -0.73536        -0.44301
| 16>    C        1.33042         0.35029        -0.23581
| 17>    C        2.68954         0.20732        -0.52244
| 18>    C        3.56363         1.30224        -0.30871
| 19>    N        4.26432         2.18979        -0.13034
| 20>    C        3.21015        -1.00514        -1.01453
| 21>    C        4.59319        -1.11799        -1.29560
| 22>    N        5.70950        -1.22950        -1.52524
| 23>    C        2.36572        -2.09752        -1.21792
| 24>    C        1.02687        -1.94452        -0.92755
| 25>    C       -0.04899        -2.95615        -1.04280
| 26>    O        0.09726        -4.10268        -1.40353
| 27>    C       -1.27194        -2.28519        -0.54748
| 28>    C       -0.94324        -0.90507        -0.24376
| 29>    C       -1.81953         0.09411         0.08742
| 30>    C       -1.43595         1.42707         0.35100
| 31>    N       -1.18181         2.52176         0.58180
| 32>    C       -3.22132        -0.05239         0.17548
| 33>    N       -4.36651        -0.09230         0.24442
| 34>    C       -2.46202        -2.88631        -0.22804
| 35>    C       -2.92263        -4.17531        -0.54951
| 36>    C       -2.52569        -5.08504        -1.52441
| 37>    C       -3.27764        -6.24868        -1.48994
| 38>    C       -4.26425        -6.24515        -0.47462
| 39>    S       -4.28827        -4.78882         0.39733
| 40>    C       -4.92318        -7.49710        -0.48167
| 41>    C       -4.36376        -8.28832        -1.50475
| 42>    C       -3.32707        -7.52638        -2.18195
| 43>    C       -2.57186        -7.93405        -3.24134
| 44>    C       -2.71343        -9.22236        -3.80137
| 45>    N       -2.82358       -10.27162        -4.25063
| 46>    C       -1.61593        -7.10061        -3.86275
| 47>    N       -0.85307        -6.43079        -4.39431
| 48>    C       -4.92569        -9.55729        -1.57399
| 49>    C       -5.90000        -9.74445        -0.60587
| 50>    S       -6.13626        -8.32108         0.39015
| 51>    C       -6.61505       -10.96114        -0.38160
| 52>    C       -7.53721       -11.15400         0.64157
| 53>    F       -7.83317       -10.12946         1.46210
| 54>    C       -8.17400       -12.37407         0.89317
| 55>    F       -9.02667       -12.41427         1.93343
| 56>    C       -7.95388       -13.52865         0.14920
| 57>    C       -7.04784       -13.35363        -0.92756
| 58>    C       -6.40071       -12.10974        -1.18509
| 59>    N       -5.61614       -12.28949        -2.25679
| 60>    N       -5.79599       -13.53322        -2.59407
| 61>    N       -6.62027       -14.21959        -1.85706
| 62>    C       -5.13823       -14.10495        -3.72722
| 63>    C       -8.54270       -14.79828         0.43793
| 64>    C       -8.27272       -15.97955        -0.23508
| 65>    C       -8.95910       -17.05625         0.31428
| 66>    C       -9.76869       -16.68980         1.40826
| 67>    S       -9.67526       -15.02442         1.75782
| 68>    C      -10.40923       -17.85260         1.90207
| 69>    C       -9.99472       -18.95518         1.12210
| 70>    C       -9.08000       -18.48720         0.09494
| 71>    C       -8.47898       -19.23729        -0.87298
| 72>    C       -8.71001       -20.62626        -0.96614
| 73>    N       -8.91168       -21.75390        -1.01634
| 74>    C       -7.59607       -18.67462        -1.81879
| 75>    N       -6.86986       -18.21499        -2.57756
| 76>    C      -10.57019       -20.14966         1.52451
| 77>    C      -11.43167       -19.98225         2.60322
| 78>    S      -11.49175       -18.30187         3.13233
| 79>    C      -12.16003       -20.95066         3.31854
| 80>    C      -12.44675       -22.24208         2.97869
| 81>    C      -12.81663       -23.19073         4.06334
| 82>    O      -13.10801       -22.91551         5.20242
| 83>    C      -12.69239       -24.53673         3.45755
| 84>    C      -12.79381       -25.76846         4.06820
| 85>    C      -12.58739       -26.90776         3.28796
| 86>    C      -12.27912       -26.78327         1.91960
| 87>    C      -12.19027       -25.53072         1.30847
| 88>    C      -12.40542       -24.40558         2.08468
| 89>    C      -12.40055       -22.98222         1.73748
| 90>    C      -12.59220       -22.49200         0.47251
| 91>    C      -12.81915       -21.13078         0.18817
| 92>    N      -13.02644       -20.03364        -0.07751
| 93>    C      -12.68370       -23.30158        -0.68053
| 94>    N      -12.77384       -23.91841        -1.64303
| 95>    C      -12.04985       -27.95170         1.15085
| 96>    N      -11.86033       -28.89172         0.52586
| 97>    C      -12.67753       -28.19193         3.87762
| 98>    N      -12.75302       -29.22099         4.37399
| 99>    H        0.97025         1.29303         0.14401
|100>    H        2.74688        -3.03573        -1.59162
|101>    H       -3.14407        -2.31808         0.39405
|102>    H       -1.72583        -4.89164        -2.21414
|103>    H       -4.65953       -10.33075        -2.26982
|104>    H       -4.27386       -13.49024        -3.96924
|105>    H       -5.81823       -14.12618        -4.58068
|106>    H       -4.84243       -15.12588        -3.49212
|107>    H       -7.60209       -16.01778        -1.07329
|108>    H      -10.34255       -21.10953         1.09857
|109>    H      -12.47784       -20.66793         4.31785
|110>    H      -13.02255       -25.84933         5.11996
|111>    H      -11.94354       -25.46939         0.26021
|112> *
|113>
|114>                          ****END OF INPUT****

CARTESIAN COORDINATES (ANGSTROEM)
---------------------------------
  C      0.495720   -0.735360   -0.443010
  C      1.330420    0.350290   -0.235810
  C      2.689540    0.207320   -0.522440
  C      3.563630    1.302240   -0.308710
  N      4.264320    2.189790   -0.130340
  C      3.210150   -1.005140   -1.014530
  C      4.593190   -1.117990   -1.295600
  N      5.709500   -1.229500   -1.525240
  C      2.365720   -2.097520   -1.217920
  C      1.026870   -1.944520   -0.927550
  C     -0.048990   -2.956150   -1.042800
  O      0.097260   -4.102680   -1.403530
  C     -1.271940   -2.285190   -0.547480
  C     -0.943240   -0.905070   -0.243760
  C     -1.819530    0.094110    0.087420
  C     -1.435950    1.427070    0.351000
  N     -1.181810    2.521760    0.581800
  C     -3.221320   -0.052390    0.175480
  N     -4.366510   -0.092300    0.244420
  C     -2.462020   -2.886310   -0.228040
  C     -2.922630   -4.175310   -0.549510
  C     -2.525690   -5.085040   -1.524410
  C     -3.277640   -6.248680   -1.489940
  C     -4.264250   -6.245150   -0.474620
  S     -4.288270   -4.788820    0.397330
  C     -4.923180   -7.497100   -0.481670
  C     -4.363760   -8.288320   -1.504750
  C     -3.327070   -7.526380   -2.181950
  C     -2.571860   -7.934050   -3.241340
  C     -2.713430   -9.222360   -3.801370
  N     -2.823580  -10.271620   -4.250630
  C     -1.615930   -7.100610   -3.862750
  N     -0.853070   -6.430790   -4.394310
  C     -4.925690   -9.557290   -1.573990
  C     -5.900000   -9.744450   -0.605870
  S     -6.136260   -8.321080    0.390150
  C     -6.615050  -10.961140   -0.381600
  C     -7.537210  -11.154000    0.641570
  F     -7.833170  -10.129460    1.462100
  C     -8.174000  -12.374070    0.893170
  F     -9.026670  -12.414270    1.933430
  C     -7.953880  -13.528650    0.149200
  C     -7.047840  -13.353630   -0.927560
  C     -6.400710  -12.109740   -1.185090
  N     -5.616140  -12.289490   -2.256790
  N     -5.795990  -13.533220   -2.594070
  N     -6.620270  -14.219590   -1.857060
  C     -5.138230  -14.104950   -3.727220
  C     -8.542700  -14.798280    0.437930
  C     -8.272720  -15.979550   -0.235080
  C     -8.959100  -17.056250    0.314280
  C     -9.768690  -16.689800    1.408260
  S     -9.675260  -15.024420    1.757820
  C    -10.409230  -17.852600    1.902070
  C     -9.994720  -18.955180    1.122100
  C     -9.080000  -18.487200    0.094940
  C     -8.478980  -19.237290   -0.872980
  C     -8.710010  -20.626260   -0.966140
  N     -8.911680  -21.753900   -1.016340
  C     -7.596070  -18.674620   -1.818790
  N     -6.869860  -18.214990   -2.577560
  C    -10.570190  -20.149660    1.524510
  C    -11.431670  -19.982250    2.603220
  S    -11.491750  -18.301870    3.132330
  C    -12.160030  -20.950660    3.318540
  C    -12.446750  -22.242080    2.978690
  C    -12.816630  -23.190730    4.063340
  O    -13.108010  -22.915510    5.202420
  C    -12.692390  -24.536730    3.457550
  C    -12.793810  -25.768460    4.068200
  C    -12.587390  -26.907760    3.287960
  C    -12.279120  -26.783270    1.919600
  C    -12.190270  -25.530720    1.308470
  C    -12.405420  -24.405580    2.084680
  C    -12.400550  -22.982220    1.737480
  C    -12.592200  -22.492000    0.472510
  C    -12.819150  -21.130780    0.188170
  N    -13.026440  -20.033640   -0.077510
  C    -12.683700  -23.301580   -0.680530
  N    -12.773840  -23.918410   -1.643030
  C    -12.049850  -27.951700    1.150850
  N    -11.860330  -28.891720    0.525860
  C    -12.677530  -28.191930    3.877620
  N    -12.753020  -29.220990    4.373990
  H      0.970250    1.293030    0.144010
  H      2.746880   -3.035730   -1.591620
  H     -3.144070   -2.318080    0.394050
  H     -1.725830   -4.891640   -2.214140
  H     -4.659530  -10.330750   -2.269820
  H     -4.273860  -13.490240   -3.969240
  H     -5.818230  -14.126180   -4.580680
  H     -4.842430  -15.125880   -3.492120
  H     -7.602090  -16.017780   -1.073290
  H    -10.342550  -21.109530    1.098570
  H    -12.477840  -20.667930    4.317850
  H    -13.022550  -25.849330    5.119960
  H    -11.943540  -25.469390    0.260210

 Total Charge           Charge          ....    0
 Multiplicity           Mult            ....    1
 Number of Electrons    NEL             ....  582
 Basis Dimension        Dim             .... 1257

ORBITAL ENERGIES
----------------

  NO   OCC          E(Eh)            E(eV)
   0   2.0000     -89.013806     -2422.1888
   1   2.0000     -89.013207     -2422.1725
   2   2.0000     -89.010313     -2422.0937
   3   2.0000     -89.009863     -2422.0815
   4   2.0000     -24.832694      -675.7320
   5   2.0000     -24.832182      -675.7180
   6   2.0000     -19.243213      -523.6345
   7   2.0000     -19.241006      -523.5744
   8   2.0000     -14.575252      -396.6128
   9   2.0000     -14.477340      -393.9485
  10   2.0000     -14.476801      -393.9338
  11   2.0000     -14.447913      -393.1477
  12   2.0000     -14.447382      -393.1332
  13   2.0000     -14.446711      -393.1150
  14   2.0000     -14.443611      -393.0306
  15   2.0000     -14.439083      -392.9074
  16   2.0000     -14.437266      -392.8580
  17   2.0000     -14.434536      -392.7837
  18   2.0000     -14.433612      -392.7585
  19   2.0000     -14.430654      -392.6780
  20   2.0000     -14.430630      -392.6774
  21   2.0000     -14.429554      -392.6481
  22   2.0000     -14.429533      -392.6475
  23   2.0000     -10.408111      -283.2191
  24   2.0000     -10.407546      -283.2037
  25   2.0000     -10.395059      -282.8639
  26   2.0000     -10.392253      -282.7876
  27   2.0000     -10.382989      -282.5355
  28   2.0000     -10.382939      -282.5341
  29   2.0000     -10.369981      -282.1815
  30   2.0000     -10.369444      -282.1669
  31   2.0000     -10.369042      -282.1560
  32   2.0000     -10.367603      -282.1168
  33   2.0000     -10.366486      -282.0864
  34   2.0000     -10.365081      -282.0482
  35   2.0000     -10.364705      -282.0379
  36   2.0000     -10.363122      -281.9949
  37   2.0000     -10.362844      -281.9873
  38   2.0000     -10.362584      -281.9802
  39   2.0000     -10.362061      -281.9660
  40   2.0000     -10.362051      -281.9658
  41   2.0000     -10.351898      -281.6895
  42   2.0000     -10.350375      -281.6480
  43   2.0000     -10.350095      -281.6404
  44   2.0000     -10.350070      -281.6397
  45   2.0000     -10.349350      -281.6201
  46   2.0000     -10.348035      -281.5844
  47   2.0000     -10.347137      -281.5599
  48   2.0000     -10.346712      -281.5483
  49   2.0000     -10.346542      -281.5437
  50   2.0000     -10.345843      -281.5247
  51   2.0000     -10.345754      -281.5223
  52   2.0000     -10.345468      -281.5145
  53   2.0000     -10.345098      -281.5044
  54   2.0000     -10.344784      -281.4959
  55   2.0000     -10.344548      -281.4895
  56   2.0000     -10.343702      -281.4664
  57   2.0000     -10.342823      -281.4425
  58   2.0000     -10.342789      -281.4416
  59   2.0000     -10.339714      -281.3579
  60   2.0000     -10.339136      -281.3422
  61   2.0000     -10.339098      -281.3412
  62   2.0000     -10.337457      -281.2965
  63   2.0000     -10.336875      -281.2807
  64   2.0000     -10.336734      -281.2768
  65   2.0000     -10.336451      -281.2691
  66   2.0000     -10.336142      -281.2607
  67   2.0000     -10.334808      -281.2244
  68   2.0000     -10.332403      -281.1590
  69   2.0000     -10.328801      -281.0610
  70   2.0000     -10.327901      -281.0365
  71   2.0000     -10.327684      -281.0306
  72   2.0000     -10.327209      -281.0176
  73   2.0000     -10.327074      -281.0140
  74   2.0000     -10.326246      -280.9914
  75   2.0000     -10.325793      -280.9791
  76   2.0000     -10.325766      -280.9784
  77   2.0000     -10.325665      -280.9756
  78   2.0000     -10.325474      -280.9704
  79   2.0000     -10.324594      -280.9465
  80   2.0000     -10.321836      -280.8714
  81   2.0000     -10.320797      -280.8432
  82   2.0000     -10.315440      -280.6974
  83   2.0000     -10.315362      -280.6953
  84   2.0000      -8.108584      -220.6458
  85   2.0000      -8.108111      -220.6329
  86   2.0000      -8.104428      -220.5327
  87   2.0000      -8.103902      -220.5184
  88   2.0000      -6.077706      -165.3828
  89   2.0000      -6.077218      -165.3695
  90   2.0000      -6.073755      -165.2753
  91   2.0000      -6.073582      -165.2706
  92   2.0000      -6.073200      -165.2602
  93   2.0000      -6.073099      -165.2574
  94   2.0000      -6.071066      -165.2021
  95   2.0000      -6.070583      -165.1890
  96   2.0000      -6.069324      -165.1547
  97   2.0000      -6.068787      -165.1401
  98   2.0000      -6.066831      -165.0869
  99   2.0000      -6.066360      -165.0741
 100   2.0000      -1.355000       -36.8714
 101   2.0000      -1.337833       -36.4043
 102   2.0000      -1.255419       -34.1617
 103   2.0000      -1.159271       -31.5454
 104   2.0000      -1.156913       -31.4812
 105   2.0000      -1.066661       -29.0253
 106   2.0000      -1.066500       -29.0209
 107   2.0000      -1.047187       -28.4954
 108   2.0000      -1.046626       -28.4801
 109   2.0000      -1.039440       -28.2846
 110   2.0000      -1.038058       -28.2470
 111   2.0000      -1.033297       -28.1175
 112   2.0000      -1.032294       -28.0902
 113   2.0000      -1.031213       -28.0607
 114   2.0000      -1.030497       -28.0412
 115   2.0000      -1.024570       -27.8800
 116   2.0000      -1.022149       -27.8141
 117   2.0000      -1.018745       -27.7215
 118   2.0000      -1.015727       -27.6393
 119   2.0000      -1.015206       -27.6252
 120   2.0000      -1.014300       -27.6005
 121   2.0000      -1.012993       -27.5649
 122   2.0000      -1.011101       -27.5135
 123   2.0000      -1.009332       -27.4653
 124   2.0000      -1.009260       -27.4634
 125   2.0000      -0.985018       -26.8037
 126   2.0000      -0.983969       -26.7752
 127   2.0000      -0.978503       -26.6264
 128   2.0000      -0.976993       -26.5853
 129   2.0000      -0.958311       -26.0770
 130   2.0000      -0.944708       -25.7068
 131   2.0000      -0.938506       -25.5381
 132   2.0000      -0.930812       -25.3287
 133   2.0000      -0.930273       -25.3140
 134   2.0000      -0.922797       -25.1106
 135   2.0000      -0.911435       -24.8014
 136   2.0000      -0.907651       -24.6984
 137   2.0000      -0.906453       -24.6658
 138   2.0000      -0.902953       -24.5706
 139   2.0000      -0.890199       -24.2236
 140   2.0000      -0.883559       -24.0429
 141   2.0000      -0.877463       -23.8770
 142   2.0000      -0.877160       -23.8687
 143   2.0000      -0.861796       -23.4507
 144   2.0000      -0.850197       -23.1350
 145   2.0000      -0.845765       -23.0144
 146   2.0000      -0.822679       -22.3862
 147   2.0000      -0.813363       -22.1327
 148   2.0000      -0.812914       -22.1205
 149   2.0000      -0.799310       -21.7503
 150   2.0000      -0.798236       -21.7211
 151   2.0000      -0.796570       -21.6758
 152   2.0000      -0.777273       -21.1507
 153   2.0000      -0.771157       -20.9842
 154   2.0000      -0.759516       -20.6675
 155   2.0000      -0.758432       -20.6380
 156   2.0000      -0.751259       -20.4428
 157   2.0000      -0.749545       -20.3962
 158   2.0000      -0.731298       -19.8996
 159   2.0000      -0.723260       -19.6809
 160   2.0000      -0.718852       -19.5610
 161   2.0000      -0.716148       -19.4874
 162   2.0000      -0.713105       -19.4046
 163   2.0000      -0.706289       -19.2191
 164   2.0000      -0.705405       -19.1950
 165   2.0000      -0.701272       -19.0826
 166   2.0000      -0.693150       -18.8616
 167   2.0000      -0.691006       -18.8032
 168   2.0000      -0.684564       -18.6279
 169   2.0000      -0.678461       -18.4619
 170   2.0000      -0.666735       -18.1428
 171   2.0000      -0.665626       -18.1126
 172   2.0000      -0.664665       -18.0864
 173   2.0000      -0.660846       -17.9825
 174   2.0000      -0.659144       -17.9362
 175   2.0000      -0.653471       -17.7819
 176   2.0000      -0.652683       -17.7604
 177   2.0000      -0.646466       -17.5912
 178   2.0000      -0.637357       -17.3434
 179   2.0000      -0.637090       -17.3361
 180   2.0000      -0.634111       -17.2550
 181   2.0000      -0.625485       -17.0203
 182   2.0000      -0.621546       -16.9131
 183   2.0000      -0.618175       -16.8214
 184   2.0000      -0.616610       -16.7788
 185   2.0000      -0.608959       -16.5706
 186   2.0000      -0.604861       -16.4591
 187   2.0000      -0.603883       -16.4325
 188   2.0000      -0.598875       -16.2962
 189   2.0000      -0.594157       -16.1678
 190   2.0000      -0.592566       -16.1245
 191   2.0000      -0.580891       -15.8068
 192   2.0000      -0.577441       -15.7130
 193   2.0000      -0.572191       -15.5701
 194   2.0000      -0.571846       -15.5607
 195   2.0000      -0.569258       -15.4903
 196   2.0000      -0.568120       -15.4593
 197   2.0000      -0.567646       -15.4464
 198   2.0000      -0.564405       -15.3583
 199   2.0000      -0.563269       -15.3273
 200   2.0000      -0.560866       -15.2619
 201   2.0000      -0.557666       -15.1749
 202   2.0000      -0.552990       -15.0476
 203   2.0000      -0.542130       -14.7521
 204   2.0000      -0.541710       -14.7407
 205   2.0000      -0.538201       -14.6452
 206   2.0000      -0.536188       -14.5904
 207   2.0000      -0.533307       -14.5120
 208   2.0000      -0.531706       -14.4684
 209   2.0000      -0.530746       -14.4423
 210   2.0000      -0.529517       -14.4089
 211   2.0000      -0.526371       -14.3233
 212   2.0000      -0.525148       -14.2900
 213   2.0000      -0.524125       -14.2622
 214   2.0000      -0.522685       -14.2230
 215   2.0000      -0.520304       -14.1582
 216   2.0000      -0.520031       -14.1508
 217   2.0000      -0.517928       -14.0935
 218   2.0000      -0.515996       -14.0410
 219   2.0000      -0.512840       -13.9551
 220   2.0000      -0.510351       -13.8874
 221   2.0000      -0.507972       -13.8226
 222   2.0000      -0.506335       -13.7781
 223   2.0000      -0.504476       -13.7275
 224   2.0000      -0.500604       -13.6221
 225   2.0000      -0.495221       -13.4756
 226   2.0000      -0.494001       -13.4425
 227   2.0000      -0.490342       -13.3429
 228   2.0000      -0.489705       -13.3256
 229   2.0000      -0.478027       -13.0078
 230   2.0000      -0.477371       -12.9899
 231   2.0000      -0.475594       -12.9416
 232   2.0000      -0.472597       -12.8600
 233   2.0000      -0.471709       -12.8358
 234   2.0000      -0.469957       -12.7882
 235   2.0000      -0.469572       -12.7777
 236   2.0000      -0.468807       -12.7569
 237   2.0000      -0.467738       -12.7278
 238   2.0000      -0.463406       -12.6099
 239   2.0000      -0.463380       -12.6092
 240   2.0000      -0.462810       -12.5937
 241   2.0000      -0.461566       -12.5598
 242   2.0000      -0.459317       -12.4986
 243   2.0000      -0.457312       -12.4441
 244   2.0000      -0.457128       -12.4391
 245   2.0000      -0.456058       -12.4100
 246   2.0000      -0.456013       -12.4087
 247   2.0000      -0.455879       -12.4051
 248   2.0000      -0.455610       -12.3978
 249   2.0000      -0.455178       -12.3860
 250   2.0000      -0.455026       -12.3819
 251   2.0000      -0.454694       -12.3728
 252   2.0000      -0.453758       -12.3474
 253   2.0000      -0.453583       -12.3426
 254   2.0000      -0.453442       -12.3388
 255   2.0000      -0.448740       -12.2108
 256   2.0000      -0.447756       -12.1841
 257   2.0000      -0.446169       -12.1409
 258   2.0000      -0.445872       -12.1328
 259   2.0000      -0.443215       -12.0605
 260   2.0000      -0.440904       -11.9976
 261   2.0000      -0.439215       -11.9517
 262   2.0000      -0.437163       -11.8958
 263   2.0000      -0.436629       -11.8813
 264   2.0000      -0.432266       -11.7626
 265   2.0000      -0.429883       -11.6977
 266   2.0000      -0.429855       -11.6969
 267   2.0000      -0.429050       -11.6751
 268   2.0000      -0.427537       -11.6339
 269   2.0000      -0.426806       -11.6140
 270   2.0000      -0.423091       -11.5129
 271   2.0000      -0.422850       -11.5063
 272   2.0000      -0.404661       -11.0114
 273   2.0000      -0.401960       -10.9379
 274   2.0000      -0.398065       -10.8319
 275   2.0000      -0.378206       -10.2915
 276   2.0000      -0.373566       -10.1652
 277   2.0000      -0.371522       -10.1096
 278   2.0000      -0.370730       -10.0881
 279   2.0000      -0.367841       -10.0095
 280   2.0000      -0.365785        -9.9535
 281   2.0000      -0.363183        -9.8827
 282   2.0000      -0.359025        -9.7696
 283   2.0000      -0.354186        -9.6379
 284   2.0000      -0.345164        -9.3924
 285   2.0000      -0.342022        -9.3069
 286   2.0000      -0.340418        -9.2632
 287   2.0000      -0.338198        -9.2028
 288   2.0000      -0.323888        -8.8134
 289   2.0000      -0.294335        -8.0093
 290   2.0000      -0.269217        -7.3258
 291   0.0000      -0.135540        -3.6882
 292   0.0000      -0.126468        -3.4414
 293   0.0000      -0.111039        -3.0215
 294   0.0000      -0.110288        -3.0011
 295   0.0000      -0.098610        -2.6833

MULLIKEN ATOMIC CHARGES
-----------------------
   0 C :    0.048257
   1 C :   -0.040526
   2 C :   -0.058704
   3 C :   -0.176629
   4 N :    0.204234
   5 C :   -0.065897
   6 C :   -0.174887
   7 N :    0.199463
   8 C :   -0.031943
   9 C :   -0.007537
  10 C :    0.156613
  11 O :   -0.136697
  12 C :   -0.099905
  13 C :    0.297575
  14 C :   -0.331245
  15 C :   -0.182625
  16 N :    0.169804
  17 C :   -0.204639
  18 N :    0.168264
  19 C :    0.033838
  20 C :   -0.116105
  21 C :    0.033693
  22 C :   -0.020064
  23 C :   -0.081936
  24 S :    0.215025
  25 C :   -0.094345
  26 C :    0.038272
  27 C :    0.312166
  28 C :   -0.289876
  29 C :   -0.186193
  30 N :    0.175436
  31 C :   -0.189100
  32 N :    0.189008
  33 C :   -0.068883
  34 C :   -0.125353
  35 S :    0.224454
  36 C :    0.097001
  37 C :    0.115727
  38 F :   -0.174995
  39 C :    0.113807
  40 F :   -0.176353
  41 C :    0.100373
  42 C :   -0.029443
  43 C :   -0.035679
  44 N :   -0.057749
  45 N :   -0.052120
  46 N :   -0.062389
  47 C :    0.132992
  48 C :   -0.127160
  49 C :   -0.068350
  50 C :    0.041447
  51 C :   -0.098344
  52 S :    0.223341
  53 C :   -0.071344
  54 C :   -0.004403
  55 C :    0.305525
  56 C :   -0.283401
  57 C :   -0.184504
  58 N :    0.169862
  59 C :   -0.180830
  60 N :    0.174713
  61 C :    0.000957
  62 C :   -0.109760
  63 S :    0.223357
  64 C :    0.088872
  65 C :   -0.144948
  66 C :    0.139957
  67 O :   -0.127393
  68 C :    0.012274
  69 C :   -0.031960
  70 C :   -0.070102
  71 C :   -0.063604
  72 C :   -0.030217
  73 C :    0.024883
  74 C :    0.265059
  75 C :   -0.314032
  76 C :   -0.203932
  77 N :    0.180539
  78 C :   -0.174464
  79 N :    0.178849
  80 C :   -0.173260
  81 N :    0.202197
  82 C :   -0.172285
  83 N :    0.197490
  84 H :    0.022145
  85 H :    0.018964
  86 H :    0.025089
  87 H :    0.035722
  88 H :    0.023369
  89 H :    0.071493
  90 H :    0.065373
  91 H :    0.068240
  92 H :    0.022122
  93 H :    0.025418
  94 H :    0.026076
  95 H :    0.018416
  96 H :    0.028358
Sum of atomic charges:   -0.0000000

LOEWDIN ATOMIC CHARGES
----------------------
   0 C :    0.001887
   1 C :    0.034032
   2 C :   -0.023542
   3 C :   -0.031716
   4 N :   -0.010331
   5 C :   -0.027839
   6 C :   -0.031906
   7 N :   -0.012585
   8 C :    0.049512
   9 C :   -0.028481
  10 C :    0.083729
  11 O :   -0.126447
  12 C :   -0.104962
  13 C :    0.068781
  14 C :   -0.126750
  15 C :   -0.022399
  16 N :   -0.034888
  17 C :   -0.024737
  18 N :   -0.038938
  19 C :    0.051186
  20 C :   -0.180438
  21 C :    0.029037
  22 C :   -0.073295
  23 C :   -0.150772
  24 S :    0.499895
  25 C :   -0.194925
  26 C :   -0.052567
  27 C :    0.075887
  28 C :   -0.091476
  29 C :   -0.012350
  30 N :   -0.030389
  31 C :   -0.020616
  32 N :   -0.016349
  33 C :   -0.018823
  34 C :   -0.154472
  35 S :    0.501461
  36 C :   -0.063790
  37 C :    0.059937
  38 F :   -0.050431
  39 C :    0.058945
  40 F :   -0.050759
  41 C :   -0.061784
  42 C :   -0.040638
  43 C :   -0.041936
  44 N :   -0.074670
  45 N :    0.168920
  46 N :   -0.076740
  47 C :    0.036705
  48 C :   -0.157874
  49 C :   -0.016178
  50 C :   -0.056161
  51 C :   -0.190082
  52 S :    0.502995
  53 C :   -0.151306
  54 C :   -0.065535
  55 C :    0.081020
  56 C :   -0.094795
  57 C :   -0.012586
  58 N :   -0.030525
  59 C :   -0.014629
  60 N :   -0.028072
  61 C :    0.015650
  62 C :   -0.184144
  63 S :    0.506228
  64 C :    0.051303
  65 C :   -0.101231
  66 C :    0.083044
  67 O :   -0.129658
  68 C :   -0.031976
  69 C :    0.049192
  70 C :   -0.029159
  71 C :   -0.021930
  72 C :    0.034265
  73 C :    0.005596
  74 C :    0.058465
  75 C :   -0.123620
  76 C :   -0.015378
  77 N :   -0.033374
  78 C :   -0.023510
  79 N :   -0.028914
  80 C :   -0.031361
  81 N :   -0.009319
  82 C :   -0.032224
  83 N :   -0.013212
  84 H :    0.052545
  85 H :    0.055008
  86 H :    0.045397
  87 H :    0.045946
  88 H :    0.038802
  89 H :    0.049481
  90 H :    0.046780
  91 H :    0.048702
  92 H :    0.039033
  93 H :    0.042832
  94 H :    0.048306
  95 H :    0.054733
  96 H :    0.054257

  Mayer bond orders larger than 0.100000
B(  0-C ,  1-C ) :   1.3609 B(  0-C ,  9-C ) :   1.3345 B(  0-C , 13-C ) :   0.9582
B(  1-C ,  2-C ) :   1.3902 B(  1-C , 84-H ) :   0.9857 B(  2-C ,  3-C ) :   1.0879
B(  2-C ,  5-C ) :   1.4040 B(  3-C ,  4-N ) :   3.0442 B(  5-C ,  6-C ) :   1.0869
B(  5-C ,  8-C ) :   1.3610 B(  6-C ,  7-N ) :   3.0447 B(  8-C ,  9-C ) :   1.3677
B(  8-C , 85-H ) :   1.0144 B(  9-C , 10-C ) :   0.9269 B( 10-C , 11-O ) :   2.2071
B( 10-C , 12-C ) :   0.9564 B( 12-C , 13-C ) :   1.0865 B( 12-C , 19-C ) :   1.5629
B( 13-C , 14-C ) :   1.6530 B( 14-C , 15-C ) :   1.1429 B( 14-C , 17-C ) :   1.1393
B( 15-C , 16-N ) :   2.9649 B( 17-C , 18-N ) :   2.9908 B( 19-C , 20-C ) :   1.2287
B( 19-C , 86-H ) :   0.9245 B( 20-C , 21-C ) :   1.3827 B( 20-C , 24-S ) :   1.0675
B( 21-C , 22-C ) :   1.3538 B( 21-C , 87-H ) :   0.9745 B( 22-C , 23-C ) :   1.3713
B( 22-C , 27-C ) :   0.9886 B( 23-C , 24-S ) :   1.1743 B( 23-C , 25-C ) :   1.2091
B( 25-C , 26-C ) :   1.4203 B( 25-C , 35-S ) :   1.0994 B( 26-C , 27-C ) :   1.0017
B( 26-C , 33-C ) :   1.2622 B( 27-C , 28-C ) :   1.7183 B( 28-C , 29-C ) :   1.1367
B( 28-C , 31-C ) :   1.1338 B( 29-C , 30-N ) :   2.9882 B( 31-C , 32-N ) :   2.9936
B( 33-C , 34-C ) :   1.4601 B( 33-C , 88-H ) :   0.9779 B( 34-C , 35-S ) :   1.1087
B( 34-C , 36-C ) :   1.1463 B( 36-C , 37-C ) :   1.3590 B( 36-C , 41-C ) :   0.1282
B( 36-C , 43-C ) :   1.1745 B( 37-C , 38-F ) :   1.1371 B( 37-C , 39-C ) :   1.2088
B( 39-C , 40-F ) :   1.1336 B( 39-C , 41-C ) :   1.3589 B( 41-C , 42-C ) :   1.1761
B( 41-C , 48-C ) :   1.1449 B( 42-C , 43-C ) :   1.2220 B( 42-C , 46-N ) :   1.4691
B( 43-C , 44-N ) :   1.4717 B( 44-N , 45-N ) :   1.2451 B( 44-N , 46-N ) :   0.1558
B( 45-N , 46-N ) :   1.2367 B( 45-N , 47-C ) :   0.9438 B( 47-C , 89-H ) :   0.9637
B( 47-C , 90-H ) :   0.9683 B( 47-C , 91-H ) :   0.9658 B( 48-C , 49-C ) :   1.4635
B( 48-C , 52-S ) :   1.1058 B( 49-C , 50-C ) :   1.2614 B( 49-C , 92-H ) :   0.9794
B( 50-C , 51-C ) :   1.4216 B( 50-C , 55-C ) :   0.9978 B( 51-C , 52-S ) :   1.1050
B( 51-C , 53-C ) :   1.2025 B( 53-C , 54-C ) :   1.3987 B( 53-C , 63-S ) :   1.1648
B( 54-C , 55-C ) :   0.9943 B( 54-C , 61-C ) :   1.3778 B( 55-C , 56-C ) :   1.7200
B( 56-C , 57-C ) :   1.1321 B( 56-C , 59-C ) :   1.1346 B( 57-C , 58-N ) :   2.9811
B( 59-C , 60-N ) :   2.9865 B( 61-C , 62-C ) :   1.3682 B( 61-C , 93-H ) :   0.9771
B( 62-C , 63-S ) :   1.0829 B( 62-C , 64-C ) :   1.1694 B( 64-C , 65-C ) :   1.6326
B( 64-C , 94-H ) :   0.9278 B( 65-C , 66-C ) :   0.9554 B( 65-C , 74-C ) :   1.0503
B( 66-C , 67-O ) :   2.2763 B( 66-C , 68-C ) :   0.8999 B( 68-C , 69-C ) :   1.3719
B( 68-C , 73-C ) :   1.3339 B( 69-C , 70-C ) :   1.3657 B( 69-C , 95-H ) :   1.0137
B( 70-C , 71-C ) :   1.4022 B( 70-C , 82-C ) :   1.0864 B( 71-C , 72-C ) :   1.3875
B( 71-C , 80-C ) :   1.0873 B( 72-C , 73-C ) :   1.3668 B( 72-C , 96-H ) :   0.9893
B( 73-C , 74-C ) :   0.9736 B( 74-C , 75-C ) :   1.6620 B( 75-C , 76-C ) :   1.1745
B( 75-C , 78-C ) :   1.1257 B( 76-C , 77-N ) :   2.9947 B( 78-C , 79-N ) :   2.9899
B( 80-C , 81-N ) :   3.0428 B( 82-C , 83-N ) :   3.0448

-----------------------------------------------------------------------------
         ABSORPTION SPECTRUM VIA TRANSITION ELECTRIC DIPOLE MOMENTS
-----------------------------------------------------------------------------
State   Energy  Wavelength   fosc         T2         TX        TY        TZ
        (cm-1)    (nm)                  (au**2)     (au)      (au)      (au)
-----------------------------------------------------------------------------
   0   13333.9    750.0   1.098439133  27.12033  -2.44836  -4.56038   0.57346
   1   14562.4    686.7   0.057112174   1.29114  -0.53765  -0.97467  -0.22824
   2   18925.6    528.4   1.368630662  23.80742  -2.33000  -4.27976   0.24936
   3   20362.0    491.1   0.413038055   6.67800   0.97593   2.38894   0.13613
   4   22162.8    451.2   0.001769093   0.02628  -0.11771  -0.07582  -0.08170
   5   23058.4    433.7   0.170570941   2.43529  -0.90384  -0.82260   0.97041
   6   23851.9    419.3   0.081578575   1.12597  -0.84761  -0.47697  -0.42430
   7   24446.9    409.1   0.232492664   3.13084   0.64819   1.51142  -0.65291
   8   26484.0    377.6   0.053955354   0.67070  -0.21581  -0.72132   0.32221
   9   28020.7    356.9   0.065990391   0.77531   0.67726   0.17002  -0.53640
  10   28280.3    353.6   0.002340568   0.02725   0.04861  -0.13580  -0.08026
  11   28684.5    348.6   0.057968709   0.66531  -0.17813   0.40991  -0.68231
  12   29024.3    344.5   0.139029510   1.57696  -0.41367  -1.18140  -0.10070
  13   29661.5    337.1   0.159492336   1.77020   0.87088  -0.39345  -0.92573
  14   30095.1    332.3   0.004386377   0.04798  -0.02372   0.14931  -0.15851
  15   30215.2    331.0   0.263705576   2.87322   0.81192  -0.72371  -1.30010
  16   30474.4    328.1   0.061746693   0.66704  -0.19113   0.25701   0.75131
  17   31074.0    321.8   0.034987812   0.37068  -0.26925   0.18825   0.51258
  18   31473.5    317.7   0.028913109   0.30243  -0.44214  -0.25980   0.19862
  19   31695.9    315.5   0.014556784   0.15120   0.09741  -0.36803   0.07911
  20   31745.9    315.0   0.092328137   0.95746  -0.25521   0.74272  -0.58369
  21   32129.4    311.2   0.024109586   0.24704  -0.46593   0.12564  -0.11898
  22   32344.2    309.2   0.240652931   2.44946  -0.55344  -1.43592   0.28513
  23   32557.9    307.1   0.207425732   2.09740  -0.82318   1.07286   0.51840
  24   32730.8    305.5   0.044764857   0.45025   0.43374   0.31745  -0.40168
  25   33041.0    302.7   0.036642454   0.36510  -0.13197   0.52288   0.27253
  26   33479.7    298.7   0.339885581   3.34216  -1.25253  -1.32720  -0.10883
  27   33918.9    294.8   0.299842579   2.91022   0.87561  -0.56310  -1.35146
  28   34163.2    292.7   0.074404077   0.71699   0.09597   0.11960  -0.83275
  29   34515.8    289.7   0.177761190   1.69549   0.88943  -0.23773  -0.92081
  30   34720.1    288.0   0.031465370   0.29835   0.24407  -0.19633  -0.44748
  31   34895.5    286.6   0.291854173   2.75342  -1.62160   0.23407   0.26279
  32   35196.1    284.1   0.135533498   1.26773  -0.74844   0.68993   0.48122
  33   35465.1    282.0   0.426762313   3.96151  -0.19323   1.47869  -1.31819
  34   35805.6    279.3   0.025946106   0.23856   0.09725   0.40954   0.24774
  35   35889.7    278.6   0.076790941   0.70439  -0.54992   0.24537   0.58461
  36   36086.3    277.1   0.121542833   1.10882   0.96125  -0.39982  -0.15800
  37   36600.1    273.2   0.131407855   1.18199   0.07145  -1.02529   0.35451
  38   36683.4    272.6   0.173331238   1.55555  -0.62157  -0.11461   1.07520
  39   37159.6    269.1   0.023498216   0.20818   0.09446  -0.04847  -0.44374
  40   37313.2    268.0   0.157063602   1.38576  -0.49937  -0.49892   0.94205
  41   37456.9    267.0   0.095371800   0.83823  -0.66280   0.56698   0.27833
  42   37576.3    266.1   0.042275992   0.37039  -0.46247   0.30840   0.24778
  43   37736.1    265.0   0.186924811   1.63074   1.06024   0.69978  -0.13018
  44   38069.4    262.7   0.229945763   1.98850  -0.21646   1.37508   0.22541
  45   38245.0    261.5   0.005272536   0.04539  -0.08434  -0.16666   0.10246
  46   38281.3    261.2   0.158285438   1.36123  -0.33154   0.92695   0.62616
  47   38907.9    257.0   0.003276591   0.02772   0.00673   0.12840   0.10580
  48   38974.1    256.6   0.015473711   0.13071   0.08408   0.24383   0.25334
  49   39173.3    255.3   0.065859663   0.55348   0.34376  -0.43327  -0.49759
  50   39335.4    254.2   0.020666330   0.17296   0.24527   0.25837  -0.21460
  51   39481.8    253.3   0.019435285   0.16206   0.03870  -0.38338  -0.11653
  52   39599.2    252.5   0.075559874   0.62818   0.48438   0.14434  -0.61051
  53   39901.3    250.6   0.126355537   1.04252  -0.41514  -0.92260  -0.13777

FINAL SINGLE POINT ENERGY     -5091.335429206728

DIPOLE MOMENT
-------------
                                X             Y             Z
Electronic contribution:    -12.53156       9.92827      13.72443
Nuclear contribution   :     10.69701      -9.44001     -11.90800
                        -----------------------------------------
Total Dipole Moment    :     -1.83455       0.48826       1.81642
                        -----------------------------------------
Magnitude (a.u.)       :      2.62742
Magnitude (Debye)      :      6.67838

Rotational constants in cm-1:     0.002421     0.000140     0.000137
Rotational constants in MHz :    72.591359     4.199693     4.099985

                             ****ORCA TERMINATED NORMALLY****
TOTAL RUN TIME: 0 days 0 hours 22 minutes 29 seconds 908 msec
