                         Program Version 4.2.0 -  RELEASE  -
|  1> # ORCA input file
|  2> # SCF done       -193.409290912656          0.000270295526
|  3> ! CAM-B3LYP def2-SVP def2/J RIJCOSX Grid4 TightSCF
|  4> %maxcore 5000
|  5> %tddft
|  6>     Mode sTDDFT
|  7>     Ethresh 5.0
|  8>     maxcore 5000
|  9> end
| 10>
| 11> %pal
| 12>   nprocs 6
| 13>   end
| 14> * xyz 0 1
| 15>    C       -0.18160         3.71231         5.65518
| 16>    C        0.33351         2.45000         5.80320
| 17>    C        1.61490         2.17417         6.32591
| 18>    N        2.64321         1.87813         6.74151
| 19>    C       -0.31465         1.24683         5.45496
| 20>    N       -0.76717         0.22273         5.19703
| 21>    C        0.50766         4.95035         6.00093
| 22>    C       -0.32577         6.04734         5.66316
| 23>    C        0.04431         7.35424         5.87079
| 24>    C        1.29758         7.59312         6.44235
| 25>    C        2.12378         6.49322         6.77797
| 26>    C        1.74952         5.17130         6.56581
| 27>    S        3.62263         7.02281         7.47293
| 28>    C        3.14144         8.67623         7.31200
| 29>    C        1.91659         8.83354         6.76399
| 30>    C       -1.58098         5.54068         5.09208
| 31>    O       -2.51394         6.20830         4.68298
| 32>    C       -1.48308         4.07339         5.11981
| 33>    C       -2.46863         3.20364         4.73939
| 34>    C       -3.75445         3.45150         4.22593
| 35>    C       -4.63103         2.40169         3.93620
| 36>    C       -5.84159         2.84820         3.44689
| 37>    C       -5.91255         4.25296         3.34238
| 38>    S       -4.46343         5.02055         3.87200
| 39>    C       -7.14587         4.67483         2.84682
| 40>    C       -8.01231         3.59924         2.58042
| 41>    S       -7.30389         2.04628         2.93451
| 42>    C       -9.24968         3.98796         2.09189
| 43>    C       -9.34672         5.36801         1.97052
| 44>    S       -7.88131         6.19206         2.46888
| 45>    C      -10.46612         6.10320         1.50119
| 46>    C      -10.41556         7.51104         1.38636
| 47>    C      -11.52512         8.28536         0.89590
| 48>    N      -11.40663         9.61328         0.78980
| 49>    C      -10.29049        10.20411         1.13807
| 50>    C       -9.19078         9.43420         1.64153
| 51>    N       -9.28678         8.13172         1.74555
| 52>    C       -7.98828        10.07737         2.02670
| 53>    N       -7.03253        10.63271         2.32596
| 54>    C      -10.17905        11.61027         1.00316
| 55>    N      -10.05470        12.74383         0.89895
| 56>    C      -12.75026         7.69773         0.50944
| 57>    C      -12.81156         6.28993         0.63402
| 58>    C      -11.69150         5.50879         1.11582
| 59>    N      -11.98125         4.20744         1.14276
| 60>    S      -13.48228         3.98292         0.62660
| 61>    N      -13.85515         5.51501         0.33644
| 62>    C      -13.82026         8.49653         0.02798
| 63>    C      -15.06993         8.05633        -0.38364
| 64>    C      -15.87396         9.10559        -0.80498
| 65>    C      -15.24942        10.36188        -0.71970
| 66>    S      -13.63919        10.23613        -0.10474
| 67>    C      -16.08570        11.38721        -1.15506
| 68>    C      -17.34195        10.91864        -1.57724
| 69>    S      -17.49981         9.19239        -1.42639
| 70>    C      -18.18276        11.92270        -2.04390
| 71>    C      -17.60404        13.17533        -1.94633
| 72>    S      -15.96358        13.09490        -1.31512
| 73>    C      -18.17962        14.38993        -2.39708
| 74>    C      -17.84094        15.66476        -2.07621
| 75>    C      -17.03476        16.21731        -1.00580
| 76>    C      -16.95146        15.72289         0.26881
| 77>    C      -16.26274        16.36846         1.31548
| 78>    N      -15.71223        16.85863         2.19500
| 79>    C      -17.64454        14.56897         0.69025
| 80>    N      -18.23756        13.66334         1.07219
| 81>    C      -16.59498        17.53707        -1.43726
| 82>    C      -17.31890        17.89612        -2.60505
| 83>    C      -18.20389        16.78350        -2.99442
| 84>    O      -19.01115        16.74633        -3.89380
| 85>    C      -17.14994        19.11004        -3.22723
| 86>    C      -16.21949        19.99998        -2.68199
| 87>    C      -15.49338        19.62427        -1.52511
| 88>    C      -15.66981        18.40171        -0.88748
| 89>    S      -14.39290        20.87390        -1.04024
| 90>    C      -14.90536        21.87057        -2.35767
| 91>    C      -15.85505        21.30071        -3.13106
| 92>    H       -0.61463         8.16500         5.60143
| 93>    H        2.41531         4.37070         6.84117
| 94>    H        3.81711         9.44055         7.64359
| 95>    H        1.45329         9.78728         6.58750
| 96>    H       -2.25876         2.14665         4.85018
| 97>    H       -4.37170         1.36941         4.08714
| 98>    H      -10.05295         3.32566         1.83041
| 99>    H      -15.35339         7.02109        -0.36753
|100>    H      -19.18083        11.76471        -2.40886
|101>    H      -18.93838        14.28907        -3.16761
|102>    H      -17.71799        19.36474        -4.10846
|103>    H      -15.09167        18.15009        -0.01340
|104>    H      -14.45535        22.83735        -2.47383
|105>    H      -16.29188        21.77093        -3.99337
|106> *
|107>
|108>                          ****END OF INPUT****

CARTESIAN COORDINATES (ANGSTROEM)
---------------------------------
  C     -0.181600    3.712310    5.655180
  C      0.333510    2.450000    5.803200
  C      1.614900    2.174170    6.325910
  N      2.643210    1.878130    6.741510
  C     -0.314650    1.246830    5.454960
  N     -0.767170    0.222730    5.197030
  C      0.507660    4.950350    6.000930
  C     -0.325770    6.047340    5.663160
  C      0.044310    7.354240    5.870790
  C      1.297580    7.593120    6.442350
  C      2.123780    6.493220    6.777970
  C      1.749520    5.171300    6.565810
  S      3.622630    7.022810    7.472930
  C      3.141440    8.676230    7.312000
  C      1.916590    8.833540    6.763990
  C     -1.580980    5.540680    5.092080
  O     -2.513940    6.208300    4.682980
  C     -1.483080    4.073390    5.119810
  C     -2.468630    3.203640    4.739390
  C     -3.754450    3.451500    4.225930
  C     -4.631030    2.401690    3.936200
  C     -5.841590    2.848200    3.446890
  C     -5.912550    4.252960    3.342380
  S     -4.463430    5.020550    3.872000
  C     -7.145870    4.674830    2.846820
  C     -8.012310    3.599240    2.580420
  S     -7.303890    2.046280    2.934510
  C     -9.249680    3.987960    2.091890
  C     -9.346720    5.368010    1.970520
  S     -7.881310    6.192060    2.468880
  C    -10.466120    6.103200    1.501190
  C    -10.415560    7.511040    1.386360
  C    -11.525120    8.285360    0.895900
  N    -11.406630    9.613280    0.789800
  C    -10.290490   10.204110    1.138070
  C     -9.190780    9.434200    1.641530
  N     -9.286780    8.131720    1.745550
  C     -7.988280   10.077370    2.026700
  N     -7.032530   10.632710    2.325960
  C    -10.179050   11.610270    1.003160
  N    -10.054700   12.743830    0.898950
  C    -12.750260    7.697730    0.509440
  C    -12.811560    6.289930    0.634020
  C    -11.691500    5.508790    1.115820
  N    -11.981250    4.207440    1.142760
  S    -13.482280    3.982920    0.626600
  N    -13.855150    5.515010    0.336440
  C    -13.820260    8.496530    0.027980
  C    -15.069930    8.056330   -0.383640
  C    -15.873960    9.105590   -0.804980
  C    -15.249420   10.361880   -0.719700
  S    -13.639190   10.236130   -0.104740
  C    -16.085700   11.387210   -1.155060
  C    -17.341950   10.918640   -1.577240
  S    -17.499810    9.192390   -1.426390
  C    -18.182760   11.922700   -2.043900
  C    -17.604040   13.175330   -1.946330
  S    -15.963580   13.094900   -1.315120
  C    -18.179620   14.389930   -2.397080
  C    -17.840940   15.664760   -2.076210
  C    -17.034760   16.217310   -1.005800
  C    -16.951460   15.722890    0.268810
  C    -16.262740   16.368460    1.315480
  N    -15.712230   16.858630    2.195000
  C    -17.644540   14.568970    0.690250
  N    -18.237560   13.663340    1.072190
  C    -16.594980   17.537070   -1.437260
  C    -17.318900   17.896120   -2.605050
  C    -18.203890   16.783500   -2.994420
  O    -19.011150   16.746330   -3.893800
  C    -17.149940   19.110040   -3.227230
  C    -16.219490   19.999980   -2.681990
  C    -15.493380   19.624270   -1.525110
  C    -15.669810   18.401710   -0.887480
  S    -14.392900   20.873900   -1.040240
  C    -14.905360   21.870570   -2.357670
  C    -15.855050   21.300710   -3.131060
  H     -0.614630    8.165000    5.601430
  H      2.415310    4.370700    6.841170
  H      3.817110    9.440550    7.643590
  H      1.453290    9.787280    6.587500
  H     -2.258760    2.146650    4.850180
  H     -4.371700    1.369410    4.087140
  H    -10.052950    3.325660    1.830410
  H    -15.353390    7.021090   -0.367530
  H    -19.180830   11.764710   -2.408860
  H    -18.938380   14.289070   -3.167610
  H    -17.717990   19.364740   -4.108460
  H    -15.091670   18.150090   -0.013400
  H    -14.455350   22.837350   -2.473830
  H    -16.291880   21.770930   -3.993370

 Total Charge           Charge          ....    0
 Multiplicity           Mult            ....    1
 Number of Electrons    NEL             ....  580
 Basis Dimension        Dim             .... 1184

ORBITAL ENERGIES
----------------

  NO   OCC          E(Eh)            E(eV)
   0   2.0000     -89.058510     -2423.4052
   1   2.0000     -88.973154     -2421.0826
   2   2.0000     -88.968891     -2420.9666
   3   2.0000     -88.968213     -2420.9482
   4   2.0000     -88.968202     -2420.9479
   5   2.0000     -88.967139     -2420.9189
   6   2.0000     -88.965298     -2420.8688
   7   2.0000     -88.965043     -2420.8619
   8   2.0000     -88.964991     -2420.8605
   9   2.0000     -19.219619      -522.9924
  10   2.0000     -19.213117      -522.8155
  11   2.0000     -14.476471      -393.9248
  12   2.0000     -14.476049      -393.9133
  13   2.0000     -14.467544      -393.6819
  14   2.0000     -14.467330      -393.6761
  15   2.0000     -14.437912      -392.8756
  16   2.0000     -14.437795      -392.8724
  17   2.0000     -14.415822      -392.2745
  18   2.0000     -14.413143      -392.2015
  19   2.0000     -14.411994      -392.1703
  20   2.0000     -14.410217      -392.1219
  21   2.0000     -10.394764      -282.8559
  22   2.0000     -10.394521      -282.8493
  23   2.0000     -10.367557      -282.1156
  24   2.0000     -10.364820      -282.0411
  25   2.0000     -10.358771      -281.8765
  26   2.0000     -10.358487      -281.8688
  27   2.0000     -10.357695      -281.8472
  28   2.0000     -10.357455      -281.8407
  29   2.0000     -10.341435      -281.4048
  30   2.0000     -10.340115      -281.3688
  31   2.0000     -10.339570      -281.3540
  32   2.0000     -10.339274      -281.3460
  33   2.0000     -10.331335      -281.1299
  34   2.0000     -10.331057      -281.1223
  35   2.0000     -10.330885      -281.1177
  36   2.0000     -10.330850      -281.1167
  37   2.0000     -10.325011      -280.9578
  38   2.0000     -10.324833      -280.9530
  39   2.0000     -10.322688      -280.8946
  40   2.0000     -10.322363      -280.8858
  41   2.0000     -10.321942      -280.8743
  42   2.0000     -10.319993      -280.8213
  43   2.0000     -10.319942      -280.8199
  44   2.0000     -10.319450      -280.8065
  45   2.0000     -10.318961      -280.7932
  46   2.0000     -10.318949      -280.7929
  47   2.0000     -10.316879      -280.7365
  48   2.0000     -10.315309      -280.6938
  49   2.0000     -10.315295      -280.6934
  50   2.0000     -10.314212      -280.6640
  51   2.0000     -10.313654      -280.6488
  52   2.0000     -10.313507      -280.6448
  53   2.0000     -10.312930      -280.6291
  54   2.0000     -10.312678      -280.6222
  55   2.0000     -10.312439      -280.6157
  56   2.0000     -10.312402      -280.6147
  57   2.0000     -10.312368      -280.6138
  58   2.0000     -10.310343      -280.5587
  59   2.0000     -10.305633      -280.4305
  60   2.0000     -10.305260      -280.4204
  61   2.0000     -10.304717      -280.4056
  62   2.0000     -10.302881      -280.3556
  63   2.0000     -10.301943      -280.3301
  64   2.0000     -10.301453      -280.3168
  65   2.0000     -10.300179      -280.2821
  66   2.0000     -10.300160      -280.2816
  67   2.0000     -10.298059      -280.2244
  68   2.0000     -10.297562      -280.2109
  69   2.0000     -10.296916      -280.1933
  70   2.0000     -10.296373      -280.1785
  71   2.0000     -10.296175      -280.1732
  72   2.0000     -10.294973      -280.1405
  73   2.0000     -10.289932      -280.0033
  74   2.0000     -10.288924      -279.9758
  75   2.0000     -10.287570      -279.9390
  76   2.0000     -10.287566      -279.9389
  77   2.0000      -8.149663      -221.7636
  78   2.0000      -8.067915      -219.5391
  79   2.0000      -8.063463      -219.4180
  80   2.0000      -8.062115      -219.3813
  81   2.0000      -8.061526      -219.3653
  82   2.0000      -8.061411      -219.3622
  83   2.0000      -8.061344      -219.3603
  84   2.0000      -8.060299      -219.3319
  85   2.0000      -8.060009      -219.3240
  86   2.0000      -6.120780      -166.5549
  87   2.0000      -6.112856      -166.3393
  88   2.0000      -6.112531      -166.3304
  89   2.0000      -6.037501      -164.2888
  90   2.0000      -6.033366      -164.1762
  91   2.0000      -6.033222      -164.1723
  92   2.0000      -6.032033      -164.1400
  93   2.0000      -6.031237      -164.1183
  94   2.0000      -6.031024      -164.1125
  95   2.0000      -6.030856      -164.1079
  96   2.0000      -6.030098      -164.0873
  97   2.0000      -6.029743      -164.0776
  98   2.0000      -6.029456      -164.0698
  99   2.0000      -6.029351      -164.0670
 100   2.0000      -6.027281      -164.0107
 101   2.0000      -6.026738      -163.9959
 102   2.0000      -6.026580      -163.9916
 103   2.0000      -6.026543      -163.9906
 104   2.0000      -6.026241      -163.9823
 105   2.0000      -6.025108      -163.9515
 106   2.0000      -6.024361      -163.9312
 107   2.0000      -6.023628      -163.9112
 108   2.0000      -6.023223      -163.9002
 109   2.0000      -6.023035      -163.8951
 110   2.0000      -6.022993      -163.8940
 111   2.0000      -6.021718      -163.8593
 112   2.0000      -6.021113      -163.8428
 113   2.0000      -1.155932       -31.4545
 114   2.0000      -1.136277       -30.9197
 115   2.0000      -1.135502       -30.8986
 116   2.0000      -1.128437       -30.7063
 117   2.0000      -1.064606       -28.9694
 118   2.0000      -1.030845       -28.0507
 119   2.0000      -1.027179       -27.9510
 120   2.0000      -1.022545       -27.8249
 121   2.0000      -1.018789       -27.7227
 122   2.0000      -1.018292       -27.7091
 123   2.0000      -1.013475       -27.5780
 124   2.0000      -1.009909       -27.4810
 125   2.0000      -1.007178       -27.4067
 126   2.0000      -1.005663       -27.3655
 127   2.0000      -0.999180       -27.1891
 128   2.0000      -0.992642       -27.0112
 129   2.0000      -0.991277       -26.9740
 130   2.0000      -0.987262       -26.8648
 131   2.0000      -0.984180       -26.7809
 132   2.0000      -0.982424       -26.7331
 133   2.0000      -0.977604       -26.6020
 134   2.0000      -0.944123       -25.6909
 135   2.0000      -0.937148       -25.5011
 136   2.0000      -0.927072       -25.2269
 137   2.0000      -0.925320       -25.1792
 138   2.0000      -0.920932       -25.0598
 139   2.0000      -0.902840       -24.5675
 140   2.0000      -0.900263       -24.4974
 141   2.0000      -0.898103       -24.4386
 142   2.0000      -0.880550       -23.9610
 143   2.0000      -0.879947       -23.9446
 144   2.0000      -0.878711       -23.9110
 145   2.0000      -0.877624       -23.8814
 146   2.0000      -0.862765       -23.4770
 147   2.0000      -0.854424       -23.2501
 148   2.0000      -0.846967       -23.0472
 149   2.0000      -0.845748       -23.0140
 150   2.0000      -0.843316       -22.9478
 151   2.0000      -0.821836       -22.3633
 152   2.0000      -0.821582       -22.3564
 153   2.0000      -0.818008       -22.2591
 154   2.0000      -0.816276       -22.2120
 155   2.0000      -0.800583       -21.7850
 156   2.0000      -0.798717       -21.7342
 157   2.0000      -0.795262       -21.6402
 158   2.0000      -0.781060       -21.2537
 159   2.0000      -0.763020       -20.7628
 160   2.0000      -0.757952       -20.6249
 161   2.0000      -0.753079       -20.4923
 162   2.0000      -0.750086       -20.4109
 163   2.0000      -0.737466       -20.0675
 164   2.0000      -0.720948       -19.6180
 165   2.0000      -0.714816       -19.4511
 166   2.0000      -0.710739       -19.3402
 167   2.0000      -0.699902       -19.0453
 168   2.0000      -0.690997       -18.8030
 169   2.0000      -0.688968       -18.7478
 170   2.0000      -0.685813       -18.6619
 171   2.0000      -0.680092       -18.5062
 172   2.0000      -0.673586       -18.3292
 173   2.0000      -0.667820       -18.1723
 174   2.0000      -0.660844       -17.9825
 175   2.0000      -0.660557       -17.9747
 176   2.0000      -0.658762       -17.9258
 177   2.0000      -0.655328       -17.8324
 178   2.0000      -0.648522       -17.6472
 179   2.0000      -0.645789       -17.5728
 180   2.0000      -0.639295       -17.3961
 181   2.0000      -0.634784       -17.2733
 182   2.0000      -0.631600       -17.1867
 183   2.0000      -0.629106       -17.1189
 184   2.0000      -0.619067       -16.8457
 185   2.0000      -0.618316       -16.8252
 186   2.0000      -0.606623       -16.5070
 187   2.0000      -0.604743       -16.4559
 188   2.0000      -0.601283       -16.3618
 189   2.0000      -0.593813       -16.1585
 190   2.0000      -0.593164       -16.1408
 191   2.0000      -0.591540       -16.0966
 192   2.0000      -0.582630       -15.8542
 193   2.0000      -0.570943       -15.5361
 194   2.0000      -0.570347       -15.5199
 195   2.0000      -0.568908       -15.4808
 196   2.0000      -0.560754       -15.2589
 197   2.0000      -0.558656       -15.2018
 198   2.0000      -0.556336       -15.1387
 199   2.0000      -0.546309       -14.8658
 200   2.0000      -0.543933       -14.8012
 201   2.0000      -0.541381       -14.7317
 202   2.0000      -0.540206       -14.6998
 203   2.0000      -0.537261       -14.6196
 204   2.0000      -0.533030       -14.5045
 205   2.0000      -0.531438       -14.4611
 206   2.0000      -0.530483       -14.4352
 207   2.0000      -0.529451       -14.4071
 208   2.0000      -0.527412       -14.3516
 209   2.0000      -0.524911       -14.2835
 210   2.0000      -0.521089       -14.1795
 211   2.0000      -0.517948       -14.0941
 212   2.0000      -0.516515       -14.0551
 213   2.0000      -0.508635       -13.8407
 214   2.0000      -0.505990       -13.7687
 215   2.0000      -0.501258       -13.6399
 216   2.0000      -0.500753       -13.6262
 217   2.0000      -0.499659       -13.5964
 218   2.0000      -0.498740       -13.5714
 219   2.0000      -0.496592       -13.5130
 220   2.0000      -0.493777       -13.4364
 221   2.0000      -0.493044       -13.4164
 222   2.0000      -0.491803       -13.3826
 223   2.0000      -0.490120       -13.3368
 224   2.0000      -0.489692       -13.3252
 225   2.0000      -0.485903       -13.2221
 226   2.0000      -0.484014       -13.1707
 227   2.0000      -0.478718       -13.0266
 228   2.0000      -0.476969       -12.9790
 229   2.0000      -0.474664       -12.9163
 230   2.0000      -0.470737       -12.8094
 231   2.0000      -0.469176       -12.7669
 232   2.0000      -0.468821       -12.7573
 233   2.0000      -0.464542       -12.6408
 234   2.0000      -0.462899       -12.5961
 235   2.0000      -0.460795       -12.5389
 236   2.0000      -0.458764       -12.4836
 237   2.0000      -0.454840       -12.3768
 238   2.0000      -0.452971       -12.3260
 239   2.0000      -0.451595       -12.2885
 240   2.0000      -0.450640       -12.2625
 241   2.0000      -0.449455       -12.2303
 242   2.0000      -0.448024       -12.1913
 243   2.0000      -0.445110       -12.1121
 244   2.0000      -0.441737       -12.0203
 245   2.0000      -0.439691       -11.9646
 246   2.0000      -0.438704       -11.9378
 247   2.0000      -0.435633       -11.8542
 248   2.0000      -0.434977       -11.8363
 249   2.0000      -0.433770       -11.8035
 250   2.0000      -0.431575       -11.7438
 251   2.0000      -0.430989       -11.7278
 252   2.0000      -0.430261       -11.7080
 253   2.0000      -0.428269       -11.6538
 254   2.0000      -0.426133       -11.5957
 255   2.0000      -0.425706       -11.5841
 256   2.0000      -0.424428       -11.5493
 257   2.0000      -0.422359       -11.4930
 258   2.0000      -0.421502       -11.4697
 259   2.0000      -0.419495       -11.4150
 260   2.0000      -0.416205       -11.3255
 261   2.0000      -0.414530       -11.2799
 262   2.0000      -0.408744       -11.1225
 263   2.0000      -0.403306       -10.9745
 264   2.0000      -0.403030       -10.9670
 265   2.0000      -0.397819       -10.8252
 266   2.0000      -0.393774       -10.7151
 267   2.0000      -0.393347       -10.7035
 268   2.0000      -0.384673       -10.4675
 269   2.0000      -0.382464       -10.4074
 270   2.0000      -0.380044       -10.3415
 271   2.0000      -0.372722       -10.1423
 272   2.0000      -0.368357       -10.0235
 273   2.0000      -0.361146        -9.8273
 274   2.0000      -0.354660        -9.6508
 275   2.0000      -0.352634        -9.5956
 276   2.0000      -0.342463        -9.3189
 277   2.0000      -0.340017        -9.2523
 278   2.0000      -0.337497        -9.1838
 279   2.0000      -0.333846        -9.0844
 280   2.0000      -0.330133        -8.9834
 281   2.0000      -0.313509        -8.5310
 282   2.0000      -0.311989        -8.4896
 283   2.0000      -0.306262        -8.3338
 284   2.0000      -0.294568        -8.0156
 285   2.0000      -0.293595        -7.9891
 286   2.0000      -0.291366        -7.9285
 287   2.0000      -0.289673        -7.8824
 288   2.0000      -0.273184        -7.4337
 289   2.0000      -0.241459        -6.5704
 290   0.0000      -0.139491        -3.7957
 291   0.0000      -0.091033        -2.4771
 292   0.0000      -0.089026        -2.4225
 293   0.0000      -0.064326        -1.7504
 294   0.0000      -0.058448        -1.5905

MULLIKEN ATOMIC CHARGES
-----------------------
   0 C :    0.328244
   1 C :   -0.359389
   2 C :   -0.188774
   3 N :    0.153023
   4 C :   -0.186882
   5 N :    0.142396
   6 C :    0.011407
   7 C :   -0.016075
   8 C :   -0.064372
   9 C :    0.113012
  10 C :   -0.097291
  11 C :   -0.020810
  12 S :    0.142194
  13 C :   -0.047003
  14 C :    0.024239
  15 C :    0.166238
  16 O :   -0.178174
  17 C :   -0.087793
  18 C :   -0.031356
  19 C :   -0.048534
  20 C :   -0.062263
  21 C :    0.014201
  22 C :   -0.063544
  23 S :    0.219417
  24 C :   -0.046479
  25 C :   -0.000183
  26 S :    0.159685
  27 C :   -0.050773
  28 C :   -0.169166
  29 S :    0.180333
  30 C :    0.191672
  31 C :   -0.057911
  32 C :   -0.060088
  33 N :    0.002924
  34 C :   -0.099209
  35 C :   -0.103296
  36 N :    0.007111
  37 C :   -0.236423
  38 N :    0.252298
  39 C :   -0.238553
  40 N :    0.251452
  41 C :    0.196697
  42 C :   -0.012828
  43 C :   -0.014912
  44 N :   -0.290595
  45 S :    0.560582
  46 N :   -0.291326
  47 C :   -0.166644
  48 C :   -0.054596
  49 C :   -0.006250
  50 C :   -0.031015
  51 S :    0.176116
  52 C :   -0.080299
  53 C :   -0.009628
  54 S :    0.167188
  55 C :    0.011058
  56 C :   -0.095553
  57 S :    0.178279
  58 C :    0.046902
  59 C :   -0.128046
  60 C :    0.237121
  61 C :   -0.310651
  62 C :   -0.181088
  63 N :    0.159967
  64 C :   -0.203698
  65 N :    0.168833
  66 C :    0.005463
  67 C :    0.003175
  68 C :    0.136251
  69 O :   -0.143970
  70 C :   -0.068288
  71 C :    0.106952
  72 C :   -0.087989
  73 C :   -0.022752
  74 S :    0.141744
  75 C :   -0.051616
  76 C :    0.027448
  77 H :   -0.009383
  78 H :   -0.007954
  79 H :    0.038800
  80 H :   -0.005637
  81 H :    0.008789
  82 H :    0.008855
  83 H :    0.000999
  84 H :    0.001948
  85 H :   -0.000938
  86 H :    0.027886
  87 H :   -0.011274
  88 H :   -0.001215
  89 H :    0.038558
  90 H :   -0.006972
Sum of atomic charges:   -0.0000000

LOEWDIN ATOMIC CHARGES
----------------------
   0 C :    0.078257
   1 C :   -0.144652
   2 C :   -0.018447
   3 N :   -0.055127
   4 C :   -0.020334
   5 N :   -0.056891
   6 C :   -0.021996
   7 C :   -0.053278
   8 C :    0.024691
   9 C :   -0.035008
  10 C :   -0.145667
  11 C :   -0.008327
  12 S :    0.430547
  13 C :   -0.149272
  14 C :   -0.057042
  15 C :    0.085089
  16 O :   -0.164456
  17 C :   -0.106907
  18 C :    0.053984
  19 C :   -0.174872
  20 C :   -0.027471
  21 C :   -0.190528
  22 C :   -0.205690
  23 S :    0.502852
  24 C :   -0.215865
  25 C :   -0.182999
  26 S :    0.400426
  27 C :   -0.043345
  28 C :   -0.157732
  29 S :    0.469064
  30 C :   -0.037469
  31 C :   -0.012670
  32 C :   -0.013206
  33 N :   -0.012078
  34 C :   -0.019747
  35 C :   -0.019499
  36 N :   -0.011646
  37 C :   -0.038481
  38 N :    0.003962
  39 C :   -0.038457
  40 N :    0.003276
  41 C :   -0.035774
  42 C :   -0.035687
  43 C :   -0.035110
  44 N :   -0.275214
  45 S :    0.683323
  46 N :   -0.275224
  47 C :   -0.158747
  48 C :   -0.040391
  49 C :   -0.185806
  50 C :   -0.212522
  51 S :    0.465831
  52 C :   -0.197213
  53 C :   -0.185496
  54 S :    0.412255
  55 C :   -0.022322
  56 C :   -0.168245
  57 S :    0.462832
  58 C :    0.045990
  59 C :   -0.092743
  60 C :    0.059315
  61 C :   -0.139427
  62 C :   -0.020563
  63 N :   -0.048359
  64 C :   -0.034421
  65 N :   -0.048226
  66 C :   -0.018678
  67 C :   -0.055731
  68 C :    0.083956
  69 O :   -0.144017
  70 C :    0.024073
  71 C :   -0.036107
  72 C :   -0.144304
  73 C :   -0.010332
  74 S :    0.430977
  75 C :   -0.150018
  76 C :   -0.057545
  77 H :    0.041486
  78 H :    0.040675
  79 H :    0.029555
  80 H :    0.035828
  81 H :    0.050752
  82 H :    0.041920
  83 H :    0.033234
  84 H :    0.033729
  85 H :    0.040865
  86 H :    0.052105
  87 H :    0.040618
  88 H :    0.041345
  89 H :    0.029367
  90 H :    0.035200

  Mayer bond orders larger than 0.100000
B(  0-C ,  1-C ) :   1.6181 B(  0-C ,  6-C ) :   1.0005 B(  0-C , 17-C ) :   1.0777
B(  1-C ,  2-C ) :   1.1460 B(  1-C ,  4-C ) :   1.1475 B(  2-C ,  3-N ) :   2.9696
B(  4-C ,  5-N ) :   2.9561 B(  6-C ,  7-C ) :   1.2691 B(  6-C , 11-C ) :   1.4133
B(  7-C ,  8-C ) :   1.4227 B(  7-C , 15-C ) :   0.9635 B(  8-C ,  9-C ) :   1.2421
B(  8-C , 77-H ) :   1.0173 B(  9-C , 10-C ) :   1.3039 B(  9-C , 14-C ) :   1.1713
B( 10-C , 11-C ) :   1.3202 B( 10-C , 12-S ) :   1.1011 B( 11-C , 78-H ) :   0.9821
B( 12-S , 13-C ) :   1.1264 B( 13-C , 14-C ) :   1.6277 B( 13-C , 79-H ) :   0.9684
B( 14-C , 80-H ) :   1.0000 B( 15-C , 16-O ) :   2.1283 B( 15-C , 17-C ) :   0.9698
B( 17-C , 18-C ) :   1.5047 B( 18-C , 19-C ) :   1.2611 B( 18-C , 81-H ) :   0.9396
B( 19-C , 20-C ) :   1.3671 B( 19-C , 23-S ) :   1.0790 B( 20-C , 21-C ) :   1.3273
B( 20-C , 82-H ) :   1.0139 B( 21-C , 22-C ) :   1.3697 B( 21-C , 26-S ) :   1.0358
B( 22-C , 23-S ) :   1.0557 B( 22-C , 24-C ) :   1.3326 B( 24-C , 25-C ) :   1.4128
B( 24-C , 29-S ) :   1.0283 B( 25-C , 26-S ) :   1.0408 B( 25-C , 27-C ) :   1.2795
B( 27-C , 28-C ) :   1.4467 B( 27-C , 83-H ) :   0.9879 B( 28-C , 29-S ) :   1.0899
B( 28-C , 30-C ) :   1.2209 B( 30-C , 31-C ) :   1.2516 B( 30-C , 41-C ) :   0.1201
B( 30-C , 43-C ) :   1.1927 B( 31-C , 32-C ) :   1.1087 B( 31-C , 36-N ) :   1.4034
B( 32-C , 33-N ) :   1.4026 B( 32-C , 41-C ) :   1.2480 B( 33-N , 34-C ) :   1.6984
B( 34-C , 35-C ) :   1.2154 B( 34-C , 39-C ) :   1.1637 B( 35-C , 36-N ) :   1.7045
B( 35-C , 37-C ) :   1.1632 B( 37-C , 38-N ) :   3.0388 B( 39-C , 40-N ) :   3.0390
B( 41-C , 42-C ) :   1.1962 B( 41-C , 47-C ) :   1.2209 B( 42-C , 43-C ) :   1.0999
B( 42-C , 46-N ) :   1.5123 B( 43-C , 44-N ) :   1.5144 B( 44-N , 45-S ) :   1.2806
B( 44-N , 46-N ) :   0.1485 B( 45-S , 46-N ) :   1.2811 B( 47-C , 48-C ) :   1.4527
B( 47-C , 51-S ) :   1.0836 B( 48-C , 49-C ) :   1.2744 B( 48-C , 84-H ) :   0.9888
B( 49-C , 50-C ) :   1.4119 B( 49-C , 54-S ) :   1.0475 B( 50-C , 51-S ) :   1.0252
B( 50-C , 52-C ) :   1.3396 B( 52-C , 53-C ) :   1.4129 B( 52-C , 57-S ) :   1.0890
B( 53-C , 54-S ) :   1.0464 B( 53-C , 55-C ) :   1.2937 B( 55-C , 56-C ) :   1.4529
B( 55-C , 85-H ) :   1.0034 B( 56-C , 57-S ) :   1.0896 B( 56-C , 58-C ) :   1.1313
B( 58-C , 59-C ) :   1.6606 B( 58-C , 86-H ) :   0.9487 B( 59-C , 60-C ) :   1.0294
B( 59-C , 68-C ) :   0.9349 B( 60-C , 61-C ) :   1.6638 B( 60-C , 66-C ) :   1.0161
B( 61-C , 62-C ) :   1.1336 B( 61-C , 64-C ) :   1.1494 B( 62-C , 63-N ) :   2.9974
B( 64-C , 65-N ) :   3.0254 B( 66-C , 67-C ) :   1.2683 B( 66-C , 73-C ) :   1.4175
B( 67-C , 68-C ) :   0.9252 B( 67-C , 70-C ) :   1.4231 B( 68-C , 69-O ) :   2.2699
B( 70-C , 71-C ) :   1.2538 B( 70-C , 87-H ) :   1.0172 B( 71-C , 72-C ) :   1.3030
B( 71-C , 76-C ) :   1.1714 B( 72-C , 73-C ) :   1.3173 B( 72-C , 74-S ) :   1.0976
B( 73-C , 88-H ) :   0.9884 B( 74-S , 75-C ) :   1.1275 B( 75-C , 76-C ) :   1.6295
B( 75-C , 89-H ) :   0.9684 B( 76-C , 90-H ) :   1.0001

-----------------------------------------------------------------------------
         ABSORPTION SPECTRUM VIA TRANSITION ELECTRIC DIPOLE MOMENTS
-----------------------------------------------------------------------------
State   Energy  Wavelength   fosc         T2         TX        TY        TZ
        (cm-1)    (nm)                  (au**2)     (au)      (au)      (au)
-----------------------------------------------------------------------------
   0    7379.6   1355.1   0.682085041  30.42865  -4.28258   2.95683  -1.82902
   1   15784.9    633.5   0.053706672   1.12011   0.61905   0.79662   0.31983
   2   17302.2    578.0   0.056447661   1.07404  -0.69817   0.71646  -0.27070
   3   17789.4    562.1   0.041414740   0.76642  -0.81383  -0.19188  -0.25940
   4   19251.3    519.4   0.780781686  13.35200  -2.23302   2.82591  -0.61634
   5   19876.0    503.1   0.700481141  11.60229  -3.09788   0.26723  -1.39068
   6   22492.9    444.6   0.051450600   0.75304  -0.74492   0.41299  -0.16603
   7   23470.1    426.1   0.208288124   2.92162   1.31600   0.90793   0.60451
   8   23851.9    419.3   0.038398102   0.52998   0.30392  -0.47724   0.45810
   9   24100.3    414.9   0.003963615   0.05414  -0.01449   0.09397  -0.21237
  10   24204.6    413.1   0.002712907   0.03690  -0.08297   0.14401  -0.09630
  11   24646.0    405.7   0.002571612   0.03435   0.12324   0.05799   0.12570
  12   26198.6    381.7   0.118106195   1.48412   0.98914  -0.15903   0.69313
  13   26380.3    379.1   0.021066064   0.26289   0.35477   0.34110  -0.14381
  14   26811.8    373.0   0.007875990   0.09671  -0.17519   0.24050  -0.09040
  15   27312.5    366.1   0.157890453   1.90314   1.10967  -0.46670   0.67376
  16   27355.6    365.6   0.034761575   0.41834  -0.01391   0.64301  -0.06846
  17   27741.2    360.5   0.001888031   0.02241   0.04720   0.09184  -0.10837
  18   27936.0    358.0   0.018582744   0.21899  -0.42237   0.15171   0.13259
  19   28101.6    355.9   0.032912330   0.38557   0.29753  -0.20573   0.50470
  20   28259.7    353.9   0.015413759   0.17956   0.14483   0.39541   0.04734
  21   28630.4    349.3   0.114818176   1.32026   0.81354   0.59715   0.54938
  22   28682.0    348.7   0.010886980   0.12496  -0.05918  -0.02224  -0.34780
  23   29181.6    342.7   0.361837428   4.08207   0.20575   1.95090  -0.48347
  24   29434.3    339.7   0.232129212   2.59628  -0.61150  -1.48021   0.17694
  25   29740.5    336.2   0.466388096   5.16268   1.18480   1.84914   0.58278
  26   29898.6    334.5   0.008240945   0.09074  -0.08422   0.28302  -0.05956
  27   31215.4    320.4   0.057943984   0.61110  -0.62945   0.03483  -0.46226
  28   31375.2    318.7   0.012461551   0.13076  -0.09631  -0.34524   0.04788
  29   31472.7    317.7   0.524506466   5.48646   0.99060   2.11926   0.11801
  30   31702.9    315.4   0.142669526   1.48152  -1.15528  -0.25685  -0.28440
  31   31834.9    314.1   0.046815310   0.48413  -0.51236   0.33966  -0.32596
  32   32092.7    311.6   0.001984924   0.02036  -0.12756  -0.06365  -0.00621
  33   32216.2    310.4   0.062025788   0.63383   0.66232  -0.43711   0.06407
  34   32889.7    304.0   0.011001271   0.11012  -0.26436   0.12729  -0.15501
  35   32951.9    303.5   0.099110866   0.99019  -0.69994   0.58573  -0.39647
  36   33531.5    298.2   0.003536294   0.03472   0.06201   0.13139  -0.11667
  37   33565.9    297.9   0.143025957   1.40279   0.07807   0.93911  -0.71747
  38   33659.7    297.1   0.058757448   0.57468   0.15515   0.46994  -0.57425
  39   33862.2    295.3   0.012360763   0.12017  -0.24711   0.00853  -0.24297
  40   34127.5    293.0   0.197262270   1.90289   0.06496   1.37661  -0.06014
  41   34197.3    292.4   0.538162750   5.18081  -0.37416  -2.23708  -0.19051
  42   34593.4    289.1   0.249574592   2.37511   0.20315   1.16178  -0.99202
  43   34708.3    288.1   0.045865552   0.43504   0.43970   0.39979  -0.28613
  44   34985.3    285.8   0.151999988   1.43032   0.80322   0.88430   0.05631
  45   35394.0    282.5   0.171919559   1.59908   0.91207   0.82426   0.29633
  46   35519.3    281.5   0.226576864   2.10004   0.70499   1.26175   0.10492
  47   35803.9    279.3   0.053720233   0.49395   0.19692   0.66345  -0.12250
  48   36015.7    277.7   0.027670727   0.25293   0.03573   0.48589   0.12477
  49   36182.1    276.4   0.039432046   0.35878  -0.45580   0.29945  -0.24771
  50   36462.5    274.3   0.029969482   0.27059   0.39535   0.15120   0.30237
  51   36718.9    272.3   0.030168058   0.27048  -0.02789   0.51634  -0.05559
  52   36952.0    270.6   0.010774114   0.09599  -0.30655  -0.02785  -0.03525
  53   37279.9    268.2   0.032300024   0.28524  -0.33137  -0.41644   0.04479
  54   37641.3    265.7   0.007861591   0.06876   0.18157  -0.14939   0.11607
  55   37867.4    264.1   0.090993292   0.79108  -0.50120  -0.72206  -0.13604
  56   37900.2    263.9   0.000347123   0.00302   0.04642   0.02835   0.00749
  57   38146.5    262.1   0.002464677   0.02127  -0.04421   0.09592  -0.10058
  58   38446.5    260.1   0.002581914   0.02211   0.08009  -0.12042   0.03455
  59   38673.7    258.6   0.052206252   0.44441  -0.58860   0.22549  -0.21706
  60   38904.7    257.0   0.003350665   0.02835   0.02549  -0.15194   0.06795
  61   38918.7    256.9   0.008851081   0.07487  -0.24637   0.00793  -0.11878
  62   39211.2    255.0   0.299558000   2.51505   1.46615   0.09127   0.59761
  63   39464.5    253.4   0.143098065   1.19372   0.55650   0.25659   0.90454
  64   39906.3    250.6   0.226545292   1.86891   0.60749   1.22469  -0.00335

FINAL SINGLE POINT ENERGY     -6419.279040575990

DIPOLE MOMENT
-------------
                                X             Y             Z
Electronic contribution:    -10.34009     -21.87929       0.19741
Nuclear contribution   :      9.02807      22.40473      -2.10204
                        -----------------------------------------
Total Dipole Moment    :     -1.31203       0.52544      -1.90464
                        -----------------------------------------
Magnitude (a.u.)       :      2.37174
Magnitude (Debye)      :      6.02849

Rotational constants in cm-1:     0.001123     0.000197     0.000170
Rotational constants in MHz :    33.675002     5.905196     5.084228

                             ****ORCA TERMINATED NORMALLY****
TOTAL RUN TIME: 0 days 0 hours 19 minutes 34 seconds 802 msec
