                         Program Version 4.2.0 -  RELEASE  -
|  1> # ORCA input file
|  2> # SCF done       -206.510032354476          0.000636097331
|  3> ! CAM-B3LYP def2-SVP def2/J RIJCOSX Grid4 TightSCF
|  4> %maxcore 5000
|  5> %tddft
|  6>     Mode sTDDFT
|  7>     Ethresh 5.0
|  8>     maxcore 5000
|  9> end
| 10>
| 11> %pal
| 12>   nprocs 6
| 13>   end
| 14> * xyz 0 1
| 15>    C       -2.12638        -1.35315         0.52814
| 16>    C       -0.81617        -1.08545         0.82993
| 17>    C        0.22695        -2.02991         0.72737
| 18>    N        1.12005        -2.74851         0.66603
| 19>    C       -0.31879         0.14350         1.31204
| 20>    N        0.16210         1.10353         1.71976
| 21>    C       -2.64527        -2.64568         0.09388
| 22>    C       -4.05710        -2.55770        -0.00878
| 23>    C       -4.84183        -3.61800        -0.39365
| 24>    C       -4.20368        -4.82419        -0.69730
| 25>    C       -2.79367        -4.90300        -0.59693
| 26>    C       -2.00046        -3.83068        -0.20399
| 27>    S       -2.22109        -6.48376        -1.02450
| 28>    C       -3.83885        -7.01516        -1.32646
| 29>    C       -4.77093        -6.05930        -1.11946
| 30>    C       -4.48079        -1.19680         0.34583
| 31>    O       -5.62784        -0.78258         0.38538
| 32>    C       -3.25302        -0.44188         0.62531
| 33>    C       -3.18160         0.90810         0.85223
| 34>    C       -4.20311         1.86581         0.95329
| 35>    C       -3.92170         3.23007         1.10515
| 36>    C       -5.06423         4.00051         1.18869
| 37>    C       -6.24482         3.21778         1.12150
| 38>    S       -5.93861         1.55387         0.92378
| 39>    C       -7.35583         4.08627         1.20888
| 40>    C       -6.88629         5.41318         1.32594
| 41>    C       -5.43317         5.40155         1.31738
| 42>    C       -4.60057         6.47887         1.39799
| 43>    C       -3.19579         6.34920         1.36597
| 44>    N       -2.05377         6.25304         1.33551
| 45>    C       -5.08700         7.79869         1.50976
| 46>    N       -5.47051         8.87568         1.59910
| 47>    C       -7.91068         6.34500         1.40263
| 48>    C       -9.16514         5.74727         1.35025
| 49>    S       -9.06165         3.99638         1.21194
| 50>    C      -10.43886         6.37617         1.37431
| 51>    C      -10.63562         7.78342         1.39911
| 52>    C      -11.95321         8.34624         1.36383
| 53>    N      -12.11296         9.68185         1.36410
| 54>    C      -11.06360        10.45373         1.40265
| 55>    C       -9.76823         9.90062         1.44799
| 56>    N       -9.57419         8.61157         1.44405
| 57>    C      -13.13390         7.56487         1.32027
| 58>    C      -12.94143         6.16770         1.33215
| 59>    C      -11.61669         5.59894         1.35049
| 60>    N      -11.65485         4.26463         1.33998
| 61>    S      -13.18410         3.77706         1.31417
| 62>    N      -13.87962         5.21823         1.31160
| 63>    C      -14.40758         8.18023         1.24038
| 64>    C      -15.64070         7.53854         1.20049
| 65>    C      -16.68816         8.43925         1.08192
| 66>    C      -16.25217         9.78151         1.02577
| 67>    S      -14.54747         9.92492         1.13973
| 68>    C      -17.38927        10.60693         0.86968
| 69>    C      -18.54216         9.79113         0.83684
| 70>    C      -18.13629         8.40326         0.96472
| 71>    C      -18.94853         7.30746         0.93779
| 72>    C      -18.45000         5.99318         1.05466
| 73>    N      -18.05432         4.92147         1.15362
| 74>    C      -20.34588         7.43495         0.79136
| 75>    N      -21.48060         7.55604         0.67711
| 76>    C      -19.71073        10.50959         0.63416
| 77>    C      -19.47399        11.87098         0.49721
| 78>    S      -17.76396        12.25541         0.67327
| 79>    C      -20.39813        12.91477         0.27993
| 80>    C      -21.67899        12.84068        -0.17754
| 81>    C      -22.45093        11.79841        -0.82175
| 82>    C      -21.97773        10.81756        -1.65547
| 83>    C      -22.80497         9.91895        -2.36140
| 84>    N      -23.42984         9.16979        -2.96550
| 85>    C      -20.62004        10.65427        -1.99020
| 86>    N      -19.52966        10.49664        -2.31447
| 87>    C      -23.85908        12.14468        -0.66164
| 88>    C      -23.94904        13.47278        -0.16938
| 89>    C      -22.59288        13.99354         0.07184
| 90>    O      -22.26903        15.09960         0.44003
| 91>    C      -25.15443        14.09847         0.04082
| 92>    C      -26.32095        13.37740        -0.23209
| 93>    C      -26.21894        12.04501        -0.70122
| 94>    C      -25.00058        11.41384        -0.92463
| 95>    S      -27.78603        11.34537        -0.95246
| 96>    C      -28.54935        12.81241        -0.44595
| 97>    C      -27.67827        13.78520        -0.09971
| 98>    H       -5.91410        -3.51782        -0.45978
| 99>    H       -0.93072        -3.94219        -0.14675
|100>    H       -3.99449        -8.02727        -1.64597
|101>    H       -5.82670        -6.20759        -1.25694
|102>    H       -2.19145         1.33662         0.95272
|103>    H       -2.91407         3.60494         1.14512
|104>    H       -7.79489         7.40914         1.48895
|105>    H      -11.23696        11.52017         1.40092
|106>    H       -8.88348        10.52020         1.48891
|107>    H      -15.72874         6.46880         1.25137
|108>    H      -20.69722        10.08329         0.62362
|109>    H      -20.07590        13.91051         0.56964
|110>    H      -25.19555        15.11316         0.40523
|111>    H      -24.96896        10.39480        -1.27345
|112>    H      -29.62114        12.85594        -0.43792
|113>    H      -27.97025        14.76247         0.23973
|114> *
|115>
|116>                          ****END OF INPUT****

CARTESIAN COORDINATES (ANGSTROEM)
---------------------------------
  C     -2.126380   -1.353150    0.528140
  C     -0.816170   -1.085450    0.829930
  C      0.226950   -2.029910    0.727370
  N      1.120050   -2.748510    0.666030
  C     -0.318790    0.143500    1.312040
  N      0.162100    1.103530    1.719760
  C     -2.645270   -2.645680    0.093880
  C     -4.057100   -2.557700   -0.008780
  C     -4.841830   -3.618000   -0.393650
  C     -4.203680   -4.824190   -0.697300
  C     -2.793670   -4.903000   -0.596930
  C     -2.000460   -3.830680   -0.203990
  S     -2.221090   -6.483760   -1.024500
  C     -3.838850   -7.015160   -1.326460
  C     -4.770930   -6.059300   -1.119460
  C     -4.480790   -1.196800    0.345830
  O     -5.627840   -0.782580    0.385380
  C     -3.253020   -0.441880    0.625310
  C     -3.181600    0.908100    0.852230
  C     -4.203110    1.865810    0.953290
  C     -3.921700    3.230070    1.105150
  C     -5.064230    4.000510    1.188690
  C     -6.244820    3.217780    1.121500
  S     -5.938610    1.553870    0.923780
  C     -7.355830    4.086270    1.208880
  C     -6.886290    5.413180    1.325940
  C     -5.433170    5.401550    1.317380
  C     -4.600570    6.478870    1.397990
  C     -3.195790    6.349200    1.365970
  N     -2.053770    6.253040    1.335510
  C     -5.087000    7.798690    1.509760
  N     -5.470510    8.875680    1.599100
  C     -7.910680    6.345000    1.402630
  C     -9.165140    5.747270    1.350250
  S     -9.061650    3.996380    1.211940
  C    -10.438860    6.376170    1.374310
  C    -10.635620    7.783420    1.399110
  C    -11.953210    8.346240    1.363830
  N    -12.112960    9.681850    1.364100
  C    -11.063600   10.453730    1.402650
  C     -9.768230    9.900620    1.447990
  N     -9.574190    8.611570    1.444050
  C    -13.133900    7.564870    1.320270
  C    -12.941430    6.167700    1.332150
  C    -11.616690    5.598940    1.350490
  N    -11.654850    4.264630    1.339980
  S    -13.184100    3.777060    1.314170
  N    -13.879620    5.218230    1.311600
  C    -14.407580    8.180230    1.240380
  C    -15.640700    7.538540    1.200490
  C    -16.688160    8.439250    1.081920
  C    -16.252170    9.781510    1.025770
  S    -14.547470    9.924920    1.139730
  C    -17.389270   10.606930    0.869680
  C    -18.542160    9.791130    0.836840
  C    -18.136290    8.403260    0.964720
  C    -18.948530    7.307460    0.937790
  C    -18.450000    5.993180    1.054660
  N    -18.054320    4.921470    1.153620
  C    -20.345880    7.434950    0.791360
  N    -21.480600    7.556040    0.677110
  C    -19.710730   10.509590    0.634160
  C    -19.473990   11.870980    0.497210
  S    -17.763960   12.255410    0.673270
  C    -20.398130   12.914770    0.279930
  C    -21.678990   12.840680   -0.177540
  C    -22.450930   11.798410   -0.821750
  C    -21.977730   10.817560   -1.655470
  C    -22.804970    9.918950   -2.361400
  N    -23.429840    9.169790   -2.965500
  C    -20.620040   10.654270   -1.990200
  N    -19.529660   10.496640   -2.314470
  C    -23.859080   12.144680   -0.661640
  C    -23.949040   13.472780   -0.169380
  C    -22.592880   13.993540    0.071840
  O    -22.269030   15.099600    0.440030
  C    -25.154430   14.098470    0.040820
  C    -26.320950   13.377400   -0.232090
  C    -26.218940   12.045010   -0.701220
  C    -25.000580   11.413840   -0.924630
  S    -27.786030   11.345370   -0.952460
  C    -28.549350   12.812410   -0.445950
  C    -27.678270   13.785200   -0.099710
  H     -5.914100   -3.517820   -0.459780
  H     -0.930720   -3.942190   -0.146750
  H     -3.994490   -8.027270   -1.645970
  H     -5.826700   -6.207590   -1.256940
  H     -2.191450    1.336620    0.952720
  H     -2.914070    3.604940    1.145120
  H     -7.794890    7.409140    1.488950
  H    -11.236960   11.520170    1.400920
  H     -8.883480   10.520200    1.488910
  H    -15.728740    6.468800    1.251370
  H    -20.697220   10.083290    0.623620
  H    -20.075900   13.910510    0.569640
  H    -25.195550   15.113160    0.405230
  H    -24.968960   10.394800   -1.273450
  H    -29.621140   12.855940   -0.437920
  H    -27.970250   14.762470    0.239730

 Total Charge           Charge          ....    0
 Multiplicity           Mult            ....    1
 Number of Electrons    NEL             ....  600
 Basis Dimension        Dim             .... 1270

ORBITAL ENERGIES
----------------

  NO   OCC          E(Eh)            E(eV)
   0   2.0000     -89.054322     -2423.2913
   1   2.0000     -88.993980     -2421.6493
   2   2.0000     -88.987846     -2421.4824
   3   2.0000     -88.986178     -2421.4370
   4   2.0000     -88.986017     -2421.4326
   5   2.0000     -88.968082     -2420.9446
   6   2.0000     -88.965442     -2420.8727
   7   2.0000     -19.224268      -523.1189
   8   2.0000     -19.213988      -522.8392
   9   2.0000     -14.462374      -393.5412
  10   2.0000     -14.462126      -393.5345
  11   2.0000     -14.456381      -393.3781
  12   2.0000     -14.449370      -393.1873
  13   2.0000     -14.430539      -392.6749
  14   2.0000     -14.429742      -392.6532
  15   2.0000     -14.429200      -392.6385
  16   2.0000     -14.427717      -392.5981
  17   2.0000     -14.416351      -392.2889
  18   2.0000     -14.415512      -392.2660
  19   2.0000     -14.413331      -392.2067
  20   2.0000     -14.411964      -392.1695
  21   2.0000     -10.372051      -282.2379
  22   2.0000     -10.365173      -282.0507
  23   2.0000     -10.363673      -282.0099
  24   2.0000     -10.362497      -281.9779
  25   2.0000     -10.351366      -281.6750
  26   2.0000     -10.351321      -281.6738
  27   2.0000     -10.350271      -281.6452
  28   2.0000     -10.349491      -281.6240
  29   2.0000     -10.348983      -281.6101
  30   2.0000     -10.348393      -281.5941
  31   2.0000     -10.345995      -281.5288
  32   2.0000     -10.344966      -281.5008
  33   2.0000     -10.342359      -281.4299
  34   2.0000     -10.341771      -281.4139
  35   2.0000     -10.341506      -281.4067
  36   2.0000     -10.340828      -281.3882
  37   2.0000     -10.340264      -281.3729
  38   2.0000     -10.332201      -281.1535
  39   2.0000     -10.331049      -281.1221
  40   2.0000     -10.330451      -281.1059
  41   2.0000     -10.329575      -281.0820
  42   2.0000     -10.329050      -281.0677
  43   2.0000     -10.327847      -281.0350
  44   2.0000     -10.326817      -281.0070
  45   2.0000     -10.326625      -281.0017
  46   2.0000     -10.326045      -280.9860
  47   2.0000     -10.325603      -280.9739
  48   2.0000     -10.325539      -280.9722
  49   2.0000     -10.325174      -280.9623
  50   2.0000     -10.324066      -280.9321
  51   2.0000     -10.323645      -280.9207
  52   2.0000     -10.323515      -280.9171
  53   2.0000     -10.321705      -280.8679
  54   2.0000     -10.319651      -280.8120
  55   2.0000     -10.318080      -280.7692
  56   2.0000     -10.317819      -280.7621
  57   2.0000     -10.316388      -280.7232
  58   2.0000     -10.315327      -280.6943
  59   2.0000     -10.314509      -280.6721
  60   2.0000     -10.312961      -280.6299
  61   2.0000     -10.311696      -280.5955
  62   2.0000     -10.310746      -280.5697
  63   2.0000     -10.307191      -280.4729
  64   2.0000     -10.306033      -280.4414
  65   2.0000     -10.305864      -280.4368
  66   2.0000     -10.304128      -280.3896
  67   2.0000     -10.303986      -280.3857
  68   2.0000     -10.303373      -280.3690
  69   2.0000     -10.302883      -280.3557
  70   2.0000     -10.302458      -280.3441
  71   2.0000     -10.301911      -280.3292
  72   2.0000     -10.301090      -280.3069
  73   2.0000     -10.300565      -280.2926
  74   2.0000     -10.299196      -280.2554
  75   2.0000     -10.298641      -280.2403
  76   2.0000     -10.298457      -280.2353
  77   2.0000     -10.298267      -280.2301
  78   2.0000     -10.294932      -280.1393
  79   2.0000     -10.292077      -280.0616
  80   2.0000     -10.290458      -280.0176
  81   2.0000     -10.290143      -280.0090
  82   2.0000     -10.288117      -279.9539
  83   2.0000      -8.145332      -221.6458
  84   2.0000      -8.088728      -220.1055
  85   2.0000      -8.080225      -219.8741
  86   2.0000      -8.079122      -219.8441
  87   2.0000      -8.078142      -219.8174
  88   2.0000      -8.064228      -219.4388
  89   2.0000      -8.061710      -219.3703
  90   2.0000      -6.116395      -166.4356
  91   2.0000      -6.108586      -166.2231
  92   2.0000      -6.108155      -166.2114
  93   2.0000      -6.057852      -164.8425
  94   2.0000      -6.053714      -164.7299
  95   2.0000      -6.051256      -164.6631
  96   2.0000      -6.049625      -164.6187
  97   2.0000      -6.048518      -164.5885
  98   2.0000      -6.047801      -164.5690
  99   2.0000      -6.044890      -164.4898
 100   2.0000      -6.043930      -164.4637
 101   2.0000      -6.042846      -164.4342
 102   2.0000      -6.042780      -164.4324
 103   2.0000      -6.041630      -164.4011
 104   2.0000      -6.040655      -164.3746
 105   2.0000      -6.033747      -164.1866
 106   2.0000      -6.031206      -164.1175
 107   2.0000      -6.029415      -164.0687
 108   2.0000      -6.026923      -164.0009
 109   2.0000      -6.025958      -163.9747
 110   2.0000      -6.023391      -163.9048
 111   2.0000      -1.151183       -31.3253
 112   2.0000      -1.139590       -31.0098
 113   2.0000      -1.129265       -30.7289
 114   2.0000      -1.110961       -30.2308
 115   2.0000      -1.046157       -28.4674
 116   2.0000      -1.043739       -28.4016
 117   2.0000      -1.035758       -28.1844
 118   2.0000      -1.021804       -27.8047
 119   2.0000      -1.020789       -27.7771
 120   2.0000      -1.020279       -27.7632
 121   2.0000      -1.019304       -27.7367
 122   2.0000      -1.009382       -27.4667
 123   2.0000      -1.008779       -27.4503
 124   2.0000      -1.007726       -27.4216
 125   2.0000      -1.007035       -27.4028
 126   2.0000      -1.006085       -27.3770
 127   2.0000      -1.001433       -27.2504
 128   2.0000      -0.993601       -27.0372
 129   2.0000      -0.993000       -27.0209
 130   2.0000      -0.991564       -26.9818
 131   2.0000      -0.986102       -26.8332
 132   2.0000      -0.984081       -26.7782
 133   2.0000      -0.977548       -26.6004
 134   2.0000      -0.958896       -26.0929
 135   2.0000      -0.953911       -25.9572
 136   2.0000      -0.932475       -25.3739
 137   2.0000      -0.931321       -25.3425
 138   2.0000      -0.920500       -25.0481
 139   2.0000      -0.915716       -24.9179
 140   2.0000      -0.902356       -24.5544
 141   2.0000      -0.897117       -24.4118
 142   2.0000      -0.894123       -24.3303
 143   2.0000      -0.885593       -24.0982
 144   2.0000      -0.882311       -24.0089
 145   2.0000      -0.880355       -23.9557
 146   2.0000      -0.874487       -23.7960
 147   2.0000      -0.874081       -23.7850
 148   2.0000      -0.863597       -23.4997
 149   2.0000      -0.856159       -23.2973
 150   2.0000      -0.854192       -23.2438
 151   2.0000      -0.851224       -23.1630
 152   2.0000      -0.824621       -22.4391
 153   2.0000      -0.823578       -22.4107
 154   2.0000      -0.822032       -22.3686
 155   2.0000      -0.807470       -21.9724
 156   2.0000      -0.804023       -21.8786
 157   2.0000      -0.790625       -21.5140
 158   2.0000      -0.779952       -21.2236
 159   2.0000      -0.776864       -21.1396
 160   2.0000      -0.770551       -20.9678
 161   2.0000      -0.762859       -20.7585
 162   2.0000      -0.759974       -20.6799
 163   2.0000      -0.754834       -20.5401
 164   2.0000      -0.742292       -20.1988
 165   2.0000      -0.724598       -19.7173
 166   2.0000      -0.723484       -19.6870
 167   2.0000      -0.712739       -19.3946
 168   2.0000      -0.703993       -19.1566
 169   2.0000      -0.698853       -19.0168
 170   2.0000      -0.693224       -18.8636
 171   2.0000      -0.690977       -18.8024
 172   2.0000      -0.687668       -18.7124
 173   2.0000      -0.686153       -18.6712
 174   2.0000      -0.680334       -18.5128
 175   2.0000      -0.680006       -18.5039
 176   2.0000      -0.679421       -18.4880
 177   2.0000      -0.663332       -18.0502
 178   2.0000      -0.661368       -17.9967
 179   2.0000      -0.659777       -17.9534
 180   2.0000      -0.657906       -17.9025
 181   2.0000      -0.654212       -17.8020
 182   2.0000      -0.644496       -17.5376
 183   2.0000      -0.639718       -17.4076
 184   2.0000      -0.630187       -17.1483
 185   2.0000      -0.627095       -17.0641
 186   2.0000      -0.622645       -16.9430
 187   2.0000      -0.619623       -16.8608
 188   2.0000      -0.618739       -16.8368
 189   2.0000      -0.616323       -16.7710
 190   2.0000      -0.614875       -16.7316
 191   2.0000      -0.604474       -16.4486
 192   2.0000      -0.598230       -16.2787
 193   2.0000      -0.596145       -16.2219
 194   2.0000      -0.592673       -16.1275
 195   2.0000      -0.584842       -15.9144
 196   2.0000      -0.581464       -15.8224
 197   2.0000      -0.580587       -15.7986
 198   2.0000      -0.574179       -15.6242
 199   2.0000      -0.569800       -15.5051
 200   2.0000      -0.562692       -15.3116
 201   2.0000      -0.553628       -15.0650
 202   2.0000      -0.552901       -15.0452
 203   2.0000      -0.549961       -14.9652
 204   2.0000      -0.548132       -14.9154
 205   2.0000      -0.547597       -14.9009
 206   2.0000      -0.546167       -14.8620
 207   2.0000      -0.542755       -14.7691
 208   2.0000      -0.541112       -14.7244
 209   2.0000      -0.539696       -14.6859
 210   2.0000      -0.537108       -14.6155
 211   2.0000      -0.534870       -14.5545
 212   2.0000      -0.531156       -14.4535
 213   2.0000      -0.526596       -14.3294
 214   2.0000      -0.523312       -14.2400
 215   2.0000      -0.520257       -14.1569
 216   2.0000      -0.517224       -14.0744
 217   2.0000      -0.513374       -13.9696
 218   2.0000      -0.509115       -13.8537
 219   2.0000      -0.505994       -13.7688
 220   2.0000      -0.505253       -13.7486
 221   2.0000      -0.504378       -13.7248
 222   2.0000      -0.503001       -13.6874
 223   2.0000      -0.501807       -13.6549
 224   2.0000      -0.499112       -13.5815
 225   2.0000      -0.497086       -13.5264
 226   2.0000      -0.496380       -13.5072
 227   2.0000      -0.495136       -13.4733
 228   2.0000      -0.494419       -13.4538
 229   2.0000      -0.491727       -13.3806
 230   2.0000      -0.491661       -13.3788
 231   2.0000      -0.490007       -13.3338
 232   2.0000      -0.488292       -13.2871
 233   2.0000      -0.485350       -13.2071
 234   2.0000      -0.482433       -13.1277
 235   2.0000      -0.475911       -12.9502
 236   2.0000      -0.473019       -12.8715
 237   2.0000      -0.472640       -12.8612
 238   2.0000      -0.466290       -12.6884
 239   2.0000      -0.465295       -12.6613
 240   2.0000      -0.461211       -12.5502
 241   2.0000      -0.460943       -12.5429
 242   2.0000      -0.460770       -12.5382
 243   2.0000      -0.458316       -12.4714
 244   2.0000      -0.456046       -12.4097
 245   2.0000      -0.455886       -12.4053
 246   2.0000      -0.453173       -12.3315
 247   2.0000      -0.451828       -12.2949
 248   2.0000      -0.450637       -12.2625
 249   2.0000      -0.448859       -12.2141
 250   2.0000      -0.448311       -12.1992
 251   2.0000      -0.447555       -12.1786
 252   2.0000      -0.442276       -12.0349
 253   2.0000      -0.440581       -11.9888
 254   2.0000      -0.439953       -11.9717
 255   2.0000      -0.439072       -11.9478
 256   2.0000      -0.438348       -11.9281
 257   2.0000      -0.437853       -11.9146
 258   2.0000      -0.437504       -11.9051
 259   2.0000      -0.435634       -11.8542
 260   2.0000      -0.433176       -11.7873
 261   2.0000      -0.432434       -11.7671
 262   2.0000      -0.431152       -11.7322
 263   2.0000      -0.431129       -11.7316
 264   2.0000      -0.427262       -11.6264
 265   2.0000      -0.426311       -11.6005
 266   2.0000      -0.426128       -11.5955
 267   2.0000      -0.424993       -11.5646
 268   2.0000      -0.423431       -11.5221
 269   2.0000      -0.417110       -11.3501
 270   2.0000      -0.417073       -11.3491
 271   2.0000      -0.416460       -11.3325
 272   2.0000      -0.412564       -11.2264
 273   2.0000      -0.407804       -11.0969
 274   2.0000      -0.406273       -11.0552
 275   2.0000      -0.402435       -10.9508
 276   2.0000      -0.401304       -10.9200
 277   2.0000      -0.390798       -10.6342
 278   2.0000      -0.386423       -10.5151
 279   2.0000      -0.380984       -10.3671
 280   2.0000      -0.379770       -10.3341
 281   2.0000      -0.375052       -10.2057
 282   2.0000      -0.369089       -10.0434
 283   2.0000      -0.358417        -9.7530
 284   2.0000      -0.354536        -9.6474
 285   2.0000      -0.346643        -9.4326
 286   2.0000      -0.346050        -9.4165
 287   2.0000      -0.341553        -9.2941
 288   2.0000      -0.340626        -9.2689
 289   2.0000      -0.339256        -9.2316
 290   2.0000      -0.333148        -9.0654
 291   2.0000      -0.321511        -8.7488
 292   2.0000      -0.320156        -8.7119
 293   2.0000      -0.315203        -8.5771
 294   2.0000      -0.312699        -8.5090
 295   2.0000      -0.305507        -8.3133
 296   2.0000      -0.295526        -8.0417
 297   2.0000      -0.293560        -7.9882
 298   2.0000      -0.274679        -7.4744
 299   2.0000      -0.241420        -6.5694
 300   0.0000      -0.132499        -3.6055
 301   0.0000      -0.105114        -2.8603
 302   0.0000      -0.097575        -2.6552
 303   0.0000      -0.085847        -2.3360
 304   0.0000      -0.085333        -2.3220

MULLIKEN ATOMIC CHARGES
-----------------------
   0 C :    0.317705
   1 C :   -0.353611
   2 C :   -0.185842
   3 N :    0.151228
   4 C :   -0.198574
   5 N :    0.157733
   6 C :    0.016156
   7 C :   -0.010956
   8 C :   -0.070804
   9 C :    0.115762
  10 C :   -0.096202
  11 C :   -0.025853
  12 S :    0.142806
  13 C :   -0.047158
  14 C :    0.023549
  15 C :    0.164310
  16 O :   -0.193422
  17 C :   -0.089201
  18 C :   -0.030483
  19 C :   -0.054486
  20 C :   -0.059071
  21 C :    0.044809
  22 C :   -0.073747
  23 S :    0.242465
  24 C :   -0.076926
  25 C :    0.047912
  26 C :    0.310799
  27 C :   -0.302643
  28 C :   -0.199252
  29 N :    0.179611
  30 C :   -0.183723
  31 N :    0.167037
  32 C :   -0.066068
  33 C :   -0.182321
  34 S :    0.215422
  35 C :    0.197827
  36 C :   -0.071108
  37 C :   -0.045044
  38 N :   -0.091789
  39 C :    0.054565
  40 C :    0.038591
  41 N :   -0.017175
  42 C :    0.169886
  43 C :   -0.008452
  44 C :   -0.022439
  45 N :   -0.339897
  46 S :    0.575914
  47 N :   -0.275526
  48 C :   -0.169309
  49 C :   -0.063487
  50 C :    0.039640
  51 C :   -0.068016
  52 S :    0.207625
  53 C :   -0.079686
  54 C :   -0.004457
  55 C :    0.310251
  56 C :   -0.291214
  57 C :   -0.186585
  58 N :    0.172503
  59 C :   -0.188043
  60 N :    0.165661
  61 C :   -0.004691
  62 C :   -0.107951
  63 S :    0.210668
  64 C :    0.075543
  65 C :   -0.127682
  66 C :    0.266705
  67 C :   -0.334193
  68 C :   -0.172075
  69 N :    0.159673
  70 C :   -0.201719
  71 N :    0.165468
  72 C :   -0.004459
  73 C :    0.002062
  74 C :    0.129912
  75 O :   -0.146830
  76 C :   -0.064691
  77 C :    0.105905
  78 C :   -0.094195
  79 C :   -0.015285
  80 S :    0.142957
  81 C :   -0.052868
  82 C :    0.029260
  83 H :   -0.012415
  84 H :   -0.005412
  85 H :    0.038627
  86 H :   -0.006270
  87 H :    0.020040
  88 H :    0.026449
  89 H :    0.021940
  90 H :    0.024844
  91 H :    0.036493
  92 H :    0.021218
  93 H :    0.024545
  94 H :    0.019823
  95 H :   -0.011934
  96 H :    0.000953
  97 H :    0.039819
  98 H :   -0.007432
Sum of atomic charges:   -0.0000000

LOEWDIN ATOMIC CHARGES
----------------------
   0 C :    0.076477
   1 C :   -0.142374
   2 C :   -0.018098
   3 N :   -0.053994
   4 C :   -0.024014
   5 N :   -0.048822
   6 C :   -0.020968
   7 C :   -0.053930
   8 C :    0.023100
   9 C :   -0.035847
  10 C :   -0.145331
  11 C :   -0.008145
  12 S :    0.432209
  13 C :   -0.149322
  14 C :   -0.058078
  15 C :    0.086036
  16 O :   -0.177054
  17 C :   -0.110832
  18 C :    0.054302
  19 C :   -0.183802
  20 C :    0.011248
  21 C :   -0.076725
  22 C :   -0.164960
  23 S :    0.546600
  24 C :   -0.190742
  25 C :   -0.062343
  26 C :    0.079942
  27 C :   -0.105233
  28 C :   -0.020338
  29 N :   -0.028443
  30 C :   -0.013292
  31 N :   -0.039697
  32 C :   -0.016028
  33 C :   -0.152982
  34 S :    0.516397
  35 C :   -0.046688
  36 C :   -0.004626
  37 C :   -0.015478
  38 N :   -0.050142
  39 C :    0.025321
  40 C :    0.024186
  41 N :   -0.017163
  42 C :   -0.038705
  43 C :   -0.040060
  44 C :   -0.046814
  45 N :   -0.307424
  46 S :    0.694098
  47 N :   -0.270320
  48 C :   -0.159437
  49 C :   -0.011467
  50 C :   -0.064889
  51 C :   -0.187513
  52 S :    0.513008
  53 C :   -0.158265
  54 C :   -0.063588
  55 C :    0.083224
  56 C :   -0.101320
  57 C :   -0.016203
  58 N :   -0.033022
  59 C :   -0.013113
  60 N :   -0.035943
  61 C :    0.007793
  62 C :   -0.180312
  63 S :    0.496199
  64 C :    0.039929
  65 C :   -0.090284
  66 C :    0.066298
  67 C :   -0.138590
  68 C :   -0.019224
  69 N :   -0.047306
  70 C :   -0.015707
  71 N :   -0.048647
  72 C :   -0.018889
  73 C :   -0.056257
  74 C :    0.083106
  75 O :   -0.146364
  76 C :    0.024074
  77 C :   -0.036100
  78 C :   -0.144463
  79 C :   -0.008322
  80 S :    0.431494
  81 C :   -0.150183
  82 C :   -0.057690
  83 H :    0.040012
  84 H :    0.041160
  85 H :    0.029566
  86 H :    0.035274
  87 H :    0.053700
  88 H :    0.047653
  89 H :    0.036594
  90 H :    0.032577
  91 H :    0.036649
  92 H :    0.038524
  93 H :    0.042404
  94 H :    0.045328
  95 H :    0.040499
  96 H :    0.042349
  97 H :    0.029541
  98 H :    0.035041

  Mayer bond orders larger than 0.100000
B(  0-C ,  1-C ) :   1.6254 B(  0-C ,  6-C ) :   1.0002 B(  0-C , 17-C ) :   1.0770
B(  1-C ,  2-C ) :   1.1463 B(  1-C ,  4-C ) :   1.1457 B(  2-C ,  3-N ) :   2.9702
B(  4-C ,  5-N ) :   2.9721 B(  6-C ,  7-C ) :   1.2677 B(  6-C , 11-C ) :   1.4163
B(  7-C ,  8-C ) :   1.4213 B(  7-C , 15-C ) :   0.9658 B(  8-C ,  9-C ) :   1.2427
B(  8-C , 83-H ) :   1.0177 B(  9-C , 10-C ) :   1.3024 B(  9-C , 14-C ) :   1.1727
B( 10-C , 11-C ) :   1.3187 B( 10-C , 12-S ) :   1.1012 B( 11-C , 84-H ) :   0.9833
B( 12-S , 13-C ) :   1.1274 B( 13-C , 14-C ) :   1.6271 B( 13-C , 85-H ) :   0.9686
B( 14-C , 86-H ) :   0.9996 B( 15-C , 16-O ) :   2.1079 B( 15-C , 17-C ) :   0.9822
B( 17-C , 18-C ) :   1.4922 B( 18-C , 19-C ) :   1.2676 B( 18-C , 87-H ) :   0.9432
B( 19-C , 20-C ) :   1.3236 B( 19-C , 23-S ) :   1.0703 B( 20-C , 21-C ) :   1.3341
B( 20-C , 88-H ) :   1.0097 B( 21-C , 22-C ) :   1.3443 B( 21-C , 26-C ) :   0.9849
B( 22-C , 23-S ) :   1.1250 B( 22-C , 24-C ) :   1.2133 B( 24-C , 25-C ) :   1.3889
B( 24-C , 34-S ) :   1.0935 B( 25-C , 26-C ) :   1.0000 B( 25-C , 32-C ) :   1.2629
B( 26-C , 27-C ) :   1.7079 B( 27-C , 28-C ) :   1.1348 B( 27-C , 30-C ) :   1.1393
B( 28-C , 29-N ) :   2.9955 B( 30-C , 31-N ) :   2.9871 B( 32-C , 33-C ) :   1.4075
B( 32-C , 89-H ) :   0.9814 B( 33-C , 34-S ) :   1.1076 B( 33-C , 35-C ) :   1.1888
B( 35-C , 36-C ) :   1.2722 B( 35-C , 42-C ) :   0.1318 B( 35-C , 44-C ) :   1.1986
B( 36-C , 37-C ) :   1.1276 B( 36-C , 41-N ) :   1.4716 B( 37-C , 38-N ) :   1.3907
B( 37-C , 42-C ) :   1.2682 B( 38-N , 39-C ) :   1.6505 B( 39-C , 40-C ) :   1.1930
B( 39-C , 90-H ) :   0.9733 B( 40-C , 41-N ) :   1.6683 B( 40-C , 91-H ) :   0.9752
B( 42-C , 43-C ) :   1.2124 B( 42-C , 48-C ) :   1.2028 B( 43-C , 44-C ) :   1.1081
B( 43-C , 47-N ) :   1.5091 B( 44-C , 45-N ) :   1.4612 B( 45-N , 46-S ) :   1.2739
B( 45-N , 47-N ) :   0.1534 B( 46-S , 47-N ) :   1.2930 B( 48-C , 49-C ) :   1.4123
B( 48-C , 52-S ) :   1.0946 B( 49-C , 50-C ) :   1.2828 B( 49-C , 92-H ) :   0.9836
B( 50-C , 51-C ) :   1.4007 B( 50-C , 55-C ) :   0.9926 B( 51-C , 52-S ) :   1.0686
B( 51-C , 53-C ) :   1.2097 B( 53-C , 54-C ) :   1.3983 B( 53-C , 63-S ) :   1.1498
B( 54-C , 55-C ) :   0.9973 B( 54-C , 61-C ) :   1.3616 B( 55-C , 56-C ) :   1.7103
B( 56-C , 57-C ) :   1.1382 B( 56-C , 59-C ) :   1.1344 B( 57-C , 58-N ) :   2.9869
B( 59-C , 60-N ) :   2.9811 B( 61-C , 62-C ) :   1.3898 B( 61-C , 93-H ) :   0.9800
B( 62-C , 63-S ) :   1.0880 B( 62-C , 64-C ) :   1.1371 B( 64-C , 65-C ) :   1.6706
B( 64-C , 94-H ) :   0.9289 B( 65-C , 66-C ) :   1.0348 B( 65-C , 74-C ) :   0.9427
B( 66-C , 67-C ) :   1.6465 B( 66-C , 72-C ) :   1.0107 B( 67-C , 68-C ) :   1.1261
B( 67-C , 70-C ) :   1.1748 B( 68-C , 69-N ) :   2.9949 B( 70-C , 71-N ) :   2.9961
B( 72-C , 73-C ) :   1.2674 B( 72-C , 79-C ) :   1.4207 B( 73-C , 74-C ) :   0.9253
B( 73-C , 76-C ) :   1.4268 B( 74-C , 75-O ) :   2.2618 B( 76-C , 77-C ) :   1.2538
B( 76-C , 95-H ) :   1.0148 B( 77-C , 78-C ) :   1.3017 B( 77-C , 82-C ) :   1.1728
B( 78-C , 79-C ) :   1.3196 B( 78-C , 80-S ) :   1.0988 B( 79-C , 96-H ) :   0.9853
B( 80-S , 81-C ) :   1.1273 B( 81-C , 82-C ) :   1.6299 B( 81-C , 97-H ) :   0.9683
B( 82-C , 98-H ) :   0.9988

-----------------------------------------------------------------------------
         ABSORPTION SPECTRUM VIA TRANSITION ELECTRIC DIPOLE MOMENTS
-----------------------------------------------------------------------------
State   Energy  Wavelength   fosc         T2         TX        TY        TZ
        (cm-1)    (nm)                  (au**2)     (au)      (au)      (au)
-----------------------------------------------------------------------------
   0    9127.9   1095.5   1.164288984  41.99182  -5.59908   3.25373  -0.23532
   1   13401.6    746.2   0.018733335   0.46019   0.25838  -0.54310  -0.31381
   2   14447.8    692.1   0.005383164   0.12266   0.23442   0.25323   0.05989
   3   17588.1    568.6   0.026622380   0.49832  -0.29681  -0.44577  -0.45990
   4   19672.0    508.3   0.557914819   9.33672   2.62350  -1.31349   0.85363
   5   20705.2    483.0   0.748778419  11.90556   2.00866  -2.76349  -0.48371
   6   22572.2    443.0   0.071034436   1.03603  -0.55991   0.81621  -0.23732
   7   23354.1    428.2   0.001970504   0.02778  -0.04717  -0.05295   0.15083
   8   24419.5    409.5   0.017898622   0.24130  -0.31301   0.36031   0.11622
   9   24611.8    406.3   0.013585969   0.18173   0.34929  -0.05154   0.23889
  10   25036.1    399.4   0.077111644   1.01398  -0.97805   0.22754   0.07498
  11   25527.9    391.7   0.016817456   0.21688   0.45609   0.08122  -0.04759
  12   25832.8    387.1   0.000288480   0.00368   0.05169  -0.00240   0.03160
  13   26039.0    384.0   0.053458696   0.67588  -0.18731  -0.79484  -0.09499
  14   26329.5    379.8   0.150125619   1.87710   0.24371  -1.29871  -0.36201
  15   27408.2    364.9   0.064924315   0.77983  -0.72077   0.50879   0.03825
  16   27557.2    362.9   0.150850217   1.80213  -1.26448   0.44112  -0.09288
  17   27848.8    359.1   0.048515378   0.57352  -0.35986   0.66193   0.07657
  18   28428.2    351.8   0.004361110   0.05050   0.15569   0.03915  -0.15727
  19   28561.0    350.1   0.012707434   0.14647   0.31649  -0.04606  -0.21020
  20   28665.9    348.8   0.030134248   0.34607   0.19760   0.14211  -0.53557
  21   29235.5    342.0   0.170012058   1.91445   0.20105  -1.35782  -0.17424
  22   29404.0    340.1   0.001551884   0.01738  -0.07982   0.03056   0.10035
  23   29771.7    335.9   0.218947590   2.42109   1.24475  -0.88395   0.30054
  24   30133.4    331.9   0.054861806   0.59937  -0.65977   0.39151   0.10393
  25   30227.5    330.8   0.378018652   4.11705  -2.00133   0.13911   0.30396
  26   30407.6    328.9   0.031991704   0.34636   0.55084  -0.20603   0.02203
  27   30581.7    327.0   0.076110979   0.81933   0.49712  -0.74718   0.11799
  28   30766.6    325.0   0.482444268   5.16230  -0.47704  -2.15570  -0.53635
  29   31137.8    321.2   0.087219783   0.92215  -0.30079  -0.88072  -0.23667
  30   31315.8    319.3   0.093945269   0.98761   0.86741  -0.48042  -0.06643
  31   31549.9    317.0   0.267589690   2.79220  -1.55770  -0.59998  -0.07624
  32   31816.6    314.3   0.591784762   6.12330   2.15338   1.17594   0.32158
  33   32088.0    311.6   0.008360523   0.08578   0.26358  -0.09878   0.08090
  34   32216.5    310.4   0.008797912   0.08990  -0.14304  -0.24360  -0.10049
  35   32309.6    309.5   0.080685093   0.82212  -0.79332   0.42060   0.12591
  36   32592.2    306.8   0.038567214   0.38957   0.13769   0.55221   0.25627
  37   33048.1    302.6   0.067767376   0.67507  -0.23566  -0.76625  -0.18001
  38   33226.0    301.0   0.136292572   1.35042  -0.75088   0.88627   0.03363
  39   33583.7    297.8   0.047344424   0.46410  -0.53928   0.18403   0.37338
  40   33738.1    296.4   0.034009721   0.33186  -0.05462   0.53563   0.20490
  41   33930.7    294.7   0.008126697   0.07885  -0.05068  -0.20807  -0.18163
  42   33988.4    294.2   0.112695192   1.09157   0.16958   1.02762   0.08257
  43   34354.0    291.1   0.082828933   0.79374  -0.76783  -0.33536  -0.30284
  44   34487.4    290.0   0.222232395   2.12140   0.88436   1.13982   0.20027
  45   34676.1    288.4   0.460758793   4.37440   2.05043  -0.21074  -0.35456
  46   34745.1    287.8   0.168425336   1.59584  -0.13023   1.17272   0.45124
  47   34828.2    287.1   0.031690838   0.29956   0.13173  -0.53080  -0.02134
  48   34905.5    286.5   0.009807815   0.09250   0.16265   0.20532   0.15457
  49   35225.0    283.9   0.081770020   0.76422   0.82670  -0.10844   0.26273
  50   35412.2    282.4   0.150474339   1.39889   0.03681  -1.12966  -0.34843
  51   35620.8    280.7   0.514947898   4.75921  -0.26024  -2.16264  -0.12032
  52   35762.3    279.6   0.142787075   1.31444   0.01210  -1.14385  -0.07680
  53   35882.5    278.7   0.033621476   0.30847  -0.06154  -0.55044  -0.04125
  54   36051.9    277.4   0.044912975   0.41013   0.09363   0.62863  -0.07862
  55   36122.0    276.8   0.024522683   0.22350   0.46468   0.07756  -0.03943
  56   36549.9    273.6   0.115864700   1.04362   0.93915   0.39992  -0.04098
  57   36555.6    273.6   0.044768302   0.40317  -0.44423  -0.44854  -0.06814
  58   36631.9    273.0   0.066033810   0.59345   0.20791  -0.74154   0.01818
  59   36818.8    271.6   0.014498244   0.12963  -0.11195   0.33268  -0.08018
  60   37262.3    268.4   0.127975909   1.13067  -1.03417  -0.21135  -0.12838
  61   37494.0    266.7   0.008992714   0.07896  -0.14764  -0.19529  -0.13793
  62   37525.4    266.5   0.009949135   0.08728   0.13234   0.25969   0.04829
  63   37616.6    265.8   0.004360465   0.03816  -0.00847  -0.18939  -0.04715
  64   37837.2    264.3   0.002306818   0.02007  -0.09010  -0.10683   0.02325
  65   37939.8    263.6   0.055672707   0.48308  -0.01297  -0.69403  -0.03524
  66   38229.4    261.6   0.000327232   0.00282   0.04221   0.01492  -0.02852
  67   38278.7    261.2   0.150574549   1.29500   0.23534   1.11331   0.01247
  68   38510.7    259.7   0.039533394   0.33795  -0.09930   0.56565   0.09021
  69   38757.1    258.0   0.159622378   1.35587  -1.14600  -0.18374   0.09378
  70   38975.4    256.6   0.100195322   0.84632   0.88529  -0.20702  -0.14042
  71   39366.9    254.0   0.156233011   1.30652  -0.60502  -0.91661  -0.31669
  72   39426.8    253.6   0.043354630   0.36201   0.46569   0.24676   0.29026
  73   39700.3    251.9   0.015948796   0.13225  -0.17149   0.03087  -0.31921
  74   40094.3    249.4   0.075487291   0.61982   0.69752  -0.36190  -0.04809

FINAL SINGLE POINT ENERGY     -5961.967052794937

DIPOLE MOMENT
-------------
                                X             Y             Z
Electronic contribution:     10.06894      -1.64705       3.70988
Nuclear contribution   :    -13.16795       1.78956      -3.10576
                        -----------------------------------------
Total Dipole Moment    :     -3.09901       0.14251       0.60412
                        -----------------------------------------
Magnitude (a.u.)       :      3.16056
Magnitude (Debye)      :      8.03350

Rotational constants in cm-1:     0.001659     0.000150     0.000139
Rotational constants in MHz :    49.731601     4.486231     4.160034

                             ****ORCA TERMINATED NORMALLY****
TOTAL RUN TIME: 0 days 0 hours 24 minutes 51 seconds 340 msec
