                         Program Version 4.2.0 -  RELEASE  -
|  1> # ORCA input file
|  2> # SCF done       -216.634317260617          0.000720646048
|  3> ! CAM-B3LYP def2-SVP def2/J RIJCOSX Grid4 TightSCF
|  4> %maxcore 5000
|  5> %tddft
|  6>     Mode sTDDFT
|  7>     Ethresh 5.0
|  8>     maxcore 5000
|  9> end
| 10>
| 11> %pal
| 12>   nprocs 6
| 13>   end
| 14> * xyz 0 1
| 15>    C        4.29479        -3.38805        -0.82777
| 16>    C        4.76856        -4.54869        -0.27580
| 17>    C        5.88023        -4.61134         0.59265
| 18>    N        6.77910        -4.72207         1.29619
| 19>    C        4.26653        -5.82903        -0.58236
| 20>    N        3.90793        -6.89238        -0.82433
| 21>    C        4.95522        -2.08755        -0.72757
| 22>    C        4.51346        -1.26845        -1.78329
| 23>    C        5.00566         0.00853        -1.96292
| 24>    C        5.94983         0.48410        -1.06108
| 25>    C        6.37967        -0.31896         0.00331
| 26>    C        5.88933        -1.60934         0.17512
| 27>   Cl        7.53007         0.29063         1.11975
| 28>   Cl        6.58691         2.06570        -1.25173
| 29>    C        3.49105        -1.98734        -2.57024
| 30>    O        2.92706        -1.62511        -3.57467
| 31>    C        3.25074        -3.25653        -1.82366
| 32>    C        2.13688        -3.98328        -2.11976
| 33>    C        1.49860        -4.98140        -1.35334
| 34>    C        1.61066        -5.24268         0.00665
| 35>    C        0.81568        -6.30684         0.40352
| 36>    C        0.07118        -6.86610        -0.65935
| 37>    S        0.34438        -6.05821        -2.13217
| 38>    C       -0.66705        -7.96415        -0.16329
| 39>    C       -0.38158        -8.10723         1.21351
| 40>    C        0.54808        -7.06379         1.61384
| 41>    C        1.06831        -6.83779         2.85382
| 42>    C        0.70523        -7.61728         3.97339
| 43>    N        0.38731        -8.23657         4.88370
| 44>    C        1.98265        -5.78728         3.08108
| 45>    N        2.72655        -4.92889         3.23775
| 46>    C       -1.03143        -9.18747         1.79025
| 47>    C       -1.82691        -9.86760         0.87367
| 48>    S       -1.77027        -9.13869        -0.72601
| 49>    C       -2.63047       -11.01879         1.08760
| 50>    C       -2.60638       -11.80080         2.27072
| 51>    C       -3.46373       -12.94975         2.42160
| 52>    N       -3.42608       -13.66481         3.55193
| 53>    C       -2.59681       -13.33839         4.51158
| 54>    C       -1.71724       -12.21963         4.34560
| 55>    N       -1.75143       -11.49296         3.25666
| 56>    C       -0.78539       -11.90255         5.36804
| 57>    N       -0.04474       -11.69461         6.21552
| 58>    C       -2.58209       -14.10556         5.70291
| 59>    N       -2.55594       -14.70977         6.67518
| 60>    C       -4.37388       -13.37948         1.42610
| 61>    C       -4.38027       -12.61212         0.24018
| 62>    C       -3.51693       -11.46882         0.08343
| 63>    N       -3.67214       -10.89612        -1.11122
| 64>    S       -4.77928       -11.70291        -1.94876
| 65>    N       -5.12166       -12.81471        -0.85020
| 66>    C       -5.20456       -14.50880         1.63184
| 67>    C       -6.18907       -14.98114         0.76822
| 68>    C       -6.81915       -16.10847         1.27004
| 69>    C       -6.30212       -16.51147         2.52227
| 70>    S       -5.05946       -15.47853         3.08710
| 71>    C       -7.00058       -17.66584         2.93672
| 72>    C       -7.97217       -17.98957         1.95809
| 73>    C       -7.87642       -17.02616         0.87410
| 74>    C       -8.60655       -16.99104        -0.27658
| 75>    C       -9.58439       -17.96017        -0.59135
| 76>    N      -10.36834       -18.74480        -0.87968
| 77>    C       -8.41619       -15.98639        -1.25006
| 78>    N       -8.26772       -15.17147        -2.04282
| 79>    C       -8.73478       -19.09828         2.29198
| 80>    C       -8.35516       -19.64436         3.51351
| 81>    S       -7.00710       -18.75902         4.23787
| 82>    C       -8.81171       -20.78497         4.20486
| 83>    C       -9.99538       -21.45716         4.07216
| 84>    C      -10.31794       -22.69772         4.75582
| 85>    C       -9.42698       -23.56919         5.32330
| 86>    C       -9.79704       -24.77824         5.95111
| 87>    N      -10.03524       -25.76878         6.47878
| 88>    C       -8.02436       -23.40738         5.32021
| 89>    N       -6.87773       -23.35312         5.33329
| 90>    C      -11.75706       -22.90697         4.63814
| 91>    C      -12.29727       -21.88773         3.83524
| 92>    C      -11.22936       -20.95700         3.41416
| 93>    O      -11.37101       -19.96614         2.73368
| 94>    C      -13.64412       -21.82942         3.54001
| 95>    C      -14.47552       -22.81265         4.06179
| 96>    C      -13.94694       -23.82865         4.86823
| 97>    C      -12.58840       -23.88450         5.16024
| 98>   Cl      -14.98710       -25.03009         5.51550
| 99>   Cl      -16.15603       -22.77825         3.71823
|100>    H        4.66487         0.61984        -2.78347
|101>    H        6.23448        -2.19928         1.00865
|102>    H        1.64698        -3.70396        -3.04782
|103>    H        2.21519        -4.65004         0.66857
|104>    H       -0.94868        -9.49093         2.81710
|105>    H       -6.40466       -14.49871        -0.16733
|106>    H       -9.52523       -19.50608         1.69045
|107>    H       -8.12506       -21.14355         4.96330
|108>    H      -14.03661       -21.04011         2.91852
|109>    H      -12.21784       -24.67820         5.78802
|110> *
|111>
|112>                          ****END OF INPUT****

CARTESIAN COORDINATES (ANGSTROEM)
---------------------------------
  C      4.294790   -3.388050   -0.827770
  C      4.768560   -4.548690   -0.275800
  C      5.880230   -4.611340    0.592650
  N      6.779100   -4.722070    1.296190
  C      4.266530   -5.829030   -0.582360
  N      3.907930   -6.892380   -0.824330
  C      4.955220   -2.087550   -0.727570
  C      4.513460   -1.268450   -1.783290
  C      5.005660    0.008530   -1.962920
  C      5.949830    0.484100   -1.061080
  C      6.379670   -0.318960    0.003310
  C      5.889330   -1.609340    0.175120
  Cl     7.530070    0.290630    1.119750
  Cl     6.586910    2.065700   -1.251730
  C      3.491050   -1.987340   -2.570240
  O      2.927060   -1.625110   -3.574670
  C      3.250740   -3.256530   -1.823660
  C      2.136880   -3.983280   -2.119760
  C      1.498600   -4.981400   -1.353340
  C      1.610660   -5.242680    0.006650
  C      0.815680   -6.306840    0.403520
  C      0.071180   -6.866100   -0.659350
  S      0.344380   -6.058210   -2.132170
  C     -0.667050   -7.964150   -0.163290
  C     -0.381580   -8.107230    1.213510
  C      0.548080   -7.063790    1.613840
  C      1.068310   -6.837790    2.853820
  C      0.705230   -7.617280    3.973390
  N      0.387310   -8.236570    4.883700
  C      1.982650   -5.787280    3.081080
  N      2.726550   -4.928890    3.237750
  C     -1.031430   -9.187470    1.790250
  C     -1.826910   -9.867600    0.873670
  S     -1.770270   -9.138690   -0.726010
  C     -2.630470  -11.018790    1.087600
  C     -2.606380  -11.800800    2.270720
  C     -3.463730  -12.949750    2.421600
  N     -3.426080  -13.664810    3.551930
  C     -2.596810  -13.338390    4.511580
  C     -1.717240  -12.219630    4.345600
  N     -1.751430  -11.492960    3.256660
  C     -0.785390  -11.902550    5.368040
  N     -0.044740  -11.694610    6.215520
  C     -2.582090  -14.105560    5.702910
  N     -2.555940  -14.709770    6.675180
  C     -4.373880  -13.379480    1.426100
  C     -4.380270  -12.612120    0.240180
  C     -3.516930  -11.468820    0.083430
  N     -3.672140  -10.896120   -1.111220
  S     -4.779280  -11.702910   -1.948760
  N     -5.121660  -12.814710   -0.850200
  C     -5.204560  -14.508800    1.631840
  C     -6.189070  -14.981140    0.768220
  C     -6.819150  -16.108470    1.270040
  C     -6.302120  -16.511470    2.522270
  S     -5.059460  -15.478530    3.087100
  C     -7.000580  -17.665840    2.936720
  C     -7.972170  -17.989570    1.958090
  C     -7.876420  -17.026160    0.874100
  C     -8.606550  -16.991040   -0.276580
  C     -9.584390  -17.960170   -0.591350
  N    -10.368340  -18.744800   -0.879680
  C     -8.416190  -15.986390   -1.250060
  N     -8.267720  -15.171470   -2.042820
  C     -8.734780  -19.098280    2.291980
  C     -8.355160  -19.644360    3.513510
  S     -7.007100  -18.759020    4.237870
  C     -8.811710  -20.784970    4.204860
  C     -9.995380  -21.457160    4.072160
  C    -10.317940  -22.697720    4.755820
  C     -9.426980  -23.569190    5.323300
  C     -9.797040  -24.778240    5.951110
  N    -10.035240  -25.768780    6.478780
  C     -8.024360  -23.407380    5.320210
  N     -6.877730  -23.353120    5.333290
  C    -11.757060  -22.906970    4.638140
  C    -12.297270  -21.887730    3.835240
  C    -11.229360  -20.957000    3.414160
  O    -11.371010  -19.966140    2.733680
  C    -13.644120  -21.829420    3.540010
  C    -14.475520  -22.812650    4.061790
  C    -13.946940  -23.828650    4.868230
  C    -12.588400  -23.884500    5.160240
  Cl   -14.987100  -25.030090    5.515500
  Cl   -16.156030  -22.778250    3.718230
  H      4.664870    0.619840   -2.783470
  H      6.234480   -2.199280    1.008650
  H      1.646980   -3.703960   -3.047820
  H      2.215190   -4.650040    0.668570
  H     -0.948680   -9.490930    2.817100
  H     -6.404660  -14.498710   -0.167330
  H     -9.525230  -19.506080    1.690450
  H     -8.125060  -21.143550    4.963300
  H    -14.036610  -21.040110    2.918520
  H    -12.217840  -24.678200    5.788020

 Total Charge           Charge          ....    0
 Multiplicity           Mult            ....    1
 Number of Electrons    NEL             ....  632
 Basis Dimension        Dim             .... 1276

ORBITAL ENERGIES
----------------

  NO   OCC          E(Eh)            E(eV)
   0   2.0000    -101.605534     -2764.8271
   1   2.0000    -101.604719     -2764.8050
   2   2.0000    -101.604255     -2764.7923
   3   2.0000    -101.603453     -2764.7705
   4   2.0000     -89.071864     -2423.7686
   5   2.0000     -89.006575     -2421.9921
   6   2.0000     -89.004735     -2421.9420
   7   2.0000     -89.001563     -2421.8556
   8   2.0000     -89.000903     -2421.8377
   9   2.0000     -19.230784      -523.2962
  10   2.0000     -19.229725      -523.2674
  11   2.0000     -14.488642      -394.2560
  12   2.0000     -14.483145      -394.1064
  13   2.0000     -14.480015      -394.0212
  14   2.0000     -14.479342      -394.0029
  15   2.0000     -14.448804      -393.1719
  16   2.0000     -14.441208      -392.9653
  17   2.0000     -14.440533      -392.9469
  18   2.0000     -14.440062      -392.9341
  19   2.0000     -14.437554      -392.8658
  20   2.0000     -14.436947      -392.8493
  21   2.0000     -14.429611      -392.6497
  22   2.0000     -14.425641      -392.5417
  23   2.0000     -14.424044      -392.4982
  24   2.0000     -14.423604      -392.4862
  25   2.0000     -10.406119      -283.1649
  26   2.0000     -10.403018      -283.0805
  27   2.0000     -10.382838      -282.5314
  28   2.0000     -10.381076      -282.4834
  29   2.0000     -10.375611      -282.3347
  30   2.0000     -10.375410      -282.3293
  31   2.0000     -10.373534      -282.2782
  32   2.0000     -10.371760      -282.2299
  33   2.0000     -10.369356      -282.1645
  34   2.0000     -10.368277      -282.1352
  35   2.0000     -10.362901      -281.9889
  36   2.0000     -10.362330      -281.9733
  37   2.0000     -10.362290      -281.9722
  38   2.0000     -10.362271      -281.9717
  39   2.0000     -10.361700      -281.9562
  40   2.0000     -10.361329      -281.9461
  41   2.0000     -10.357774      -281.8494
  42   2.0000     -10.356216      -281.8070
  43   2.0000     -10.354499      -281.7603
  44   2.0000     -10.353775      -281.7406
  45   2.0000     -10.353177      -281.7243
  46   2.0000     -10.352354      -281.7019
  47   2.0000     -10.345883      -281.5258
  48   2.0000     -10.345244      -281.5084
  49   2.0000     -10.343858      -281.4707
  50   2.0000     -10.343654      -281.4651
  51   2.0000     -10.342913      -281.4450
  52   2.0000     -10.341600      -281.4092
  53   2.0000     -10.340597      -281.3819
  54   2.0000     -10.340282      -281.3734
  55   2.0000     -10.340195      -281.3710
  56   2.0000     -10.339688      -281.3572
  57   2.0000     -10.338372      -281.3214
  58   2.0000     -10.337824      -281.3065
  59   2.0000     -10.336987      -281.2837
  60   2.0000     -10.336805      -281.2788
  61   2.0000     -10.336316      -281.2655
  62   2.0000     -10.332945      -281.1737
  63   2.0000     -10.330446      -281.1057
  64   2.0000     -10.328009      -281.0394
  65   2.0000     -10.325711      -280.9769
  66   2.0000     -10.325685      -280.9762
  67   2.0000     -10.324320      -280.9390
  68   2.0000     -10.323306      -280.9114
  69   2.0000     -10.322142      -280.8798
  70   2.0000     -10.319720      -280.8139
  71   2.0000     -10.318835      -280.7898
  72   2.0000     -10.317959      -280.7659
  73   2.0000     -10.317476      -280.7528
  74   2.0000     -10.317138      -280.7436
  75   2.0000     -10.316775      -280.7337
  76   2.0000     -10.315773      -280.7065
  77   2.0000     -10.314895      -280.6826
  78   2.0000     -10.314730      -280.6781
  79   2.0000     -10.313722      -280.6506
  80   2.0000     -10.313425      -280.6426
  81   2.0000     -10.313124      -280.6344
  82   2.0000     -10.312584      -280.6197
  83   2.0000     -10.310048      -280.5507
  84   2.0000     -10.308077      -280.4970
  85   2.0000      -9.560607      -260.1573
  86   2.0000      -9.559777      -260.1348
  87   2.0000      -9.559264      -260.1208
  88   2.0000      -9.558490      -260.0997
  89   2.0000      -8.162668      -222.1175
  90   2.0000      -8.101345      -220.4488
  91   2.0000      -8.099517      -220.3991
  92   2.0000      -8.094881      -220.2729
  93   2.0000      -8.093270      -220.2291
  94   2.0000      -7.331006      -199.4868
  95   2.0000      -7.330177      -199.4642
  96   2.0000      -7.329693      -199.4511
  97   2.0000      -7.328908      -199.4297
  98   2.0000      -7.320863      -199.2108
  99   2.0000      -7.320117      -199.1905
 100   2.0000      -7.320034      -199.1882
 101   2.0000      -7.319520      -199.1743
 102   2.0000      -7.319279      -199.1677
 103   2.0000      -7.318747      -199.1532
 104   2.0000      -7.318731      -199.1528
 105   2.0000      -7.317999      -199.1329
 106   2.0000      -6.133716      -166.9069
 107   2.0000      -6.125909      -166.6945
 108   2.0000      -6.125569      -166.6852
 109   2.0000      -6.070475      -165.1860
 110   2.0000      -6.068608      -165.1352
 111   2.0000      -6.066350      -165.0738
 112   2.0000      -6.064454      -165.0222
 113   2.0000      -6.064296      -165.0179
 114   2.0000      -6.063829      -165.0052
 115   2.0000      -6.062856      -164.9787
 116   2.0000      -6.062095      -164.9580
 117   2.0000      -6.059711      -164.8931
 118   2.0000      -6.058004      -164.8467
 119   2.0000      -6.057280      -164.8270
 120   2.0000      -6.055712      -164.7843
 121   2.0000      -1.169093       -31.8126
 122   2.0000      -1.146958       -31.2103
 123   2.0000      -1.145838       -31.1798
 124   2.0000      -1.145742       -31.1772
 125   2.0000      -1.073294       -29.2058
 126   2.0000      -1.059225       -28.8230
 127   2.0000      -1.057402       -28.7734
 128   2.0000      -1.039002       -28.2727
 129   2.0000      -1.037461       -28.2307
 130   2.0000      -1.033012       -28.1097
 131   2.0000      -1.031851       -28.0781
 132   2.0000      -1.030629       -28.0448
 133   2.0000      -1.028506       -27.9871
 134   2.0000      -1.025225       -27.8978
 135   2.0000      -1.023749       -27.8576
 136   2.0000      -1.018212       -27.7070
 137   2.0000      -1.016838       -27.6696
 138   2.0000      -1.015983       -27.6463
 139   2.0000      -1.014772       -27.6134
 140   2.0000      -1.008667       -27.4472
 141   2.0000      -1.004855       -27.3435
 142   2.0000      -1.003098       -27.2957
 143   2.0000      -1.000453       -27.2237
 144   2.0000      -0.998835       -27.1797
 145   2.0000      -0.995450       -27.0876
 146   2.0000      -0.972466       -26.4622
 147   2.0000      -0.968095       -26.3432
 148   2.0000      -0.967614       -26.3301
 149   2.0000      -0.966671       -26.3044
 150   2.0000      -0.944409       -25.6987
 151   2.0000      -0.943410       -25.6715
 152   2.0000      -0.935174       -25.4474
 153   2.0000      -0.932385       -25.3715
 154   2.0000      -0.927807       -25.2469
 155   2.0000      -0.916934       -24.9511
 156   2.0000      -0.908506       -24.7217
 157   2.0000      -0.901175       -24.5222
 158   2.0000      -0.886836       -24.1320
 159   2.0000      -0.884987       -24.0817
 160   2.0000      -0.876903       -23.8617
 161   2.0000      -0.871395       -23.7119
 162   2.0000      -0.868531       -23.6339
 163   2.0000      -0.868221       -23.6255
 164   2.0000      -0.867501       -23.6059
 165   2.0000      -0.866156       -23.5693
 166   2.0000      -0.857682       -23.3387
 167   2.0000      -0.829842       -22.5812
 168   2.0000      -0.827641       -22.5213
 169   2.0000      -0.810894       -22.0656
 170   2.0000      -0.802651       -21.8412
 171   2.0000      -0.790397       -21.5078
 172   2.0000      -0.786283       -21.3958
 173   2.0000      -0.780199       -21.2303
 174   2.0000      -0.775173       -21.0935
 175   2.0000      -0.769761       -20.9463
 176   2.0000      -0.763059       -20.7639
 177   2.0000      -0.749870       -20.4050
 178   2.0000      -0.736871       -20.0513
 179   2.0000      -0.730777       -19.8855
 180   2.0000      -0.724857       -19.7244
 181   2.0000      -0.718914       -19.5626
 182   2.0000      -0.712162       -19.3789
 183   2.0000      -0.710983       -19.3468
 184   2.0000      -0.705081       -19.1862
 185   2.0000      -0.703524       -19.1439
 186   2.0000      -0.698854       -19.0168
 187   2.0000      -0.696633       -18.9564
 188   2.0000      -0.690644       -18.7934
 189   2.0000      -0.687495       -18.7077
 190   2.0000      -0.683551       -18.6004
 191   2.0000      -0.678433       -18.4611
 192   2.0000      -0.667581       -18.1658
 193   2.0000      -0.662215       -18.0198
 194   2.0000      -0.652766       -17.7627
 195   2.0000      -0.648285       -17.6407
 196   2.0000      -0.645537       -17.5660
 197   2.0000      -0.642829       -17.4923
 198   2.0000      -0.633865       -17.2483
 199   2.0000      -0.629603       -17.1324
 200   2.0000      -0.629379       -17.1263
 201   2.0000      -0.626291       -17.0422
 202   2.0000      -0.625085       -17.0094
 203   2.0000      -0.618984       -16.8434
 204   2.0000      -0.610254       -16.6059
 205   2.0000      -0.605509       -16.4767
 206   2.0000      -0.604032       -16.4366
 207   2.0000      -0.595941       -16.2164
 208   2.0000      -0.594585       -16.1795
 209   2.0000      -0.590383       -16.0651
 210   2.0000      -0.582167       -15.8416
 211   2.0000      -0.575596       -15.6628
 212   2.0000      -0.572700       -15.5840
 213   2.0000      -0.569292       -15.4912
 214   2.0000      -0.564514       -15.3612
 215   2.0000      -0.561534       -15.2801
 216   2.0000      -0.560081       -15.2406
 217   2.0000      -0.556874       -15.1533
 218   2.0000      -0.555848       -15.1254
 219   2.0000      -0.554245       -15.0818
 220   2.0000      -0.552462       -15.0333
 221   2.0000      -0.551860       -15.0169
 222   2.0000      -0.545061       -14.8319
 223   2.0000      -0.543021       -14.7763
 224   2.0000      -0.540791       -14.7157
 225   2.0000      -0.536055       -14.5868
 226   2.0000      -0.530337       -14.4312
 227   2.0000      -0.528656       -14.3855
 228   2.0000      -0.521581       -14.1929
 229   2.0000      -0.521278       -14.1847
 230   2.0000      -0.519026       -14.1234
 231   2.0000      -0.517875       -14.0921
 232   2.0000      -0.516339       -14.0503
 233   2.0000      -0.515609       -14.0304
 234   2.0000      -0.514763       -14.0074
 235   2.0000      -0.511443       -13.9171
 236   2.0000      -0.510436       -13.8897
 237   2.0000      -0.509001       -13.8506
 238   2.0000      -0.507530       -13.8106
 239   2.0000      -0.505075       -13.7438
 240   2.0000      -0.503651       -13.7050
 241   2.0000      -0.501892       -13.6572
 242   2.0000      -0.500032       -13.6066
 243   2.0000      -0.494277       -13.4500
 244   2.0000      -0.491366       -13.3707
 245   2.0000      -0.490163       -13.3380
 246   2.0000      -0.488468       -13.2919
 247   2.0000      -0.486647       -13.2423
 248   2.0000      -0.483187       -13.1482
 249   2.0000      -0.482714       -13.1353
 250   2.0000      -0.475097       -12.9281
 251   2.0000      -0.474004       -12.8983
 252   2.0000      -0.473192       -12.8762
 253   2.0000      -0.471628       -12.8337
 254   2.0000      -0.470334       -12.7984
 255   2.0000      -0.469440       -12.7741
 256   2.0000      -0.468105       -12.7378
 257   2.0000      -0.466713       -12.6999
 258   2.0000      -0.463970       -12.6253
 259   2.0000      -0.463128       -12.6024
 260   2.0000      -0.461368       -12.5545
 261   2.0000      -0.460682       -12.5358
 262   2.0000      -0.459294       -12.4980
 263   2.0000      -0.457446       -12.4477
 264   2.0000      -0.457131       -12.4392
 265   2.0000      -0.451877       -12.2962
 266   2.0000      -0.451431       -12.2841
 267   2.0000      -0.448866       -12.2143
 268   2.0000      -0.448273       -12.1981
 269   2.0000      -0.448074       -12.1927
 270   2.0000      -0.447457       -12.1759
 271   2.0000      -0.446178       -12.1411
 272   2.0000      -0.444312       -12.0903
 273   2.0000      -0.443916       -12.0796
 274   2.0000      -0.441953       -12.0261
 275   2.0000      -0.439700       -11.9648
 276   2.0000      -0.437617       -11.9082
 277   2.0000      -0.437284       -11.8991
 278   2.0000      -0.437041       -11.8925
 279   2.0000      -0.436460       -11.8767
 280   2.0000      -0.435371       -11.8470
 281   2.0000      -0.434382       -11.8201
 282   2.0000      -0.434049       -11.8111
 283   2.0000      -0.433512       -11.7965
 284   2.0000      -0.429689       -11.6924
 285   2.0000      -0.428742       -11.6667
 286   2.0000      -0.425867       -11.5884
 287   2.0000      -0.420346       -11.4382
 288   2.0000      -0.419927       -11.4268
 289   2.0000      -0.416402       -11.3309
 290   2.0000      -0.414608       -11.2820
 291   2.0000      -0.413420       -11.2497
 292   2.0000      -0.411146       -11.1879
 293   2.0000      -0.410957       -11.1827
 294   2.0000      -0.397331       -10.8119
 295   2.0000      -0.392566       -10.6823
 296   2.0000      -0.387115       -10.5339
 297   2.0000      -0.386072       -10.5055
 298   2.0000      -0.385619       -10.4932
 299   2.0000      -0.374739       -10.1972
 300   2.0000      -0.371712       -10.1148
 301   2.0000      -0.369299       -10.0491
 302   2.0000      -0.362589        -9.8665
 303   2.0000      -0.359822        -9.7912
 304   2.0000      -0.356812        -9.7094
 305   2.0000      -0.352034        -9.5793
 306   2.0000      -0.349809        -9.5188
 307   2.0000      -0.346132        -9.4187
 308   2.0000      -0.341453        -9.2914
 309   2.0000      -0.333095        -9.0640
 310   2.0000      -0.332142        -9.0380
 311   2.0000      -0.321291        -8.7428
 312   2.0000      -0.318457        -8.6657
 313   2.0000      -0.314182        -8.5493
 314   2.0000      -0.288901        -7.8614
 315   2.0000      -0.256948        -6.9919
 316   0.0000      -0.153600        -4.1797
 317   0.0000      -0.118709        -3.2302
 318   0.0000      -0.113738        -3.0950
 319   0.0000      -0.097642        -2.6570
 320   0.0000      -0.096136        -2.6160

MULLIKEN ATOMIC CHARGES
-----------------------
   0 C :    0.263391
   1 C :   -0.323310
   2 C :   -0.174929
   3 N :    0.172387
   4 C :   -0.199966
   5 N :    0.171616
   6 C :    0.010962
   7 C :    0.004738
   8 C :   -0.029533
   9 C :    0.059842
  10 C :    0.050389
  11 C :   -0.010379
  12 Cl:   -0.030693
  13 Cl:   -0.039200
  14 C :    0.134873
  15 O :   -0.134727
  16 C :   -0.133018
  17 C :    0.084060
  18 C :   -0.110143
  19 C :   -0.004902
  20 C :   -0.003134
  21 C :   -0.076410
  22 S :    0.219368
  23 C :   -0.072117
  24 C :    0.046273
  25 C :    0.306664
  26 C :   -0.280977
  27 C :   -0.192632
  28 N :    0.189713
  29 C :   -0.181854
  30 N :    0.168720
  31 C :   -0.051415
  32 C :   -0.181658
  33 S :    0.218971
  34 C :    0.197409
  35 C :   -0.064722
  36 C :   -0.051016
  37 N :   -0.017909
  38 C :   -0.089105
  39 C :   -0.116095
  40 N :    0.051380
  41 C :   -0.220414
  42 N :    0.259025
  43 C :   -0.238223
  44 N :    0.259792
  45 C :    0.176976
  46 C :    0.003317
  47 C :   -0.022146
  48 N :   -0.333397
  49 S :    0.589396
  50 N :   -0.279321
  51 C :   -0.169773
  52 C :   -0.063016
  53 C :    0.042641
  54 C :   -0.064588
  55 S :    0.220391
  56 C :   -0.089698
  57 C :   -0.017700
  58 C :    0.309731
  59 C :   -0.294613
  60 C :   -0.189217
  61 N :    0.186516
  62 C :   -0.188334
  63 N :    0.172344
  64 C :    0.032257
  65 C :   -0.111978
  66 S :    0.220981
  67 C :    0.029258
  68 C :   -0.096793
  69 C :    0.291888
  70 C :   -0.330270
  71 C :   -0.185516
  72 N :    0.161826
  73 C :   -0.206579
  74 N :    0.164317
  75 C :    0.032956
  76 C :   -0.017612
  77 C :    0.155754
  78 O :   -0.143040
  79 C :   -0.028536
  80 C :    0.061111
  81 C :    0.049555
  82 C :   -0.014658
  83 Cl:   -0.032447
  84 Cl:   -0.038585
  85 H :    0.001566
  86 H :    0.010519
  87 H :    0.023407
  88 H :    0.026534
  89 H :    0.024196
  90 H :    0.023229
  91 H :    0.032500
  92 H :    0.026848
  93 H :    0.003714
  94 H :    0.002999
Sum of atomic charges:   -0.0000000

LOEWDIN ATOMIC CHARGES
----------------------
   0 C :    0.063547
   1 C :   -0.129396
   2 C :   -0.021726
   3 N :   -0.034952
   4 C :   -0.015104
   5 N :   -0.041181
   6 C :   -0.010299
   7 C :   -0.047145
   8 C :    0.002536
   9 C :   -0.134613
  10 C :   -0.128277
  11 C :   -0.011445
  12 Cl:    0.167817
  13 Cl:    0.161930
  14 C :    0.083863
  15 O :   -0.135110
  16 C :   -0.089667
  17 C :    0.042699
  18 C :   -0.177762
  19 C :    0.008151
  20 C :   -0.058211
  21 C :   -0.161167
  22 S :    0.501980
  23 C :   -0.179367
  24 C :   -0.061641
  25 C :    0.078693
  26 C :   -0.093061
  27 C :   -0.019260
  28 N :   -0.018394
  29 C :   -0.012439
  30 N :   -0.030699
  31 C :   -0.005141
  32 C :   -0.160001
  33 S :    0.518975
  34 C :   -0.038138
  35 C :   -0.003741
  36 C :   -0.011607
  37 N :   -0.020003
  38 C :   -0.015415
  39 C :   -0.016934
  40 N :    0.011164
  41 C :   -0.041465
  42 N :    0.017910
  43 C :   -0.039908
  44 N :    0.009111
  45 C :   -0.036953
  46 C :   -0.036332
  47 C :   -0.045301
  48 N :   -0.301941
  49 S :    0.705701
  50 N :   -0.266626
  51 C :   -0.160503
  52 C :   -0.008067
  53 C :   -0.061362
  54 C :   -0.183803
  55 S :    0.518495
  56 C :   -0.160472
  57 C :   -0.067973
  58 C :    0.076005
  59 C :   -0.094705
  60 C :   -0.020574
  61 N :   -0.018945
  62 C :   -0.014838
  63 N :   -0.032013
  64 C :    0.022974
  65 C :   -0.174674
  66 S :    0.503319
  67 C :    0.043772
  68 C :   -0.094318
  69 C :    0.072806
  70 C :   -0.132829
  71 C :   -0.020727
  72 N :   -0.042165
  73 C :   -0.025374
  74 N :   -0.044666
  75 C :   -0.014057
  76 C :   -0.043445
  77 C :    0.085077
  78 O :   -0.130903
  79 C :    0.002748
  80 C :   -0.133594
  81 C :   -0.129640
  82 C :   -0.011977
  83 Cl:    0.165199
  84 Cl:    0.162574
  85 H :    0.046797
  86 H :    0.046755
  87 H :    0.047067
  88 H :    0.042917
  89 H :    0.039163
  90 H :    0.039012
  91 H :    0.045496
  92 H :    0.045296
  93 H :    0.047463
  94 H :    0.045033

  Mayer bond orders larger than 0.100000
B(  0-C ,  1-C ) :   1.6603 B(  0-C ,  6-C ) :   1.0025 B(  0-C , 16-C ) :   1.0357
B(  1-C ,  2-C ) :   1.1231 B(  1-C ,  4-C ) :   1.1725 B(  2-C ,  3-N ) :   2.9970
B(  4-C ,  5-N ) :   2.9967 B(  6-C ,  7-C ) :   1.3300 B(  6-C , 11-C ) :   1.3487
B(  7-C ,  8-C ) :   1.3441 B(  7-C , 14-C ) :   0.9232 B(  8-C ,  9-C ) :   1.3458
B(  8-C , 85-H ) :   1.0173 B(  9-C , 10-C ) :   1.4039 B(  9-C , 13-Cl) :   1.0503
B( 10-C , 11-C ) :   1.3574 B( 10-C , 12-Cl) :   1.0756 B( 11-C , 86-H ) :   0.9898
B( 14-C , 15-O ) :   2.2709 B( 14-C , 16-C ) :   0.9435 B( 16-C , 17-C ) :   1.6727
B( 17-C , 18-C ) :   1.1376 B( 17-C , 87-H ) :   0.9281 B( 18-C , 19-C ) :   1.3881
B( 18-C , 22-S ) :   1.0938 B( 19-C , 20-C ) :   1.3653 B( 19-C , 88-H ) :   0.9791
B( 20-C , 21-C ) :   1.3995 B( 20-C , 25-C ) :   0.9956 B( 21-C , 22-S ) :   1.1480
B( 21-C , 23-C ) :   1.2089 B( 23-C , 24-C ) :   1.3880 B( 23-C , 33-S ) :   1.1046
B( 24-C , 25-C ) :   0.9927 B( 24-C , 31-C ) :   1.2899 B( 25-C , 26-C ) :   1.7218
B( 26-C , 27-C ) :   1.1343 B( 26-C , 29-C ) :   1.1314 B( 27-C , 28-N ) :   2.9912
B( 29-C , 30-N ) :   2.9802 B( 31-C , 32-C ) :   1.3974 B( 31-C , 89-H ) :   0.9854
B( 32-C , 33-S ) :   1.1012 B( 32-C , 34-C ) :   1.1972 B( 34-C , 35-C ) :   1.2537
B( 34-C , 45-C ) :   0.1240 B( 34-C , 47-C ) :   1.1935 B( 35-C , 36-C ) :   1.1092
B( 35-C , 40-N ) :   1.4505 B( 36-C , 37-N ) :   1.3959 B( 36-C , 45-C ) :   1.2497
B( 37-N , 38-C ) :   1.6926 B( 38-C , 39-C ) :   1.2115 B( 38-C , 43-C ) :   1.1618
B( 39-C , 40-N ) :   1.7270 B( 39-C , 41-C ) :   1.1590 B( 41-C , 42-N ) :   3.0298
B( 43-C , 44-N ) :   3.0420 B( 45-C , 46-C ) :   1.2027 B( 45-C , 51-C ) :   1.2110
B( 46-C , 47-C ) :   1.1106 B( 46-C , 50-N ) :   1.5094 B( 47-C , 48-N ) :   1.4715
B( 48-N , 49-S ) :   1.2764 B( 48-N , 50-N ) :   0.1491 B( 49-S , 50-N ) :   1.2944
B( 51-C , 52-C ) :   1.4031 B( 51-C , 55-S ) :   1.0950 B( 52-C , 53-C ) :   1.2898
B( 52-C , 90-H ) :   0.9828 B( 53-C , 54-C ) :   1.3926 B( 53-C , 58-C ) :   0.9906
B( 54-C , 55-S ) :   1.0813 B( 54-C , 56-C ) :   1.2182 B( 56-C , 57-C ) :   1.3706
B( 56-C , 66-S ) :   1.1641 B( 57-C , 58-C ) :   0.9927 B( 57-C , 64-C ) :   1.3455
B( 58-C , 59-C ) :   1.7162 B( 59-C , 60-C ) :   1.1316 B( 59-C , 62-C ) :   1.1417
B( 60-C , 61-N ) :   2.9942 B( 62-C , 63-N ) :   2.9831 B( 64-C , 65-C ) :   1.3984
B( 64-C , 91-H ) :   0.9751 B( 65-C , 66-S ) :   1.0795 B( 65-C , 67-C ) :   1.1959
B( 67-C , 68-C ) :   1.6015 B( 67-C , 92-H ) :   0.9279 B( 68-C , 69-C ) :   1.0720
B( 68-C , 77-C ) :   0.9450 B( 69-C , 70-C ) :   1.6507 B( 69-C , 75-C ) :   0.9954
B( 70-C , 71-C ) :   1.1362 B( 70-C , 73-C ) :   1.1381 B( 71-C , 72-N ) :   2.9780
B( 73-C , 74-N ) :   2.9968 B( 75-C , 76-C ) :   1.3287 B( 75-C , 82-C ) :   1.3407
B( 76-C , 77-C ) :   0.9454 B( 76-C , 79-C ) :   1.3445 B( 77-C , 78-O ) :   2.2042
B( 79-C , 80-C ) :   1.3414 B( 79-C , 93-H ) :   1.0171 B( 80-C , 81-C ) :   1.4041
B( 80-C , 84-Cl) :   1.0513 B( 81-C , 82-C ) :   1.3588 B( 81-C , 83-Cl) :   1.0774
B( 82-C , 94-H ) :   0.9877

-----------------------------------------------------------------------------
         ABSORPTION SPECTRUM VIA TRANSITION ELECTRIC DIPOLE MOMENTS
-----------------------------------------------------------------------------
State   Energy  Wavelength   fosc         T2         TX        TY        TZ
        (cm-1)    (nm)                  (au**2)     (au)      (au)      (au)
-----------------------------------------------------------------------------
   0    7828.3   1277.4   0.879299208  36.97806  -3.60243  -4.78715   1.04106
   1   13940.7    717.3   0.011823218   0.27921  -0.34964  -0.30647   0.25107
   2   14492.3    690.0   0.081480700   1.85094  -0.75276  -1.04965   0.42724
   3   16278.7    614.3   0.000973382   0.01969  -0.00073   0.10127   0.09710
   4   20038.2    499.0   0.747620404  12.28279  -2.38325  -2.40063   0.91644
   5   21122.3    473.4   0.644996680  10.05293   1.52543   2.63840  -0.87455
   6   22124.7    452.0   0.164713291   2.45091   0.86715   1.16842  -0.57770
   7   23385.9    427.6   0.021226820   0.29882   0.31737   0.24112   0.37411
   8   23473.8    426.0   0.015534896   0.21787   0.11033   0.44356   0.09460
   9   23792.0    420.3   0.099443925   1.37601   0.20613  -0.81060   0.82246
  10   24562.3    407.1   0.003295686   0.04417  -0.06953   0.07732  -0.18265
  11   24801.1    403.2   0.010439430   0.13857   0.31863  -0.08753   0.17143
  12   25277.8    395.6   0.003685566   0.04800   0.02884  -0.12599  -0.17690
  13   25338.6    394.7   0.034127924   0.44341   0.38612  -0.17427   0.51376
  14   25732.2    388.6   0.009758935   0.12485  -0.01946  -0.35168   0.02826
  15   25910.0    386.0   0.008766695   0.11139  -0.17932   0.28086  -0.01878
  16   26592.5    376.0   0.158975612   1.96810  -1.27645  -0.56710   0.13107
  17   27222.4    367.3   0.276179506   3.33995  -0.83964  -1.51297   0.58810
  18   27637.7    361.8   0.020743605   0.24709  -0.32814  -0.17141  -0.33172
  19   29051.2    344.2   0.021249791   0.24081   0.26511   0.20064  -0.36093
  20   29242.7    342.0   0.062881561   0.70791   0.03422  -0.49311   0.68087
  21   29502.5    339.0   0.026807155   0.29913  -0.38291   0.23902   0.30885
  22   29546.7    338.4   0.024500919   0.27299  -0.46067  -0.23130  -0.08532
  23   29602.9    337.8   0.031504997   0.35037   0.05942  -0.07980  -0.58349
  24   30152.3    331.6   0.159811363   1.74487   0.09322  -0.63272   1.15579
  25   30391.3    329.0   0.037422723   0.40538   0.48016   0.38998  -0.15080
  26   30656.3    326.2   0.065577360   0.70422  -0.07961   0.42268  -0.72057
  27   30833.1    324.3   0.135787724   1.44984  -0.64219  -0.95750  -0.34729
  28   30858.8    324.1   0.399441784   4.26138   0.79103   1.85865  -0.42552
  29   31106.3    321.5   0.058896264   0.62333  -0.69587  -0.02067  -0.37237
  30   31674.7    315.7   0.146190126   1.51943  -0.62236  -0.11808  -1.05743
  31   31710.3    315.4   0.494145186   5.13014   1.75370   0.36403   1.38642
  32   31976.9    312.7   0.332232724   3.42044   0.59149   0.61683   1.64015
  33   32277.3    309.8   0.147843669   1.50793   0.58388   1.05087  -0.25039
  34   32316.1    309.4   0.109071650   1.11114   0.47257   0.44839   0.82871
  35   32597.9    306.8   0.251765878   2.54263  -1.00517  -0.27998  -1.20577
  36   32743.0    305.4   0.186009347   1.87022   0.24532   0.98275  -0.91883
  37   32894.6    304.0   0.126952819   1.27056  -1.01641  -0.12292  -0.47154
  38   33157.2    301.6   0.053524018   0.53143   0.05254   0.69959   0.19810
  39   33341.2    299.9   0.045553607   0.44980   0.12700  -0.53455   0.38460
  40   33646.8    297.2   0.037769798   0.36955   0.16435   0.06005  -0.58218
  41   33885.6    295.1   0.010845330   0.10537  -0.19185  -0.15171  -0.21341
  42   33943.8    294.6   0.051492654   0.49941   0.52256  -0.06824   0.47084
  43   34115.9    293.1   0.132357869   1.27723  -0.12414   0.90054  -0.67144
  44   34517.3    289.7   0.121653971   1.16029  -0.81591  -0.68307   0.16731
  45   34693.7    288.2   0.349182899   3.31343   0.43111  -0.40004   1.72266
  46   34868.8    286.8   0.031117659   0.29380  -0.21496   0.07631  -0.49170
  47   35085.9    285.0   0.090898292   0.85290  -0.86931   0.19025   0.24698
  48   35474.2    281.9   0.239247060   2.22029   1.43144  -0.36114   0.20214
  49   35704.3    280.1   0.221418230   2.04159   0.61152   1.22286  -0.41502
  50   35730.7    279.9   0.341370691   3.14529  -1.04432   0.89447  -1.12009
  51   35862.8    278.8   0.200713777   1.84251  -0.14944  -1.33993   0.15737
  52   36067.3    277.3   0.128707827   1.17481  -0.38745   0.43346  -0.91477
  53   36244.4    275.9   0.126128119   1.14563  -0.64809  -0.78425  -0.33250
  54   36577.7    273.4   0.075759366   0.68186  -0.32227  -0.73235   0.20413
  55   36912.3    270.9   0.048995060   0.43697   0.41468   0.38629  -0.34029
  56   37085.7    269.6   0.023634210   0.20980   0.17393  -0.39965   0.14081
  57   37204.0    268.8   0.021722017   0.19221   0.09410   0.38253  -0.19244
  58   37337.5    267.8   0.026655620   0.23503   0.25188  -0.19699   0.36439
  59   37407.9    267.3   0.165597457   1.45736  -0.11478   0.86035  -0.83903
  60   37662.4    265.5   0.080825310   0.70650   0.43138  -0.51464   0.50553
  61   37972.4    263.3   0.194887018   1.68962   0.72559  -0.34054   1.02331
  62   38187.8    261.9   0.004930410   0.04250   0.09707  -0.09835  -0.15300
  63   38343.5    260.8   0.010371373   0.08905   0.28500   0.06103   0.06401
  64   38446.5    260.1   0.095492194   0.81769   0.29721  -0.58752   0.61982
  65   38594.4    259.1   0.002690268   0.02295  -0.12300  -0.00505   0.08828
  66   38644.8    258.8   0.009813576   0.08360   0.17034   0.22990  -0.04162
  67   39111.4    255.7   0.020251844   0.17047   0.10057  -0.09711   0.38849
  68   39163.4    255.3   0.029808566   0.25057  -0.42196  -0.26713   0.03406
  69   39438.1    253.6   0.011051883   0.09226   0.13464  -0.25297   0.10068
  70   39555.9    252.8   0.029750823   0.24761  -0.31327  -0.01160  -0.38644
  71   39704.3    251.9   0.073856564   0.61239  -0.23238  -0.55533   0.50000
  72   39887.6    250.7   0.051466129   0.42477  -0.25055   0.43616  -0.41444
  73   40021.8    249.9   0.050360663   0.41426   0.47225   0.31572   0.30259
  74   40229.6    248.6   0.004042141   0.03308  -0.00854   0.10359   0.14925

FINAL SINGLE POINT ENERGY     -7035.669710252932

DIPOLE MOMENT
-------------
                                X             Y             Z
Electronic contribution:     -4.40556       5.08299       3.00822
Nuclear contribution   :      2.39329      -2.48743      -5.83372
                        -----------------------------------------
Total Dipole Moment    :     -2.01227       2.59556      -2.82550
                        -----------------------------------------
Magnitude (a.u.)       :      4.33239
Magnitude (Debye)      :     11.01206

Rotational constants in cm-1:     0.002183     0.000128     0.000123
Rotational constants in MHz :    65.452716     3.840542     3.691141

                             ****ORCA TERMINATED NORMALLY****
TOTAL RUN TIME: 0 days 0 hours 11 minutes 23 seconds 55 msec
