                         Program Version 4.2.0 -  RELEASE  -
|  1> # ORCA input file
|  2> # SCF done       -187.925140575008          0.000525814822
|  3> ! CAM-B3LYP def2-SVP def2/J RIJCOSX Grid4 TightSCF
|  4> %maxcore 5000
|  5> %tddft
|  6>     Mode sTDDFT
|  7>     Ethresh 5.0
|  8>     maxcore 5000
|  9> end
| 10>
| 11> %pal
| 12>   nprocs 6
| 13>   end
| 14> * xyz 0 1
| 15>    C       -1.98066        -9.52966        -1.74369
| 16>    C       -1.87267       -10.71349        -2.42407
| 17>    C       -2.62158       -11.87914        -2.17984
| 18>    N       -3.19911       -12.85990        -2.03169
| 19>    C       -0.93883       -10.82916        -3.47630
| 20>    N       -0.18189       -10.92951        -4.33149
| 21>    N       -2.81398        -9.23341        -0.71318
| 22>    C       -3.76226       -10.16096        -0.14398
| 23>    C       -2.71871        -7.94640        -0.19930
| 24>    O       -3.39658        -7.54297         0.71633
| 25>    C       -1.69941        -7.18664        -0.92190
| 26>    S       -0.96653        -8.16140        -2.17161
| 27>    C       -1.41025        -5.89712        -0.60886
| 28>    C       -0.46080        -5.05045        -1.21119
| 29>    C       -0.20698        -3.73249        -0.84242
| 30>    C        0.78623        -3.15428        -1.61976
| 31>    C        1.30132        -4.03573        -2.59642
| 32>    S        0.55986        -5.56927        -2.55039
| 33>    C        2.30000        -3.36407        -3.33738
| 34>    C        2.42057        -2.05106        -2.82917
| 35>    C        1.47539        -1.87869        -1.73765
| 36>    C        1.27568        -0.75806        -0.98710
| 37>    C        2.01085         0.42715        -1.20318
| 38>    N        2.60813         1.38942        -1.37971
| 39>    C        0.32149        -0.70949         0.05149
| 40>    N       -0.45295        -0.66807         0.89561
| 41>    C        3.38063        -1.30286        -3.49672
| 42>    C        3.98646        -2.03932        -4.50827
| 43>    S        3.36521        -3.67945        -4.63620
| 44>    C        4.98616        -1.63179        -5.40646
| 45>    C        5.52360        -2.43969        -6.41461
| 46>    C        6.51305        -1.77153        -7.20676
| 47>    N        7.12759        -2.38994        -8.21393
| 48>    C        6.78294        -3.64038        -8.44208
| 49>    C        7.46862        -4.33476        -9.56110
| 50>    O        8.30605        -3.79141       -10.24968
| 51>    C        7.05639        -5.73309        -9.77264
| 52>    C        6.13197        -6.35567        -9.03373
| 53>    C        5.41338        -5.71805        -7.91732
| 54>    O        4.57472        -6.29984        -7.26310
| 55>    C        5.79340        -4.30743        -7.65076
| 56>    N        5.17936        -3.70383        -6.65477
| 57>    C        6.73850        -0.45010        -6.80308
| 58>    S        5.72262        -0.05648        -5.44655
| 59>    C        7.64212         0.43248        -7.41662
| 60>    C        7.94235         1.74321        -7.06311
| 61>    C        8.87664         2.29975        -7.92562
| 62>    C        9.28460         1.40676        -8.94267
| 63>    S        8.53045        -0.12167        -8.82978
| 64>    C       10.21377         2.06860        -9.77929
| 65>    C       10.39716         3.38245        -9.28695
| 66>    C        9.56967         3.56482        -8.10512
| 67>    C        9.46779         4.68159        -7.32901
| 68>    C       10.20019         5.85500        -7.60694
| 69>    N       10.79572         6.80782        -7.83461
| 70>    C        8.62611         4.73171        -6.19757
| 71>    N        7.94265         4.76982        -5.27787
| 72>    C       11.28337         4.11346       -10.05666
| 73>    C       11.77998         3.37905       -11.13801
| 74>    S       11.12779         1.74402       -11.17993
| 75>    C       12.68378         3.93057       -12.06494
| 76>    C       13.24988         3.37913       -13.17625
| 77>    C       13.07302         2.04157       -13.70531
| 78>    O       12.38027         1.15895       -13.23233
| 79>    N       13.81149         1.86626       -14.86179
| 80>    C       14.54092         2.93803       -15.27773
| 81>    C       15.34382         3.02467       -16.38490
| 82>    C       15.57372         2.00243       -17.32326
| 83>    N       15.80185         1.21076       -18.12264
| 84>    C       16.02466         4.23065       -16.65744
| 85>    N       16.57983         5.20773       -16.88459
| 86>    S       14.34675         4.29681       -14.19415
| 87>    C       13.77351         0.59759       -15.54989
| 88>    H       -3.25320       -11.03474         0.26343
| 89>    H       -4.48605       -10.48387        -0.89259
| 90>    H       -4.27615        -9.62929         0.65746
| 91>    H       -1.98583        -5.47596         0.20728
| 92>    H       -0.73505        -3.24438        -0.04340
| 93>    H        3.64357        -0.28200        -3.28448
| 94>    H        7.56048        -6.23872       -10.58518
| 95>    H        5.85818        -7.38457        -9.22425
| 96>    H        7.48902         2.23654        -6.22194
| 97>    H       11.57153         5.13271        -9.87107
| 98>    H       12.95898         4.95788       -11.85406
| 99>    H       13.11049        -0.05125       -14.97697
|100>    H       14.76829         0.15431       -15.59835
|101>    H       13.38479         0.71763       -16.56129
|102> *
|103>
|104>                          ****END OF INPUT****

CARTESIAN COORDINATES (ANGSTROEM)
---------------------------------
  C     -1.980660   -9.529660   -1.743690
  C     -1.872670  -10.713490   -2.424070
  C     -2.621580  -11.879140   -2.179840
  N     -3.199110  -12.859900   -2.031690
  C     -0.938830  -10.829160   -3.476300
  N     -0.181890  -10.929510   -4.331490
  N     -2.813980   -9.233410   -0.713180
  C     -3.762260  -10.160960   -0.143980
  C     -2.718710   -7.946400   -0.199300
  O     -3.396580   -7.542970    0.716330
  C     -1.699410   -7.186640   -0.921900
  S     -0.966530   -8.161400   -2.171610
  C     -1.410250   -5.897120   -0.608860
  C     -0.460800   -5.050450   -1.211190
  C     -0.206980   -3.732490   -0.842420
  C      0.786230   -3.154280   -1.619760
  C      1.301320   -4.035730   -2.596420
  S      0.559860   -5.569270   -2.550390
  C      2.300000   -3.364070   -3.337380
  C      2.420570   -2.051060   -2.829170
  C      1.475390   -1.878690   -1.737650
  C      1.275680   -0.758060   -0.987100
  C      2.010850    0.427150   -1.203180
  N      2.608130    1.389420   -1.379710
  C      0.321490   -0.709490    0.051490
  N     -0.452950   -0.668070    0.895610
  C      3.380630   -1.302860   -3.496720
  C      3.986460   -2.039320   -4.508270
  S      3.365210   -3.679450   -4.636200
  C      4.986160   -1.631790   -5.406460
  C      5.523600   -2.439690   -6.414610
  C      6.513050   -1.771530   -7.206760
  N      7.127590   -2.389940   -8.213930
  C      6.782940   -3.640380   -8.442080
  C      7.468620   -4.334760   -9.561100
  O      8.306050   -3.791410  -10.249680
  C      7.056390   -5.733090   -9.772640
  C      6.131970   -6.355670   -9.033730
  C      5.413380   -5.718050   -7.917320
  O      4.574720   -6.299840   -7.263100
  C      5.793400   -4.307430   -7.650760
  N      5.179360   -3.703830   -6.654770
  C      6.738500   -0.450100   -6.803080
  S      5.722620   -0.056480   -5.446550
  C      7.642120    0.432480   -7.416620
  C      7.942350    1.743210   -7.063110
  C      8.876640    2.299750   -7.925620
  C      9.284600    1.406760   -8.942670
  S      8.530450   -0.121670   -8.829780
  C     10.213770    2.068600   -9.779290
  C     10.397160    3.382450   -9.286950
  C      9.569670    3.564820   -8.105120
  C      9.467790    4.681590   -7.329010
  C     10.200190    5.855000   -7.606940
  N     10.795720    6.807820   -7.834610
  C      8.626110    4.731710   -6.197570
  N      7.942650    4.769820   -5.277870
  C     11.283370    4.113460  -10.056660
  C     11.779980    3.379050  -11.138010
  S     11.127790    1.744020  -11.179930
  C     12.683780    3.930570  -12.064940
  C     13.249880    3.379130  -13.176250
  C     13.073020    2.041570  -13.705310
  O     12.380270    1.158950  -13.232330
  N     13.811490    1.866260  -14.861790
  C     14.540920    2.938030  -15.277730
  C     15.343820    3.024670  -16.384900
  C     15.573720    2.002430  -17.323260
  N     15.801850    1.210760  -18.122640
  C     16.024660    4.230650  -16.657440
  N     16.579830    5.207730  -16.884590
  S     14.346750    4.296810  -14.194150
  C     13.773510    0.597590  -15.549890
  H     -3.253200  -11.034740    0.263430
  H     -4.486050  -10.483870   -0.892590
  H     -4.276150   -9.629290    0.657460
  H     -1.985830   -5.475960    0.207280
  H     -0.735050   -3.244380   -0.043400
  H      3.643570   -0.282000   -3.284480
  H      7.560480   -6.238720  -10.585180
  H      5.858180   -7.384570   -9.224250
  H      7.489020    2.236540   -6.221940
  H     11.571530    5.132710   -9.871070
  H     12.958980    4.957880  -11.854060
  H     13.110490   -0.051250  -14.976970
  H     14.768290    0.154310  -15.598350
  H     13.384790    0.717630  -16.561290

 Total Charge           Charge          ....    0
 Multiplicity           Mult            ....    1
 Number of Electrons    NEL             ....  542
 Basis Dimension        Dim             .... 1120

ORBITAL ENERGIES
----------------

  NO   OCC          E(Eh)            E(eV)
   0   2.0000     -89.017792     -2422.2973
   1   2.0000     -89.008217     -2422.0367
   2   2.0000     -89.000660     -2421.8311
   3   2.0000     -88.999023     -2421.7865
   4   2.0000     -88.998638     -2421.7761
   5   2.0000     -88.995601     -2421.6934
   6   2.0000     -88.992044     -2421.5966
   7   2.0000     -19.242701      -523.6205
   8   2.0000     -19.242557      -523.6166
   9   2.0000     -19.238577      -523.5083
  10   2.0000     -19.228566      -523.2359
  11   2.0000     -14.509260      -394.8170
  12   2.0000     -14.505621      -394.7180
  13   2.0000     -14.471393      -393.7866
  14   2.0000     -14.471236      -393.7824
  15   2.0000     -14.442363      -392.9967
  16   2.0000     -14.442132      -392.9904
  17   2.0000     -14.439888      -392.9293
  18   2.0000     -14.439709      -392.9245
  19   2.0000     -14.414043      -392.2260
  20   2.0000     -14.413963      -392.2239
  21   2.0000     -14.412261      -392.1776
  22   2.0000     -14.411649      -392.1609
  23   2.0000     -10.424353      -283.6611
  24   2.0000     -10.417041      -283.4621
  25   2.0000     -10.407268      -283.1962
  26   2.0000     -10.406456      -283.1741
  27   2.0000     -10.392466      -282.7934
  28   2.0000     -10.392147      -282.7847
  29   2.0000     -10.378261      -282.4069
  30   2.0000     -10.374403      -282.3018
  31   2.0000     -10.365629      -282.0631
  32   2.0000     -10.362834      -281.9871
  33   2.0000     -10.361704      -281.9563
  34   2.0000     -10.361423      -281.9487
  35   2.0000     -10.353622      -281.7364
  36   2.0000     -10.352992      -281.7192
  37   2.0000     -10.352290      -281.7001
  38   2.0000     -10.351545      -281.6799
  39   2.0000     -10.351227      -281.6712
  40   2.0000     -10.346421      -281.5404
  41   2.0000     -10.346370      -281.5390
  42   2.0000     -10.345444      -281.5139
  43   2.0000     -10.343712      -281.4667
  44   2.0000     -10.342664      -281.4382
  45   2.0000     -10.342285      -281.4279
  46   2.0000     -10.341974      -281.4194
  47   2.0000     -10.341639      -281.4103
  48   2.0000     -10.341400      -281.4038
  49   2.0000     -10.341095      -281.3955
  50   2.0000     -10.340954      -281.3917
  51   2.0000     -10.340126      -281.3691
  52   2.0000     -10.339912      -281.3633
  53   2.0000     -10.339624      -281.3555
  54   2.0000     -10.338530      -281.3257
  55   2.0000     -10.338038      -281.3123
  56   2.0000     -10.332311      -281.1565
  57   2.0000     -10.328386      -281.0497
  58   2.0000     -10.326106      -280.9876
  59   2.0000     -10.323620      -280.9200
  60   2.0000     -10.322931      -280.9012
  61   2.0000     -10.322922      -280.9010
  62   2.0000     -10.320434      -280.8333
  63   2.0000     -10.320200      -280.8269
  64   2.0000     -10.320123      -280.8248
  65   2.0000     -10.319938      -280.8198
  66   2.0000     -10.319336      -280.8034
  67   2.0000     -10.318763      -280.7878
  68   2.0000     -10.318638      -280.7844
  69   2.0000     -10.317802      -280.7617
  70   2.0000     -10.317486      -280.7531
  71   2.0000     -10.315197      -280.6908
  72   2.0000     -10.314373      -280.6684
  73   2.0000      -8.111756      -220.7321
  74   2.0000      -8.102681      -220.4852
  75   2.0000      -8.093833      -220.2444
  76   2.0000      -8.092422      -220.2060
  77   2.0000      -8.091395      -220.1780
  78   2.0000      -8.091382      -220.1777
  79   2.0000      -8.088201      -220.0911
  80   2.0000      -6.080893      -165.4695
  81   2.0000      -6.076769      -165.3573
  82   2.0000      -6.074351      -165.2915
  83   2.0000      -6.071890      -165.2245
  84   2.0000      -6.067656      -165.1093
  85   2.0000      -6.065122      -165.0404
  86   2.0000      -6.063268      -164.9899
  87   2.0000      -6.061801      -164.9500
  88   2.0000      -6.061335      -164.9373
  89   2.0000      -6.060713      -164.9204
  90   2.0000      -6.058723      -164.8662
  91   2.0000      -6.058125      -164.8500
  92   2.0000      -6.057306      -164.8277
  93   2.0000      -6.057232      -164.8257
  94   2.0000      -6.056129      -164.7956
  95   2.0000      -6.056107      -164.7950
  96   2.0000      -6.054731      -164.7576
  97   2.0000      -6.054211      -164.7434
  98   2.0000      -6.053939      -164.7361
  99   2.0000      -6.051734      -164.6761
 100   2.0000      -6.048390      -164.5851
 101   2.0000      -1.183884       -32.2151
 102   2.0000      -1.175760       -31.9941
 103   2.0000      -1.160663       -31.5833
 104   2.0000      -1.155635       -31.4464
 105   2.0000      -1.121952       -30.5299
 106   2.0000      -1.110442       -30.2167
 107   2.0000      -1.105993       -30.0956
 108   2.0000      -1.060011       -28.8444
 109   2.0000      -1.056205       -28.7408
 110   2.0000      -1.050023       -28.5726
 111   2.0000      -1.034793       -28.1582
 112   2.0000      -1.032386       -28.0927
 113   2.0000      -1.028628       -27.9904
 114   2.0000      -1.019848       -27.7515
 115   2.0000      -1.017581       -27.6898
 116   2.0000      -1.012946       -27.5637
 117   2.0000      -1.010557       -27.4987
 118   2.0000      -1.008811       -27.4512
 119   2.0000      -1.004832       -27.3429
 120   2.0000      -0.993980       -27.0476
 121   2.0000      -0.992115       -26.9968
 122   2.0000      -0.981081       -26.6966
 123   2.0000      -0.977707       -26.6047
 124   2.0000      -0.967757       -26.3340
 125   2.0000      -0.965743       -26.2792
 126   2.0000      -0.955436       -25.9987
 127   2.0000      -0.938651       -25.5420
 128   2.0000      -0.937107       -25.5000
 129   2.0000      -0.929977       -25.3060
 130   2.0000      -0.922862       -25.1123
 131   2.0000      -0.898159       -24.4402
 132   2.0000      -0.894895       -24.3513
 133   2.0000      -0.890418       -24.2295
 134   2.0000      -0.887735       -24.1565
 135   2.0000      -0.876295       -23.8452
 136   2.0000      -0.870898       -23.6983
 137   2.0000      -0.867499       -23.6058
 138   2.0000      -0.865107       -23.5408
 139   2.0000      -0.834738       -22.7144
 140   2.0000      -0.832729       -22.6597
 141   2.0000      -0.828696       -22.5500
 142   2.0000      -0.822137       -22.3715
 143   2.0000      -0.810008       -22.0414
 144   2.0000      -0.809127       -22.0175
 145   2.0000      -0.802541       -21.8383
 146   2.0000      -0.791049       -21.5255
 147   2.0000      -0.786214       -21.3940
 148   2.0000      -0.781930       -21.2774
 149   2.0000      -0.762697       -20.7540
 150   2.0000      -0.760853       -20.7039
 151   2.0000      -0.730932       -19.8897
 152   2.0000      -0.726791       -19.7770
 153   2.0000      -0.713104       -19.4046
 154   2.0000      -0.711216       -19.3532
 155   2.0000      -0.706189       -19.2164
 156   2.0000      -0.703010       -19.1299
 157   2.0000      -0.699576       -19.0364
 158   2.0000      -0.697028       -18.9671
 159   2.0000      -0.692887       -18.8544
 160   2.0000      -0.689541       -18.7634
 161   2.0000      -0.684206       -18.6182
 162   2.0000      -0.668295       -18.1852
 163   2.0000      -0.662279       -18.0215
 164   2.0000      -0.651689       -17.7334
 165   2.0000      -0.650872       -17.7111
 166   2.0000      -0.647496       -17.6193
 167   2.0000      -0.645660       -17.5693
 168   2.0000      -0.636318       -17.3151
 169   2.0000      -0.632571       -17.2131
 170   2.0000      -0.631434       -17.1822
 171   2.0000      -0.630934       -17.1686
 172   2.0000      -0.623804       -16.9746
 173   2.0000      -0.620122       -16.8744
 174   2.0000      -0.612485       -16.6666
 175   2.0000      -0.607791       -16.5388
 176   2.0000      -0.604093       -16.4382
 177   2.0000      -0.595934       -16.2162
 178   2.0000      -0.593234       -16.1427
 179   2.0000      -0.588576       -16.0160
 180   2.0000      -0.586532       -15.9603
 181   2.0000      -0.578665       -15.7463
 182   2.0000      -0.576606       -15.6902
 183   2.0000      -0.574584       -15.6352
 184   2.0000      -0.561867       -15.2892
 185   2.0000      -0.561053       -15.2670
 186   2.0000      -0.558523       -15.1982
 187   2.0000      -0.556118       -15.1327
 188   2.0000      -0.555885       -15.1264
 189   2.0000      -0.545054       -14.8317
 190   2.0000      -0.541914       -14.7462
 191   2.0000      -0.539448       -14.6791
 192   2.0000      -0.536750       -14.6057
 193   2.0000      -0.529433       -14.4066
 194   2.0000      -0.526455       -14.3256
 195   2.0000      -0.526214       -14.3190
 196   2.0000      -0.525408       -14.2971
 197   2.0000      -0.522737       -14.2244
 198   2.0000      -0.522726       -14.2241
 199   2.0000      -0.519130       -14.1263
 200   2.0000      -0.514251       -13.9935
 201   2.0000      -0.513643       -13.9769
 202   2.0000      -0.512635       -13.9495
 203   2.0000      -0.512531       -13.9467
 204   2.0000      -0.509569       -13.8661
 205   2.0000      -0.508837       -13.8461
 206   2.0000      -0.508691       -13.8422
 207   2.0000      -0.507622       -13.8131
 208   2.0000      -0.504829       -13.7371
 209   2.0000      -0.503216       -13.6932
 210   2.0000      -0.502569       -13.6756
 211   2.0000      -0.500143       -13.6096
 212   2.0000      -0.498487       -13.5645
 213   2.0000      -0.497208       -13.5297
 214   2.0000      -0.487762       -13.2727
 215   2.0000      -0.478410       -13.0182
 216   2.0000      -0.473684       -12.8896
 217   2.0000      -0.473519       -12.8851
 218   2.0000      -0.472583       -12.8596
 219   2.0000      -0.470665       -12.8074
 220   2.0000      -0.469936       -12.7876
 221   2.0000      -0.468046       -12.7362
 222   2.0000      -0.467145       -12.7117
 223   2.0000      -0.466070       -12.6824
 224   2.0000      -0.464355       -12.6358
 225   2.0000      -0.457162       -12.4400
 226   2.0000      -0.453493       -12.3402
 227   2.0000      -0.452462       -12.3121
 228   2.0000      -0.452089       -12.3020
 229   2.0000      -0.450961       -12.2713
 230   2.0000      -0.450071       -12.2471
 231   2.0000      -0.449614       -12.2346
 232   2.0000      -0.448605       -12.2072
 233   2.0000      -0.447314       -12.1720
 234   2.0000      -0.446395       -12.1470
 235   2.0000      -0.443055       -12.0561
 236   2.0000      -0.442875       -12.0512
 237   2.0000      -0.441046       -12.0015
 238   2.0000      -0.439384       -11.9562
 239   2.0000      -0.438845       -11.9416
 240   2.0000      -0.437049       -11.8927
 241   2.0000      -0.435721       -11.8566
 242   2.0000      -0.429267       -11.6810
 243   2.0000      -0.428077       -11.6486
 244   2.0000      -0.427201       -11.6247
 245   2.0000      -0.425378       -11.5751
 246   2.0000      -0.416665       -11.3380
 247   2.0000      -0.415192       -11.2980
 248   2.0000      -0.413128       -11.2418
 249   2.0000      -0.412519       -11.2252
 250   2.0000      -0.410841       -11.1795
 251   2.0000      -0.402312       -10.9475
 252   2.0000      -0.388842       -10.5809
 253   2.0000      -0.387695       -10.5497
 254   2.0000      -0.381172       -10.3722
 255   2.0000      -0.379749       -10.3335
 256   2.0000      -0.377853       -10.2819
 257   2.0000      -0.370193       -10.0735
 258   2.0000      -0.368467       -10.0265
 259   2.0000      -0.363068        -9.8796
 260   2.0000      -0.361618        -9.8401
 261   2.0000      -0.357942        -9.7401
 262   2.0000      -0.353265        -9.6128
 263   2.0000      -0.349041        -9.4979
 264   2.0000      -0.336414        -9.1543
 265   2.0000      -0.332537        -9.0488
 266   2.0000      -0.330945        -9.0055
 267   2.0000      -0.318073        -8.6552
 268   2.0000      -0.299852        -8.1594
 269   2.0000      -0.278653        -7.5825
 270   2.0000      -0.248410        -6.7596
 271   0.0000      -0.133239        -3.6256
 272   0.0000      -0.118519        -3.2251
 273   0.0000      -0.106163        -2.8888
 274   0.0000      -0.102160        -2.7799
 275   0.0000      -0.081431        -2.2159

MULLIKEN ATOMIC CHARGES
-----------------------
   0 C :    0.158367
   1 C :   -0.314397
   2 C :   -0.198401
   3 N :    0.174873
   4 C :   -0.212377
   5 N :    0.148541
   6 N :   -0.233282
   7 C :    0.116689
   8 C :    0.213396
   9 O :   -0.172318
  10 C :   -0.149342
  11 S :    0.118186
  12 C :    0.010099
  13 C :   -0.059462
  14 C :   -0.030378
  15 C :    0.023797
  16 C :   -0.082649
  17 S :    0.184844
  18 C :   -0.082186
  19 C :    0.033272
  20 C :    0.296680
  21 C :   -0.289210
  22 C :   -0.191273
  23 N :    0.179192
  24 C :   -0.189226
  25 N :    0.182280
  26 C :   -0.081042
  27 C :   -0.073233
  28 S :    0.247776
  29 C :   -0.117711
  30 C :    0.022891
  31 C :    0.033035
  32 N :    0.037221
  33 C :   -0.111558
  34 C :    0.142570
  35 O :   -0.104152
  36 C :   -0.018098
  37 C :   -0.016057
  38 C :    0.138596
  39 O :   -0.100762
  40 C :   -0.110246
  41 N :    0.033182
  42 C :   -0.127356
  43 S :    0.241821
  44 C :   -0.073077
  45 C :   -0.079251
  46 C :    0.029286
  47 C :   -0.089281
  48 S :    0.247148
  49 C :   -0.075493
  50 C :    0.037647
  51 C :    0.301429
  52 C :   -0.293674
  53 C :   -0.189496
  54 N :    0.174184
  55 C :   -0.189593
  56 N :    0.177250
  57 C :   -0.052424
  58 C :   -0.058696
  59 S :    0.244511
  60 C :    0.032188
  61 C :   -0.175682
  62 C :    0.245255
  63 O :   -0.216180
  64 N :   -0.235828
  65 C :    0.125804
  66 C :   -0.304418
  67 C :   -0.194342
  68 N :    0.170481
  69 C :   -0.217996
  70 N :    0.148589
  71 S :    0.162756
  72 C :    0.115394
  73 H :    0.065652
  74 H :    0.065247
  75 H :    0.068526
  76 H :    0.038700
  77 H :    0.017975
  78 H :    0.012031
  79 H :    0.022943
  80 H :    0.024256
  81 H :    0.012066
  82 H :    0.012583
  83 H :    0.017065
  84 H :    0.068768
  85 H :    0.067960
  86 H :    0.067146
Sum of atomic charges:   -0.0000000

LOEWDIN ATOMIC CHARGES
----------------------
   0 C :   -0.027003
   1 C :   -0.205068
   2 C :   -0.033927
   3 N :   -0.055616
   4 C :   -0.041513
   5 N :   -0.046912
   6 N :   -0.006576
   7 C :    0.039773
   8 C :    0.070233
   9 O :   -0.165067
  10 C :   -0.228466
  11 S :    0.413214
  12 C :    0.000329
  13 C :   -0.180621
  14 C :   -0.003327
  15 C :   -0.070036
  16 C :   -0.165626
  17 S :    0.485036
  18 C :   -0.186331
  19 C :   -0.062397
  20 C :    0.078673
  21 C :   -0.097094
  22 C :   -0.017089
  23 N :   -0.026802
  24 C :   -0.018021
  25 N :   -0.026076
  26 C :   -0.028230
  27 C :   -0.176134
  28 S :    0.535304
  29 C :   -0.191567
  30 C :   -0.053681
  31 C :   -0.053923
  32 N :   -0.008588
  33 C :   -0.036752
  34 C :    0.055764
  35 O :   -0.100106
  36 C :   -0.010844
  37 C :   -0.009660
  38 C :    0.055418
  39 O :   -0.097536
  40 C :   -0.035471
  41 N :   -0.010058
  42 C :   -0.189216
  43 S :    0.524795
  44 C :   -0.177544
  45 C :   -0.028195
  46 C :   -0.061599
  47 C :   -0.183286
  48 S :    0.534517
  49 C :   -0.172955
  50 C :   -0.074582
  51 C :    0.079561
  52 C :   -0.102456
  53 C :   -0.016975
  54 N :   -0.030987
  55 C :   -0.017466
  56 N :   -0.030328
  57 C :   -0.003551
  58 C :   -0.182650
  59 S :    0.546440
  60 C :    0.006395
  61 C :   -0.231499
  62 C :    0.070447
  63 O :   -0.192716
  64 N :   -0.001412
  65 C :   -0.032038
  66 C :   -0.208783
  67 C :   -0.034524
  68 N :   -0.059007
  69 C :   -0.041263
  70 N :   -0.046792
  71 S :    0.431076
  72 C :    0.039353
  73 H :    0.041115
  74 H :    0.041129
  75 H :    0.044824
  76 H :    0.060104
  77 H :    0.046280
  78 H :    0.038750
  79 H :    0.047981
  80 H :    0.048708
  81 H :    0.038568
  82 H :    0.042746
  83 H :    0.051241
  84 H :    0.044100
  85 H :    0.042097
  86 H :    0.041970

  Mayer bond orders larger than 0.100000
B(  0-C ,  1-C ) :   1.5888 B(  0-C ,  6-N ) :   1.2045 B(  0-C , 11-S ) :   1.0712
B(  1-C ,  2-C ) :   1.1675 B(  1-C ,  4-C ) :   1.1413 B(  2-C ,  3-N ) :   3.0132
B(  4-C ,  5-N ) :   3.0348 B(  6-N ,  7-C ) :   0.9319 B(  6-N ,  8-C ) :   1.0451
B(  7-C , 73-H ) :   0.9691 B(  7-C , 74-H ) :   0.9692 B(  7-C , 75-H ) :   0.9441
B(  8-C ,  9-O ) :   2.1667 B(  8-C , 10-C ) :   0.9652 B( 10-C , 11-S ) :   0.9961
B( 10-C , 12-C ) :   1.6759 B( 12-C , 13-C ) :   1.1692 B( 12-C , 76-H ) :   0.9618
B( 13-C , 14-C ) :   1.3931 B( 13-C , 17-S ) :   1.0739 B( 14-C , 15-C ) :   1.3105
B( 14-C , 77-H ) :   1.0064 B( 15-C , 16-C ) :   1.3963 B( 15-C , 20-C ) :   0.9880
B( 16-C , 17-S ) :   1.1563 B( 16-C , 18-C ) :   1.2099 B( 18-C , 19-C ) :   1.3948
B( 18-C , 28-S ) :   1.0970 B( 19-C , 20-C ) :   0.9961 B( 19-C , 26-C ) :   1.3277
B( 20-C , 21-C ) :   1.7218 B( 21-C , 22-C ) :   1.1348 B( 21-C , 24-C ) :   1.1293
B( 22-C , 23-N ) :   2.9930 B( 24-C , 25-N ) :   2.9964 B( 26-C , 27-C ) :   1.3885
B( 26-C , 78-H ) :   0.9941 B( 27-C , 28-S ) :   1.1185 B( 27-C , 29-C ) :   1.2381
B( 29-C , 30-C ) :   1.3200 B( 29-C , 42-C ) :   0.1184 B( 29-C , 43-S ) :   1.1536
B( 30-C , 31-C ) :   1.1906 B( 30-C , 41-N ) :   1.4165 B( 31-C , 32-N ) :   1.4194
B( 31-C , 42-C ) :   1.3143 B( 32-N , 33-C ) :   1.6983 B( 33-C , 34-C ) :   0.8949
B( 33-C , 40-C ) :   1.1071 B( 34-C , 35-O ) :   2.2479 B( 34-C , 36-C ) :   1.0215
B( 36-C , 37-C ) :   1.6750 B( 36-C , 79-H ) :   0.9997 B( 37-C , 38-C ) :   1.0247
B( 37-C , 80-H ) :   0.9986 B( 38-C , 39-O ) :   2.2497 B( 38-C , 40-C ) :   0.8953
B( 40-C , 41-N ) :   1.6983 B( 42-C , 43-S ) :   1.1593 B( 42-C , 44-C ) :   1.2421
B( 44-C , 45-C ) :   1.3832 B( 44-C , 48-S ) :   1.1189 B( 45-C , 46-C ) :   1.3246
B( 45-C , 81-H ) :   0.9957 B( 46-C , 47-C ) :   1.4004 B( 46-C , 51-C ) :   0.9944
B( 47-C , 48-S ) :   1.1001 B( 47-C , 49-C ) :   1.2088 B( 49-C , 50-C ) :   1.3672
B( 49-C , 59-S ) :   1.1224 B( 50-C , 51-C ) :   0.9882 B( 50-C , 57-C ) :   1.3304
B( 51-C , 52-C ) :   1.7176 B( 52-C , 53-C ) :   1.1344 B( 52-C , 55-C ) :   1.1308
B( 53-C , 54-N ) :   2.9908 B( 55-C , 56-N ) :   2.9947 B( 57-C , 58-C ) :   1.3543
B( 57-C , 82-H ) :   1.0051 B( 58-C , 59-S ) :   1.0869 B( 58-C , 60-C ) :   1.2506
B( 60-C , 61-C ) :   1.6195 B( 60-C , 83-H ) :   0.9526 B( 61-C , 62-C ) :   1.0031
B( 61-C , 71-S ) :   1.0072 B( 62-C , 63-O ) :   2.0279 B( 62-C , 64-N ) :   1.0815
B( 64-N , 65-C ) :   1.1923 B( 64-N , 72-C ) :   0.9317 B( 65-C , 66-C ) :   1.5590
B( 65-C , 71-S ) :   1.0929 B( 66-C , 67-C ) :   1.1676 B( 66-C , 69-C ) :   1.1480
B( 67-C , 68-N ) :   3.0114 B( 69-C , 70-N ) :   3.0338 B( 72-C , 84-H ) :   0.9442
B( 72-C , 85-H ) :   0.9688 B( 72-C , 86-H ) :   0.9690

-----------------------------------------------------------------------------
         ABSORPTION SPECTRUM VIA TRANSITION ELECTRIC DIPOLE MOMENTS
-----------------------------------------------------------------------------
State   Energy  Wavelength   fosc         T2         TX        TY        TZ
        (cm-1)    (nm)                  (au**2)     (au)      (au)      (au)
-----------------------------------------------------------------------------
   0    9810.6   1019.3   0.923950516  31.00479  -3.78858  -2.69476   3.06426
   1   12235.2    817.3   0.019545050   0.52590   0.42437   0.33691  -0.48197
   2   13936.3    717.6   0.047365703   1.11890   0.74668   0.43681  -0.60874
   3   16721.6    598.0   0.069121950   1.36086  -0.10274   1.02906   0.53975
   4   18710.6    534.5   0.011040188   0.19425   0.12407  -0.14001  -0.39907
   5   21178.0    472.2   0.265864810   4.13287   1.39683   0.66232  -1.32025
   6   22003.8    454.5   1.376796332  20.59906   2.98669   1.66568  -2.98400
   7   23144.3    432.1   0.440820837   6.27037   1.22107   2.18453  -0.08463
   8   24461.1    408.8   0.308314863   4.14949   0.04651   1.76237   1.02048
   9   24582.0    406.8   0.003773621   0.05054  -0.08393   0.20854  -0.00192
  10   24996.0    400.1   0.001887312   0.02486  -0.12232  -0.08707   0.04809
  11   25563.4    391.2   0.000005126   0.00007  -0.00620  -0.00095  -0.00516
  12   26074.2    383.5   0.007843599   0.09903   0.21790   0.07590  -0.21400
  13   26492.9    377.5   0.000718967   0.00893  -0.06777   0.04272  -0.05016
  14   27069.8    369.4   0.113010357   1.37439  -0.23790   0.85958   0.76086
  15   28357.8    352.6   0.037704229   0.43772  -0.14810   0.49193   0.41688
  16   28692.8    348.5   0.002454209   0.02816  -0.14750   0.05617   0.05699
  17   29057.2    344.1   0.004897379   0.05549  -0.04317  -0.14198   0.18294
  18   29533.2    338.6   0.154447114   1.72165   0.16798   1.16359   0.58265
  19   29781.7    335.8   0.120873190   1.33615  -0.69537   0.30866   0.87025
  20   30553.7    327.3   0.001768614   0.01906  -0.04219   0.09293   0.09296
  21   30701.6    325.7   0.511958683   5.48971  -0.88911   1.24568   1.77412
  22   31079.2    321.8   0.027230539   0.28844   0.22802   0.48389  -0.04797
  23   31585.3    316.6   0.040711996   0.42434  -0.12260   0.43936   0.46505
  24   31776.8    314.7   0.368196953   3.81457   1.29093   0.99241  -1.07851
  25   31987.3    312.6   0.516346191   5.31421  -0.07127   1.97922   1.17976
  26   32430.7    308.3   0.036312729   0.36862  -0.05797   0.50910   0.32569
  27   32950.0    303.5   0.219273074   2.19081  -0.06802   1.29332   0.71661
  28   33257.7    300.7   0.322259175   3.18998   0.51779  -1.25690  -1.15848
  29   33518.6    298.3   0.082366736   0.80899   0.22943   0.84329   0.21264
  30   33599.2    297.6   0.006391220   0.06262   0.02881   0.23895   0.06851
  31   33898.5    295.0   0.171992911   1.67035  -0.33570  -1.23146  -0.20286
  32   34331.3    291.3   0.000042518   0.00041  -0.01979   0.00273  -0.00292
  33   34480.9    290.0   0.169178275   1.61526  -0.13832   1.04757   0.70620
  34   34681.5    288.3   0.075930641   0.72077   0.38060  -0.41036  -0.63837
  35   35488.5    281.8   0.029594723   0.27454   0.19917  -0.24730  -0.41679
  36   35503.9    281.7   0.001196449   0.01109  -0.05125  -0.00811  -0.09166
  37   35576.2    281.1   0.005504359   0.05094  -0.10289  -0.04600   0.19553
  38   35889.0    278.6   0.254212409   2.33190  -0.16677  -1.43300  -0.50060
  39   36244.4    275.9   0.003040866   0.02762   0.10754  -0.02462   0.12430
  40   36305.7    275.4   0.008268191   0.07497   0.11527   0.03285  -0.24619
  41   36314.5    275.4   0.211299219   1.91555   0.71673  -0.48400  -1.08055
  42   36405.0    274.7   0.002008985   0.01817   0.07825   0.08318  -0.07159
  43   36859.2    271.3   0.067730291   0.60494  -0.53559  -0.17158   0.53726
  44   36920.1    270.9   0.229885923   2.04987   0.15704  -1.22343  -0.72693
  45   37162.3    269.1   0.007789724   0.06901   0.09512   0.24424  -0.01749
  46   37315.2    268.0   0.002391515   0.02110  -0.10885  -0.06236  -0.07323
  47   37469.5    266.9   0.026744867   0.23498   0.34726   0.08623  -0.32704
  48   37603.4    265.9   0.005204453   0.04556  -0.11924   0.06358   0.16524
  49   37958.7    263.4   0.009448020   0.08194   0.20363   0.16780  -0.11100
  50   38069.0    262.7   0.000929480   0.00804   0.00015   0.08680   0.02245
  51   38198.9    261.8   0.055744650   0.48043  -0.47406  -0.40735   0.29961
  52   38384.5    260.5   0.034968724   0.29992  -0.23181  -0.49616   0.00260
  53   38643.2    258.8   0.012015868   0.10237   0.06828  -0.24679  -0.19183
  54   38966.5    256.6   0.041317393   0.34907   0.29362   0.50373  -0.09549
  55   39273.5    254.6   0.009117732   0.07643  -0.18859  -0.05257   0.19519
  56   39350.5    254.1   0.009018534   0.07545   0.05000  -0.19542  -0.18645
  57   39565.0    252.7   0.018789520   0.15634  -0.11008   0.27086   0.26620
  58   39961.0    250.2   0.022387910   0.18444   0.02999  -0.37021  -0.21560
  59   40017.2    249.9   0.000263587   0.00217   0.03238  -0.01940   0.02726
  60   40211.1    248.7   0.026147146   0.21407   0.05821  -0.40283  -0.22003

FINAL SINGLE POINT ENERGY     -5654.378411491334

DIPOLE MOMENT
-------------
                                X             Y             Z
Electronic contribution:      6.07915      14.55146       2.48371
Nuclear contribution   :     -6.92469     -15.26201      -1.54931
                        -----------------------------------------
Total Dipole Moment    :     -0.84554      -0.71055       0.93440
                        -----------------------------------------
Magnitude (a.u.)       :      1.44670
Magnitude (Debye)      :      3.67721

Rotational constants in cm-1:     0.001718     0.000220     0.000195
Rotational constants in MHz :    51.503420     6.601721     5.859674

                             ****ORCA TERMINATED NORMALLY****
TOTAL RUN TIME: 0 days 0 hours 15 minutes 59 seconds 8 msec
