                         Program Version 4.2.0 -  RELEASE  -
|  1> # ORCA input file
|  2> # SCF done       -199.135750674288          0.000773568408
|  3> ! CAM-B3LYP def2-SVP def2/J RIJCOSX Grid4 TightSCF
|  4> %maxcore 5000
|  5> %tddft
|  6>     Mode sTDDFT
|  7>     Ethresh 5.0
|  8>     maxcore 5000
|  9> end
| 10>
| 11> %pal
| 12>   nprocs 6
| 13>   end
| 14> * xyz 0 1
| 15>    C        0.49211        22.30111         0.55537
| 16>    C       -0.34416        22.41724         1.63493
| 17>    C       -0.70633        23.64770         2.22389
| 18>    N       -1.03912        24.61224         2.75006
| 19>    C       -0.95335        21.35182         2.33059
| 20>    N       -1.48120        20.54880         2.96028
| 21>    C        1.14687        23.41222        -0.12617
| 22>    C        2.00474        22.88610        -1.13398
| 23>    C        2.75276        23.69205        -1.94279
| 24>    C        2.66925        25.09318        -1.78385
| 25>    C        1.80982        25.62974        -0.78191
| 26>    C        1.05309        24.76844         0.04541
| 27>    C        1.72768        27.02967        -0.63718
| 28>    C        2.45728        27.86074        -1.44307
| 29>    C        3.30360        27.33114        -2.42866
| 30>    C        3.40821        25.97667        -2.59476
| 31>    C        1.91259        21.41884        -1.13386
| 32>    O        2.53352        20.65526        -1.84668
| 33>    C        0.91318        21.07311        -0.10223
| 34>    C        0.41293        19.82873         0.14841
| 35>    C        0.70479        18.57997        -0.44662
| 36>    C        0.01144        17.43607        -0.09140
| 37>    C        0.40520        16.28864        -0.79579
| 38>    C        1.45649        16.57850        -1.71244
| 39>    S        1.90904        18.25852        -1.67932
| 40>    C        2.00377        15.60755        -2.52319
| 41>    C        1.49180        14.31226        -2.43929
| 42>    C        0.43204        14.03050        -1.52490
| 43>    C       -0.10835        14.98727        -0.70481
| 44>    S       -0.05891        12.35934        -1.62293
| 45>    C        1.13760        12.05632        -2.87434
| 46>    C        1.87271        13.17480        -3.18146
| 47>    C        1.25736        10.78366        -3.47563
| 48>    C        2.17278        10.39812        -4.46309
| 49>    C        1.99566         9.03310        -4.88215
| 50>    N        2.77222         8.48176        -5.81612
| 51>    C        3.70887         9.24142        -6.33794
| 52>    C        4.58004         8.63256        -7.37442
| 53>    O        4.45181         7.48775        -7.75185
| 54>    C        5.62062         9.52615        -7.91571
| 55>    C        5.78400        10.79618        -7.53204
| 56>    C        4.94237        11.45744        -6.52021
| 57>    O        5.10160        12.61688        -6.19974
| 58>    C        3.88610        10.60163        -5.92490
| 59>    N        3.12776        11.15769        -5.00573
| 60>    C        0.94917         8.38259        -4.22359
| 61>    S        0.20812         9.45853        -3.08533
| 62>    C        0.51740         7.05909        -4.45779
| 63>    C       -0.53051         6.40011        -3.86127
| 64>    C       -0.71679         5.09448        -4.35752
| 65>    C        0.24023         4.76979        -5.36401
| 66>    S        1.34245         6.09082        -5.66043
| 67>    C        0.24221         3.55361        -6.00470
| 68>    C       -0.73776         2.62022        -5.65158
| 69>    C       -1.69001         2.94602        -4.64138
| 70>    C       -1.68985         4.15995        -3.99403
| 71>    S       -2.80068         1.63764        -4.38318
| 72>    C       -2.01357         0.67116        -5.63642
| 73>    C       -0.94391         1.33317        -6.18796
| 74>    C       -2.57541        -0.60779        -5.86779
| 75>    C       -2.33640        -1.53794        -6.83712
| 76>    C       -3.04958        -2.80739        -6.91737
| 77>    C       -3.77232        -3.40904        -5.92139
| 78>    C       -4.42226        -4.65381        -6.06430
| 79>    N       -4.97709        -5.65759        -6.11549
| 80>    C       -3.94165        -2.92220        -4.60714
| 81>    N       -4.11543        -2.61916        -3.51305
| 82>    C       -2.79526        -3.38127        -8.23230
| 83>    C       -1.84321        -2.56327        -8.90207
| 84>    C       -1.47706        -1.42345        -8.04468
| 85>    O       -0.64515        -0.58030        -8.30684
| 86>    C       -1.39217        -2.85718       -10.15666
| 87>    C       -1.89208        -4.00154       -10.81673
| 88>    C       -2.85685        -4.81843       -10.15922
| 89>    C       -3.29905        -4.49186        -8.85684
| 90>    C       -3.35598        -5.95316       -10.83076
| 91>    C       -2.92229        -6.26884       -12.08948
| 92>    C       -1.97045        -5.46516       -12.73482
| 93>    C       -1.46632        -4.35577       -12.11205
| 94>    H        3.39642        23.26497        -2.69743
| 95>    H        0.41100        25.20801         0.79179
| 96>    H        1.07567        27.43278         0.12377
| 97>    H        2.38638        28.93162        -1.32524
| 98>    H        3.87177        28.00167        -3.05585
| 99>    H        4.05786        25.56275        -3.35200
|100>    H       -0.35678        19.75550         0.90788
|101>    H       -0.76500        17.43915         0.65393
|102>    H        2.80050        15.83472        -3.21298
|103>    H       -0.90774        14.75958        -0.01786
|104>    H        2.65026        13.16501        -3.92409
|105>    H        6.26004         9.07877        -8.66490
|106>    H        6.56023        11.41771        -7.95802
|107>    H       -1.14567         6.84804        -3.10051
|108>    H        0.96842         3.31994        -6.76631
|109>    H       -2.41810         4.39269        -3.23365
|110>    H       -0.33026         0.90921        -6.96137
|111>    H       -3.35712        -0.85260        -5.15718
|112>    H       -0.66516        -2.22168       -10.64027
|113>    H       -4.03311        -5.12812        -8.38886
|114>    H       -4.08744        -6.56962       -10.32914
|115>    H       -3.31036        -7.14023       -12.59528
|116>    H       -1.63895        -5.72955       -13.72783
|117>    H       -0.73354        -3.73291       -12.60394
|118> *
|119>
|120>                          ****END OF INPUT****

CARTESIAN COORDINATES (ANGSTROEM)
---------------------------------
  C      0.492110   22.301110    0.555370
  C     -0.344160   22.417240    1.634930
  C     -0.706330   23.647700    2.223890
  N     -1.039120   24.612240    2.750060
  C     -0.953350   21.351820    2.330590
  N     -1.481200   20.548800    2.960280
  C      1.146870   23.412220   -0.126170
  C      2.004740   22.886100   -1.133980
  C      2.752760   23.692050   -1.942790
  C      2.669250   25.093180   -1.783850
  C      1.809820   25.629740   -0.781910
  C      1.053090   24.768440    0.045410
  C      1.727680   27.029670   -0.637180
  C      2.457280   27.860740   -1.443070
  C      3.303600   27.331140   -2.428660
  C      3.408210   25.976670   -2.594760
  C      1.912590   21.418840   -1.133860
  O      2.533520   20.655260   -1.846680
  C      0.913180   21.073110   -0.102230
  C      0.412930   19.828730    0.148410
  C      0.704790   18.579970   -0.446620
  C      0.011440   17.436070   -0.091400
  C      0.405200   16.288640   -0.795790
  C      1.456490   16.578500   -1.712440
  S      1.909040   18.258520   -1.679320
  C      2.003770   15.607550   -2.523190
  C      1.491800   14.312260   -2.439290
  C      0.432040   14.030500   -1.524900
  C     -0.108350   14.987270   -0.704810
  S     -0.058910   12.359340   -1.622930
  C      1.137600   12.056320   -2.874340
  C      1.872710   13.174800   -3.181460
  C      1.257360   10.783660   -3.475630
  C      2.172780   10.398120   -4.463090
  C      1.995660    9.033100   -4.882150
  N      2.772220    8.481760   -5.816120
  C      3.708870    9.241420   -6.337940
  C      4.580040    8.632560   -7.374420
  O      4.451810    7.487750   -7.751850
  C      5.620620    9.526150   -7.915710
  C      5.784000   10.796180   -7.532040
  C      4.942370   11.457440   -6.520210
  O      5.101600   12.616880   -6.199740
  C      3.886100   10.601630   -5.924900
  N      3.127760   11.157690   -5.005730
  C      0.949170    8.382590   -4.223590
  S      0.208120    9.458530   -3.085330
  C      0.517400    7.059090   -4.457790
  C     -0.530510    6.400110   -3.861270
  C     -0.716790    5.094480   -4.357520
  C      0.240230    4.769790   -5.364010
  S      1.342450    6.090820   -5.660430
  C      0.242210    3.553610   -6.004700
  C     -0.737760    2.620220   -5.651580
  C     -1.690010    2.946020   -4.641380
  C     -1.689850    4.159950   -3.994030
  S     -2.800680    1.637640   -4.383180
  C     -2.013570    0.671160   -5.636420
  C     -0.943910    1.333170   -6.187960
  C     -2.575410   -0.607790   -5.867790
  C     -2.336400   -1.537940   -6.837120
  C     -3.049580   -2.807390   -6.917370
  C     -3.772320   -3.409040   -5.921390
  C     -4.422260   -4.653810   -6.064300
  N     -4.977090   -5.657590   -6.115490
  C     -3.941650   -2.922200   -4.607140
  N     -4.115430   -2.619160   -3.513050
  C     -2.795260   -3.381270   -8.232300
  C     -1.843210   -2.563270   -8.902070
  C     -1.477060   -1.423450   -8.044680
  O     -0.645150   -0.580300   -8.306840
  C     -1.392170   -2.857180  -10.156660
  C     -1.892080   -4.001540  -10.816730
  C     -2.856850   -4.818430  -10.159220
  C     -3.299050   -4.491860   -8.856840
  C     -3.355980   -5.953160  -10.830760
  C     -2.922290   -6.268840  -12.089480
  C     -1.970450   -5.465160  -12.734820
  C     -1.466320   -4.355770  -12.112050
  H      3.396420   23.264970   -2.697430
  H      0.411000   25.208010    0.791790
  H      1.075670   27.432780    0.123770
  H      2.386380   28.931620   -1.325240
  H      3.871770   28.001670   -3.055850
  H      4.057860   25.562750   -3.352000
  H     -0.356780   19.755500    0.907880
  H     -0.765000   17.439150    0.653930
  H      2.800500   15.834720   -3.212980
  H     -0.907740   14.759580   -0.017860
  H      2.650260   13.165010   -3.924090
  H      6.260040    9.078770   -8.664900
  H      6.560230   11.417710   -7.958020
  H     -1.145670    6.848040   -3.100510
  H      0.968420    3.319940   -6.766310
  H     -2.418100    4.392690   -3.233650
  H     -0.330260    0.909210   -6.961370
  H     -3.357120   -0.852600   -5.157180
  H     -0.665160   -2.221680  -10.640270
  H     -4.033110   -5.128120   -8.388860
  H     -4.087440   -6.569620  -10.329140
  H     -3.310360   -7.140230  -12.595280
  H     -1.638950   -5.729550  -13.727830
  H     -0.733540   -3.732910  -12.603940

 Total Charge           Charge          ....    0
 Multiplicity           Mult            ....    1
 Number of Electrons    NEL             ....  562
 Basis Dimension        Dim             .... 1246

ORBITAL ENERGIES
----------------

  NO   OCC          E(Eh)            E(eV)
   0   2.0000     -89.003235     -2421.9012
   1   2.0000     -88.960255     -2420.7316
   2   2.0000     -88.952750     -2420.5274
   3   2.0000     -88.952099     -2420.5097
   4   2.0000     -88.950994     -2420.4796
   5   2.0000     -19.231833      -523.3248
   6   2.0000     -19.230670      -523.2931
   7   2.0000     -19.220292      -523.0107
   8   2.0000     -19.217795      -522.9428
   9   2.0000     -14.454326      -393.3222
  10   2.0000     -14.453244      -393.2928
  11   2.0000     -14.417811      -392.3286
  12   2.0000     -14.414208      -392.2305
  13   2.0000     -14.413128      -392.2011
  14   2.0000     -14.411868      -392.1669
  15   2.0000     -10.380653      -282.4719
  16   2.0000     -10.380219      -282.4601
  17   2.0000     -10.369421      -282.1663
  18   2.0000     -10.368783      -282.1489
  19   2.0000     -10.346423      -281.5405
  20   2.0000     -10.345557      -281.5169
  21   2.0000     -10.342134      -281.4238
  22   2.0000     -10.341518      -281.4070
  23   2.0000     -10.339569      -281.3540
  24   2.0000     -10.339543      -281.3533
  25   2.0000     -10.338443      -281.3233
  26   2.0000     -10.337851      -281.3072
  27   2.0000     -10.337291      -281.2920
  28   2.0000     -10.336327      -281.2658
  29   2.0000     -10.325456      -280.9700
  30   2.0000     -10.325092      -280.9600
  31   2.0000     -10.323853      -280.9263
  32   2.0000     -10.321526      -280.8630
  33   2.0000     -10.320750      -280.8419
  34   2.0000     -10.317552      -280.7549
  35   2.0000     -10.317324      -280.7487
  36   2.0000     -10.315821      -280.7078
  37   2.0000     -10.314950      -280.6841
  38   2.0000     -10.313510      -280.6449
  39   2.0000     -10.313289      -280.6389
  40   2.0000     -10.312623      -280.6207
  41   2.0000     -10.312568      -280.6192
  42   2.0000     -10.309494      -280.5356
  43   2.0000     -10.303339      -280.3681
  44   2.0000     -10.303295      -280.3669
  45   2.0000     -10.302159      -280.3360
  46   2.0000     -10.300842      -280.3002
  47   2.0000     -10.300475      -280.2902
  48   2.0000     -10.300138      -280.2810
  49   2.0000     -10.298302      -280.2310
  50   2.0000     -10.298021      -280.2234
  51   2.0000     -10.297338      -280.2048
  52   2.0000     -10.297067      -280.1974
  53   2.0000     -10.296343      -280.1777
  54   2.0000     -10.296050      -280.1698
  55   2.0000     -10.296011      -280.1687
  56   2.0000     -10.295105      -280.1440
  57   2.0000     -10.294945      -280.1397
  58   2.0000     -10.294389      -280.1246
  59   2.0000     -10.293728      -280.1066
  60   2.0000     -10.293476      -280.0997
  61   2.0000     -10.291265      -280.0396
  62   2.0000     -10.289130      -279.9815
  63   2.0000     -10.289010      -279.9782
  64   2.0000     -10.288925      -279.9759
  65   2.0000     -10.288689      -279.9695
  66   2.0000     -10.287404      -279.9345
  67   2.0000     -10.287357      -279.9332
  68   2.0000     -10.287066      -279.9253
  69   2.0000     -10.286864      -279.9198
  70   2.0000     -10.286751      -279.9167
  71   2.0000     -10.286399      -279.9071
  72   2.0000     -10.285887      -279.8932
  73   2.0000     -10.285534      -279.8836
  74   2.0000     -10.285172      -279.8738
  75   2.0000     -10.284971      -279.8683
  76   2.0000     -10.284587      -279.8578
  77   2.0000     -10.284074      -279.8439
  78   2.0000     -10.283839      -279.8375
  79   2.0000      -8.097683      -220.3492
  80   2.0000      -8.056326      -219.2238
  81   2.0000      -8.048221      -219.0032
  82   2.0000      -8.047588      -218.9860
  83   2.0000      -8.045109      -218.9185
  84   2.0000      -6.066636      -165.0815
  85   2.0000      -6.062537      -164.9700
  86   2.0000      -6.060575      -164.9166
  87   2.0000      -6.026058      -163.9774
  88   2.0000      -6.022035      -163.8679
  89   2.0000      -6.017780      -163.7521
  90   2.0000      -6.017388      -163.7414
  91   2.0000      -6.017309      -163.7393
  92   2.0000      -6.014840      -163.6721
  93   2.0000      -6.013849      -163.6452
  94   2.0000      -6.013108      -163.6250
  95   2.0000      -6.010445      -163.5525
  96   2.0000      -6.009415      -163.5245
  97   2.0000      -6.008621      -163.5029
  98   2.0000      -6.006389      -163.4421
  99   2.0000      -1.148378       -31.2489
 100   2.0000      -1.143808       -31.1246
 101   2.0000      -1.136379       -30.9224
 102   2.0000      -1.132607       -30.8198
 103   2.0000      -1.105223       -30.0747
 104   2.0000      -1.033056       -28.1109
 105   2.0000      -1.019143       -27.7323
 106   2.0000      -1.018269       -27.7085
 107   2.0000      -1.016176       -27.6516
 108   2.0000      -1.006954       -27.4006
 109   2.0000      -1.002096       -27.2684
 110   2.0000      -0.999633       -27.2014
 111   2.0000      -0.996655       -27.1204
 112   2.0000      -0.994159       -27.0524
 113   2.0000      -0.990927       -26.9645
 114   2.0000      -0.985400       -26.8141
 115   2.0000      -0.978861       -26.6362
 116   2.0000      -0.971476       -26.4352
 117   2.0000      -0.969317       -26.3765
 118   2.0000      -0.943614       -25.6770
 119   2.0000      -0.931918       -25.3588
 120   2.0000      -0.927064       -25.2267
 121   2.0000      -0.921155       -25.0659
 122   2.0000      -0.916317       -24.9342
 123   2.0000      -0.899902       -24.4876
 124   2.0000      -0.894573       -24.3426
 125   2.0000      -0.884544       -24.0697
 126   2.0000      -0.882105       -24.0033
 127   2.0000      -0.881938       -23.9988
 128   2.0000      -0.880184       -23.9510
 129   2.0000      -0.878664       -23.9097
 130   2.0000      -0.876710       -23.8565
 131   2.0000      -0.868697       -23.6385
 132   2.0000      -0.858220       -23.3534
 133   2.0000      -0.841008       -22.8850
 134   2.0000      -0.837265       -22.7831
 135   2.0000      -0.829000       -22.5582
 136   2.0000      -0.826879       -22.5005
 137   2.0000      -0.825603       -22.4658
 138   2.0000      -0.815391       -22.1879
 139   2.0000      -0.801363       -21.8062
 140   2.0000      -0.797530       -21.7019
 141   2.0000      -0.792776       -21.5725
 142   2.0000      -0.788895       -21.4669
 143   2.0000      -0.785082       -21.3632
 144   2.0000      -0.772747       -21.0275
 145   2.0000      -0.763409       -20.7734
 146   2.0000      -0.760439       -20.6926
 147   2.0000      -0.749770       -20.4023
 148   2.0000      -0.746472       -20.3125
 149   2.0000      -0.720428       -19.6038
 150   2.0000      -0.709010       -19.2931
 151   2.0000      -0.705184       -19.1890
 152   2.0000      -0.702928       -19.1277
 153   2.0000      -0.699440       -19.0327
 154   2.0000      -0.696129       -18.9426
 155   2.0000      -0.693638       -18.8749
 156   2.0000      -0.692169       -18.8349
 157   2.0000      -0.685039       -18.6409
 158   2.0000      -0.678760       -18.4700
 159   2.0000      -0.677181       -18.4270
 160   2.0000      -0.672660       -18.3040
 161   2.0000      -0.671529       -18.2732
 162   2.0000      -0.666955       -18.1488
 163   2.0000      -0.658267       -17.9123
 164   2.0000      -0.650394       -17.6981
 165   2.0000      -0.644206       -17.5297
 166   2.0000      -0.636578       -17.3222
 167   2.0000      -0.631704       -17.1895
 168   2.0000      -0.627213       -17.0673
 169   2.0000      -0.626010       -17.0346
 170   2.0000      -0.617923       -16.8145
 171   2.0000      -0.610166       -16.6034
 172   2.0000      -0.608244       -16.5512
 173   2.0000      -0.606996       -16.5172
 174   2.0000      -0.604936       -16.4612
 175   2.0000      -0.600424       -16.3384
 176   2.0000      -0.595015       -16.1912
 177   2.0000      -0.578444       -15.7403
 178   2.0000      -0.576507       -15.6875
 179   2.0000      -0.574603       -15.6357
 180   2.0000      -0.573036       -15.5931
 181   2.0000      -0.572266       -15.5722
 182   2.0000      -0.570170       -15.5151
 183   2.0000      -0.564196       -15.3526
 184   2.0000      -0.561222       -15.2716
 185   2.0000      -0.553175       -15.0527
 186   2.0000      -0.547720       -14.9042
 187   2.0000      -0.546403       -14.8684
 188   2.0000      -0.545425       -14.8418
 189   2.0000      -0.541766       -14.7422
 190   2.0000      -0.540847       -14.7172
 191   2.0000      -0.540160       -14.6985
 192   2.0000      -0.538657       -14.6576
 193   2.0000      -0.536221       -14.5913
 194   2.0000      -0.534963       -14.5571
 195   2.0000      -0.533256       -14.5106
 196   2.0000      -0.530355       -14.4317
 197   2.0000      -0.528272       -14.3750
 198   2.0000      -0.526038       -14.3142
 199   2.0000      -0.522884       -14.2284
 200   2.0000      -0.521061       -14.1788
 201   2.0000      -0.520681       -14.1684
 202   2.0000      -0.518790       -14.1170
 203   2.0000      -0.513485       -13.9726
 204   2.0000      -0.513209       -13.9651
 205   2.0000      -0.512281       -13.9399
 206   2.0000      -0.509405       -13.8616
 207   2.0000      -0.508346       -13.8328
 208   2.0000      -0.506295       -13.7770
 209   2.0000      -0.505103       -13.7446
 210   2.0000      -0.504020       -13.7151
 211   2.0000      -0.502708       -13.6794
 212   2.0000      -0.497911       -13.5488
 213   2.0000      -0.497153       -13.5282
 214   2.0000      -0.494439       -13.4544
 215   2.0000      -0.492278       -13.3956
 216   2.0000      -0.490021       -13.3342
 217   2.0000      -0.489319       -13.3150
 218   2.0000      -0.486640       -13.2422
 219   2.0000      -0.479740       -13.0544
 220   2.0000      -0.478799       -13.0288
 221   2.0000      -0.476852       -12.9758
 222   2.0000      -0.474459       -12.9107
 223   2.0000      -0.466260       -12.6876
 224   2.0000      -0.465012       -12.6536
 225   2.0000      -0.463194       -12.6042
 226   2.0000      -0.457916       -12.4605
 227   2.0000      -0.456804       -12.4303
 228   2.0000      -0.455262       -12.3883
 229   2.0000      -0.450151       -12.2492
 230   2.0000      -0.447521       -12.1777
 231   2.0000      -0.446479       -12.1493
 232   2.0000      -0.445788       -12.1305
 233   2.0000      -0.444778       -12.1030
 234   2.0000      -0.442292       -12.0354
 235   2.0000      -0.441511       -12.0141
 236   2.0000      -0.439152       -11.9499
 237   2.0000      -0.438130       -11.9221
 238   2.0000      -0.434898       -11.8342
 239   2.0000      -0.434497       -11.8233
 240   2.0000      -0.433236       -11.7890
 241   2.0000      -0.431375       -11.7383
 242   2.0000      -0.430179       -11.7058
 243   2.0000      -0.427793       -11.6408
 244   2.0000      -0.424994       -11.5647
 245   2.0000      -0.424185       -11.5427
 246   2.0000      -0.419713       -11.4210
 247   2.0000      -0.419479       -11.4146
 248   2.0000      -0.418021       -11.3749
 249   2.0000      -0.414897       -11.2899
 250   2.0000      -0.414167       -11.2701
 251   2.0000      -0.407261       -11.0821
 252   2.0000      -0.403641       -10.9836
 253   2.0000      -0.401314       -10.9203
 254   2.0000      -0.395484       -10.7617
 255   2.0000      -0.395122       -10.7518
 256   2.0000      -0.387732       -10.5507
 257   2.0000      -0.385828       -10.4989
 258   2.0000      -0.383653       -10.4397
 259   2.0000      -0.377312       -10.2672
 260   2.0000      -0.376982       -10.2582
 261   2.0000      -0.374080       -10.1792
 262   2.0000      -0.367276        -9.9941
 263   2.0000      -0.355936        -9.6855
 264   2.0000      -0.353440        -9.6176
 265   2.0000      -0.351398        -9.5620
 266   2.0000      -0.345506        -9.4017
 267   2.0000      -0.338663        -9.2155
 268   2.0000      -0.337866        -9.1938
 269   2.0000      -0.337735        -9.1902
 270   2.0000      -0.333355        -9.0710
 271   2.0000      -0.327795        -8.9197
 272   2.0000      -0.318416        -8.6645
 273   2.0000      -0.316044        -8.6000
 274   2.0000      -0.304929        -8.2975
 275   2.0000      -0.297574        -8.0974
 276   2.0000      -0.291299        -7.9266
 277   2.0000      -0.287618        -7.8265
 278   2.0000      -0.279540        -7.6067
 279   2.0000      -0.265810        -7.2331
 280   2.0000      -0.242799        -6.6069
 281   0.0000      -0.112864        -3.0712
 282   0.0000      -0.097416        -2.6508
 283   0.0000      -0.089045        -2.4230
 284   0.0000      -0.087222        -2.3734
 285   0.0000      -0.059087        -1.6078

MULLIKEN ATOMIC CHARGES
-----------------------
   0 C :    0.325582
   1 C :   -0.352716
   2 C :   -0.184060
   3 N :    0.148825
   4 C :   -0.193219
   5 N :    0.148997
   6 C :    0.046380
   7 C :   -0.001319
   8 C :   -0.079316
   9 C :    0.095697
  10 C :    0.095169
  11 C :   -0.082809
  12 C :   -0.017240
  13 C :    0.035515
  14 C :    0.036243
  15 C :   -0.016736
  16 C :    0.163839
  17 O :   -0.160575
  18 C :   -0.084024
  19 C :   -0.027036
  20 C :   -0.038649
  21 C :   -0.039412
  22 C :    0.132030
  23 C :   -0.034473
  24 S :    0.174118
  25 C :   -0.057185
  26 C :    0.129236
  27 C :   -0.028806
  28 C :   -0.048661
  29 S :    0.102117
  30 C :   -0.070253
  31 C :   -0.058488
  32 C :   -0.099238
  33 C :    0.036194
  34 C :    0.011982
  35 N :    0.050638
  36 C :   -0.115064
  37 C :    0.139237
  38 O :   -0.100725
  39 C :   -0.016037
  40 C :   -0.018400
  41 C :    0.145485
  42 O :   -0.108607
  43 C :   -0.120363
  44 N :    0.062774
  45 C :   -0.108457
  46 S :    0.223920
  47 C :   -0.051535
  48 C :   -0.077360
  49 C :    0.135814
  50 C :   -0.036728
  51 S :    0.173298
  52 C :   -0.046106
  53 C :    0.093779
  54 C :   -0.028819
  55 C :   -0.061507
  56 S :    0.120064
  57 C :   -0.096892
  58 C :   -0.003510
  59 C :    0.047385
  60 C :   -0.081218
  61 C :    0.305172
  62 C :   -0.351235
  63 C :   -0.184205
  64 N :    0.146697
  65 C :   -0.199003
  66 N :    0.160897
  67 C :    0.048248
  68 C :    0.003395
  69 C :    0.160510
  70 O :   -0.154219
  71 C :   -0.083892
  72 C :    0.099932
  73 C :    0.095712
  74 C :   -0.083362
  75 C :   -0.019802
  76 C :    0.037066
  77 C :    0.037626
  78 C :   -0.019467
  79 H :   -0.012194
  80 H :   -0.008312
  81 H :   -0.008317
  82 H :   -0.003441
  83 H :   -0.004624
  84 H :   -0.017339
  85 H :    0.012966
  86 H :    0.001946
  87 H :   -0.017542
  88 H :   -0.024691
  89 H :    0.008599
  90 H :    0.018922
  91 H :    0.018672
  92 H :   -0.017466
  93 H :   -0.016430
  94 H :   -0.027626
  95 H :    0.011266
  96 H :    0.015283
  97 H :   -0.014080
  98 H :   -0.007342
  99 H :   -0.008508
 100 H :   -0.005115
 101 H :   -0.005820
 102 H :   -0.017648
Sum of atomic charges:   -0.0000000

LOEWDIN ATOMIC CHARGES
----------------------
   0 C :    0.077810
   1 C :   -0.141078
   2 C :   -0.016823
   3 N :   -0.054426
   4 C :   -0.021846
   5 N :   -0.053926
   6 C :   -0.025754
   7 C :   -0.055206
   8 C :    0.032755
   9 C :   -0.008239
  10 C :   -0.006147
  11 C :    0.020099
  12 C :   -0.004953
  13 C :   -0.013352
  14 C :   -0.011898
  15 C :   -0.009658
  16 C :    0.083635
  17 O :   -0.153714
  18 C :   -0.099335
  19 C :    0.059621
  20 C :   -0.170235
  21 C :   -0.008486
  22 C :   -0.051790
  23 C :   -0.154476
  24 S :    0.459535
  25 C :   -0.028855
  26 C :   -0.034742
  27 C :   -0.148008
  28 C :   -0.026142
  29 S :    0.375665
  30 C :   -0.171317
  31 C :   -0.024709
  32 C :   -0.183704
  33 C :   -0.042276
  34 C :   -0.048774
  35 N :   -0.001601
  36 C :   -0.039514
  37 C :    0.055831
  38 O :   -0.097543
  39 C :   -0.011096
  40 C :   -0.013328
  41 C :    0.056696
  42 O :   -0.104274
  43 C :   -0.041784
  44 N :    0.010414
  45 C :   -0.190799
  46 S :    0.520626
  47 C :   -0.163728
  48 C :   -0.055663
  49 C :   -0.032958
  50 C :   -0.156975
  51 S :    0.445447
  52 C :   -0.018595
  53 C :   -0.051712
  54 C :   -0.145541
  55 C :   -0.039867
  56 S :    0.402665
  57 C :   -0.168325
  58 C :    0.004467
  59 C :    0.050997
  60 C :   -0.088262
  61 C :    0.076559
  62 C :   -0.140037
  63 C :   -0.016529
  64 N :   -0.054900
  65 C :   -0.026710
  66 N :   -0.048699
  67 C :   -0.026056
  68 C :   -0.054759
  69 C :    0.088557
  70 O :   -0.140656
  71 C :    0.031152
  72 C :   -0.008344
  73 C :   -0.006251
  74 C :    0.019279
  75 C :   -0.005407
  76 C :   -0.013674
  77 C :   -0.012617
  78 C :   -0.010123
  79 H :    0.039253
  80 H :    0.039086
  81 H :    0.035026
  82 H :    0.033502
  83 H :    0.032911
  84 H :    0.031913
  85 H :    0.050636
  86 H :    0.038044
  87 H :    0.036268
  88 H :    0.033495
  89 H :    0.037888
  90 H :    0.046182
  91 H :    0.046073
  92 H :    0.026995
  93 H :    0.036749
  94 H :    0.032033
  95 H :    0.035174
  96 H :    0.043739
  97 H :    0.038325
  98 H :    0.039012
  99 H :    0.034854
 100 H :    0.033054
 101 H :    0.032530
 102 H :    0.031643

  Mayer bond orders larger than 0.100000
B(  0-C ,  1-C ) :   1.6260 B(  0-C ,  6-C ) :   0.9886 B(  0-C , 18-C ) :   1.0700
B(  1-C ,  2-C ) :   1.1492 B(  1-C ,  4-C ) :   1.1424 B(  2-C ,  3-N ) :   2.9627
B(  4-C ,  5-N ) :   2.9653 B(  6-C ,  7-C ) :   1.2150 B(  6-C , 11-C ) :   1.4517
B(  7-C ,  8-C ) :   1.4683 B(  7-C , 16-C ) :   0.9563 B(  8-C ,  9-C ) :   1.1806
B(  8-C , 79-H ) :   1.0165 B(  9-C , 10-C ) :   1.2572 B(  9-C , 15-C ) :   1.2435
B( 10-C , 11-C ) :   1.2055 B( 10-C , 12-C ) :   1.2411 B( 11-C , 80-H ) :   0.9892
B( 12-C , 13-C ) :   1.4885 B( 12-C , 81-H ) :   0.9972 B( 13-C , 14-C ) :   1.2605
B( 13-C , 82-H ) :   0.9883 B( 14-C , 15-C ) :   1.4906 B( 14-C , 83-H ) :   0.9885
B( 15-C , 84-H ) :   0.9975 B( 16-C , 17-O ) :   2.1712 B( 16-C , 18-C ) :   0.9502
B( 18-C , 19-C ) :   1.5410 B( 19-C , 20-C ) :   1.2149 B( 19-C , 85-H ) :   0.9428
B( 20-C , 21-C ) :   1.4372 B( 20-C , 24-S ) :   1.0736 B( 21-C , 22-C ) :   1.1847
B( 21-C , 86-H ) :   1.0115 B( 22-C , 23-C ) :   1.2513 B( 22-C , 28-C ) :   1.2772
B( 23-C , 24-S ) :   1.0221 B( 23-C , 25-C ) :   1.3666 B( 25-C , 26-C ) :   1.3248
B( 25-C , 87-H ) :   1.0053 B( 26-C , 27-C ) :   1.2471 B( 26-C , 31-C ) :   1.1275
B( 27-C , 28-C ) :   1.4257 B( 27-C , 29-S ) :   1.0332 B( 28-C , 88-H ) :   1.0031
B( 29-S , 30-C ) :   1.0519 B( 30-C , 31-C ) :   1.5605 B( 30-C , 32-C ) :   1.1736
B( 31-C , 89-H ) :   0.9948 B( 32-C , 33-C ) :   1.3670 B( 32-C , 45-C ) :   0.1352
B( 32-C , 46-S ) :   1.1725 B( 33-C , 34-C ) :   1.1847 B( 33-C , 44-N ) :   1.4336
B( 34-C , 35-N ) :   1.4168 B( 34-C , 45-C ) :   1.3316 B( 35-N , 36-C ) :   1.7110
B( 36-C , 37-C ) :   0.8928 B( 36-C , 43-C ) :   1.0931 B( 37-C , 38-O ) :   2.2533
B( 37-C , 39-C ) :   1.0212 B( 39-C , 40-C ) :   1.6765 B( 39-C , 90-H ) :   0.9990
B( 40-C , 41-C ) :   1.0266 B( 40-C , 91-H ) :   0.9996 B( 41-C , 42-O ) :   2.2289
B( 41-C , 43-C ) :   0.8972 B( 43-C , 44-N ) :   1.7174 B( 45-C , 46-S ) :   1.1621
B( 45-C , 47-C ) :   1.2068 B( 47-C , 48-C ) :   1.4928 B( 47-C , 51-S ) :   1.1001
B( 48-C , 49-C ) :   1.1739 B( 48-C , 92-H ) :   1.0023 B( 49-C , 50-C ) :   1.2519
B( 49-C , 55-C ) :   1.3122 B( 50-C , 51-S ) :   1.0109 B( 50-C , 52-C ) :   1.4067
B( 52-C , 53-C ) :   1.2924 B( 52-C , 93-H ) :   1.0034 B( 53-C , 54-C ) :   1.2579
B( 53-C , 58-C ) :   1.1613 B( 54-C , 55-C ) :   1.3822 B( 54-C , 56-S ) :   1.0604
B( 55-C , 94-H ) :   1.0045 B( 56-S , 57-C ) :   1.0591 B( 57-C , 58-C ) :   1.5100
B( 57-C , 59-C ) :   1.1910 B( 58-C , 95-H ) :   0.9816 B( 59-C , 60-C ) :   1.6154
B( 59-C , 96-H ) :   0.9196 B( 60-C , 61-C ) :   1.0679 B( 60-C , 69-C ) :   0.9333
B( 61-C , 62-C ) :   1.6315 B( 61-C , 67-C ) :   0.9840 B( 62-C , 63-C ) :   1.1491
B( 62-C , 65-C ) :   1.1357 B( 63-C , 64-N ) :   2.9674 B( 65-C , 66-N ) :   2.9895
B( 67-C , 68-C ) :   1.2167 B( 67-C , 74-C ) :   1.4492 B( 68-C , 69-C ) :   0.9545
B( 68-C , 71-C ) :   1.4670 B( 69-C , 70-O ) :   2.1714 B( 71-C , 72-C ) :   1.1795
B( 71-C , 97-H ) :   1.0170 B( 72-C , 73-C ) :   1.2560 B( 72-C , 78-C ) :   1.2429
B( 73-C , 74-C ) :   1.2058 B( 73-C , 75-C ) :   1.2401 B( 74-C , 98-H ) :   0.9910
B( 75-C , 76-C ) :   1.4882 B( 75-C , 99-H ) :   0.9977 B( 76-C , 77-C ) :   1.2595
B( 76-C ,100-H ) :   0.9890 B( 77-C , 78-C ) :   1.4899 B( 77-C ,101-H ) :   0.9883
B( 78-C ,102-H ) :   0.9980

-----------------------------------------------------------------------------
         ABSORPTION SPECTRUM VIA TRANSITION ELECTRIC DIPOLE MOMENTS
-----------------------------------------------------------------------------
State   Energy  Wavelength   fosc         T2         TX        TY        TZ
        (cm-1)    (nm)                  (au**2)     (au)      (au)      (au)
-----------------------------------------------------------------------------
   0   13263.0    754.0   1.543154098  38.30399  -0.98985  -5.89717  -1.59613
   1   17488.3    571.8   0.182885929   3.44277   1.62308   0.29681  -0.84870
   2   19026.9    525.6   0.014183299   0.24541   0.48269  -0.04379  -0.10245
   3   19912.8    502.2   0.981178431  16.22154  -0.76266  -3.87512  -0.78952
   4   20753.1    481.9   0.395429389   6.27281  -0.30419  -2.24834  -1.06079
   5   20948.3    477.4   0.042855782   0.67350   0.55194  -0.54695  -0.26402
   6   23958.3    417.4   0.088304627   1.21340   0.81261  -0.48476  -0.56398
   7   24460.1    408.8   0.028508617   0.38370  -0.45333   0.16903   0.38681
   8   24667.7    405.4   0.002733252   0.03648  -0.14930   0.01627  -0.11800
   9   25081.2    398.7   0.312889684   4.10694  -0.09814  -1.88390  -0.74043
  10   25706.1    389.0   0.009101455   0.11656   0.02900   0.33534   0.05713
  11   25847.2    386.9   0.000297570   0.00379  -0.03441  -0.03571  -0.03648
  12   26355.8    379.4   0.008186145   0.10225   0.05255   0.27886   0.14740
  13   26553.8    376.6   0.000153442   0.00190  -0.04192   0.00659  -0.01007
  14   26600.4    375.9   0.016664973   0.20625   0.18798  -0.21479   0.35324
  15   27185.0    367.8   0.021521158   0.26062  -0.02682   0.48555   0.15539
  16   27416.8    364.7   0.037689713   0.45257  -0.40955  -0.39213   0.36203
  17   27779.6    360.0   0.073067366   0.86591  -0.12766   0.30792   0.86879
  18   27789.9    359.8   0.012056460   0.14283   0.12094   0.32195   0.15668
  19   27955.1    357.7   0.342496424   4.03340   0.31253   1.94089   0.41070
  20   28489.2    351.0   0.145209106   1.67799   0.26457   1.23319   0.29533
  21   29067.8    344.0   0.020077829   0.22739  -0.04718  -0.47446   0.00755
  22   29426.3    339.8   0.021976451   0.24587  -0.18130  -0.46065  -0.02830
  23   29553.0    338.4   0.051937075   0.57856  -0.34859  -0.62984   0.24565
  24   29862.5    334.9   0.180901673   1.99431   0.07586  -0.89304  -1.09135
  25   30809.3    324.6   0.000625748   0.00669   0.01368   0.08050   0.00442
  26   31025.2    322.3   0.130442678   1.38414   0.29605   1.13266   0.11648
  27   31209.9    320.4   0.124989193   1.31843   0.17605   1.12240   0.16626
  28   31675.1    315.7   0.022625262   0.23515   0.18184  -0.21514  -0.39472
  29   32353.8    309.1   0.025709139   0.26160  -0.02481  -0.38120  -0.34011
  30   32875.7    304.2   0.062761206   0.62848   0.10365  -0.40317  -0.67468
  31   32983.1    303.2   0.093860676   0.93685  -0.40771  -0.57987   0.65906
  32   33440.0    299.0   0.641690329   6.31735  -1.09014  -1.50713   1.69042
  33   33471.5    298.8   0.115844055   1.13939  -0.21290  -0.77858  -0.69848
  34   33759.4    296.2   0.025333146   0.24704   0.22984   0.42201  -0.12697
  35   33808.7    295.8   0.245130827   2.38696   0.30603  -0.92077  -1.20229
  36   33890.4    295.1   0.161077899   1.56471   0.16629  -0.55119  -1.11052
  37   34019.4    293.9   0.082411560   0.79751  -0.02761  -0.71281  -0.53727
  38   34094.1    293.3   0.000090720   0.00088   0.02739   0.01121  -0.00012
  39   34169.7    292.7   0.301368863   2.90357  -1.05208  -0.64859   1.17305
  40   34328.0    291.3   0.141136169   1.35352   0.49833   0.27853  -1.01371
  41   34508.6    289.8   0.030002522   0.28622  -0.40385  -0.34859  -0.04020
  42   34766.5    287.6   0.071965534   0.68146  -0.44517   0.09406   0.68879
  43   35293.3    283.3   0.000183548   0.00171   0.02308  -0.00135  -0.03432
  44   35654.6    280.5   0.332662033   3.07159  -1.26285  -0.11355   1.20992
  45   35883.2    278.7   0.017778374   0.16311   0.07659   0.35558  -0.17552
  46   36046.4    277.4   0.072244395   0.65981  -0.60578  -0.30776   0.44511
  47   36499.6    274.0   0.102184678   0.92167  -0.52253   0.21030   0.77743
  48   36561.4    273.5   0.031920527   0.28742  -0.41193   0.04266   0.34047
  49   36741.9    272.2   0.008645362   0.07746  -0.03098  -0.01383   0.27625
  50   37007.3    270.2   0.109227656   0.97167   0.64929   0.48508  -0.56107
  51   37141.2    269.2   0.092015966   0.81561  -0.40831  -0.79812   0.10906
  52   37297.2    268.1   0.044455566   0.39240   0.03243  -0.32252  -0.53603
  53   37356.1    267.7   0.013200209   0.11633  -0.04775  -0.17483   0.28894
  54   37448.0    267.0   0.132232792   1.16248  -0.60230  -0.05721   0.89243
  55   37895.6    263.9   0.089942465   0.78136   0.52372   0.28350  -0.65323
  56   38113.0    262.4   0.039545393   0.34158   0.23960   0.52589  -0.08729
  57   38265.1    261.3   0.002708037   0.02330  -0.07390   0.13342  -0.00598
  58   38436.9    260.2   0.007371174   0.06313  -0.06083   0.13483   0.20311
  59   38591.5    259.1   0.069846647   0.59584  -0.60156  -0.43624   0.20894
  60   38922.5    256.9   0.024712990   0.20903   0.25694   0.04526  -0.37545
  61   38993.2    256.5   0.013653994   0.11528  -0.02837  -0.05668  -0.33356
  62   39118.4    255.6   0.003561008   0.02997   0.09050   0.05945  -0.13507
  63   39398.8    253.8   0.210990840   1.76302   0.89337   0.12093  -0.97483
  64   39596.4    252.5   0.034712916   0.28861   0.31822   0.28665  -0.32431
  65   39712.4    251.8   0.102888202   0.85293   0.51523   0.74714  -0.17103
  66   40046.9    249.7   0.084966466   0.69848  -0.31412   0.72111   0.28251
  67   40064.9    249.6   0.028533174   0.23446   0.07850  -0.38160  -0.28754
  68   40180.8    248.9   0.055674839   0.45616  -0.31772  -0.59127  -0.07492

FINAL SINGLE POINT ENERGY     -5069.099302869595

DIPOLE MOMENT
-------------
                                X             Y             Z
Electronic contribution:     -1.63889      -5.74761      19.63813
Nuclear contribution   :      3.59463       7.33491     -23.10513
                        -----------------------------------------
Total Dipole Moment    :      1.95574       1.58730      -3.46700
                        -----------------------------------------
Magnitude (a.u.)       :      4.28538
Magnitude (Debye)      :     10.89258

Rotational constants in cm-1:     0.002041     0.000136     0.000130
Rotational constants in MHz :    61.181012     4.089304     3.899423

                             ****ORCA TERMINATED NORMALLY****
TOTAL RUN TIME: 0 days 0 hours 9 minutes 46 seconds 617 msec
