                         Program Version 4.2.0 -  RELEASE  -
|  1> # ORCA input file
|  2> # SCF done       -174.077560239150          0.000470851521
|  3> ! CAM-B3LYP def2-SVP def2/J RIJCOSX Grid4 TightSCF
|  4> %maxcore 5000
|  5> %tddft
|  6>     Mode sTDDFT
|  7>     Ethresh 5.0
|  8>     maxcore 5000
|  9> end
| 10>
| 11> %pal
| 12>   nprocs 6
| 13>   end
| 14> * xyz 0 1
| 15>    C        1.77941         1.91053         0.42841
| 16>    S        1.33435         1.05157        -0.97194
| 17>    C        2.55209        -0.15549        -0.71551
| 18>    C        3.29582         0.13637         0.43774
| 19>    C        2.82513         1.31774         1.10346
| 20>    C        3.44449         1.70738         2.32070
| 21>    S        2.85205         3.08427         3.25552
| 22>    C        4.51783         0.99983         2.79103
| 23>    C        4.99685        -0.12960         2.10377
| 24>    C        4.39227        -0.57478         0.96203
| 25>    C        2.63849        -1.33869        -1.48113
| 26>    C        1.89376        -1.68523        -2.56548
| 27>    C        1.84371        -3.02621        -3.03474
| 28>    S        1.58928        -3.44423        -4.69712
| 29>    C        1.74797        -5.12016        -4.33207
| 30>    C        1.98464        -5.37056        -3.01835
| 31>    C        2.08790        -6.74057        -2.43982
| 32>    C        2.03191        -4.16972        -2.24919
| 33>    C        2.14619        -4.03191        -0.82994
| 34>    C        2.94009        -4.72188         0.02662
| 35>    C        3.17318        -4.29739         1.36172
| 36>    C        2.63065        -3.20343         1.97227
| 37>    C        3.08613        -2.71405         3.21241
| 38>    O        4.11037        -3.32564         3.86152
| 39>    C        2.71758        -1.59491         3.95074
| 40>    C        1.84565        -0.42393         3.96489
| 41>    O        1.00299        -0.04421         3.18786
| 42>    N        2.21015         0.24493         5.13269
| 43>    C        3.24150        -0.34658         5.85840
| 44>    O        3.71292         0.08886         6.87712
| 45>    C        3.56382        -1.54577         5.08072
| 46>    C        4.42621        -2.62966         4.99618
| 47>    C        5.50271        -3.06927         5.78838
| 48>    C        6.27977        -4.11719         5.36761
| 49>    C        7.38552        -4.66706         6.01490
| 50>    C        8.13560        -5.66971         5.43110
| 51>    C        9.26135        -6.34728         5.94345
| 52>    C        9.79120        -7.27764         5.09182
| 53>    C        9.11258        -7.37012         3.86078
| 54>    S        7.77068        -6.26382         3.81924
| 55>    C        9.39950        -8.16834         2.75926
| 56>    C       10.42080        -9.12005         2.59863
| 57>    C       10.43195        -9.70727         1.36182
| 58>    C        9.42565        -9.24026         0.49278
| 59>    S        8.44480        -8.04140         1.29960
| 60>    C        9.21547        -9.62573        -0.82287
| 61>    C        8.21904        -9.08573        -1.62080
| 62>    C        7.99937        -9.41435        -2.94946
| 63>    C        6.99283        -8.86683        -3.81248
| 64>    C        6.01896        -7.94430        -3.48962
| 65>    C        5.05821        -7.45684        -4.39503
| 66>    N        4.23615        -7.01676        -5.06790
| 67>    C        5.80785        -7.36572        -2.22643
| 68>    N        5.52283        -6.84015        -1.24264
| 69>    C        7.16011        -9.46886        -5.13483
| 70>    C        8.23982       -10.38239        -5.08118
| 71>    C        8.80269       -10.38590        -3.71218
| 72>    O        9.73812       -11.06084        -3.32600
| 73>    C        8.64829       -11.11233        -6.16861
| 74>    C        7.95719       -10.93184        -7.37297
| 75>    C        6.88157       -10.01660        -7.41754
| 76>    C        6.46796        -9.27794        -6.31439
| 77>    S        6.16772        -9.94544        -9.00125
| 78>    C        7.31107       -11.13091        -9.57306
| 79>    C        8.18215       -11.55904        -8.62937
| 80>   Br        7.24635       -11.69083       -11.36307
| 81>    H        1.25303         2.81310         0.66953
| 82>    H        1.59603         3.01690         2.81982
| 83>    H        4.99241         1.30489         3.71186
| 84>    H        5.84495        -0.65947         2.51127
| 85>    H        4.75529        -1.45652         0.45785
| 86>    H        3.36355        -2.05449        -1.11790
| 87>    H        1.29973        -0.94282        -3.08164
| 88>    H        1.66745        -5.83494        -5.12640
| 89>    H        1.81881        -7.48341        -3.18579
| 90>    H        1.42785        -6.83560        -1.57916
| 91>    H        3.10478        -6.93913        -2.10886
| 92>    H        1.57876        -3.19996        -0.43054
| 93>    H        3.54148        -5.54442        -0.32999
| 94>    H        3.92516        -4.84860         1.91108
| 95>    H        1.85128        -2.61194         1.51776
| 96>    H        1.79550         1.12448         5.40706
| 97>    H        5.69715        -2.53357         6.70438
| 98>    H        6.01602        -4.56053         4.41477
| 99>    H        7.67715        -4.30471         6.99080
|100>    H        9.65041        -6.13203         6.92303
|101>    H       10.64960        -7.88450         5.31737
|102>    H       11.11751        -9.35111         3.38441
|103>    H       11.13816       -10.45596         1.05007
|104>    H        9.87473       -10.37310        -1.23983
|105>    H        7.57509        -8.34139        -1.16656
|106>    H        9.47555       -11.80089        -6.09596
|107>    H        5.64202        -8.59231        -6.40241
|108>    H        8.95236       -12.28664        -8.80954
|109> *
|110>
|111>                          ****END OF INPUT****

CARTESIAN COORDINATES (ANGSTROEM)
---------------------------------
  C      1.779410    1.910530    0.428410
  S      1.334350    1.051570   -0.971940
  C      2.552090   -0.155490   -0.715510
  C      3.295820    0.136370    0.437740
  C      2.825130    1.317740    1.103460
  C      3.444490    1.707380    2.320700
  S      2.852050    3.084270    3.255520
  C      4.517830    0.999830    2.791030
  C      4.996850   -0.129600    2.103770
  C      4.392270   -0.574780    0.962030
  C      2.638490   -1.338690   -1.481130
  C      1.893760   -1.685230   -2.565480
  C      1.843710   -3.026210   -3.034740
  S      1.589280   -3.444230   -4.697120
  C      1.747970   -5.120160   -4.332070
  C      1.984640   -5.370560   -3.018350
  C      2.087900   -6.740570   -2.439820
  C      2.031910   -4.169720   -2.249190
  C      2.146190   -4.031910   -0.829940
  C      2.940090   -4.721880    0.026620
  C      3.173180   -4.297390    1.361720
  C      2.630650   -3.203430    1.972270
  C      3.086130   -2.714050    3.212410
  O      4.110370   -3.325640    3.861520
  C      2.717580   -1.594910    3.950740
  C      1.845650   -0.423930    3.964890
  O      1.002990   -0.044210    3.187860
  N      2.210150    0.244930    5.132690
  C      3.241500   -0.346580    5.858400
  O      3.712920    0.088860    6.877120
  C      3.563820   -1.545770    5.080720
  C      4.426210   -2.629660    4.996180
  C      5.502710   -3.069270    5.788380
  C      6.279770   -4.117190    5.367610
  C      7.385520   -4.667060    6.014900
  C      8.135600   -5.669710    5.431100
  C      9.261350   -6.347280    5.943450
  C      9.791200   -7.277640    5.091820
  C      9.112580   -7.370120    3.860780
  S      7.770680   -6.263820    3.819240
  C      9.399500   -8.168340    2.759260
  C     10.420800   -9.120050    2.598630
  C     10.431950   -9.707270    1.361820
  C      9.425650   -9.240260    0.492780
  S      8.444800   -8.041400    1.299600
  C      9.215470   -9.625730   -0.822870
  C      8.219040   -9.085730   -1.620800
  C      7.999370   -9.414350   -2.949460
  C      6.992830   -8.866830   -3.812480
  C      6.018960   -7.944300   -3.489620
  C      5.058210   -7.456840   -4.395030
  N      4.236150   -7.016760   -5.067900
  C      5.807850   -7.365720   -2.226430
  N      5.522830   -6.840150   -1.242640
  C      7.160110   -9.468860   -5.134830
  C      8.239820  -10.382390   -5.081180
  C      8.802690  -10.385900   -3.712180
  O      9.738120  -11.060840   -3.326000
  C      8.648290  -11.112330   -6.168610
  C      7.957190  -10.931840   -7.372970
  C      6.881570  -10.016600   -7.417540
  C      6.467960   -9.277940   -6.314390
  S      6.167720   -9.945440   -9.001250
  C      7.311070  -11.130910   -9.573060
  C      8.182150  -11.559040   -8.629370
  Br     7.246350  -11.690830  -11.363070
  H      1.253030    2.813100    0.669530
  H      1.596030    3.016900    2.819820
  H      4.992410    1.304890    3.711860
  H      5.844950   -0.659470    2.511270
  H      4.755290   -1.456520    0.457850
  H      3.363550   -2.054490   -1.117900
  H      1.299730   -0.942820   -3.081640
  H      1.667450   -5.834940   -5.126400
  H      1.818810   -7.483410   -3.185790
  H      1.427850   -6.835600   -1.579160
  H      3.104780   -6.939130   -2.108860
  H      1.578760   -3.199960   -0.430540
  H      3.541480   -5.544420   -0.329990
  H      3.925160   -4.848600    1.911080
  H      1.851280   -2.611940    1.517760
  H      1.795500    1.124480    5.407060
  H      5.697150   -2.533570    6.704380
  H      6.016020   -4.560530    4.414770
  H      7.677150   -4.304710    6.990800
  H      9.650410   -6.132030    6.923030
  H     10.649600   -7.884500    5.317370
  H     11.117510   -9.351110    3.384410
  H     11.138160  -10.455960    1.050070
  H      9.874730  -10.373100   -1.239830
  H      7.575090   -8.341390   -1.166560
  H      9.475550  -11.800890   -6.095960
  H      5.642020   -8.592310   -6.402410
  H      8.952360  -12.286640   -8.809540

 Total Charge           Charge          ....    0
 Multiplicity           Mult            ....    1
 Number of Electrons    NEL             ....  524
 Basis Dimension        Dim             .... 1106

ORBITAL ENERGIES
----------------

  NO   OCC          E(Eh)            E(eV)
   0   2.0000    -482.877819    -13139.7735
   1   2.0000     -88.966671     -2420.9062
   2   2.0000     -88.965470     -2420.8735
   3   2.0000     -88.962134     -2420.7827
   4   2.0000     -88.960737     -2420.7447
   5   2.0000     -88.937438     -2420.1107
   6   2.0000     -88.927788     -2419.8481
   7   2.0000     -62.555537     -1702.2227
   8   2.0000     -56.389477     -1534.4357
   9   2.0000     -56.386782     -1534.3623
  10   2.0000     -56.386742     -1534.3613
  11   2.0000     -19.301183      -525.2119
  12   2.0000     -19.204295      -522.5754
  13   2.0000     -19.199809      -522.4534
  14   2.0000     -19.199410      -522.4425
  15   2.0000     -14.443169      -393.0186
  16   2.0000     -14.408451      -392.0739
  17   2.0000     -14.402291      -391.9063
  18   2.0000     -10.392833      -282.8034
  19   2.0000     -10.388576      -282.6875
  20   2.0000     -10.357192      -281.8335
  21   2.0000     -10.354123      -281.7500
  22   2.0000     -10.349636      -281.6279
  23   2.0000     -10.349082      -281.6128
  24   2.0000     -10.339531      -281.3529
  25   2.0000     -10.327120      -281.0152
  26   2.0000     -10.325645      -280.9751
  27   2.0000     -10.325242      -280.9641
  28   2.0000     -10.321985      -280.8755
  29   2.0000     -10.321560      -280.8639
  30   2.0000     -10.313922      -280.6561
  31   2.0000     -10.313515      -280.6450
  32   2.0000     -10.310019      -280.5499
  33   2.0000     -10.309454      -280.5345
  34   2.0000     -10.307645      -280.4853
  35   2.0000     -10.306289      -280.4484
  36   2.0000     -10.305624      -280.4303
  37   2.0000     -10.305592      -280.4294
  38   2.0000     -10.302320      -280.3404
  39   2.0000     -10.297914      -280.2205
  40   2.0000     -10.295608      -280.1577
  41   2.0000     -10.295151      -280.1453
  42   2.0000     -10.294273      -280.1214
  43   2.0000     -10.293876      -280.1106
  44   2.0000     -10.293846      -280.1098
  45   2.0000     -10.292875      -280.0834
  46   2.0000     -10.291586      -280.0483
  47   2.0000     -10.290201      -280.0106
  48   2.0000     -10.288952      -279.9766
  49   2.0000     -10.288166      -279.9552
  50   2.0000     -10.287459      -279.9360
  51   2.0000     -10.283969      -279.8410
  52   2.0000     -10.278825      -279.7010
  53   2.0000     -10.278596      -279.6948
  54   2.0000     -10.278386      -279.6891
  55   2.0000     -10.277859      -279.6748
  56   2.0000     -10.275838      -279.6198
  57   2.0000     -10.275760      -279.6176
  58   2.0000     -10.275413      -279.6082
  59   2.0000     -10.274637      -279.5871
  60   2.0000     -10.273712      -279.5619
  61   2.0000     -10.272333      -279.5244
  62   2.0000     -10.270164      -279.4654
  63   2.0000     -10.269696      -279.4526
  64   2.0000     -10.269063      -279.4354
  65   2.0000     -10.267443      -279.3913
  66   2.0000     -10.265924      -279.3500
  67   2.0000     -10.260861      -279.2122
  68   2.0000     -10.258376      -279.1446
  69   2.0000     -10.245097      -278.7833
  70   2.0000      -8.784961      -239.0509
  71   2.0000      -8.062910      -219.4029
  72   2.0000      -8.061538      -219.3656
  73   2.0000      -8.057519      -219.2562
  74   2.0000      -8.056785      -219.2363
  75   2.0000      -8.033703      -218.6082
  76   2.0000      -8.023140      -218.3207
  77   2.0000      -6.621224      -180.1727
  78   2.0000      -6.606699      -179.7774
  79   2.0000      -6.606536      -179.7730
  80   2.0000      -6.032484      -164.1522
  81   2.0000      -6.031228      -164.1181
  82   2.0000      -6.028454      -164.0426
  83   2.0000      -6.026972      -164.0022
  84   2.0000      -6.026392      -163.9865
  85   2.0000      -6.026329      -163.9848
  86   2.0000      -6.024102      -163.9241
  87   2.0000      -6.022736      -163.8870
  88   2.0000      -6.022292      -163.8749
  89   2.0000      -6.022148      -163.8710
  90   2.0000      -6.020689      -163.8313
  91   2.0000      -6.018082      -163.7603
  92   2.0000      -6.002965      -163.3490
  93   2.0000      -5.998731      -163.2338
  94   2.0000      -5.995912      -163.1571
  95   2.0000      -5.993311      -163.0863
  96   2.0000      -5.989409      -162.9801
  97   2.0000      -5.983343      -162.8150
  98   2.0000      -2.737077       -74.4797
  99   2.0000      -2.733033       -74.3696
 100   2.0000      -2.732908       -74.3662
 101   2.0000      -2.721367       -74.0522
 102   2.0000      -2.721347       -74.0516
 103   2.0000      -1.218340       -33.1527
 104   2.0000      -1.145815       -31.1792
 105   2.0000      -1.124535       -30.6001
 106   2.0000      -1.112719       -30.2786
 107   2.0000      -1.032714       -28.1016
 108   2.0000      -1.015352       -27.6291
 109   2.0000      -1.010931       -27.5088
 110   2.0000      -1.003553       -27.3081
 111   2.0000      -0.991672       -26.9848
 112   2.0000      -0.991467       -26.9792
 113   2.0000      -0.984494       -26.7894
 114   2.0000      -0.976132       -26.5619
 115   2.0000      -0.971040       -26.4234
 116   2.0000      -0.939170       -25.5561
 117   2.0000      -0.934059       -25.4170
 118   2.0000      -0.931305       -25.3421
 119   2.0000      -0.917405       -24.9639
 120   2.0000      -0.914639       -24.8886
 121   2.0000      -0.905715       -24.6458
 122   2.0000      -0.896487       -24.3947
 123   2.0000      -0.894177       -24.3318
 124   2.0000      -0.890118       -24.2213
 125   2.0000      -0.878635       -23.9089
 126   2.0000      -0.874569       -23.7982
 127   2.0000      -0.873672       -23.7738
 128   2.0000      -0.864423       -23.5222
 129   2.0000      -0.860232       -23.4081
 130   2.0000      -0.841792       -22.9063
 131   2.0000      -0.838579       -22.8189
 132   2.0000      -0.835541       -22.7362
 133   2.0000      -0.825550       -22.4644
 134   2.0000      -0.823062       -22.3966
 135   2.0000      -0.817555       -22.2468
 136   2.0000      -0.805040       -21.9062
 137   2.0000      -0.794756       -21.6264
 138   2.0000      -0.782637       -21.2966
 139   2.0000      -0.774097       -21.0643
 140   2.0000      -0.766213       -20.8497
 141   2.0000      -0.757826       -20.6215
 142   2.0000      -0.749027       -20.3821
 143   2.0000      -0.745441       -20.2845
 144   2.0000      -0.742406       -20.2019
 145   2.0000      -0.731871       -19.9152
 146   2.0000      -0.714936       -19.4544
 147   2.0000      -0.707111       -19.2415
 148   2.0000      -0.699444       -19.0328
 149   2.0000      -0.693589       -18.8735
 150   2.0000      -0.686099       -18.6697
 151   2.0000      -0.684168       -18.6172
 152   2.0000      -0.679287       -18.4843
 153   2.0000      -0.676294       -18.4029
 154   2.0000      -0.668387       -18.1877
 155   2.0000      -0.660666       -17.9776
 156   2.0000      -0.648754       -17.6535
 157   2.0000      -0.646599       -17.5949
 158   2.0000      -0.642471       -17.4825
 159   2.0000      -0.637350       -17.3432
 160   2.0000      -0.627817       -17.0838
 161   2.0000      -0.622929       -16.9508
 162   2.0000      -0.619350       -16.8534
 163   2.0000      -0.613752       -16.7010
 164   2.0000      -0.610932       -16.6243
 165   2.0000      -0.608046       -16.5458
 166   2.0000      -0.593409       -16.1475
 167   2.0000      -0.589420       -16.0389
 168   2.0000      -0.586517       -15.9599
 169   2.0000      -0.585881       -15.9426
 170   2.0000      -0.582784       -15.8583
 171   2.0000      -0.578557       -15.7433
 172   2.0000      -0.576414       -15.6850
 173   2.0000      -0.568640       -15.4735
 174   2.0000      -0.565708       -15.3937
 175   2.0000      -0.556831       -15.1521
 176   2.0000      -0.549700       -14.9581
 177   2.0000      -0.547929       -14.9099
 178   2.0000      -0.545363       -14.8401
 179   2.0000      -0.541776       -14.7425
 180   2.0000      -0.536876       -14.6091
 181   2.0000      -0.534635       -14.5482
 182   2.0000      -0.532368       -14.4865
 183   2.0000      -0.528234       -14.3740
 184   2.0000      -0.525986       -14.3128
 185   2.0000      -0.525420       -14.2974
 186   2.0000      -0.517800       -14.0901
 187   2.0000      -0.515456       -14.0263
 188   2.0000      -0.514671       -14.0049
 189   2.0000      -0.513122       -13.9628
 190   2.0000      -0.509490       -13.8639
 191   2.0000      -0.508704       -13.8425
 192   2.0000      -0.506806       -13.7909
 193   2.0000      -0.500852       -13.6289
 194   2.0000      -0.499216       -13.5844
 195   2.0000      -0.498491       -13.5646
 196   2.0000      -0.497009       -13.5243
 197   2.0000      -0.495486       -13.4829
 198   2.0000      -0.493140       -13.4190
 199   2.0000      -0.491673       -13.3791
 200   2.0000      -0.485712       -13.2169
 201   2.0000      -0.483869       -13.1668
 202   2.0000      -0.483199       -13.1485
 203   2.0000      -0.481871       -13.1124
 204   2.0000      -0.479713       -13.0536
 205   2.0000      -0.478903       -13.0316
 206   2.0000      -0.478140       -13.0109
 207   2.0000      -0.472714       -12.8632
 208   2.0000      -0.470097       -12.7920
 209   2.0000      -0.465646       -12.6709
 210   2.0000      -0.459796       -12.5117
 211   2.0000      -0.459274       -12.4975
 212   2.0000      -0.455133       -12.3848
 213   2.0000      -0.449963       -12.2441
 214   2.0000      -0.449723       -12.2376
 215   2.0000      -0.447506       -12.1773
 216   2.0000      -0.446241       -12.1428
 217   2.0000      -0.440109       -11.9760
 218   2.0000      -0.439379       -11.9561
 219   2.0000      -0.437128       -11.8949
 220   2.0000      -0.436366       -11.8741
 221   2.0000      -0.435894       -11.8613
 222   2.0000      -0.433681       -11.8011
 223   2.0000      -0.433259       -11.7896
 224   2.0000      -0.430917       -11.7259
 225   2.0000      -0.427473       -11.6321
 226   2.0000      -0.421618       -11.4728
 227   2.0000      -0.418371       -11.3844
 228   2.0000      -0.417946       -11.3729
 229   2.0000      -0.414397       -11.2763
 230   2.0000      -0.412992       -11.2381
 231   2.0000      -0.411124       -11.1873
 232   2.0000      -0.409833       -11.1521
 233   2.0000      -0.405029       -11.0214
 234   2.0000      -0.400320       -10.8932
 235   2.0000      -0.399158       -10.8617
 236   2.0000      -0.397965       -10.8292
 237   2.0000      -0.393118       -10.6973
 238   2.0000      -0.383131       -10.4255
 239   2.0000      -0.377474       -10.2716
 240   2.0000      -0.370906       -10.0929
 241   2.0000      -0.370112       -10.0713
 242   2.0000      -0.367486        -9.9998
 243   2.0000      -0.363196        -9.8831
 244   2.0000      -0.358952        -9.7676
 245   2.0000      -0.355100        -9.6628
 246   2.0000      -0.351074        -9.5532
 247   2.0000      -0.346963        -9.4414
 248   2.0000      -0.338061        -9.1991
 249   2.0000      -0.336765        -9.1638
 250   2.0000      -0.332196        -9.0395
 251   2.0000      -0.319918        -8.7054
 252   2.0000      -0.311931        -8.4881
 253   2.0000      -0.310762        -8.4563
 254   2.0000      -0.306217        -8.3326
 255   2.0000      -0.304284        -8.2800
 256   2.0000      -0.288713        -7.8563
 257   2.0000      -0.282745        -7.6939
 258   2.0000      -0.276231        -7.5166
 259   2.0000      -0.252719        -6.8768
 260   2.0000      -0.229986        -6.2582
 261   2.0000      -0.217186        -5.9099
 262   0.0000      -0.117692        -3.2026
 263   0.0000      -0.068022        -1.8510
 264   0.0000      -0.055812        -1.5187
 265   0.0000      -0.046233        -1.2581
 266   0.0000      -0.036502        -0.9933

MULLIKEN ATOMIC CHARGES
-----------------------
   0 C :   -0.158414
   1 S :    0.161144
   2 C :   -0.120800
   3 C :    0.103810
   4 C :    0.136130
   5 C :   -0.081136
   6 S :    0.011694
   7 C :   -0.027981
   8 C :    0.030195
   9 C :   -0.014418
  10 C :   -0.056126
  11 C :    0.018664
  12 C :   -0.140019
  13 S :    0.113490
  14 C :   -0.104964
  15 C :   -0.072927
  16 C :    0.132262
  17 C :    0.114475
  18 C :   -0.068465
  19 C :   -0.009460
  20 C :    0.026126
  21 C :   -0.040183
  22 C :    0.113960
  23 O :   -0.228783
  24 C :   -0.028731
  25 C :    0.177287
  26 O :   -0.157036
  27 N :   -0.163079
  28 C :    0.148224
  29 O :   -0.143203
  30 C :   -0.007666
  31 C :    0.065495
  32 C :   -0.008082
  33 C :   -0.009738
  34 C :    0.039240
  35 C :   -0.042232
  36 C :    0.055683
  37 C :    0.019359
  38 C :   -0.022690
  39 S :    0.097184
  40 C :   -0.052743
  41 C :    0.043432
  42 C :    0.020002
  43 C :    0.007668
  44 S :    0.105252
  45 C :   -0.025650
  46 C :   -0.040655
  47 C :   -0.095132
  48 C :    0.333916
  49 C :   -0.368921
  50 C :   -0.195433
  51 N :    0.133654
  52 C :   -0.161524
  53 N :    0.112791
  54 C :    0.013876
  55 C :   -0.006157
  56 C :    0.137956
  57 O :   -0.167197
  58 C :   -0.082251
  59 C :    0.120396
  60 C :   -0.089880
  61 C :   -0.032465
  62 S :    0.176521
  63 C :   -0.122309
  64 C :    0.033825
  65 Br:    0.013979
  66 H :    0.015392
  67 H :    0.066523
  68 H :   -0.015440
  69 H :   -0.014481
  70 H :   -0.021035
  71 H :    0.032008
  72 H :   -0.005172
  73 H :    0.023571
  74 H :    0.005408
  75 H :    0.016626
  76 H :    0.030202
  77 H :    0.039677
  78 H :   -0.011370
  79 H :    0.006722
  80 H :    0.007816
  81 H :    0.131228
  82 H :    0.013613
  83 H :    0.030139
  84 H :   -0.001301
  85 H :   -0.001512
  86 H :   -0.006239
  87 H :   -0.005737
  88 H :   -0.001162
  89 H :    0.015572
  90 H :    0.011473
  91 H :   -0.015069
  92 H :   -0.012593
  93 H :   -0.006099
Sum of atomic charges:   -0.0000000

LOEWDIN ATOMIC CHARGES
----------------------
   0 C :   -0.191565
   1 S :    0.493012
   2 C :   -0.189434
   3 C :   -0.039906
   4 C :   -0.065580
   5 C :   -0.141816
   6 S :    0.226506
   7 C :   -0.063322
   8 C :   -0.023970
   9 C :   -0.022652
  10 C :   -0.032010
  11 C :   -0.050898
  12 C :   -0.167445
  13 S :    0.426935
  14 C :   -0.172673
  15 C :   -0.051434
  16 C :   -0.046211
  17 C :   -0.061575
  18 C :    0.025720
  19 C :   -0.061006
  20 C :    0.025208
  21 C :   -0.067672
  22 C :    0.093510
  23 O :    0.007934
  24 C :   -0.107483
  25 C :    0.085742
  26 O :   -0.171032
  27 N :   -0.000372
  28 C :    0.080937
  29 O :   -0.163565
  30 C :   -0.075841
  31 C :    0.048390
  32 C :   -0.006576
  33 C :   -0.038607
  34 C :   -0.012473
  35 C :   -0.155536
  36 C :   -0.009869
  37 C :   -0.041400
  38 C :   -0.143566
  39 S :    0.409082
  40 C :   -0.199067
  41 C :   -0.007429
  42 C :   -0.048046
  43 C :   -0.102861
  44 S :    0.412686
  45 C :   -0.076860
  46 C :    0.046188
  47 C :   -0.116280
  48 C :    0.077092
  49 C :   -0.170814
  50 C :   -0.013059
  51 N :   -0.075445
  52 C :   -0.007088
  53 N :   -0.081409
  54 C :   -0.018565
  55 C :   -0.047197
  56 C :    0.081865
  57 O :   -0.159804
  58 C :    0.016423
  59 C :   -0.035974
  60 C :   -0.146742
  61 C :   -0.015216
  62 S :    0.425257
  63 C :   -0.275071
  64 C :   -0.070746
  65 Br:    0.129318
  66 H :    0.018363
  67 H :   -0.024085
  68 H :    0.027329
  69 H :    0.029010
  70 H :    0.029291
  71 H :    0.042480
  72 H :    0.024342
  73 H :    0.023230
  74 H :    0.031637
  75 H :    0.032582
  76 H :    0.032785
  77 H :    0.035524
  78 H :    0.030525
  79 H :    0.034579
  80 H :    0.039839
  81 H :    0.083821
  82 H :    0.046888
  83 H :    0.024039
  84 H :    0.038833
  85 H :    0.038545
  86 H :    0.034747
  87 H :    0.035372
  88 H :    0.038226
  89 H :    0.038399
  90 H :    0.029784
  91 H :    0.038751
  92 H :    0.038951
  93 H :    0.037569

  Mayer bond orders larger than 0.100000
B(  0-C ,  1-S ) :   1.2087 B(  0-C ,  2-C ) :   0.1019 B(  0-C ,  4-C ) :   1.4227
B(  0-C , 66-H ) :   0.9609 B(  1-S ,  2-C ) :   1.1596 B(  2-C ,  3-C ) :   1.3245
B(  2-C , 10-C ) :   1.1849 B(  3-C ,  4-C ) :   1.2246 B(  3-C ,  9-C ) :   1.2116
B(  4-C ,  5-C ) :   1.1927 B(  5-C ,  6-S ) :   1.0465 B(  5-C ,  7-C ) :   1.5471
B(  6-S , 67-H ) :   0.9450 B(  7-C ,  8-C ) :   1.2178 B(  7-C , 68-H ) :   0.9856
B(  8-C ,  9-C ) :   1.5406 B(  8-C , 69-H ) :   0.9855 B(  9-C , 70-H ) :   0.9866
B( 10-C , 11-C ) :   1.6419 B( 10-C , 71-H ) :   0.9575 B( 11-C , 12-C ) :   1.1444
B( 11-C , 72-H ) :   0.9629 B( 12-C , 13-S ) :   1.1332 B( 12-C , 17-C ) :   1.4154
B( 13-S , 14-C ) :   1.1301 B( 14-C , 15-C ) :   1.6084 B( 14-C , 73-H ) :   0.9555
B( 15-C , 16-C ) :   1.1011 B( 15-C , 17-C ) :   1.2421 B( 16-C , 74-H ) :   0.9412
B( 16-C , 75-H ) :   0.9397 B( 16-C , 76-H ) :   0.9349 B( 17-C , 18-C ) :   1.1024
B( 18-C , 19-C ) :   1.6551 B( 18-C , 77-H ) :   0.9348 B( 19-C , 20-C ) :   1.1581
B( 19-C , 78-H ) :   0.9761 B( 20-C , 21-C ) :   1.5783 B( 20-C , 79-H ) :   0.9866
B( 21-C , 22-C ) :   1.2307 B( 21-C , 80-H ) :   0.9487 B( 22-C , 23-O ) :   1.1556
B( 22-C , 24-C ) :   1.3252 B( 23-O , 31-C ) :   1.1137 B( 24-C , 25-C ) :   0.9026
B( 24-C , 30-C ) :   1.3038 B( 25-C , 26-O ) :   2.2239 B( 25-C , 27-N ) :   1.0752
B( 27-N , 28-C ) :   1.0871 B( 27-N , 81-H ) :   0.9073 B( 28-C , 29-O ) :   2.2706
B( 28-C , 30-C ) :   0.8757 B( 30-C , 31-C ) :   1.3446 B( 31-C , 32-C ) :   1.2273
B( 32-C , 33-C ) :   1.5318 B( 32-C , 82-H ) :   0.9741 B( 33-C , 34-C ) :   1.1891
B( 33-C , 83-H ) :   0.9701 B( 34-C , 35-C ) :   1.5056 B( 34-C , 84-H ) :   0.9866
B( 35-C , 36-C ) :   1.1797 B( 35-C , 39-S ) :   1.0337 B( 36-C , 37-C ) :   1.5438
B( 36-C , 85-H ) :   0.9993 B( 37-C , 38-C ) :   1.2248 B( 37-C , 86-H ) :   0.9961
B( 38-C , 39-S ) :   1.0997 B( 38-C , 40-C ) :   1.4150 B( 40-C , 41-C ) :   1.2507
B( 40-C , 44-S ) :   1.0496 B( 41-C , 42-C ) :   1.5029 B( 41-C , 87-H ) :   0.9954
B( 42-C , 43-C ) :   1.2109 B( 42-C , 88-H ) :   1.0027 B( 43-C , 44-S ) :   1.0977
B( 43-C , 45-C ) :   1.3666 B( 45-C , 46-C ) :   1.3062 B( 45-C , 89-H ) :   0.9790
B( 46-C , 47-C ) :   1.4255 B( 46-C , 90-H ) :   0.9457 B( 47-C , 48-C ) :   1.1455
B( 47-C , 56-C ) :   0.9713 B( 48-C , 49-C ) :   1.5332 B( 48-C , 54-C ) :   0.9865
B( 49-C , 50-C ) :   1.1692 B( 49-C , 52-C ) :   1.1735 B( 50-C , 51-N ) :   2.9197
B( 52-C , 53-N ) :   2.8848 B( 54-C , 55-C ) :   1.2781 B( 54-C , 61-C ) :   1.4197
B( 55-C , 56-C ) :   0.9319 B( 55-C , 58-C ) :   1.4331 B( 56-C , 57-O ) :   2.1830
B( 58-C , 59-C ) :   1.2337 B( 58-C , 91-H ) :   1.0177 B( 59-C , 60-C ) :   1.3196
B( 59-C , 64-C ) :   1.1601 B( 60-C , 61-C ) :   1.3168 B( 60-C , 62-S ) :   1.0817
B( 61-C , 92-H ) :   0.9809 B( 62-S , 63-C ) :   1.0855 B( 63-C , 64-C ) :   1.6197
B( 63-C , 65-Br) :   1.0129 B( 64-C , 93-H ) :   1.0011

-----------------------------------------------------------------------------
         ABSORPTION SPECTRUM VIA TRANSITION ELECTRIC DIPOLE MOMENTS
-----------------------------------------------------------------------------
State   Energy  Wavelength   fosc         T2         TX        TY        TZ
        (cm-1)    (nm)                  (au**2)     (au)      (au)      (au)
-----------------------------------------------------------------------------
   0    8149.8   1227.0   0.482340862  19.48419  -2.05362   3.12038   2.35161
   1   12236.2    817.2   0.331435644   8.91716   0.09504   0.64982   2.91305
   2   16550.8    604.2   0.281637685   5.60206   0.99812   0.29709   2.12545
   3   17854.1    560.1   0.389296567   7.17822   0.98454  -1.25304   2.15379
   4   19839.1    504.1   0.267445795   4.43802   1.73142  -0.01646   1.19997
   5   21122.3    473.4   0.093027910   1.44993   0.93241  -0.68326   0.33720
   6   22053.4    453.4   0.030307501   0.45243  -0.56690   0.32789  -0.15344
   7   22630.9    441.9   0.164759346   2.39675  -0.11063  -0.82157  -1.30749
   8   23262.0    429.9   0.342143904   4.84214   1.46121  -0.30387   1.61700
   9   23714.2    421.7   0.151181230   2.09877  -1.09633   0.88344   0.34112
  10   24794.6    403.3   0.615541474   8.17289   0.38064   1.41124   2.45691
  11   25282.7    395.5   0.215742676   2.80923  -0.82194   1.43836   0.25450
  12   26593.4    376.0   0.002944263   0.03645  -0.01347  -0.09555  -0.16473
  13   26835.9    372.6   0.233886935   2.86923   0.25487  -1.10496  -1.25831
  14   26940.6    371.2   0.312012309   3.81276  -0.15304   1.20165   1.53146
  15   27493.2    363.7   0.246542118   2.95217  -0.24326   1.20505   1.20035
  16   27777.8    360.0   0.017717070   0.20998   0.25891  -0.35428   0.13202
  17   28111.3    355.7   0.031340463   0.36703  -0.10094  -0.13465  -0.58199
  18   28249.6    354.0   0.095716804   1.11546  -0.21896  -0.50860  -0.89935
  19   29389.6    340.3   0.025804029   0.28905   0.38649  -0.37370   0.00445
  20   29860.4    334.9   0.062367879   0.68761  -0.47241   0.26552  -0.62765
  21   30064.1    332.6   0.064538743   0.70672   0.04549   0.31569   0.77781
  22   30339.4    329.6   0.018247544   0.19800  -0.25293   0.08740  -0.35551
  23   30549.7    327.3   0.001946566   0.02098   0.08518  -0.03536   0.11167
  24   30906.6    323.6   0.073517808   0.78310   0.11933  -0.54590  -0.68619
  25   31300.0    319.5   0.000650372   0.00684   0.02636  -0.02768  -0.07334
  26   31792.0    314.5   0.043027161   0.44555   0.09783  -0.41406  -0.51433
  27   31832.6    314.1   0.438209700   4.53196  -0.42022   1.10111   1.77283
  28   32105.8    311.5   0.010231889   0.10492   0.06271   0.07206   0.30950
  29   32357.2    309.1   0.017821734   0.18132  -0.25329   0.05536  -0.33779
  30   33136.6    301.8   0.085404760   0.84850   0.31997   0.83574   0.21832
  31   33295.4    300.3   0.008226664   0.08134   0.02296  -0.28257  -0.03117
  32   33699.5    296.7   0.061384706   0.59967   0.05023   0.35303   0.68740
  33   34154.1    292.8   0.079975292   0.77088   0.07422  -0.85124  -0.20189
  34   34251.3    292.0   0.004484570   0.04310  -0.08809  -0.04474   0.18260
  35   34710.8    288.1   0.160915397   1.52619   0.77785  -0.87975  -0.38364
  36   35043.5    285.4   0.153778410   1.44465   0.08022  -0.47403  -1.10160
  37   35112.1    284.8   0.014015244   0.13141  -0.34348  -0.04114   0.10833
  38   35553.9    281.3   0.005118689   0.04740   0.12066  -0.04595   0.17529
  39   35818.8    279.2   0.023830000   0.21902   0.04216   0.08552   0.45818
  40   36403.3    274.7   0.060925190   0.55098   0.53199  -0.51003  -0.08852
  41   36639.0    272.9   0.023424813   0.21048   0.31808  -0.31402   0.10342
  42   37061.6    269.8   0.003889667   0.03455   0.16423  -0.08643   0.01056
  43   37145.9    269.2   0.200624799   1.77807   1.04489  -0.82286   0.09585
  44   37222.3    268.7   0.004474644   0.03958  -0.00741  -0.19121  -0.05442
  45   37676.2    265.4   0.162124856   1.41663  -0.09371  -0.63894  -0.99981
  46   37737.1    265.0   0.005447851   0.04753  -0.20037  -0.08508  -0.01178
  47   38269.0    261.3   0.029697200   0.25547  -0.24629  -0.07006  -0.43578
  48   38584.8    259.2   0.032440915   0.27679   0.39157  -0.27550   0.21809
  49   38822.0    257.6   0.064710853   0.54875   0.45043  -0.58787  -0.01665
  50   39006.0    256.4   0.000615668   0.00520   0.05261  -0.04753   0.01302
  51   39081.0    255.9   0.021829196   0.18389  -0.09123  -0.33130  -0.25651
  52   39330.0    254.3   0.042829632   0.35851   0.30036  -0.06295   0.51413
  53   39491.5    253.2   0.006553076   0.05463  -0.19363   0.10469  -0.07859
  54   39587.0    252.6   0.040862261   0.33982  -0.41752  -0.05078  -0.40363
  55   39875.2    250.8   0.026410122   0.21804   0.44052  -0.00413   0.15480
  56   40053.4    249.7   0.013053732   0.10729  -0.12494   0.18831   0.23711
  57   40321.1    248.0   0.162366962   1.32569  -0.01077  -0.71376  -0.90339

FINAL SINGLE POINT ENERGY     -7422.720847626159

DIPOLE MOMENT
-------------
                                X             Y             Z
Electronic contribution:     21.87100     -72.74832    -134.57071
Nuclear contribution   :    -20.12900      71.83101     136.36958
                        -----------------------------------------
Total Dipole Moment    :      1.74200      -0.91732       1.79887
                        -----------------------------------------
Magnitude (a.u.)       :      2.66683
Magnitude (Debye)      :      6.77854

Rotational constants in cm-1:     0.001195     0.000400     0.000311
Rotational constants in MHz :    35.814417    12.002557     9.328126

                             ****ORCA TERMINATED NORMALLY****
TOTAL RUN TIME: 0 days 0 hours 10 minutes 17 seconds 532 msec
