                         Program Version 4.2.0 -  RELEASE  -
|  1> # ORCA input file
|  2> # SCF done       -159.695089520429          0.000773944360
|  3> ! CAM-B3LYP def2-SVP def2/J RIJCOSX Grid4 TightSCF
|  4> %maxcore 5000
|  5> %tddft
|  6>     Mode sTDDFT
|  7>     Ethresh 5.0
|  8>     maxcore 5000
|  9> end
| 10>
| 11> %pal
| 12>   nprocs 6
| 13>   end
| 14> * xyz 0 1
| 15>    C       -2.40256        -0.65214        -3.58076
| 16>    C       -3.14987        -1.64264        -3.05339
| 17>    S       -3.53641        -1.40298        -1.38374
| 18>    C       -2.65078         0.08673        -1.37304
| 19>    C       -2.09122         0.36564        -2.63291
| 20>    C       -1.32127         1.51957        -2.81269
| 21>    C       -1.06445         2.38586        -1.76398
| 22>    C       -1.64678         2.11950        -0.49761
| 23>    C       -2.44046         0.97073        -0.32262
| 24>    S       -3.03439         0.83472         1.30269
| 25>    C       -2.21121         2.29044         1.74022
| 26>    C       -1.52789         2.85050         0.71947
| 27>    C       -0.17624         3.51401        -1.98222
| 28>    S       -0.53599         5.10736        -1.41221
| 29>    C        0.88637         5.72750        -2.15542
| 30>    C        1.60032         4.78591        -2.82283
| 31>    C        2.89114         5.08777        -3.50942
| 32>    C        0.99097         3.49297        -2.73246
| 33>    C        1.48278         2.24825        -3.26056
| 34>    C        2.24135         2.04433        -4.35704
| 35>    C        2.56618         0.74384        -4.85697
| 36>    C        1.93999        -0.40806        -4.51392
| 37>    C        2.27068        -1.67362        -5.06042
| 38>    O        3.31469        -1.81832        -5.92105
| 39>    C        1.68405        -2.91212        -4.88206
| 40>    C        0.59538        -3.61664        -4.21040
| 41>    O       -0.27051        -3.22705        -3.46503
| 42>    N        0.74961        -4.93479        -4.63529
| 43>    C        1.81492        -5.15789        -5.51094
| 44>    O        2.10338        -6.23233        -5.98139
| 45>    C        2.41321        -3.84003        -5.67062
| 46>    C        3.41964        -3.12563        -6.30492
| 47>    C        4.43967        -3.46089        -7.21377
| 48>    C        4.67323        -4.72873        -7.67175
| 49>    C        5.65115        -5.10427        -8.60678
| 50>    C        6.50436        -4.30326        -9.33730
| 51>    C        7.45557        -4.77046       -10.28050
| 52>    C        8.15970        -3.79090       -10.91660
| 53>    C        7.80775        -2.48619       -10.51382
| 54>    S        6.55913        -2.55369        -9.29045
| 55>    C        8.28235        -1.26163       -10.94187
| 56>    C        9.26573        -0.97944       -11.91538
| 57>    C        9.46287         0.35165       -12.10348
| 58>    C        8.65258         1.20236       -11.29389
| 59>    S        7.63895         0.21770       -10.25830
| 60>    C        8.69657         2.56611       -11.39824
| 61>    C        7.98146         3.60496       -10.73802
| 62>    C        8.18350         4.93557       -11.16219
| 63>    O        9.08165         5.07996       -12.17411
| 64>    C        9.05238         6.18095       -13.05858
| 65>    C        7.51720         6.03110       -10.53269
| 66>    O        7.84009         7.27700       -10.98925
| 67>    C        7.21270         8.39467       -10.40846
| 68>    C        6.61761         5.82744        -9.51118
| 69>    C        6.38160         4.52097        -9.07047
| 70>    C        7.06619         3.40751        -9.66914
| 71>    N        6.72319         2.26235        -9.09843
| 72>    S        5.64383         2.54462        -7.93233
| 73>    N        5.56143         4.14691        -8.08936
| 74>    H       -2.05914        -0.63489        -4.59909
| 75>    H       -3.50656        -2.53008        -3.53693
| 76>    H       -0.93193         1.73525        -3.79623
| 77>    H       -2.28891         2.64036         2.75085
| 78>    H       -0.95468         3.75322         0.82227
| 79>    H        1.11575         6.76941        -2.04688
| 80>    H        3.27845         6.04515        -3.16811
| 81>    H        2.75087         5.14528        -4.58861
| 82>    H        3.62477         4.31251        -3.29791
| 83>    H        1.15182         1.37854        -2.70768
| 84>    H        2.61331         2.87712        -4.93405
| 85>    H        3.34226         0.69320        -5.60998
| 86>    H        1.11789        -0.42794        -3.81426
| 87>    H        0.13721        -5.67748        -4.33077
| 88>    H        5.04665        -2.62569        -7.52462
| 89>    H        4.05132        -5.52359        -7.28107
| 90>    H        5.74001        -6.16495        -8.80480
| 91>    H        7.58620        -5.82306       -10.46186
| 92>    H        8.91336        -3.97265       -11.66206
| 93>    H        9.79052        -1.75415       -12.44609
| 94>    H       10.16503         0.76652       -12.80581
| 95>    H        9.39583         2.93225       -12.13897
| 96>    H        9.51376         7.06713       -12.61882
| 97>    H        8.03503         6.41918       -13.37538
| 98>    H        9.63464         5.86126       -13.92388
| 99>    H        7.62019         9.25846       -10.93166
|100>    H        7.44205         8.47480        -9.34172
|101>    H        6.12784         8.36430       -10.54844
|102>    H        6.10242         6.63588        -9.02362
|103> *
|104>
|105>                          ****END OF INPUT****

CARTESIAN COORDINATES (ANGSTROEM)
---------------------------------
  C     -2.402560   -0.652140   -3.580760
  C     -3.149870   -1.642640   -3.053390
  S     -3.536410   -1.402980   -1.383740
  C     -2.650780    0.086730   -1.373040
  C     -2.091220    0.365640   -2.632910
  C     -1.321270    1.519570   -2.812690
  C     -1.064450    2.385860   -1.763980
  C     -1.646780    2.119500   -0.497610
  C     -2.440460    0.970730   -0.322620
  S     -3.034390    0.834720    1.302690
  C     -2.211210    2.290440    1.740220
  C     -1.527890    2.850500    0.719470
  C     -0.176240    3.514010   -1.982220
  S     -0.535990    5.107360   -1.412210
  C      0.886370    5.727500   -2.155420
  C      1.600320    4.785910   -2.822830
  C      2.891140    5.087770   -3.509420
  C      0.990970    3.492970   -2.732460
  C      1.482780    2.248250   -3.260560
  C      2.241350    2.044330   -4.357040
  C      2.566180    0.743840   -4.856970
  C      1.939990   -0.408060   -4.513920
  C      2.270680   -1.673620   -5.060420
  O      3.314690   -1.818320   -5.921050
  C      1.684050   -2.912120   -4.882060
  C      0.595380   -3.616640   -4.210400
  O     -0.270510   -3.227050   -3.465030
  N      0.749610   -4.934790   -4.635290
  C      1.814920   -5.157890   -5.510940
  O      2.103380   -6.232330   -5.981390
  C      2.413210   -3.840030   -5.670620
  C      3.419640   -3.125630   -6.304920
  C      4.439670   -3.460890   -7.213770
  C      4.673230   -4.728730   -7.671750
  C      5.651150   -5.104270   -8.606780
  C      6.504360   -4.303260   -9.337300
  C      7.455570   -4.770460  -10.280500
  C      8.159700   -3.790900  -10.916600
  C      7.807750   -2.486190  -10.513820
  S      6.559130   -2.553690   -9.290450
  C      8.282350   -1.261630  -10.941870
  C      9.265730   -0.979440  -11.915380
  C      9.462870    0.351650  -12.103480
  C      8.652580    1.202360  -11.293890
  S      7.638950    0.217700  -10.258300
  C      8.696570    2.566110  -11.398240
  C      7.981460    3.604960  -10.738020
  C      8.183500    4.935570  -11.162190
  O      9.081650    5.079960  -12.174110
  C      9.052380    6.180950  -13.058580
  C      7.517200    6.031100  -10.532690
  O      7.840090    7.277000  -10.989250
  C      7.212700    8.394670  -10.408460
  C      6.617610    5.827440   -9.511180
  C      6.381600    4.520970   -9.070470
  C      7.066190    3.407510   -9.669140
  N      6.723190    2.262350   -9.098430
  S      5.643830    2.544620   -7.932330
  N      5.561430    4.146910   -8.089360
  H     -2.059140   -0.634890   -4.599090
  H     -3.506560   -2.530080   -3.536930
  H     -0.931930    1.735250   -3.796230
  H     -2.288910    2.640360    2.750850
  H     -0.954680    3.753220    0.822270
  H      1.115750    6.769410   -2.046880
  H      3.278450    6.045150   -3.168110
  H      2.750870    5.145280   -4.588610
  H      3.624770    4.312510   -3.297910
  H      1.151820    1.378540   -2.707680
  H      2.613310    2.877120   -4.934050
  H      3.342260    0.693200   -5.609980
  H      1.117890   -0.427940   -3.814260
  H      0.137210   -5.677480   -4.330770
  H      5.046650   -2.625690   -7.524620
  H      4.051320   -5.523590   -7.281070
  H      5.740010   -6.164950   -8.804800
  H      7.586200   -5.823060  -10.461860
  H      8.913360   -3.972650  -11.662060
  H      9.790520   -1.754150  -12.446090
  H     10.165030    0.766520  -12.805810
  H      9.395830    2.932250  -12.138970
  H      9.513760    7.067130  -12.618820
  H      8.035030    6.419180  -13.375380
  H      9.634640    5.861260  -13.923880
  H      7.620190    9.258460  -10.931660
  H      7.442050    8.474800   -9.341720
  H      6.127840    8.364300  -10.548440
  H      6.102420    6.635880   -9.023620

 Total Charge           Charge          ....    0
 Multiplicity           Mult            ....    1
 Number of Electrons    NEL             ....  456
 Basis Dimension        Dim             ....  995

ORBITAL ENERGIES
----------------

  NO   OCC          E(Eh)            E(eV)
   0   2.0000     -89.012975     -2422.1662
   1   2.0000     -88.943552     -2420.2771
   2   2.0000     -88.940309     -2420.1888
   3   2.0000     -88.939074     -2420.1552
   4   2.0000     -88.937138     -2420.1026
   5   2.0000     -88.933518     -2420.0040
   6   2.0000     -19.286585      -524.8147
   7   2.0000     -19.264556      -524.2152
   8   2.0000     -19.253301      -523.9090
   9   2.0000     -19.191663      -522.2317
  10   2.0000     -19.190709      -522.2057
  11   2.0000     -14.435103      -392.7991
  12   2.0000     -14.430634      -392.6775
  13   2.0000     -14.428190      -392.6110
  14   2.0000     -10.379592      -282.4431
  15   2.0000     -10.379470      -282.4397
  16   2.0000     -10.355841      -281.7968
  17   2.0000     -10.351086      -281.6674
  18   2.0000     -10.340102      -281.3685
  19   2.0000     -10.338322      -281.3201
  20   2.0000     -10.337469      -281.2968
  21   2.0000     -10.321883      -280.8727
  22   2.0000     -10.319075      -280.7963
  23   2.0000     -10.316551      -280.7276
  24   2.0000     -10.304249      -280.3929
  25   2.0000     -10.301132      -280.3081
  26   2.0000     -10.299142      -280.2539
  27   2.0000     -10.298185      -280.2279
  28   2.0000     -10.292310      -280.0680
  29   2.0000     -10.291409      -280.0435
  30   2.0000     -10.289514      -279.9919
  31   2.0000     -10.288581      -279.9665
  32   2.0000     -10.284016      -279.8423
  33   2.0000     -10.281232      -279.7665
  34   2.0000     -10.280843      -279.7560
  35   2.0000     -10.280741      -279.7532
  36   2.0000     -10.280453      -279.7454
  37   2.0000     -10.278877      -279.7025
  38   2.0000     -10.277378      -279.6617
  39   2.0000     -10.276333      -279.6332
  40   2.0000     -10.276304      -279.6325
  41   2.0000     -10.275706      -279.6162
  42   2.0000     -10.273154      -279.5467
  43   2.0000     -10.270156      -279.4652
  44   2.0000     -10.270125      -279.4643
  45   2.0000     -10.269223      -279.4398
  46   2.0000     -10.269162      -279.4381
  47   2.0000     -10.268655      -279.4243
  48   2.0000     -10.267362      -279.3891
  49   2.0000     -10.267324      -279.3881
  50   2.0000     -10.265404      -279.3359
  51   2.0000     -10.265034      -279.3258
  52   2.0000     -10.264895      -279.3220
  53   2.0000     -10.264779      -279.3189
  54   2.0000     -10.262813      -279.2653
  55   2.0000     -10.262255      -279.2501
  56   2.0000     -10.260888      -279.2130
  57   2.0000     -10.259519      -279.1757
  58   2.0000     -10.256046      -279.0812
  59   2.0000      -8.104696      -220.5400
  60   2.0000      -8.039249      -218.7591
  61   2.0000      -8.036424      -218.6822
  62   2.0000      -8.034799      -218.6380
  63   2.0000      -8.033235      -218.5954
  64   2.0000      -8.028124      -218.4564
  65   2.0000      -6.076051      -165.3377
  66   2.0000      -6.068465      -165.1313
  67   2.0000      -6.066659      -165.0822
  68   2.0000      -6.008470      -163.4988
  69   2.0000      -6.005992      -163.4313
  70   2.0000      -6.004454      -163.3895
  71   2.0000      -6.004227      -163.3833
  72   2.0000      -6.002839      -163.3455
  73   2.0000      -6.001700      -163.3146
  74   2.0000      -6.001642      -163.3130
  75   2.0000      -6.000347      -163.2777
  76   2.0000      -5.998498      -163.2274
  77   2.0000      -5.998105      -163.2167
  78   2.0000      -5.998056      -163.2154
  79   2.0000      -5.996037      -163.1605
  80   2.0000      -5.994839      -163.1279
  81   2.0000      -5.993637      -163.0952
  82   2.0000      -5.988936      -162.9672
  83   2.0000      -1.202087       -32.7104
  84   2.0000      -1.174091       -31.9486
  85   2.0000      -1.148710       -31.2580
  86   2.0000      -1.134373       -30.8679
  87   2.0000      -1.114991       -30.3404
  88   2.0000      -1.113481       -30.2994
  89   2.0000      -1.021784       -27.8041
  90   2.0000      -0.990628       -26.9564
  91   2.0000      -0.987703       -26.8768
  92   2.0000      -0.973411       -26.4879
  93   2.0000      -0.972985       -26.4763
  94   2.0000      -0.963234       -26.2109
  95   2.0000      -0.953641       -25.9499
  96   2.0000      -0.952883       -25.9293
  97   2.0000      -0.915842       -24.9213
  98   2.0000      -0.904233       -24.6054
  99   2.0000      -0.903223       -24.5780
 100   2.0000      -0.895654       -24.3720
 101   2.0000      -0.886190       -24.1145
 102   2.0000      -0.873305       -23.7638
 103   2.0000      -0.863214       -23.4893
 104   2.0000      -0.856730       -23.3128
 105   2.0000      -0.852496       -23.1976
 106   2.0000      -0.841467       -22.8975
 107   2.0000      -0.835569       -22.7370
 108   2.0000      -0.834424       -22.7058
 109   2.0000      -0.823236       -22.4014
 110   2.0000      -0.816926       -22.2297
 111   2.0000      -0.812079       -22.0978
 112   2.0000      -0.808977       -22.0134
 113   2.0000      -0.795861       -21.6565
 114   2.0000      -0.786521       -21.4023
 115   2.0000      -0.777472       -21.1561
 116   2.0000      -0.774045       -21.0628
 117   2.0000      -0.762717       -20.7546
 118   2.0000      -0.748594       -20.3703
 119   2.0000      -0.746604       -20.3161
 120   2.0000      -0.744969       -20.2716
 121   2.0000      -0.730600       -19.8806
 122   2.0000      -0.714644       -19.4465
 123   2.0000      -0.703507       -19.1434
 124   2.0000      -0.692858       -18.8536
 125   2.0000      -0.688388       -18.7320
 126   2.0000      -0.683223       -18.5914
 127   2.0000      -0.679238       -18.4830
 128   2.0000      -0.673356       -18.3229
 129   2.0000      -0.663517       -18.0552
 130   2.0000      -0.659154       -17.9365
 131   2.0000      -0.653881       -17.7930
 132   2.0000      -0.638281       -17.3685
 133   2.0000      -0.631664       -17.1884
 134   2.0000      -0.624011       -16.9802
 135   2.0000      -0.618782       -16.8379
 136   2.0000      -0.617489       -16.8027
 137   2.0000      -0.613811       -16.7027
 138   2.0000      -0.612208       -16.6590
 139   2.0000      -0.610765       -16.6198
 140   2.0000      -0.606695       -16.5090
 141   2.0000      -0.589801       -16.0493
 142   2.0000      -0.586579       -15.9616
 143   2.0000      -0.584127       -15.8949
 144   2.0000      -0.578811       -15.7503
 145   2.0000      -0.576773       -15.6948
 146   2.0000      -0.575472       -15.6594
 147   2.0000      -0.565400       -15.3853
 148   2.0000      -0.561749       -15.2860
 149   2.0000      -0.559848       -15.2343
 150   2.0000      -0.550999       -14.9935
 151   2.0000      -0.550378       -14.9765
 152   2.0000      -0.547185       -14.8897
 153   2.0000      -0.539488       -14.6802
 154   2.0000      -0.537975       -14.6390
 155   2.0000      -0.537543       -14.6273
 156   2.0000      -0.535433       -14.5699
 157   2.0000      -0.531691       -14.4680
 158   2.0000      -0.530730       -14.4419
 159   2.0000      -0.524293       -14.2667
 160   2.0000      -0.522245       -14.2110
 161   2.0000      -0.521038       -14.1782
 162   2.0000      -0.510568       -13.8933
 163   2.0000      -0.509604       -13.8670
 164   2.0000      -0.506316       -13.7776
 165   2.0000      -0.500776       -13.6268
 166   2.0000      -0.499584       -13.5944
 167   2.0000      -0.498285       -13.5590
 168   2.0000      -0.491464       -13.3734
 169   2.0000      -0.489953       -13.3323
 170   2.0000      -0.488931       -13.3045
 171   2.0000      -0.487493       -13.2654
 172   2.0000      -0.483377       -13.1534
 173   2.0000      -0.480596       -13.0777
 174   2.0000      -0.478475       -13.0200
 175   2.0000      -0.477469       -12.9926
 176   2.0000      -0.471624       -12.8335
 177   2.0000      -0.469221       -12.7681
 178   2.0000      -0.467632       -12.7249
 179   2.0000      -0.462849       -12.5948
 180   2.0000      -0.460939       -12.5428
 181   2.0000      -0.458486       -12.4761
 182   2.0000      -0.457780       -12.4568
 183   2.0000      -0.455734       -12.4012
 184   2.0000      -0.454374       -12.3641
 185   2.0000      -0.446117       -12.1395
 186   2.0000      -0.443803       -12.0765
 187   2.0000      -0.442173       -12.0321
 188   2.0000      -0.439995       -11.9729
 189   2.0000      -0.438264       -11.9258
 190   2.0000      -0.435977       -11.8635
 191   2.0000      -0.431847       -11.7511
 192   2.0000      -0.430855       -11.7242
 193   2.0000      -0.424999       -11.5648
 194   2.0000      -0.423879       -11.5343
 195   2.0000      -0.417104       -11.3500
 196   2.0000      -0.415855       -11.3160
 197   2.0000      -0.413476       -11.2513
 198   2.0000      -0.411802       -11.2057
 199   2.0000      -0.407101       -11.0778
 200   2.0000      -0.403048       -10.9675
 201   2.0000      -0.398062       -10.8318
 202   2.0000      -0.397238       -10.8094
 203   2.0000      -0.392326       -10.6757
 204   2.0000      -0.389921       -10.6103
 205   2.0000      -0.384733       -10.4691
 206   2.0000      -0.381065       -10.3693
 207   2.0000      -0.380544       -10.3551
 208   2.0000      -0.368571       -10.0293
 209   2.0000      -0.358104        -9.7445
 210   2.0000      -0.349301        -9.5050
 211   2.0000      -0.347617        -9.4591
 212   2.0000      -0.342036        -9.3073
 213   2.0000      -0.338883        -9.2215
 214   2.0000      -0.336028        -9.1438
 215   2.0000      -0.329272        -8.9599
 216   2.0000      -0.326650        -8.8886
 217   2.0000      -0.323295        -8.7973
 218   2.0000      -0.318097        -8.6559
 219   2.0000      -0.315021        -8.5722
 220   2.0000      -0.298119        -8.1122
 221   2.0000      -0.296404        -8.0656
 222   2.0000      -0.295356        -8.0370
 223   2.0000      -0.274559        -7.4711
 224   2.0000      -0.261083        -7.1044
 225   2.0000      -0.255186        -6.9440
 226   2.0000      -0.236586        -6.4378
 227   2.0000      -0.200488        -5.4556
 228   0.0000      -0.083693        -2.2774
 229   0.0000      -0.044961        -1.2234
 230   0.0000      -0.038129        -1.0375
 231   0.0000      -0.012420        -0.3380
 232   0.0000       0.001660         0.0452

MULLIKEN ATOMIC CHARGES
-----------------------
   0 C :    0.048729
   1 C :   -0.037748
   2 S :    0.114558
   3 C :   -0.114184
   4 C :    0.095096
   5 C :   -0.116474
   6 C :    0.088504
   7 C :    0.058292
   8 C :   -0.139951
   9 S :    0.115867
  10 C :   -0.057409
  11 C :    0.012612
  12 C :   -0.200672
  13 S :    0.126882
  14 C :   -0.134775
  15 C :   -0.086082
  16 C :    0.116798
  17 C :    0.143991
  18 C :   -0.050840
  19 C :   -0.011375
  20 C :    0.030190
  21 C :   -0.035516
  22 C :    0.080488
  23 O :   -0.214649
  24 C :   -0.030297
  25 C :    0.155253
  26 O :   -0.152629
  27 N :   -0.164848
  28 C :    0.168218
  29 O :   -0.163788
  30 C :   -0.083304
  31 C :    0.132976
  32 C :   -0.020119
  33 C :    0.009456
  34 C :   -0.015814
  35 C :   -0.011342
  36 C :    0.030899
  37 C :    0.030659
  38 C :   -0.048923
  39 S :    0.053927
  40 C :   -0.016673
  41 C :    0.034433
  42 C :    0.026655
  43 C :    0.024645
  44 S :    0.106853
  45 C :   -0.093571
  46 C :    0.022049
  47 C :    0.122803
  48 O :   -0.320659
  49 C :    0.209019
  50 C :    0.225825
  51 O :   -0.328679
  52 C :    0.178745
  53 C :   -0.199524
  54 C :    0.071292
  55 C :    0.048283
  56 N :   -0.320474
  57 S :    0.491066
  58 N :   -0.275242
  59 H :   -0.021321
  60 H :    0.023416
  61 H :   -0.014543
  62 H :    0.022337
  63 H :   -0.016045
  64 H :    0.008257
  65 H :    0.003157
  66 H :    0.038843
  67 H :    0.027426
  68 H :    0.034903
  69 H :   -0.024150
  70 H :   -0.008111
  71 H :    0.005688
  72 H :    0.130447
  73 H :   -0.007866
  74 H :    0.006750
  75 H :   -0.015233
  76 H :   -0.013934
  77 H :   -0.015177
  78 H :   -0.017872
  79 H :   -0.012551
  80 H :   -0.005241
  81 H :    0.030052
  82 H :    0.016333
  83 H :    0.027260
  84 H :    0.039557
  85 H :    0.031653
  86 H :    0.031240
  87 H :   -0.034781
Sum of atomic charges:   -0.0000000

LOEWDIN ATOMIC CHARGES
----------------------
   0 C :   -0.052914
   1 C :   -0.151696
   2 S :    0.406057
   3 C :   -0.178104
   4 C :   -0.050951
   5 C :   -0.015242
   6 C :   -0.046443
   7 C :   -0.049051
   8 C :   -0.174837
   9 S :    0.404725
  10 C :   -0.168800
  11 C :   -0.067311
  12 C :   -0.159085
  13 S :    0.444636
  14 C :   -0.200296
  15 C :   -0.053615
  16 C :   -0.045169
  17 C :   -0.064905
  18 C :    0.005744
  19 C :   -0.053848
  20 C :   -0.003702
  21 C :   -0.048608
  22 C :    0.066387
  23 O :    0.007009
  24 C :   -0.103760
  25 C :    0.083260
  26 O :   -0.170792
  27 N :   -0.008844
  28 C :    0.085150
  29 O :   -0.174739
  30 C :   -0.115216
  31 C :    0.077186
  32 C :   -0.074518
  33 C :    0.000781
  34 C :   -0.074842
  35 C :   -0.131481
  36 C :   -0.038362
  37 C :   -0.032913
  38 C :   -0.188656
  39 S :    0.396892
  40 C :   -0.175322
  41 C :   -0.037187
  42 C :   -0.023416
  43 C :   -0.140486
  44 S :    0.417743
  45 C :   -0.044117
  46 C :   -0.061661
  47 C :    0.052775
  48 O :   -0.096626
  49 C :    0.079718
  50 C :    0.042463
  51 O :   -0.095248
  52 C :    0.078870
  53 C :   -0.085704
  54 C :   -0.053103
  55 C :   -0.042849
  56 N :   -0.295368
  57 S :    0.617826
  58 N :   -0.295042
  59 H :    0.029943
  60 H :    0.024378
  61 H :    0.033724
  62 H :    0.023490
  63 H :    0.019245
  64 H :    0.018829
  65 H :    0.030910
  66 H :    0.035299
  67 H :    0.034926
  68 H :    0.036651
  69 H :    0.025085
  70 H :    0.027333
  71 H :    0.041138
  72 H :    0.090187
  73 H :    0.013861
  74 H :    0.036798
  75 H :    0.034679
  76 H :    0.032507
  77 H :    0.031314
  78 H :    0.029518
  79 H :    0.032045
  80 H :    0.036573
  81 H :    0.015782
  82 H :    0.015227
  83 H :    0.021884
  84 H :    0.030124
  85 H :    0.019863
  86 H :    0.019181
  87 H :    0.037113

  Mayer bond orders larger than 0.100000
B(  0-C ,  1-C ) :   1.6447 B(  0-C ,  4-C ) :   1.1684 B(  0-C , 59-H ) :   0.9962
B(  1-C ,  2-S ) :   1.1117 B(  1-C , 60-H ) :   0.9664 B(  2-S ,  3-C ) :   1.0846
B(  3-C ,  4-C ) :   1.3671 B(  3-C ,  8-C ) :   1.3827 B(  4-C ,  5-C ) :   1.2250
B(  5-C ,  6-C ) :   1.4431 B(  5-C , 61-H ) :   0.9990 B(  6-C ,  7-C ) :   1.2434
B(  6-C , 12-C ) :   0.9873 B(  7-C ,  8-C ) :   1.3787 B(  7-C , 11-C ) :   1.1955
B(  8-C ,  9-S ) :   1.0797 B(  9-S , 10-C ) :   1.1183 B( 10-C , 11-C ) :   1.6389
B( 10-C , 62-H ) :   0.9662 B( 11-C , 63-H ) :   0.9772 B( 12-C , 13-S ) :   1.1633
B( 12-C , 17-C ) :   1.4914 B( 13-S , 14-C ) :   1.1287 B( 14-C , 15-C ) :   1.6057
B( 14-C , 64-H ) :   0.9675 B( 15-C , 16-C ) :   1.0951 B( 15-C , 17-C ) :   1.2185
B( 16-C , 65-H ) :   0.9464 B( 16-C , 66-H ) :   0.9413 B( 16-C , 67-H ) :   0.9445
B( 17-C , 18-C ) :   1.0871 B( 18-C , 19-C ) :   1.7190 B( 18-C , 68-H ) :   0.9420
B( 19-C , 20-C ) :   1.0974 B( 19-C , 69-H ) :   0.9734 B( 20-C , 21-C ) :   1.6564
B( 20-C , 70-H ) :   0.9783 B( 21-C , 22-C ) :   1.1880 B( 21-C , 71-H ) :   0.9520
B( 22-C , 23-O ) :   1.1452 B( 22-C , 24-C ) :   1.3902 B( 23-O , 31-C ) :   1.1383
B( 24-C , 25-C ) :   0.8872 B( 24-C , 30-C ) :   1.2602 B( 25-C , 26-O ) :   2.2356
B( 25-C , 27-N ) :   1.0811 B( 27-N , 28-C ) :   1.0859 B( 27-N , 72-H ) :   0.9164
B( 28-C , 29-O ) :   2.1839 B( 28-C , 30-C ) :   0.9041 B( 30-C , 31-C ) :   1.3831
B( 31-C , 32-C ) :   1.2387 B( 32-C , 33-C ) :   1.5349 B( 32-C , 73-H ) :   0.9247
B( 33-C , 34-C ) :   1.2432 B( 33-C , 74-H ) :   0.9598 B( 34-C , 35-C ) :   1.5185
B( 34-C , 75-H ) :   0.9674 B( 35-C , 36-C ) :   1.1651 B( 35-C , 39-S ) :   1.0570
B( 36-C , 37-C ) :   1.5699 B( 36-C , 76-H ) :   0.9985 B( 37-C , 38-C ) :   1.1997
B( 37-C , 77-H ) :   0.9938 B( 38-C , 39-S ) :   1.0323 B( 38-C , 40-C ) :   1.4979
B( 40-C , 41-C ) :   1.1751 B( 40-C , 44-S ) :   1.0222 B( 41-C , 42-C ) :   1.5968
B( 41-C , 78-H ) :   0.9942 B( 42-C , 43-C ) :   1.1286 B( 42-C , 79-H ) :   1.0007
B( 43-C , 44-S ) :   1.0405 B( 43-C , 45-C ) :   1.5649 B( 45-C , 46-C ) :   1.1621
B( 45-C , 80-H ) :   0.9501 B( 46-C , 47-C ) :   1.4304 B( 46-C , 53-C ) :   0.1094
B( 46-C , 55-C ) :   1.1506 B( 47-C , 48-O ) :   1.1921 B( 47-C , 50-C ) :   1.1686
B( 48-O , 49-C ) :   0.9294 B( 49-C , 81-H ) :   0.9748 B( 49-C , 82-H ) :   0.9742
B( 49-C , 83-H ) :   0.9768 B( 50-C , 51-O ) :   1.1340 B( 50-C , 53-C ) :   1.3726
B( 51-O , 52-C ) :   0.9569 B( 52-C , 84-H ) :   0.9772 B( 52-C , 85-H ) :   0.9688
B( 52-C , 86-H ) :   0.9689 B( 53-C , 54-C ) :   1.1441 B( 53-C , 87-H ) :   1.0380
B( 54-C , 55-C ) :   1.1618 B( 54-C , 58-N ) :   1.5415 B( 55-C , 56-N ) :   1.5119
B( 56-N , 57-S ) :   1.2274 B( 56-N , 58-N ) :   0.1415 B( 57-S , 58-N ) :   1.2498

-----------------------------------------------------------------------------
         ABSORPTION SPECTRUM VIA TRANSITION ELECTRIC DIPOLE MOMENTS
-----------------------------------------------------------------------------
State   Energy  Wavelength   fosc         T2         TX        TY        TZ
        (cm-1)    (nm)                  (au**2)     (au)      (au)      (au)
-----------------------------------------------------------------------------
   0   11828.9    845.4   0.733634905  20.41786   2.33500   3.08364  -2.33597
   1   18435.4    542.4   0.204184259   3.64624   1.32865  -0.38614  -1.31598
   2   20505.3    487.7   0.544552414   8.74279   1.46674  -2.13400  -1.42742
   3   21720.6    460.4   0.448744011   6.80146   0.20333  -2.54759  -0.51955
   4   25037.6    399.4   0.155935451   2.05035   0.55144  -1.23088  -0.48084
   5   26273.3    380.6   0.362222577   4.53875  -1.15636   1.46269   1.03059
   6   26715.9    374.3   0.325311916   4.00872   1.13261  -1.22997  -1.10140
   7   28301.8    353.3   0.020199658   0.23497   0.20215   0.42712  -0.10802
   8   28640.4    349.2   0.017726732   0.20376   0.06313   0.44675  -0.01386
   9   29276.2    341.6   0.032995709   0.37104  -0.03590   0.53323   0.29226
  10   30515.5    327.7   0.204995525   2.21156   0.84384   0.77731  -0.94620
  11   30991.2    322.7   0.035932023   0.38170   0.49475  -0.09437  -0.35779
  12   31056.0    322.0   0.055644468   0.58986   0.08745   0.76039  -0.06347
  13   31675.1    315.7   0.127368808   1.32379   0.14937   1.10945   0.26570
  14   32250.8    310.1   0.179545268   1.83277   0.47831   1.26549  -0.05021
  15   32421.9    308.4   0.023083992   0.23439  -0.06171   0.45388   0.15677
  16   33298.3    300.3   0.054160725   0.53547   0.44566   0.54446  -0.20107
  17   33706.5    296.7   0.031614947   0.30878   0.38433   0.22345  -0.33338
  18   33946.0    294.6   0.005278640   0.05119   0.13105   0.18251  -0.02658
  19   34576.2    289.2   0.040320581   0.38391  -0.19330  -0.51433   0.28636
  20   34967.6    286.0   0.016017258   0.15080  -0.18763  -0.29999  -0.15999
  21   35580.4    281.1   0.164280452   1.52003  -0.25296  -1.20664  -0.00691
  22   35995.0    277.8   0.036093359   0.33011   0.25883  -0.42907  -0.28109
  23   36235.2    276.0   0.001785441   0.01622   0.12190  -0.00672   0.03630
  24   36575.7    273.4   0.011349190   0.10215  -0.19351  -0.22164   0.12483
  25   36650.6    272.8   0.019140689   0.17193  -0.29218  -0.02831   0.29284
  26   36987.2    270.4   0.120836872   1.07553   0.65479   0.71963  -0.35905
  27   37303.9    268.1   0.070321278   0.62059   0.55850   0.35594  -0.42659
  28   37928.3    263.7   0.029577791   0.25673  -0.10614  -0.49371   0.04142
  29   38152.1    262.1   0.082513417   0.71200  -0.49920  -0.59457   0.33060
  30   38230.7    261.6   0.057771881   0.49749  -0.48891  -0.42957   0.27187
  31   38797.1    257.8   0.107620190   0.91321  -0.41931  -0.61973   0.59441
  32   39486.8    253.2   0.002515216   0.02097   0.12843   0.06294  -0.02268
  33   39637.4    252.3   0.034001523   0.28240   0.29902   0.08990  -0.43001
  34   39943.0    250.4   0.010320972   0.08507   0.11144   0.25768  -0.07904
  35   40267.5    248.3   0.004078970   0.03335  -0.08802  -0.03747  -0.15555

FINAL SINGLE POINT ENERGY     -4658.124988023164

DIPOLE MOMENT
-------------
                                X             Y             Z
Electronic contribution:    -24.76755     -29.49707      23.60009
Nuclear contribution   :     26.89122      32.56894     -25.90216
                        -----------------------------------------
Total Dipole Moment    :      2.12367       3.07188      -2.30207
                        -----------------------------------------
Magnitude (a.u.)       :      4.38702
Magnitude (Debye)      :     11.15091

Rotational constants in cm-1:     0.001407     0.000564     0.000412
Rotational constants in MHz :    42.189680    16.917994    12.338565

                             ****ORCA TERMINATED NORMALLY****
TOTAL RUN TIME: 0 days 0 hours 7 minutes 27 seconds 868 msec
