                         Program Version 4.2.0 -  RELEASE  -
|  1> # ORCA input file
|  2> # SCF done       -185.979651172039          0.000727432462
|  3> ! CAM-B3LYP def2-SVP def2/J RIJCOSX Grid4 TightSCF
|  4> %maxcore 5000
|  5> %tddft
|  6>     Mode sTDDFT
|  7>     Ethresh 5.0
|  8>     maxcore 5000
|  9> end
| 10>
| 11> %pal
| 12>   nprocs 6
| 13>   end
| 14> * xyz 0 1
| 15>    C       -4.44442         0.49084         4.33838
| 16>    C       -3.22818         0.40195         4.97513
| 17>    C       -2.96068        -0.46656         6.05195
| 18>    N       -2.67717        -1.15020         6.93039
| 19>    C       -2.07892         1.15205         4.65871
| 20>    N       -1.10267         1.72719         4.46219
| 21>    C       -5.62817        -0.29496         4.68308
| 22>    C       -6.68221         0.07017         3.81016
| 23>    C       -7.93119        -0.49497         3.87598
| 24>    C       -8.15335        -1.47282         4.85246
| 25>    C       -7.09618        -1.83156         5.72008
| 26>    C       -5.83158        -1.25697         5.65306
| 27>    S       -7.58399        -3.05989         6.84848
| 28>    C       -9.18010        -3.07471         6.14741
| 29>    C       -9.34191        -2.20513         5.12213
| 30>   Br      -10.48311        -4.23629         6.83465
| 31>    C       -6.19352         1.10232         2.87634
| 32>    O       -6.84497         1.64167         1.99484
| 33>    C       -4.79746         1.34157         3.22669
| 34>    C       -3.94902         2.23394         2.59924
| 35>    C       -4.15462         3.06549         1.50670
| 36>    S       -5.62509         3.23014         0.58400
| 37>    C       -4.93130         4.39708        -0.48308
| 38>    C       -3.56898         4.63843        -0.17629
| 39>    C       -3.13694         3.89950         0.95931
| 40>    C       -1.81338         4.01802         1.40903
| 41>    C       -0.94723         4.82840         0.72181
| 42>    F        0.32038         4.95571         1.13751
| 43>    C       -1.35851         5.51142        -0.43593
| 44>    F       -0.46900         6.25773        -1.11473
| 45>    C       -2.64666         5.41863        -0.89051
| 46>    C       -5.75103         4.96578        -1.47740
| 47>    C       -5.55035         6.16746        -2.08922
| 48>    C       -6.35897         6.70063        -3.10895
| 49>    C       -6.26267         8.00633        -3.62703
| 50>    C       -7.03064         8.11814        -4.80745
| 51>    C       -7.74448         6.94762        -5.13450
| 52>    S       -7.44779         5.66526        -4.02160
| 53>    C       -8.50686         7.23888        -6.26772
| 54>    C       -8.24300         8.55540        -6.59215
| 55>    N       -7.36591         9.10277        -5.70364
| 56>    C       -6.84359        10.44391        -5.76224
| 57>    C       -5.51921        10.50266        -6.52186
| 58>    C       -8.98396         9.12748        -7.74763
| 59>    C       -9.59418         7.91885        -8.47228
| 60>    S       -9.66337         6.46783        -7.32656
| 61>    C       -5.53696         9.06831        -3.00137
| 62>    C       -5.49674         9.33198        -1.66206
| 63>    C       -4.79250        10.40476        -1.04546
| 64>    C       -5.03440        10.54680         0.28366
| 65>    C       -5.94255         9.59576         0.80805
| 66>    S       -6.46573         8.49403        -0.44927
| 67>    C       -6.42075         9.48761         2.09552
| 68>    C       -6.15164        10.32372         3.20573
| 69>    C       -6.83473         9.98170         4.32909
| 70>    C       -7.68116         8.84955         4.17877
| 71>    S       -7.55165         8.22349         2.54394
| 72>    C       -8.50558         8.33300         5.13951
| 73>    C       -9.35778         7.21902         5.02428
| 74>    S       -9.45722         6.15181         3.63290
| 75>    C      -10.66638         5.15233         4.32901
| 76>    C      -11.00601         5.60000         5.58473
| 77>    C      -10.26229         6.75754         5.96567
| 78>    O      -10.62389         7.18223         7.19384
| 79>    C      -11.58891         6.31271         7.60050
| 80>    N      -12.17061         6.52615         8.87357
| 81>    O      -13.03697         5.74077         9.20996
| 82>    O      -11.77401         7.46427         9.53033
| 83>    C      -11.86816         5.33459         6.68424
| 84>    H       -8.71215        -0.19621         3.19443
| 85>    H       -5.06050        -1.56707         6.33801
| 86>    H      -10.26000        -2.08507         4.57651
| 87>    H       -2.95232         2.29695         3.01134
| 88>    H       -1.44602         3.48623         2.27245
| 89>    H       -2.91356         5.91624        -1.80673
| 90>    H       -6.65809         4.42120        -1.70835
| 91>    H       -4.73792         6.79981        -1.76320
| 92>    H       -6.71291        10.80705        -4.73903
| 93>    H       -7.58566        11.07415        -6.25928
| 94>    H       -4.77982         9.85816        -6.05235
| 95>    H       -5.14118        11.52128        -6.53294
| 96>    H       -5.65542        10.17074        -7.54830
| 97>    H       -8.33768         9.68809        -8.42634
| 98>    H       -9.77039         9.80326        -7.39350
| 99>    H       -8.97651         7.61274        -9.31643
|100>    H      -10.60645         8.10531        -8.82194
|101>    H       -5.02740         9.77100        -3.64726
|102>    H       -4.13363        11.03712        -1.61455
|103>    H       -4.59321        11.30864         0.90087
|104>    H       -5.47426        11.15586         3.13800
|105>    H       -6.76835        10.50356         5.26720
|106>    H       -8.53226         8.83221         6.09949
|107>    H      -11.04729         4.31552         3.78207
|108>    H      -12.59031         4.55308         6.79886
|109> *
|110>
|111>                          ****END OF INPUT****

CARTESIAN COORDINATES (ANGSTROEM)
---------------------------------
  C     -4.444420    0.490840    4.338380
  C     -3.228180    0.401950    4.975130
  C     -2.960680   -0.466560    6.051950
  N     -2.677170   -1.150200    6.930390
  C     -2.078920    1.152050    4.658710
  N     -1.102670    1.727190    4.462190
  C     -5.628170   -0.294960    4.683080
  C     -6.682210    0.070170    3.810160
  C     -7.931190   -0.494970    3.875980
  C     -8.153350   -1.472820    4.852460
  C     -7.096180   -1.831560    5.720080
  C     -5.831580   -1.256970    5.653060
  S     -7.583990   -3.059890    6.848480
  C     -9.180100   -3.074710    6.147410
  C     -9.341910   -2.205130    5.122130
  Br   -10.483110   -4.236290    6.834650
  C     -6.193520    1.102320    2.876340
  O     -6.844970    1.641670    1.994840
  C     -4.797460    1.341570    3.226690
  C     -3.949020    2.233940    2.599240
  C     -4.154620    3.065490    1.506700
  S     -5.625090    3.230140    0.584000
  C     -4.931300    4.397080   -0.483080
  C     -3.568980    4.638430   -0.176290
  C     -3.136940    3.899500    0.959310
  C     -1.813380    4.018020    1.409030
  C     -0.947230    4.828400    0.721810
  F      0.320380    4.955710    1.137510
  C     -1.358510    5.511420   -0.435930
  F     -0.469000    6.257730   -1.114730
  C     -2.646660    5.418630   -0.890510
  C     -5.751030    4.965780   -1.477400
  C     -5.550350    6.167460   -2.089220
  C     -6.358970    6.700630   -3.108950
  C     -6.262670    8.006330   -3.627030
  C     -7.030640    8.118140   -4.807450
  C     -7.744480    6.947620   -5.134500
  S     -7.447790    5.665260   -4.021600
  C     -8.506860    7.238880   -6.267720
  C     -8.243000    8.555400   -6.592150
  N     -7.365910    9.102770   -5.703640
  C     -6.843590   10.443910   -5.762240
  C     -5.519210   10.502660   -6.521860
  C     -8.983960    9.127480   -7.747630
  C     -9.594180    7.918850   -8.472280
  S     -9.663370    6.467830   -7.326560
  C     -5.536960    9.068310   -3.001370
  C     -5.496740    9.331980   -1.662060
  C     -4.792500   10.404760   -1.045460
  C     -5.034400   10.546800    0.283660
  C     -5.942550    9.595760    0.808050
  S     -6.465730    8.494030   -0.449270
  C     -6.420750    9.487610    2.095520
  C     -6.151640   10.323720    3.205730
  C     -6.834730    9.981700    4.329090
  C     -7.681160    8.849550    4.178770
  S     -7.551650    8.223490    2.543940
  C     -8.505580    8.333000    5.139510
  C     -9.357780    7.219020    5.024280
  S     -9.457220    6.151810    3.632900
  C    -10.666380    5.152330    4.329010
  C    -11.006010    5.600000    5.584730
  C    -10.262290    6.757540    5.965670
  O    -10.623890    7.182230    7.193840
  C    -11.588910    6.312710    7.600500
  N    -12.170610    6.526150    8.873570
  O    -13.036970    5.740770    9.209960
  O    -11.774010    7.464270    9.530330
  C    -11.868160    5.334590    6.684240
  H     -8.712150   -0.196210    3.194430
  H     -5.060500   -1.567070    6.338010
  H    -10.260000   -2.085070    4.576510
  H     -2.952320    2.296950    3.011340
  H     -1.446020    3.486230    2.272450
  H     -2.913560    5.916240   -1.806730
  H     -6.658090    4.421200   -1.708350
  H     -4.737920    6.799810   -1.763200
  H     -6.712910   10.807050   -4.739030
  H     -7.585660   11.074150   -6.259280
  H     -4.779820    9.858160   -6.052350
  H     -5.141180   11.521280   -6.532940
  H     -5.655420   10.170740   -7.548300
  H     -8.337680    9.688090   -8.426340
  H     -9.770390    9.803260   -7.393500
  H     -8.976510    7.612740   -9.316430
  H    -10.606450    8.105310   -8.821940
  H     -5.027400    9.771000   -3.647260
  H     -4.133630   11.037120   -1.614550
  H     -4.593210   11.308640    0.900870
  H     -5.474260   11.155860    3.138000
  H     -6.768350   10.503560    5.267200
  H     -8.532260    8.832210    6.099490
  H    -11.047290    4.315520    3.782070
  H    -12.590310    4.553080    6.798860

 Total Charge           Charge          ....    0
 Multiplicity           Mult            ....    1
 Number of Electrons    NEL             ....  556
 Basis Dimension        Dim             .... 1137

ORBITAL ENERGIES
----------------

  NO   OCC          E(Eh)            E(eV)
   0   2.0000    -482.878933    -13139.8038
   1   2.0000     -88.978692     -2421.2333
   2   2.0000     -88.966931     -2420.9133
   3   2.0000     -88.966432     -2420.8997
   4   2.0000     -88.955670     -2420.6068
   5   2.0000     -88.954329     -2420.5704
   6   2.0000     -88.951785     -2420.5011
   7   2.0000     -88.923997     -2419.7450
   8   2.0000     -62.556649     -1702.2529
   9   2.0000     -56.390589     -1534.4660
  10   2.0000     -56.387893     -1534.3926
  11   2.0000     -56.387853     -1534.3915
  12   2.0000     -24.786875      -674.4852
  13   2.0000     -24.785720      -674.4537
  14   2.0000     -19.311492      -525.4924
  15   2.0000     -19.244411      -523.6670
  16   2.0000     -19.242132      -523.6050
  17   2.0000     -19.207050      -522.6504
  18   2.0000     -14.656087      -398.8124
  19   2.0000     -14.475189      -393.8899
  20   2.0000     -14.405758      -392.0006
  21   2.0000     -14.399444      -391.8288
  22   2.0000     -10.388378      -282.6821
  23   2.0000     -10.371068      -282.2111
  24   2.0000     -10.366391      -282.0838
  25   2.0000     -10.355048      -281.7752
  26   2.0000     -10.350487      -281.6511
  27   2.0000     -10.349289      -281.6185
  28   2.0000     -10.332307      -281.1564
  29   2.0000     -10.327072      -281.0139
  30   2.0000     -10.323659      -280.9210
  31   2.0000     -10.322826      -280.8984
  32   2.0000     -10.320856      -280.8448
  33   2.0000     -10.320244      -280.8281
  34   2.0000     -10.320217      -280.8274
  35   2.0000     -10.317003      -280.7399
  36   2.0000     -10.316021      -280.7132
  37   2.0000     -10.315336      -280.6946
  38   2.0000     -10.315254      -280.6923
  39   2.0000     -10.314079      -280.6604
  40   2.0000     -10.310212      -280.5551
  41   2.0000     -10.309589      -280.5382
  42   2.0000     -10.308039      -280.4960
  43   2.0000     -10.308011      -280.4952
  44   2.0000     -10.306797      -280.4622
  45   2.0000     -10.305753      -280.4338
  46   2.0000     -10.305641      -280.4307
  47   2.0000     -10.303958      -280.3850
  48   2.0000     -10.303444      -280.3710
  49   2.0000     -10.301717      -280.3240
  50   2.0000     -10.301543      -280.3192
  51   2.0000     -10.300086      -280.2796
  52   2.0000     -10.299710      -280.2694
  53   2.0000     -10.298658      -280.2407
  54   2.0000     -10.298284      -280.2306
  55   2.0000     -10.297650      -280.2133
  56   2.0000     -10.296371      -280.1785
  57   2.0000     -10.296141      -280.1722
  58   2.0000     -10.294919      -280.1390
  59   2.0000     -10.294878      -280.1379
  60   2.0000     -10.294558      -280.1292
  61   2.0000     -10.294273      -280.1214
  62   2.0000     -10.294262      -280.1211
  63   2.0000     -10.293750      -280.1072
  64   2.0000     -10.292977      -280.0861
  65   2.0000     -10.291363      -280.0422
  66   2.0000     -10.289126      -279.9813
  67   2.0000     -10.287679      -279.9420
  68   2.0000     -10.287644      -279.9410
  69   2.0000     -10.286111      -279.8993
  70   2.0000     -10.283807      -279.8366
  71   2.0000     -10.281089      -279.7627
  72   2.0000     -10.277216      -279.6573
  73   2.0000      -8.786072      -239.0812
  74   2.0000      -8.073275      -219.6850
  75   2.0000      -8.062977      -219.4047
  76   2.0000      -8.059732      -219.3165
  77   2.0000      -8.050533      -219.0661
  78   2.0000      -8.050522      -219.0658
  79   2.0000      -8.047587      -218.9860
  80   2.0000      -8.019604      -218.2245
  81   2.0000      -6.622346      -180.2032
  82   2.0000      -6.607813      -179.8077
  83   2.0000      -6.607638      -179.8030
  84   2.0000      -6.042593      -164.4273
  85   2.0000      -6.038149      -164.3064
  86   2.0000      -6.035727      -164.2405
  87   2.0000      -6.032657      -164.1569
  88   2.0000      -6.028934      -164.0556
  89   2.0000      -6.028392      -164.0409
  90   2.0000      -6.024310      -163.9298
  91   2.0000      -6.024195      -163.9267
  92   2.0000      -6.022466      -163.8796
  93   2.0000      -6.020332      -163.8216
  94   2.0000      -6.020227      -163.8187
  95   2.0000      -6.017449      -163.7431
  96   2.0000      -6.016230      -163.7099
  97   2.0000      -6.016225      -163.7098
  98   2.0000      -6.013355      -163.6317
  99   2.0000      -6.011794      -163.5892
 100   2.0000      -6.011314      -163.5762
 101   2.0000      -6.008272      -163.4934
 102   2.0000      -5.990376      -163.0064
 103   2.0000      -5.986290      -162.8952
 104   2.0000      -5.978578      -162.6854
 105   2.0000      -2.738200       -74.5102
 106   2.0000      -2.734133       -74.3995
 107   2.0000      -2.734030       -74.3967
 108   2.0000      -2.722474       -74.0823
 109   2.0000      -2.722451       -74.0817
 110   2.0000      -1.327425       -36.1211
 111   2.0000      -1.308471       -35.6053
 112   2.0000      -1.293406       -35.1954
 113   2.0000      -1.231357       -33.5069
 114   2.0000      -1.143880       -31.1266
 115   2.0000      -1.121646       -30.5215
 116   2.0000      -1.101088       -29.9621
 117   2.0000      -1.012203       -27.5434
 118   2.0000      -1.006358       -27.3844
 119   2.0000      -1.005605       -27.3639
 120   2.0000      -1.001928       -27.2638
 121   2.0000      -0.998452       -27.1693
 122   2.0000      -0.985728       -26.8230
 123   2.0000      -0.982299       -26.7297
 124   2.0000      -0.977318       -26.5942
 125   2.0000      -0.976559       -26.5735
 126   2.0000      -0.954044       -25.9609
 127   2.0000      -0.944848       -25.7106
 128   2.0000      -0.937074       -25.4991
 129   2.0000      -0.932681       -25.3795
 130   2.0000      -0.917596       -24.9690
 131   2.0000      -0.910120       -24.7656
 132   2.0000      -0.901869       -24.5411
 133   2.0000      -0.897812       -24.4307
 134   2.0000      -0.891871       -24.2691
 135   2.0000      -0.880833       -23.9687
 136   2.0000      -0.878389       -23.9022
 137   2.0000      -0.875578       -23.8257
 138   2.0000      -0.867050       -23.5936
 139   2.0000      -0.859750       -23.3950
 140   2.0000      -0.847614       -23.0648
 141   2.0000      -0.846360       -23.0306
 142   2.0000      -0.840221       -22.8636
 143   2.0000      -0.837334       -22.7850
 144   2.0000      -0.833601       -22.6834
 145   2.0000      -0.822055       -22.3692
 146   2.0000      -0.819615       -22.3028
 147   2.0000      -0.809903       -22.0386
 148   2.0000      -0.805719       -21.9247
 149   2.0000      -0.790959       -21.5231
 150   2.0000      -0.785037       -21.3619
 151   2.0000      -0.777258       -21.1503
 152   2.0000      -0.758566       -20.6416
 153   2.0000      -0.748865       -20.3777
 154   2.0000      -0.739137       -20.1129
 155   2.0000      -0.737294       -20.0628
 156   2.0000      -0.732596       -19.9350
 157   2.0000      -0.723276       -19.6813
 158   2.0000      -0.709618       -19.3097
 159   2.0000      -0.702556       -19.1175
 160   2.0000      -0.697539       -18.9810
 161   2.0000      -0.693439       -18.8694
 162   2.0000      -0.681144       -18.5349
 163   2.0000      -0.678575       -18.4650
 164   2.0000      -0.677932       -18.4475
 165   2.0000      -0.664824       -18.0908
 166   2.0000      -0.659828       -17.9548
 167   2.0000      -0.655523       -17.8377
 168   2.0000      -0.651626       -17.7316
 169   2.0000      -0.647215       -17.6116
 170   2.0000      -0.646108       -17.5815
 171   2.0000      -0.641197       -17.4479
 172   2.0000      -0.635417       -17.2906
 173   2.0000      -0.632671       -17.2158
 174   2.0000      -0.628579       -17.1045
 175   2.0000      -0.625100       -17.0098
 176   2.0000      -0.624190       -16.9851
 177   2.0000      -0.616310       -16.7706
 178   2.0000      -0.611004       -16.6263
 179   2.0000      -0.608768       -16.5654
 180   2.0000      -0.604861       -16.4591
 181   2.0000      -0.604155       -16.4399
 182   2.0000      -0.594098       -16.1662
 183   2.0000      -0.590690       -16.0735
 184   2.0000      -0.586560       -15.9611
 185   2.0000      -0.585095       -15.9212
 186   2.0000      -0.579067       -15.7572
 187   2.0000      -0.574911       -15.6441
 188   2.0000      -0.573215       -15.5980
 189   2.0000      -0.572538       -15.5796
 190   2.0000      -0.568159       -15.4604
 191   2.0000      -0.559169       -15.2158
 192   2.0000      -0.555498       -15.1159
 193   2.0000      -0.551814       -15.0156
 194   2.0000      -0.548513       -14.9258
 195   2.0000      -0.547302       -14.8929
 196   2.0000      -0.542961       -14.7747
 197   2.0000      -0.539913       -14.6918
 198   2.0000      -0.535752       -14.5786
 199   2.0000      -0.535220       -14.5641
 200   2.0000      -0.532109       -14.4794
 201   2.0000      -0.530562       -14.4373
 202   2.0000      -0.529615       -14.4115
 203   2.0000      -0.521925       -14.2023
 204   2.0000      -0.519681       -14.1413
 205   2.0000      -0.516020       -14.0416
 206   2.0000      -0.510460       -13.8903
 207   2.0000      -0.509620       -13.8675
 208   2.0000      -0.506248       -13.7757
 209   2.0000      -0.505025       -13.7424
 210   2.0000      -0.503622       -13.7042
 211   2.0000      -0.501453       -13.6452
 212   2.0000      -0.498464       -13.5639
 213   2.0000      -0.496823       -13.5192
 214   2.0000      -0.495976       -13.4962
 215   2.0000      -0.494462       -13.4550
 216   2.0000      -0.489360       -13.3162
 217   2.0000      -0.487268       -13.2592
 218   2.0000      -0.485080       -13.1997
 219   2.0000      -0.483140       -13.1469
 220   2.0000      -0.482107       -13.1188
 221   2.0000      -0.479836       -13.0570
 222   2.0000      -0.476220       -12.9586
 223   2.0000      -0.472595       -12.8600
 224   2.0000      -0.470805       -12.8112
 225   2.0000      -0.468284       -12.7427
 226   2.0000      -0.464511       -12.6400
 227   2.0000      -0.462039       -12.5727
 228   2.0000      -0.460213       -12.5230
 229   2.0000      -0.460009       -12.5175
 230   2.0000      -0.456634       -12.4256
 231   2.0000      -0.452606       -12.3160
 232   2.0000      -0.452214       -12.3054
 233   2.0000      -0.450961       -12.2713
 234   2.0000      -0.448201       -12.1962
 235   2.0000      -0.441692       -12.0191
 236   2.0000      -0.439502       -11.9594
 237   2.0000      -0.438443       -11.9306
 238   2.0000      -0.434807       -11.8317
 239   2.0000      -0.432930       -11.7806
 240   2.0000      -0.430621       -11.7178
 241   2.0000      -0.429617       -11.6905
 242   2.0000      -0.424364       -11.5475
 243   2.0000      -0.420293       -11.4367
 244   2.0000      -0.417545       -11.3620
 245   2.0000      -0.416780       -11.3412
 246   2.0000      -0.415050       -11.2941
 247   2.0000      -0.414054       -11.2670
 248   2.0000      -0.408283       -11.1099
 249   2.0000      -0.402186       -10.9440
 250   2.0000      -0.401066       -10.9136
 251   2.0000      -0.398377       -10.8404
 252   2.0000      -0.395660       -10.7665
 253   2.0000      -0.394155       -10.7255
 254   2.0000      -0.391047       -10.6409
 255   2.0000      -0.390082       -10.6147
 256   2.0000      -0.381045       -10.3688
 257   2.0000      -0.378447       -10.2981
 258   2.0000      -0.377814       -10.2808
 259   2.0000      -0.372041       -10.1238
 260   2.0000      -0.368568       -10.0293
 261   2.0000      -0.361879        -9.8472
 262   2.0000      -0.354702        -9.6519
 263   2.0000      -0.351406        -9.5623
 264   2.0000      -0.345014        -9.3883
 265   2.0000      -0.334662        -9.1066
 266   2.0000      -0.326239        -8.8774
 267   2.0000      -0.323853        -8.8125
 268   2.0000      -0.321975        -8.7614
 269   2.0000      -0.314094        -8.5469
 270   2.0000      -0.312571        -8.5055
 271   2.0000      -0.305909        -8.3242
 272   2.0000      -0.288823        -7.8593
 273   2.0000      -0.284940        -7.7536
 274   2.0000      -0.282718        -7.6931
 275   2.0000      -0.254370        -6.9218
 276   2.0000      -0.232597        -6.3293
 277   2.0000      -0.219930        -5.9846
 278   0.0000      -0.097544        -2.6543
 279   0.0000      -0.080648        -2.1945
 280   0.0000      -0.060570        -1.6482
 281   0.0000      -0.053985        -1.4690
 282   0.0000      -0.032472        -0.8836

MULLIKEN ATOMIC CHARGES
-----------------------
   0 C :    0.327371
   1 C :   -0.366744
   2 C :   -0.187338
   3 N :    0.136370
   4 C :   -0.184906
   5 N :    0.135399
   6 C :    0.007712
   7 C :   -0.004853
   8 C :   -0.082157
   9 C :    0.119551
  10 C :   -0.094080
  11 C :   -0.021618
  12 S :    0.182274
  13 C :   -0.123382
  14 C :    0.035560
  15 Br:    0.016135
  16 C :    0.152769
  17 O :   -0.197157
  18 C :   -0.113768
  19 C :   -0.027924
  20 C :   -0.084989
  21 S :    0.225450
  22 C :   -0.073576
  23 C :    0.116562
  24 C :    0.129275
  25 C :   -0.122134
  26 C :    0.232944
  27 F :   -0.168154
  28 C :    0.213942
  29 F :   -0.182830
  30 C :   -0.117128
  31 C :   -0.003465
  32 C :    0.002915
  33 C :   -0.163576
  34 C :    0.118360
  35 C :    0.077405
  36 C :   -0.110811
  37 S :    0.138849
  38 C :   -0.077181
  39 C :   -0.113693
  40 N :   -0.156920
  41 C :    0.093212
  42 C :    0.003452
  43 C :    0.146981
  44 C :   -0.082283
  45 S :    0.002852
  46 C :   -0.111637
  47 C :   -0.042518
  48 C :    0.028228
  49 C :    0.039640
  50 C :   -0.059225
  51 S :    0.096162
  52 C :   -0.032054
  53 C :    0.024018
  54 C :    0.044677
  55 C :   -0.030325
  56 S :    0.067463
  57 C :   -0.003659
  58 C :   -0.196950
  59 S :    0.152982
  60 C :   -0.126973
  61 C :    0.124742
  62 C :    0.196004
  63 O :   -0.183637
  64 C :    0.235640
  65 N :    0.273373
  66 O :   -0.248849
  67 O :   -0.230011
  68 C :   -0.071408
  69 H :   -0.018597
  70 H :   -0.009456
  71 H :   -0.008335
  72 H :   -0.020609
  73 H :    0.014031
  74 H :   -0.007725
  75 H :   -0.001985
  76 H :    0.026884
  77 H :    0.035375
  78 H :    0.025056
  79 H :    0.033579
  80 H :    0.026701
  81 H :    0.022611
  82 H :    0.022105
  83 H :    0.032868
  84 H :    0.065391
  85 H :    0.052299
  86 H :   -0.014270
  87 H :   -0.010217
  88 H :   -0.009599
  89 H :   -0.009995
  90 H :   -0.005257
  91 H :    0.007880
  92 H :    0.036072
  93 H :    0.014835
Sum of atomic charges:   -0.0000000

LOEWDIN ATOMIC CHARGES
----------------------
   0 C :    0.078072
   1 C :   -0.161079
   2 C :   -0.019422
   3 N :   -0.067743
   4 C :   -0.016152
   5 N :   -0.070906
   6 C :   -0.018171
   7 C :   -0.048317
   8 C :    0.015129
   9 C :   -0.036580
  10 C :   -0.146395
  11 C :   -0.011691
  12 S :    0.430080
  13 C :   -0.274860
  14 C :   -0.072123
  15 Br:    0.130958
  16 C :    0.080610
  17 O :   -0.185242
  18 C :   -0.130525
  19 C :    0.045404
  20 C :   -0.203967
  21 S :    0.547344
  22 C :   -0.131007
  23 C :   -0.058009
  24 C :   -0.011605
  25 C :   -0.038844
  26 C :    0.073845
  27 F :   -0.047852
  28 C :    0.054482
  29 F :   -0.060988
  30 C :   -0.032862
  31 C :   -0.076419
  32 C :   -0.015789
  33 C :   -0.186656
  34 C :   -0.051906
  35 C :   -0.029007
  36 C :   -0.206733
  37 S :    0.416858
  38 C :   -0.226439
  39 C :   -0.029671
  40 N :    0.052223
  41 C :    0.041630
  42 C :   -0.060687
  43 C :   -0.039428
  44 C :   -0.103176
  45 S :    0.257956
  46 C :   -0.080099
  47 C :   -0.134630
  48 C :   -0.039763
  49 C :   -0.021995
  50 C :   -0.184379
  51 S :    0.391843
  52 C :   -0.168463
  53 C :   -0.036959
  54 C :   -0.022107
  55 C :   -0.154125
  56 S :    0.365521
  57 C :   -0.060150
  58 C :   -0.207162
  59 S :    0.481993
  60 C :   -0.183705
  61 C :   -0.084792
  62 C :    0.022935
  63 O :    0.001893
  64 C :    0.025788
  65 N :    0.272074
  66 O :   -0.209976
  67 O :   -0.191621
  68 C :   -0.008187
  69 H :    0.037492
  70 H :    0.040556
  71 H :    0.036675
  72 H :    0.045537
  73 H :    0.047199
  74 H :    0.040638
  75 H :    0.026027
  76 H :    0.032866
  77 H :    0.030828
  78 H :    0.031095
  79 H :    0.028001
  80 H :    0.031636
  81 H :    0.028759
  82 H :    0.033674
  83 H :    0.036393
  84 H :    0.025800
  85 H :    0.026645
  86 H :    0.029555
  87 H :    0.033110
  88 H :    0.033741
  89 H :    0.033160
  90 H :    0.036596
  91 H :    0.047619
  92 H :    0.030529
  93 H :    0.047592

  Mayer bond orders larger than 0.100000
B(  0-C ,  1-C ) :   1.5804 B(  0-C ,  6-C ) :   0.9861 B(  0-C , 18-C ) :   1.1260
B(  1-C ,  2-C ) :   1.1475 B(  1-C ,  4-C ) :   1.1564 B(  2-C ,  3-N ) :   2.9620
B(  4-C ,  5-N ) :   2.9681 B(  6-C ,  7-C ) :   1.2790 B(  6-C , 11-C ) :   1.4237
B(  7-C ,  8-C ) :   1.4303 B(  7-C , 16-C ) :   0.9510 B(  8-C ,  9-C ) :   1.2336
B(  8-C , 69-H ) :   1.0169 B(  9-C , 10-C ) :   1.3179 B(  9-C , 14-C ) :   1.1618
B( 10-C , 11-C ) :   1.3178 B( 10-C , 12-S ) :   1.0844 B( 11-C , 70-H ) :   0.9793
B( 12-S , 13-C ) :   1.0874 B( 13-C , 14-C ) :   1.6186 B( 13-C , 15-Br) :   1.0137
B( 14-C , 71-H ) :   1.0003 B( 16-C , 17-O ) :   2.1155 B( 16-C , 18-C ) :   0.9966
B( 18-C , 19-C ) :   1.4159 B( 19-C , 20-C ) :   1.3877 B( 19-C , 72-H ) :   0.9291
B( 20-C , 21-S ) :   1.0725 B( 20-C , 24-C ) :   1.2019 B( 21-S , 22-C ) :   1.1835
B( 22-C , 23-C ) :   1.2379 B( 22-C , 31-C ) :   1.2017 B( 23-C , 24-C ) :   1.2650
B( 23-C , 30-C ) :   1.1890 B( 24-C , 25-C ) :   1.2119 B( 25-C , 26-C ) :   1.4510
B( 25-C , 30-C ) :   0.1101 B( 25-C , 73-H ) :   0.9899 B( 26-C , 27-F ) :   1.1516
B( 26-C , 28-C ) :   1.1925 B( 28-C , 29-F ) :   1.1227 B( 28-C , 30-C ) :   1.4702
B( 30-C , 74-H ) :   0.9936 B( 31-C , 32-C ) :   1.5737 B( 31-C , 75-H ) :   0.9512
B( 32-C , 33-C ) :   1.2303 B( 32-C , 76-H ) :   0.9589 B( 33-C , 34-C ) :   1.3730
B( 33-C , 37-S ) :   1.0702 B( 34-C , 35-C ) :   1.2246 B( 34-C , 46-C ) :   1.0532
B( 35-C , 36-C ) :   1.3930 B( 35-C , 40-N ) :   1.1586 B( 36-C , 37-S ) :   1.0309
B( 36-C , 38-C ) :   1.4280 B( 38-C , 39-C ) :   1.5250 B( 38-C , 45-S ) :   0.9377
B( 39-C , 40-N ) :   1.2033 B( 39-C , 43-C ) :   1.0646 B( 40-N , 41-C ) :   0.9621
B( 41-C , 42-C ) :   1.1044 B( 41-C , 77-H ) :   0.9461 B( 41-C , 78-H ) :   0.9469
B( 42-C , 79-H ) :   0.9658 B( 42-C , 80-H ) :   0.9673 B( 42-C , 81-H ) :   0.9638
B( 43-C , 44-C ) :   1.0470 B( 43-C , 82-H ) :   0.9219 B( 43-C , 83-H ) :   0.9077
B( 44-C , 45-S ) :   0.9958 B( 44-C , 84-H ) :   0.9553 B( 44-C , 85-H ) :   0.9532
B( 46-C , 47-C ) :   1.6379 B( 46-C , 86-H ) :   0.9583 B( 47-C , 48-C ) :   1.1175
B( 47-C , 51-S ) :   1.0458 B( 48-C , 49-C ) :   1.6103 B( 48-C , 87-H ) :   0.9985
B( 49-C , 50-C ) :   1.1718 B( 49-C , 88-H ) :   0.9940 B( 50-C , 51-S ) :   1.0326
B( 50-C , 52-C ) :   1.5366 B( 52-C , 53-C ) :   1.1723 B( 52-C , 56-S ) :   1.0439
B( 53-C , 54-C ) :   1.6070 B( 53-C , 89-H ) :   0.9932 B( 54-C , 55-C ) :   1.1320
B( 54-C , 90-H ) :   1.0000 B( 55-C , 56-S ) :   1.0288 B( 55-C , 57-C ) :   1.5847
B( 57-C , 58-C ) :   1.1683 B( 57-C , 91-H ) :   0.9734 B( 58-C , 59-S ) :   1.1078
B( 58-C , 60-C ) :   0.1088 B( 58-C , 62-C ) :   1.4437 B( 59-S , 60-C ) :   1.1967
B( 60-C , 61-C ) :   1.4132 B( 60-C , 92-H ) :   0.9765 B( 61-C , 62-C ) :   1.2301
B( 61-C , 68-C ) :   1.0601 B( 62-C , 63-O ) :   1.1260 B( 63-O , 64-C ) :   1.1205
B( 64-C , 65-N ) :   0.9152 B( 64-C , 68-C ) :   1.5796 B( 65-N , 66-O ) :   1.5332
B( 65-N , 67-O ) :   1.5151 B( 66-O , 67-O ) :   0.2804 B( 68-C , 93-H ) :   1.0262

-----------------------------------------------------------------------------
         ABSORPTION SPECTRUM VIA TRANSITION ELECTRIC DIPOLE MOMENTS
-----------------------------------------------------------------------------
State   Energy  Wavelength   fosc         T2         TX        TY        TZ
        (cm-1)    (nm)                  (au**2)     (au)      (au)      (au)
-----------------------------------------------------------------------------
   0   11453.8    873.1   0.320028854   9.19850  -1.58148   2.57843  -0.22162
   1   14898.5    671.2   0.365896031   8.08522  -0.59080   1.74363  -2.16701
   2   17114.0    584.3   1.605162719  30.87763   0.78785   2.44315  -4.92828
   3   19107.6    523.4   0.099640338   1.71674   1.04836   0.35366  -0.70185
   4   20368.0    491.0   0.018963476   0.30651  -0.35470  -0.33956   0.25573
   5   21178.0    472.2   0.244182505   3.79582   0.41573  -0.09654  -1.90096
   6   22261.1    449.2   0.124289035   1.83807   0.39486   0.47169  -1.20816
   7   25017.3    399.7   0.004153615   0.05466  -0.16348   0.10668  -0.12865
   8   25418.8    393.4   0.067387657   0.87277   0.61782   0.45790  -0.53046
   9   25790.5    387.7   0.138699897   1.77049   1.11525   0.43561   0.58047
  10   25915.7    385.9   0.013046806   0.16574  -0.11881  -0.06851  -0.38331
  11   26486.4    377.6   0.068069766   0.84607  -0.29198  -0.77611  -0.39808
  12   26912.5    371.6   0.012960143   0.15854  -0.31315   0.23148  -0.08299
  13   27510.8    363.5   0.202595669   2.42439   1.29789   0.79784  -0.32145
  14   28121.0    355.6   0.235145562   2.75284  -1.40735  -0.85995   0.18082
  15   28395.4    352.2   0.035625447   0.41304   0.46229   0.29430  -0.33572
  16   29716.3    336.5   0.101323702   1.12252  -0.07939   0.99918  -0.34329
  17   29869.9    334.8   0.038085309   0.41976   0.55671   0.01279  -0.33117
  18   30180.3    331.3   0.111709020   1.21854  -0.93809  -0.57982   0.04836
  19   30689.5    325.8   0.006008399   0.06445   0.18873   0.12855   0.11096
  20   30952.8    323.1   0.033657649   0.35798  -0.57783  -0.04657   0.14806
  21   31807.6    314.4   0.033471215   0.34643   0.51550   0.11427  -0.26006
  22   31907.3    313.4   0.099148541   1.02299  -0.62586  -0.25831  -0.75137
  23   31955.5    312.9   0.018031703   0.18577  -0.19999   0.03421  -0.38026
  24   32315.0    309.5   0.001007601   0.01027  -0.05095  -0.05564   0.06762
  25   32551.8    307.2   0.162037402   1.63876   1.25754  -0.00319  -0.23945
  26   32841.7    304.5   0.091509913   0.91731   0.55056   0.40756  -0.66939
  27   32905.1    303.9   0.014616527   0.14624   0.11031  -0.36182   0.05615
  28   33113.8    302.0   0.682710861   6.78741   2.04190   1.51897   0.55749
  29   33475.2    298.7   0.102946426   1.01243   0.13974   0.10248   0.99116
  30   33738.1    296.4   0.048781193   0.47600   0.65402   0.21158   0.05910
  31   34080.6    293.4   0.011754970   0.11355  -0.11443   0.29804  -0.10784
  32   34232.5    292.1   0.105414990   1.01377  -0.10106   0.06911   0.99939
  33   35342.8    282.9   0.116992808   1.08977   0.52769   0.73133  -0.52579
  34   35680.3    280.3   0.075137252   0.69327   0.80878   0.19723   0.01558
  35   35764.4    279.6   0.021441286   0.19737   0.42001   0.10180  -0.10292
  36   36025.0    277.6   0.089194285   0.81510   0.85733  -0.27722  -0.05691
  37   36343.2    275.2   0.047836926   0.43333   0.48081  -0.26242   0.36508
  38   36691.8    272.5   0.021081839   0.18915  -0.00896  -0.01630   0.43452
  39   36998.3    270.3   0.111729360   0.99417   0.54749   0.40608  -0.72768
  40   37319.5    268.0   0.095184568   0.83967  -0.83093   0.12575  -0.36526
  41   37394.3    267.4   0.162943806   1.43453  -0.19809   0.20181   1.16386
  42   37804.8    264.5   0.004904214   0.04271   0.08421   0.18585  -0.03281
  43   38259.2    261.4   0.032225978   0.27730   0.46335  -0.09594   0.23109
  44   38382.6    260.5   0.016166435   0.13866   0.21714   0.23934  -0.18500
  45   38512.0    259.7   0.031110081   0.26594  -0.31207   0.20545  -0.35544
  46   38726.3    258.2   0.019340926   0.16442  -0.27276  -0.18556   0.23577
  47   38827.7    257.5   0.086987958   0.73755   0.67097  -0.26385  -0.46663
  48   38958.5    256.7   0.105496744   0.89148  -0.02214  -0.16051   0.93018
  49   39285.8    254.5   0.062550717   0.52417  -0.07241   0.29265   0.65824
  50   39560.0    252.8   0.037883031   0.31526  -0.22970  -0.46986  -0.20427
  51   39728.4    251.7   0.007752401   0.06424  -0.10006   0.22990   0.03710
  52   40270.0    248.3   0.045935829   0.37553  -0.07127   0.07816  -0.60361

FINAL SINGLE POINT ENERGY     -8034.980856265279

DIPOLE MOMENT
-------------
                                X             Y             Z
Electronic contribution:    -26.55178    -138.51960     107.78808
Nuclear contribution   :     24.73959     142.50468    -112.87008
                        -----------------------------------------
Total Dipole Moment    :     -1.81219       3.98508      -5.08200
                        -----------------------------------------
Magnitude (a.u.)       :      6.70758
Magnitude (Debye)      :     17.04931

Rotational constants in cm-1:     0.000851     0.000389     0.000355
Rotational constants in MHz :    25.501606    11.669142    10.646274

                             ****ORCA TERMINATED NORMALLY****
TOTAL RUN TIME: 0 days 0 hours 14 minutes 52 seconds 355 msec
