                         Program Version 4.2.0 -  RELEASE  -
|  1> # ORCA input file
|  2> # SCF done       -195.391022125643          0.000888644619
|  3> ! CAM-B3LYP def2-SVP def2/J RIJCOSX Grid4 TightSCF
|  4> %maxcore 5000
|  5> %tddft
|  6>     Mode sTDDFT
|  7>     Ethresh 5.0
|  8>     maxcore 5000
|  9> end
| 10>
| 11> %pal
| 12>   nprocs 6
| 13>   end
| 14> * xyz 0 1
| 15>    C        7.82605        -2.55256         0.92370
| 16>    C        7.04028        -3.26177         1.74459
| 17>    C        7.02749        -3.24530         3.18026
| 18>    C        6.12228        -4.07634         3.74009
| 19>    C        5.34452        -4.81633         2.80347
| 20>    S        5.81625        -4.40489         1.16694
| 21>    C        4.35971        -5.73391         3.07466
| 22>    C        3.89560        -6.15883         4.34704
| 23>    C        2.91101        -7.09072         4.28937
| 24>    C        2.53421        -7.46051         2.96947
| 25>    S        3.48635        -6.56792         1.80025
| 26>    C        1.57978        -8.37632         2.61872
| 27>    C        1.25478        -8.69628         1.28906
| 28>    O        1.89251        -8.07393         0.25492
| 29>    C        0.33890        -9.58787         0.75461
| 30>    C       -0.72958       -10.53405         1.08274
| 31>    O       -1.15657       -10.90296         2.14867
| 32>    N       -1.19653       -10.95010        -0.16135
| 33>    C       -0.55768       -10.38146        -1.24706
| 34>    O       -0.81885       -10.60626        -2.40516
| 35>    C        0.44646        -9.49287        -0.65461
| 36>    C        1.41234        -8.54413        -0.92971
| 37>    C        1.89186        -7.97022        -2.14103
| 38>    C        1.55851        -8.45494        -3.35634
| 39>    C        1.96376        -7.84539        -4.60175
| 40>    C        3.09939        -7.08411        -4.65516
| 41>    S        3.44120        -6.38695        -6.18149
| 42>    C        1.99707        -7.10611        -6.82458
| 43>    C        1.29709        -7.89036        -5.89270
| 44>    C        0.12184        -8.54800        -6.33018
| 45>    C       -0.59908        -9.46239        -5.38360
| 46>    C        0.07197       -10.83920        -5.36420
| 47>    C       -0.32836        -8.40805        -7.64184
| 48>    C       -1.55234        -9.16291        -8.08647
| 49>    C       -2.82718        -8.36305        -7.80664
| 50>    C        0.34598        -7.55758        -8.55012
| 51>    C        0.08275        -7.21414        -9.93959
| 52>    C        1.07492        -6.41082       -10.44975
| 53>    S        2.31142        -5.99651        -9.35005
| 54>    C        1.53101        -6.94398        -8.11682
| 55>    C       -1.05443        -7.57662       -10.73236
| 56>    C       -1.09540        -7.55358       -12.09480
| 57>    C       -2.18428        -7.94592       -12.90098
| 58>    C       -3.30315        -8.66984       -12.56088
| 59>    C       -4.33308        -9.05794       -13.45445
| 60>    C       -5.29219        -9.85595       -12.90462
| 61>    C       -5.07461       -10.14731       -11.54074
| 62>    S       -3.63164        -9.35488       -10.97893
| 63>    C       -5.82694       -10.94833       -10.69444
| 64>    C       -6.99985       -11.66749       -10.98793
| 65>    C       -7.47517       -12.39537        -9.93280
| 66>    C       -6.70456       -12.28201        -8.75675
| 67>    S       -5.35133       -11.21221        -9.02863
| 68>    C       -6.94810       -12.92026        -7.55143
| 69>    C       -6.16087       -12.75951        -6.42095
| 70>    C       -6.36511       -13.41958        -5.21882
| 71>    C       -5.60440       -13.27247        -4.00951
| 72>    C       -4.59118       -12.36922        -3.75529
| 73>    C       -3.93365       -12.26916        -2.51914
| 74>    N       -3.37956       -12.14564        -1.51904
| 75>    C       -4.10838       -11.41301        -4.66722
| 76>    N       -3.68214       -10.60640        -5.36663
| 77>    C       -6.11811       -14.23931        -3.03758
| 78>    C       -7.20376       -14.93336        -3.62281
| 79>    C       -7.40985       -14.43558        -5.00066
| 80>    O       -8.27098       -14.81460        -5.77261
| 81>    C       -7.90260       -15.91307        -2.96371
| 82>    C       -7.50851       -16.23082        -1.65847
| 83>    C       -6.42013       -15.53749        -1.08310
| 84>    C       -5.71511       -14.54284        -1.75182
| 85>    S       -6.09322       -16.08731         0.53341
| 86>    C       -7.40481       -17.22867         0.41245
| 87>    C       -8.05759       -17.19906        -0.77322
| 88>   Br       -7.79448       -18.34884         1.86723
| 89>    H        8.55669        -1.86828         1.31771
| 90>    H        7.75271        -2.64025        -0.14481
| 91>    H        7.70114        -2.60921         3.72673
| 92>    H        5.97797        -4.19092         4.79982
| 93>    H        4.30335        -5.76561         5.26109
| 94>    H        2.43398        -7.53414         5.14541
| 95>    H        1.02994        -8.89897         3.38595
| 96>    H       -1.99009       -11.57226        -0.30246
| 97>    H        2.50799        -7.09145        -2.01661
| 98>    H        0.95539        -9.34605        -3.38508
| 99>    H        3.79606        -6.91749        -3.85724
|100>    H       -0.60368        -9.03417        -4.38511
|101>    H       -1.64212        -9.59057        -5.65452
|102>    H       -0.37196       -11.44350        -4.57945
|103>    H        1.14109       -10.75407        -5.17951
|104>    H       -0.06328       -11.34426        -6.31869
|105>    H       -1.62113       -10.11444        -7.56487
|106>    H       -1.46689        -9.40031        -9.14624
|107>    H       -2.94782        -8.21302        -6.73775
|108>    H       -3.69619        -8.90514        -8.16995
|109>    H       -2.79478        -7.38334        -8.27959
|110>    H        1.10852        -5.97995       -11.43111
|111>    H       -1.95491        -7.83431       -10.20496
|112>    H       -0.22314        -7.21867       -12.64002
|113>    H       -2.10885        -7.69587       -13.95266
|114>    H       -4.32876        -8.73992       -14.48238
|115>    H       -6.13576       -10.24713       -13.44402
|116>    H       -7.46108       -11.63782       -11.95886
|117>    H       -8.35580       -13.01173        -9.96566
|118>    H       -7.80125       -13.58144        -7.50428
|119>    H       -5.32576       -12.07395        -6.49659
|120>    H       -8.72620       -16.42213        -3.43946
|121>    H       -4.89110       -14.05038        -1.26484
|122>    H       -8.89099       -17.83296        -1.01575
|123> *
|124>
|125>                          ****END OF INPUT****

CARTESIAN COORDINATES (ANGSTROEM)
---------------------------------
  C      7.826050   -2.552560    0.923700
  C      7.040280   -3.261770    1.744590
  C      7.027490   -3.245300    3.180260
  C      6.122280   -4.076340    3.740090
  C      5.344520   -4.816330    2.803470
  S      5.816250   -4.404890    1.166940
  C      4.359710   -5.733910    3.074660
  C      3.895600   -6.158830    4.347040
  C      2.911010   -7.090720    4.289370
  C      2.534210   -7.460510    2.969470
  S      3.486350   -6.567920    1.800250
  C      1.579780   -8.376320    2.618720
  C      1.254780   -8.696280    1.289060
  O      1.892510   -8.073930    0.254920
  C      0.338900   -9.587870    0.754610
  C     -0.729580  -10.534050    1.082740
  O     -1.156570  -10.902960    2.148670
  N     -1.196530  -10.950100   -0.161350
  C     -0.557680  -10.381460   -1.247060
  O     -0.818850  -10.606260   -2.405160
  C      0.446460   -9.492870   -0.654610
  C      1.412340   -8.544130   -0.929710
  C      1.891860   -7.970220   -2.141030
  C      1.558510   -8.454940   -3.356340
  C      1.963760   -7.845390   -4.601750
  C      3.099390   -7.084110   -4.655160
  S      3.441200   -6.386950   -6.181490
  C      1.997070   -7.106110   -6.824580
  C      1.297090   -7.890360   -5.892700
  C      0.121840   -8.548000   -6.330180
  C     -0.599080   -9.462390   -5.383600
  C      0.071970  -10.839200   -5.364200
  C     -0.328360   -8.408050   -7.641840
  C     -1.552340   -9.162910   -8.086470
  C     -2.827180   -8.363050   -7.806640
  C      0.345980   -7.557580   -8.550120
  C      0.082750   -7.214140   -9.939590
  C      1.074920   -6.410820  -10.449750
  S      2.311420   -5.996510   -9.350050
  C      1.531010   -6.943980   -8.116820
  C     -1.054430   -7.576620  -10.732360
  C     -1.095400   -7.553580  -12.094800
  C     -2.184280   -7.945920  -12.900980
  C     -3.303150   -8.669840  -12.560880
  C     -4.333080   -9.057940  -13.454450
  C     -5.292190   -9.855950  -12.904620
  C     -5.074610  -10.147310  -11.540740
  S     -3.631640   -9.354880  -10.978930
  C     -5.826940  -10.948330  -10.694440
  C     -6.999850  -11.667490  -10.987930
  C     -7.475170  -12.395370   -9.932800
  C     -6.704560  -12.282010   -8.756750
  S     -5.351330  -11.212210   -9.028630
  C     -6.948100  -12.920260   -7.551430
  C     -6.160870  -12.759510   -6.420950
  C     -6.365110  -13.419580   -5.218820
  C     -5.604400  -13.272470   -4.009510
  C     -4.591180  -12.369220   -3.755290
  C     -3.933650  -12.269160   -2.519140
  N     -3.379560  -12.145640   -1.519040
  C     -4.108380  -11.413010   -4.667220
  N     -3.682140  -10.606400   -5.366630
  C     -6.118110  -14.239310   -3.037580
  C     -7.203760  -14.933360   -3.622810
  C     -7.409850  -14.435580   -5.000660
  O     -8.270980  -14.814600   -5.772610
  C     -7.902600  -15.913070   -2.963710
  C     -7.508510  -16.230820   -1.658470
  C     -6.420130  -15.537490   -1.083100
  C     -5.715110  -14.542840   -1.751820
  S     -6.093220  -16.087310    0.533410
  C     -7.404810  -17.228670    0.412450
  C     -8.057590  -17.199060   -0.773220
  Br    -7.794480  -18.348840    1.867230
  H      8.556690   -1.868280    1.317710
  H      7.752710   -2.640250   -0.144810
  H      7.701140   -2.609210    3.726730
  H      5.977970   -4.190920    4.799820
  H      4.303350   -5.765610    5.261090
  H      2.433980   -7.534140    5.145410
  H      1.029940   -8.898970    3.385950
  H     -1.990090  -11.572260   -0.302460
  H      2.507990   -7.091450   -2.016610
  H      0.955390   -9.346050   -3.385080
  H      3.796060   -6.917490   -3.857240
  H     -0.603680   -9.034170   -4.385110
  H     -1.642120   -9.590570   -5.654520
  H     -0.371960  -11.443500   -4.579450
  H      1.141090  -10.754070   -5.179510
  H     -0.063280  -11.344260   -6.318690
  H     -1.621130  -10.114440   -7.564870
  H     -1.466890   -9.400310   -9.146240
  H     -2.947820   -8.213020   -6.737750
  H     -3.696190   -8.905140   -8.169950
  H     -2.794780   -7.383340   -8.279590
  H      1.108520   -5.979950  -11.431110
  H     -1.954910   -7.834310  -10.204960
  H     -0.223140   -7.218670  -12.640020
  H     -2.108850   -7.695870  -13.952660
  H     -4.328760   -8.739920  -14.482380
  H     -6.135760  -10.247130  -13.444020
  H     -7.461080  -11.637820  -11.958860
  H     -8.355800  -13.011730   -9.965660
  H     -7.801250  -13.581440   -7.504280
  H     -5.325760  -12.073950   -6.496590
  H     -8.726200  -16.422130   -3.439460
  H     -4.891100  -14.050380   -1.264840
  H     -8.890990  -17.832960   -1.015750

 Total Charge           Charge          ....    0
 Multiplicity           Mult            ....    1
 Number of Electrons    NEL             ....  588
 Basis Dimension        Dim             .... 1252

ORBITAL ENERGIES
----------------

  NO   OCC          E(Eh)            E(eV)
   0   2.0000    -482.875335    -13139.7059
   1   2.0000     -88.966025     -2420.8886
   2   2.0000     -88.963380     -2420.8166
   3   2.0000     -88.960388     -2420.7352
   4   2.0000     -88.956354     -2420.6255
   5   2.0000     -88.946547     -2420.3586
   6   2.0000     -88.936182     -2420.0765
   7   2.0000     -88.935339     -2420.0536
   8   2.0000     -62.553062     -1702.1554
   9   2.0000     -56.387003     -1534.3684
  10   2.0000     -56.384308     -1534.2950
  11   2.0000     -56.384266     -1534.2939
  12   2.0000     -19.289482      -524.8935
  13   2.0000     -19.197598      -522.3932
  14   2.0000     -19.186136      -522.0813
  15   2.0000     -19.181048      -521.9429
  16   2.0000     -14.415969      -392.2785
  17   2.0000     -14.407025      -392.0351
  18   2.0000     -14.403504      -391.9393
  19   2.0000     -10.372431      -282.2482
  20   2.0000     -10.369821      -282.1772
  21   2.0000     -10.347835      -281.5789
  22   2.0000     -10.346900      -281.5535
  23   2.0000     -10.338984      -281.3381
  24   2.0000     -10.337600      -281.3004
  25   2.0000     -10.337287      -281.2919
  26   2.0000     -10.326044      -280.9859
  27   2.0000     -10.325409      -280.9687
  28   2.0000     -10.320206      -280.8271
  29   2.0000     -10.319999      -280.8214
  30   2.0000     -10.319683      -280.8129
  31   2.0000     -10.315241      -280.6920
  32   2.0000     -10.311278      -280.5841
  33   2.0000     -10.309120      -280.5254
  34   2.0000     -10.307868      -280.4914
  35   2.0000     -10.307747      -280.4880
  36   2.0000     -10.307266      -280.4750
  37   2.0000     -10.305318      -280.4220
  38   2.0000     -10.304725      -280.4058
  39   2.0000     -10.303807      -280.3809
  40   2.0000     -10.302058      -280.3333
  41   2.0000     -10.300438      -280.2892
  42   2.0000     -10.300301      -280.2854
  43   2.0000     -10.296927      -280.1936
  44   2.0000     -10.296122      -280.1717
  45   2.0000     -10.293653      -280.1045
  46   2.0000     -10.293431      -280.0985
  47   2.0000     -10.292556      -280.0747
  48   2.0000     -10.290992      -280.0321
  49   2.0000     -10.290830      -280.0277
  50   2.0000     -10.289509      -279.9918
  51   2.0000     -10.288003      -279.9508
  52   2.0000     -10.287441      -279.9355
  53   2.0000     -10.286744      -279.9165
  54   2.0000     -10.285974      -279.8956
  55   2.0000     -10.285676      -279.8875
  56   2.0000     -10.285177      -279.8739
  57   2.0000     -10.283565      -279.8300
  58   2.0000     -10.282485      -279.8007
  59   2.0000     -10.278654      -279.6964
  60   2.0000     -10.275865      -279.6205
  61   2.0000     -10.275845      -279.6200
  62   2.0000     -10.275734      -279.6169
  63   2.0000     -10.275124      -279.6003
  64   2.0000     -10.273193      -279.5478
  65   2.0000     -10.272602      -279.5317
  66   2.0000     -10.270989      -279.4878
  67   2.0000     -10.270863      -279.4844
  68   2.0000     -10.269513      -279.4477
  69   2.0000     -10.267889      -279.4035
  70   2.0000     -10.263777      -279.2916
  71   2.0000     -10.263491      -279.2838
  72   2.0000     -10.262924      -279.2684
  73   2.0000     -10.260871      -279.2125
  74   2.0000     -10.247718      -278.8546
  75   2.0000     -10.237056      -278.5645
  76   2.0000     -10.228048      -278.3193
  77   2.0000     -10.224366      -278.2192
  78   2.0000      -8.782490      -238.9837
  79   2.0000      -8.061474      -219.3639
  80   2.0000      -8.059284      -219.3043
  81   2.0000      -8.055894      -219.2120
  82   2.0000      -8.052532      -219.1205
  83   2.0000      -8.042823      -218.8564
  84   2.0000      -8.032040      -218.5629
  85   2.0000      -8.031935      -218.5601
  86   2.0000      -6.618755      -180.1055
  87   2.0000      -6.604219      -179.7099
  88   2.0000      -6.604075      -179.7060
  89   2.0000      -6.031156      -164.1161
  90   2.0000      -6.028975      -164.0567
  91   2.0000      -6.026859      -163.9992
  92   2.0000      -6.025491      -163.9620
  93   2.0000      -6.024708      -163.9406
  94   2.0000      -6.022789      -163.8884
  95   2.0000      -6.021874      -163.8635
  96   2.0000      -6.021394      -163.8505
  97   2.0000      -6.020545      -163.8274
  98   2.0000      -6.017683      -163.7495
  99   2.0000      -6.017239      -163.7374
 100   2.0000      -6.014485      -163.6624
 101   2.0000      -6.012266      -163.6021
 102   2.0000      -6.008091      -163.4885
 103   2.0000      -6.004571      -163.3927
 104   2.0000      -6.001883      -163.3195
 105   2.0000      -6.001833      -163.3182
 106   2.0000      -5.997942      -163.2123
 107   2.0000      -5.997582      -163.2025
 108   2.0000      -5.992689      -163.0694
 109   2.0000      -5.992575      -163.0663
 110   2.0000      -2.734612       -74.4126
 111   2.0000      -2.730584       -74.3030
 112   2.0000      -2.730406       -74.2981
 113   2.0000      -2.718895       -73.9849
 114   2.0000      -2.718871       -73.9842
 115   2.0000      -1.204639       -32.7799
 116   2.0000      -1.126620       -30.6569
 117   2.0000      -1.110817       -30.2269
 118   2.0000      -1.105892       -30.0928
 119   2.0000      -1.012835       -27.5607
 120   2.0000      -1.012403       -27.5489
 121   2.0000      -1.009264       -27.4635
 122   2.0000      -1.001824       -27.2610
 123   2.0000      -0.997878       -27.1536
 124   2.0000      -0.988813       -26.9070
 125   2.0000      -0.987662       -26.8757
 126   2.0000      -0.985006       -26.8034
 127   2.0000      -0.974478       -26.5169
 128   2.0000      -0.968867       -26.3642
 129   2.0000      -0.965511       -26.2729
 130   2.0000      -0.929660       -25.2973
 131   2.0000      -0.924079       -25.1455
 132   2.0000      -0.915146       -24.9024
 133   2.0000      -0.910568       -24.7778
 134   2.0000      -0.903693       -24.5908
 135   2.0000      -0.897506       -24.4224
 136   2.0000      -0.894662       -24.3450
 137   2.0000      -0.886496       -24.1228
 138   2.0000      -0.880644       -23.9636
 139   2.0000      -0.872010       -23.7286
 140   2.0000      -0.867599       -23.6086
 141   2.0000      -0.863744       -23.5037
 142   2.0000      -0.860945       -23.4275
 143   2.0000      -0.848982       -23.1020
 144   2.0000      -0.846689       -23.0396
 145   2.0000      -0.840796       -22.8792
 146   2.0000      -0.837271       -22.7833
 147   2.0000      -0.835707       -22.7408
 148   2.0000      -0.827767       -22.5247
 149   2.0000      -0.816403       -22.2154
 150   2.0000      -0.815151       -22.1814
 151   2.0000      -0.812298       -22.1038
 152   2.0000      -0.802284       -21.8312
 153   2.0000      -0.794323       -21.6146
 154   2.0000      -0.781013       -21.2524
 155   2.0000      -0.772602       -21.0236
 156   2.0000      -0.761022       -20.7085
 157   2.0000      -0.755047       -20.5459
 158   2.0000      -0.743152       -20.2222
 159   2.0000      -0.739909       -20.1340
 160   2.0000      -0.737126       -20.0582
 161   2.0000      -0.728520       -19.8240
 162   2.0000      -0.719357       -19.5747
 163   2.0000      -0.705517       -19.1981
 164   2.0000      -0.703746       -19.1499
 165   2.0000      -0.694964       -18.9109
 166   2.0000      -0.689892       -18.7729
 167   2.0000      -0.683272       -18.5928
 168   2.0000      -0.681156       -18.5352
 169   2.0000      -0.677093       -18.4246
 170   2.0000      -0.676120       -18.3982
 171   2.0000      -0.674923       -18.3656
 172   2.0000      -0.663154       -18.0453
 173   2.0000      -0.657176       -17.8827
 174   2.0000      -0.645592       -17.5674
 175   2.0000      -0.644298       -17.5322
 176   2.0000      -0.639337       -17.3972
 177   2.0000      -0.635729       -17.2991
 178   2.0000      -0.633232       -17.2311
 179   2.0000      -0.625487       -17.0204
 180   2.0000      -0.620003       -16.8711
 181   2.0000      -0.618679       -16.8351
 182   2.0000      -0.613596       -16.6968
 183   2.0000      -0.609663       -16.5898
 184   2.0000      -0.608884       -16.5686
 185   2.0000      -0.595256       -16.1977
 186   2.0000      -0.590668       -16.0729
 187   2.0000      -0.588479       -16.0133
 188   2.0000      -0.587366       -15.9830
 189   2.0000      -0.585123       -15.9220
 190   2.0000      -0.579639       -15.7728
 191   2.0000      -0.574640       -15.6368
 192   2.0000      -0.569102       -15.4861
 193   2.0000      -0.563432       -15.3318
 194   2.0000      -0.560893       -15.2627
 195   2.0000      -0.559320       -15.2199
 196   2.0000      -0.550373       -14.9764
 197   2.0000      -0.548177       -14.9167
 198   2.0000      -0.541059       -14.7230
 199   2.0000      -0.536460       -14.5978
 200   2.0000      -0.533533       -14.5182
 201   2.0000      -0.531355       -14.4589
 202   2.0000      -0.524828       -14.2813
 203   2.0000      -0.524308       -14.2671
 204   2.0000      -0.523722       -14.2512
 205   2.0000      -0.520487       -14.1632
 206   2.0000      -0.518427       -14.1071
 207   2.0000      -0.517075       -14.0703
 208   2.0000      -0.515985       -14.0407
 209   2.0000      -0.512938       -13.9578
 210   2.0000      -0.512562       -13.9475
 211   2.0000      -0.509478       -13.8636
 212   2.0000      -0.507776       -13.8173
 213   2.0000      -0.503048       -13.6886
 214   2.0000      -0.502241       -13.6667
 215   2.0000      -0.496664       -13.5149
 216   2.0000      -0.495975       -13.4962
 217   2.0000      -0.495398       -13.4805
 218   2.0000      -0.492512       -13.4019
 219   2.0000      -0.489915       -13.3313
 220   2.0000      -0.489252       -13.3132
 221   2.0000      -0.487362       -13.2618
 222   2.0000      -0.483174       -13.1478
 223   2.0000      -0.482269       -13.1232
 224   2.0000      -0.481915       -13.1136
 225   2.0000      -0.481443       -13.1007
 226   2.0000      -0.479717       -13.0538
 227   2.0000      -0.478332       -13.0161
 228   2.0000      -0.477785       -13.0012
 229   2.0000      -0.476902       -12.9772
 230   2.0000      -0.473879       -12.8949
 231   2.0000      -0.469519       -12.7763
 232   2.0000      -0.465840       -12.6761
 233   2.0000      -0.458950       -12.4887
 234   2.0000      -0.458440       -12.4748
 235   2.0000      -0.458029       -12.4636
 236   2.0000      -0.453969       -12.3531
 237   2.0000      -0.453419       -12.3382
 238   2.0000      -0.451663       -12.2904
 239   2.0000      -0.448665       -12.2088
 240   2.0000      -0.446082       -12.1385
 241   2.0000      -0.445370       -12.1191
 242   2.0000      -0.444366       -12.0918
 243   2.0000      -0.443211       -12.0604
 244   2.0000      -0.439594       -11.9620
 245   2.0000      -0.436570       -11.8797
 246   2.0000      -0.434756       -11.8303
 247   2.0000      -0.434477       -11.8227
 248   2.0000      -0.430892       -11.7252
 249   2.0000      -0.427493       -11.6327
 250   2.0000      -0.426935       -11.6175
 251   2.0000      -0.425859       -11.5882
 252   2.0000      -0.424602       -11.5540
 253   2.0000      -0.420721       -11.4484
 254   2.0000      -0.419418       -11.4129
 255   2.0000      -0.414601       -11.2819
 256   2.0000      -0.412994       -11.2382
 257   2.0000      -0.412014       -11.2115
 258   2.0000      -0.410708       -11.1759
 259   2.0000      -0.405474       -11.0335
 260   2.0000      -0.402635       -10.9562
 261   2.0000      -0.401644       -10.9293
 262   2.0000      -0.399600       -10.8737
 263   2.0000      -0.396488       -10.7890
 264   2.0000      -0.388316       -10.5666
 265   2.0000      -0.387597       -10.5471
 266   2.0000      -0.386048       -10.5049
 267   2.0000      -0.375943       -10.2299
 268   2.0000      -0.373318       -10.1585
 269   2.0000      -0.370425       -10.0798
 270   2.0000      -0.365251        -9.9390
 271   2.0000      -0.364969        -9.9313
 272   2.0000      -0.362808        -9.8725
 273   2.0000      -0.355235        -9.6664
 274   2.0000      -0.351232        -9.5575
 275   2.0000      -0.348310        -9.4780
 276   2.0000      -0.340733        -9.2718
 277   2.0000      -0.339238        -9.2311
 278   2.0000      -0.335025        -9.1165
 279   2.0000      -0.333247        -9.0681
 280   2.0000      -0.330391        -8.9904
 281   2.0000      -0.323343        -8.7986
 282   2.0000      -0.319357        -8.6901
 283   2.0000      -0.318461        -8.6658
 284   2.0000      -0.317719        -8.6456
 285   2.0000      -0.309022        -8.4089
 286   2.0000      -0.302123        -8.2212
 287   2.0000      -0.293117        -7.9761
 288   2.0000      -0.281716        -7.6659
 289   2.0000      -0.279528        -7.6063
 290   2.0000      -0.261097        -7.1048
 291   2.0000      -0.250464        -6.8155
 292   2.0000      -0.223455        -6.0805
 293   2.0000      -0.210204        -5.7200
 294   0.0000      -0.109552        -2.9811
 295   0.0000      -0.066336        -1.8051
 296   0.0000      -0.060060        -1.6343
 297   0.0000      -0.040658        -1.1064
 298   0.0000      -0.028187        -0.7670

MULLIKEN ATOMIC CHARGES
-----------------------
   0 C :   -0.031666
   1 C :   -0.063217
   2 C :    0.052048
   3 C :    0.031852
   4 C :   -0.070044
   5 S :    0.079423
   6 C :   -0.049025
   7 C :    0.034112
   8 C :    0.031286
   9 C :   -0.006547
  10 S :    0.099105
  11 C :   -0.051220
  12 C :    0.075769
  13 O :   -0.230613
  14 C :   -0.027782
  15 C :    0.156496
  16 O :   -0.156500
  17 N :   -0.148510
  18 C :    0.179270
  19 O :   -0.169907
  20 C :   -0.072998
  21 C :    0.123047
  22 C :   -0.012830
  23 C :   -0.025844
  24 C :    0.075253
  25 C :   -0.121274
  26 S :    0.126399
  27 C :   -0.150820
  28 C :    0.121820
  29 C :   -0.114772
  30 C :    0.029222
  31 C :    0.049567
  32 C :   -0.121063
  33 C :    0.011244
  34 C :    0.060963
  35 C :    0.123266
  36 C :    0.072655
  37 C :   -0.116027
  38 S :    0.144824
  39 C :   -0.155657
  40 C :   -0.015911
  41 C :   -0.000358
  42 C :    0.024912
  43 C :   -0.036218
  44 C :    0.056796
  45 C :    0.013314
  46 C :   -0.010475
  47 S :    0.079341
  48 C :   -0.053797
  49 C :    0.044144
  50 C :    0.019273
  51 C :    0.013399
  52 S :    0.106524
  53 C :   -0.029956
  54 C :   -0.032298
  55 C :   -0.097931
  56 C :    0.332782
  57 C :   -0.392916
  58 C :   -0.114304
  59 N :    0.106267
  60 C :   -0.156320
  61 N :    0.129146
  62 C :    0.015092
  63 C :   -0.008271
  64 C :    0.138182
  65 O :   -0.169932
  66 C :   -0.077901
  67 C :    0.116542
  68 C :   -0.094185
  69 C :   -0.025543
  70 S :    0.181189
  71 C :   -0.123149
  72 C :    0.037219
  73 Br:    0.014239
  74 H :    0.020557
  75 H :    0.022633
  76 H :   -0.010745
  77 H :   -0.010595
  78 H :   -0.014932
  79 H :   -0.009181
  80 H :    0.005440
  81 H :    0.130119
  82 H :   -0.015808
  83 H :    0.030670
  84 H :    0.025144
  85 H :    0.005087
  86 H :    0.007729
  87 H :    0.030926
  88 H :   -0.001646
  89 H :   -0.009654
  90 H :    0.008821
  91 H :   -0.007017
  92 H :    0.020475
  93 H :    0.007743
  94 H :    0.001535
  95 H :    0.022329
  96 H :    0.018403
  97 H :   -0.015204
  98 H :   -0.002310
  99 H :   -0.002755
 100 H :   -0.008116
 101 H :   -0.006119
 102 H :   -0.000874
 103 H :    0.016201
 104 H :    0.008712
 105 H :   -0.016160
 106 H :   -0.014591
 107 H :   -0.007020
Sum of atomic charges:   -0.0000000

LOEWDIN ATOMIC CHARGES
----------------------
   0 C :   -0.075707
   1 C :   -0.139352
   2 C :   -0.029936
   3 C :   -0.026401
   4 C :   -0.172473
   5 S :    0.351238
   6 C :   -0.187094
   7 C :   -0.026501
   8 C :   -0.034991
   9 C :   -0.131590
  10 S :    0.383680
  11 C :   -0.079826
  12 C :    0.057968
  13 O :    0.001098
  14 C :   -0.099436
  15 C :    0.080590
  16 O :   -0.172170
  17 N :    0.001633
  18 C :    0.089689
  19 O :   -0.167532
  20 C :   -0.103049
  21 C :    0.067206
  22 C :   -0.048019
  23 C :    0.016657
  24 C :   -0.060213
  25 C :   -0.162156
  26 S :    0.413941
  27 C :   -0.179781
  28 C :   -0.035313
  29 C :   -0.004371
  30 C :   -0.035937
  31 C :   -0.050053
  32 C :   -0.018702
  33 C :   -0.034873
  34 C :   -0.053574
  35 C :   -0.039759
  36 C :   -0.066718
  37 C :   -0.156891
  38 S :    0.433908
  39 C :   -0.181473
  40 C :    0.021377
  41 C :   -0.054519
  42 C :   -0.009503
  43 C :   -0.166177
  44 C :   -0.002069
  45 C :   -0.051795
  46 C :   -0.140689
  47 S :    0.437811
  48 C :   -0.200788
  49 C :   -0.005363
  50 C :   -0.048378
  51 C :   -0.101131
  52 S :    0.417765
  53 C :   -0.079441
  54 C :    0.050164
  55 C :   -0.116773
  56 C :    0.081171
  57 C :   -0.171644
  58 C :    0.025941
  59 N :   -0.073501
  60 C :   -0.000418
  61 N :   -0.065769
  62 C :   -0.019619
  63 C :   -0.047038
  64 C :    0.082901
  65 O :   -0.160304
  66 C :    0.016622
  67 C :   -0.035751
  68 C :   -0.146830
  69 C :   -0.014924
  70 S :    0.428708
  71 C :   -0.274703
  72 C :   -0.071163
  73 Br:    0.129363
  74 H :    0.028827
  75 H :    0.026467
  76 H :    0.033563
  77 H :    0.032599
  78 H :    0.030695
  79 H :    0.034702
  80 H :    0.048883
  81 H :    0.068167
  82 H :    0.032974
  83 H :    0.038548
  84 H :    0.023292
  85 H :    0.025787
  86 H :    0.025402
  87 H :    0.027004
  88 H :    0.016408
  89 H :    0.016964
  90 H :    0.032395
  91 H :    0.011279
  92 H :    0.030236
  93 H :    0.006457
  94 H :    0.014102
  95 H :    0.021872
  96 H :    0.019488
  97 H :    0.029114
  98 H :    0.039959
  99 H :    0.037626
 100 H :    0.033800
 101 H :    0.035334
 102 H :    0.038296
 103 H :    0.038095
 104 H :    0.030564
 105 H :    0.038581
 106 H :    0.037955
 107 H :    0.037313

  Mayer bond orders larger than 0.100000
B(  0-C ,  1-C ) :   1.8640 B(  0-C , 74-H ) :   0.9511 B(  0-C , 75-H ) :   0.9421
B(  1-C ,  2-C ) :   1.0788 B(  1-C ,  5-S ) :   1.0070 B(  2-C ,  3-C ) :   1.6650
B(  2-C , 76-H ) :   0.9926 B(  3-C ,  4-C ) :   1.1499 B(  3-C , 77-H ) :   0.9911
B(  4-C ,  5-S ) :   1.0472 B(  4-C ,  6-C ) :   1.5650 B(  6-C ,  7-C ) :   1.1662
B(  6-C , 10-S ) :   1.0163 B(  7-C ,  8-C ) :   1.6105 B(  7-C , 78-H ) :   0.9941
B(  8-C ,  9-C ) :   1.1266 B(  8-C , 79-H ) :   1.0016 B(  9-C , 10-S ) :   1.0533
B(  9-C , 11-C ) :   1.5531 B( 11-C , 12-C ) :   1.2048 B( 11-C , 80-H ) :   0.9651
B( 12-C , 13-O ) :   1.1199 B( 12-C , 14-C ) :   1.3864 B( 13-O , 21-C ) :   1.1203
B( 14-C , 15-C ) :   0.8823 B( 14-C , 20-C ) :   1.2774 B( 15-C , 16-O ) :   2.2512
B( 15-C , 17-N ) :   1.0894 B( 17-N , 18-C ) :   1.1392 B( 17-N , 81-H ) :   0.8684
B( 18-C , 19-O ) :   2.0977 B( 18-C , 20-C ) :   0.8966 B( 20-C , 21-C ) :   1.4380
B( 21-C , 22-C ) :   1.1357 B( 22-C , 23-C ) :   1.6952 B( 22-C , 82-H ) :   0.9632
B( 23-C , 24-C ) :   1.0507 B( 23-C , 83-H ) :   0.9530 B( 24-C , 25-C ) :   1.5942
B( 24-C , 28-C ) :   1.1319 B( 25-C , 26-S ) :   1.1219 B( 25-C , 84-H ) :   0.9573
B( 26-S , 27-C ) :   1.0747 B( 27-C , 28-C ) :   1.3735 B( 27-C , 39-C ) :   1.3863
B( 28-C , 29-C ) :   1.2598 B( 29-C , 30-C ) :   1.0646 B( 29-C , 32-C ) :   1.5050
B( 30-C , 31-C ) :   1.1034 B( 30-C , 85-H ) :   0.9132 B( 30-C , 86-H ) :   0.8946
B( 31-C , 87-H ) :   0.9585 B( 31-C , 88-H ) :   0.9618 B( 31-C , 89-H ) :   0.9540
B( 32-C , 33-C ) :   1.0629 B( 32-C , 35-C ) :   1.2696 B( 33-C , 34-C ) :   1.1087
B( 33-C , 90-H ) :   0.9017 B( 33-C , 91-H ) :   0.9231 B( 34-C , 92-H ) :   0.9504
B( 34-C , 93-H ) :   0.9607 B( 34-C , 94-H ) :   0.9516 B( 35-C , 36-C ) :   1.1204
B( 35-C , 39-C ) :   1.3774 B( 36-C , 37-C ) :   1.5484 B( 36-C , 40-C ) :   1.1075
B( 37-C , 38-S ) :   1.1550 B( 37-C , 95-H ) :   0.9580 B( 38-S , 39-C ) :   1.0642
B( 40-C , 41-C ) :   1.6373 B( 40-C , 96-H ) :   0.9435 B( 41-C , 42-C ) :   1.1957
B( 41-C , 97-H ) :   0.9629 B( 42-C , 43-C ) :   1.5587 B( 42-C , 98-H ) :   0.9614
B( 43-C , 44-C ) :   1.1644 B( 43-C , 47-S ) :   1.0274 B( 44-C , 45-C ) :   1.5655
B( 44-C , 99-H ) :   0.9976 B( 45-C , 46-C ) :   1.2075 B( 45-C ,100-H ) :   0.9941
B( 46-C , 47-S ) :   1.0984 B( 46-C , 48-C ) :   1.4336 B( 48-C , 49-C ) :   1.2404
B( 48-C , 52-S ) :   1.0427 B( 49-C , 50-C ) :   1.5123 B( 49-C ,101-H ) :   0.9947
B( 50-C , 51-C ) :   1.2044 B( 50-C ,102-H ) :   1.0021 B( 51-C , 52-S ) :   1.1008
B( 51-C , 53-C ) :   1.3731 B( 53-C , 54-C ) :   1.3029 B( 53-C ,103-H ) :   0.9758
B( 54-C , 55-C ) :   1.4281 B( 54-C ,104-H ) :   0.9472 B( 55-C , 56-C ) :   1.1450
B( 55-C , 64-C ) :   0.9726 B( 56-C , 57-C ) :   1.5335 B( 56-C , 62-C ) :   0.9883
B( 57-C , 58-C ) :   1.1771 B( 57-C , 60-C ) :   1.1671 B( 58-C , 59-N ) :   2.8558
B( 59-N , 81-H ) :   0.1224 B( 60-C , 61-N ) :   2.8863 B( 62-C , 63-C ) :   1.2810
B( 62-C , 69-C ) :   1.4151 B( 63-C , 64-C ) :   0.9336 B( 63-C , 66-C ) :   1.4370
B( 64-C , 65-O ) :   2.1761 B( 66-C , 67-C ) :   1.2308 B( 66-C ,105-H ) :   1.0174
B( 67-C , 68-C ) :   1.3210 B( 67-C , 72-C ) :   1.1612 B( 68-C , 69-C ) :   1.3185
B( 68-C , 70-S ) :   1.0830 B( 69-C ,106-H ) :   0.9802 B( 70-S , 71-C ) :   1.0876
B( 71-C , 72-C ) :   1.6184 B( 71-C , 73-Br) :   1.0126 B( 72-C ,107-H ) :   1.0009

-----------------------------------------------------------------------------
         ABSORPTION SPECTRUM VIA TRANSITION ELECTRIC DIPOLE MOMENTS
-----------------------------------------------------------------------------
State   Energy  Wavelength   fosc         T2         TX        TY        TZ
        (cm-1)    (nm)                  (au**2)     (au)      (au)      (au)
-----------------------------------------------------------------------------
   0   10672.0    937.0   0.840606121  25.93115  -2.57070  -2.95033   3.25856
   1   13581.9    736.3   0.003978277   0.09643  -0.03539  -0.11322   0.28698
   2   17339.4    576.7   1.225497483  23.26771   3.26367   2.82905   2.14772
   3   18741.8    533.6   0.223204344   3.92073   0.42648  -0.52050   1.86224
   4   20029.6    499.3   0.101985800   1.67627   0.52278  -0.09130   1.18094
   5   21020.4    475.7   0.301772544   4.72623  -1.59362  -0.62738  -1.33903
   6   23706.8    421.8   0.070773736   0.98282   0.21640   0.48363  -0.83791
   7   23783.7    420.5   0.059948198   0.82980  -0.01133   0.36360  -0.83514
   8   24048.3    415.8   0.177845335   2.43464  -0.93646  -0.87165   0.89326
   9   24915.9    401.3   0.252621114   3.33786   1.39286   1.17828   0.09725
  10   26285.1    380.4   0.662029279   8.29169   1.17025   1.39826  -2.22869
  11   26476.1    377.7   0.309820151   3.85240   1.26904   0.15143   1.48963
  12   26527.1    377.0   0.023122036   0.28695   0.45528   0.14618   0.24147
  13   26810.5    373.0   0.082793393   1.01664   0.52869  -0.02443   0.85821
  14   26943.9    371.1   0.084918974   1.03758  -0.57206  -0.01730  -0.84263
  15   28397.2    352.1   0.004063640   0.04711   0.14964   0.15697  -0.00896
  16   28545.8    350.3   0.003005655   0.03466  -0.05902   0.02490  -0.17482
  17   29551.3    338.4   0.029489205   0.32852  -0.14888   0.07947  -0.54776
  18   29804.2    335.5   0.244713037   2.70305   0.65328   0.66956  -1.35202
  19   30026.5    333.0   0.004769844   0.05230  -0.08567   0.13140  -0.16641
  20   30800.9    324.7   0.008662348   0.09259   0.16141   0.22430  -0.12737
  21   31098.7    321.6   0.020254454   0.21441   0.02537   0.20356  -0.41513
  22   31147.8    321.1   0.136445147   1.44214  -0.14517  -0.64183   1.00455
  23   31300.0    319.5   0.011925387   0.12543  -0.05711   0.15953  -0.31100
  24   31556.6    316.9   0.082950895   0.86538   0.54811   0.59424  -0.46025
  25   31910.1    313.4   0.207832211   2.14418  -0.60895  -1.06381   0.80105
  26   32675.1    306.0   0.227512891   2.29227   0.61837   1.00271  -0.95103
  27   32699.4    305.8   0.041512226   0.41794   0.19505   0.39885   0.46991
  28   32778.6    305.1   0.243745679   2.44806   0.59734   0.54439  -1.33973
  29   33429.6    299.1   0.040378304   0.39764  -0.40102  -0.15825  -0.46020
  30   33794.3    295.9   0.019452309   0.18950  -0.27729  -0.18933  -0.27705
  31   34146.4    292.9   0.000451653   0.00435   0.04441   0.04857  -0.00479
  32   34379.7    290.9   0.049914709   0.47797  -0.42193  -0.35663  -0.41565
  33   34557.9    289.4   0.078539132   0.74820  -0.16763  -0.10445  -0.84213
  34   34646.4    288.6   0.133555142   1.26905  -0.05602  -0.21233   1.10491
  35   34872.0    286.8   0.058462756   0.55192  -0.57217  -0.45869  -0.11891
  36   35048.8    285.3   0.022537732   0.21170  -0.23999   0.02047  -0.39202
  37   35670.2    280.3   0.100918863   0.93141  -0.68743  -0.67139   0.08994
  38   35927.1    278.3   0.003940548   0.03611  -0.01406  -0.06307   0.17870
  39   36073.2    277.2   0.009595450   0.08757  -0.22792  -0.07071  -0.17500
  40   36171.8    276.5   0.000331983   0.00302  -0.05452  -0.00694  -0.00097
  41   36218.1    276.1   0.007112022   0.06465   0.10784   0.23025   0.00200
  42   36538.3    273.7   0.089031362   0.80218   0.65067   0.31238   0.53030
  43   36671.2    272.7   0.003860251   0.03465  -0.17517  -0.01225  -0.06180
  44   36855.1    271.3   0.006244448   0.05578   0.16208   0.10402   0.13670
  45   37517.5    266.5   0.013245278   0.11623   0.17331   0.22116  -0.19308
  46   37866.1    264.1   0.113409059   0.98599  -0.62718  -0.73181   0.23893
  47   37988.1    263.2   0.017064982   0.14789  -0.28484  -0.24656   0.07723
  48   38103.2    262.4   0.146664606   1.26718  -0.37427  -0.00601  -1.06164
  49   38386.8    260.5   0.127247235   1.09129  -0.40628  -0.14092  -0.95203
  50   38620.1    258.9   0.052288548   0.44573  -0.51949  -0.28625  -0.30646
  51   38648.1    258.7   0.104409914   0.88938  -0.12550  -0.34847   0.86730
  52   38780.7    257.9   0.017013294   0.14443   0.23657   0.29397  -0.04517
  53   38891.6    257.1   0.072159950   0.61082   0.46217   0.49955  -0.38429
  54   38931.8    256.9   0.118494770   1.00201   0.74856   0.63079  -0.20918
  55   39134.0    255.5   0.010226712   0.08603  -0.20933   0.03930   0.20167
  56   39303.5    254.4   0.004607547   0.03859   0.06396   0.14057  -0.12143
  57   39864.9    250.8   0.019186403   0.15844   0.16160  -0.00895   0.36366
  58   40169.7    248.9   0.001874042   0.01536   0.07978   0.01963   0.09278

FINAL SINGLE POINT ENERGY     -8090.812071097241

DIPOLE MOMENT
-------------
                                X             Y             Z
Electronic contribution:    -76.95910    -108.36008      88.74632
Nuclear contribution   :     77.16622     109.71240     -91.93686
                        -----------------------------------------
Total Dipole Moment    :      0.20712       1.35232      -3.19054
                        -----------------------------------------
Magnitude (a.u.)       :      3.47149
Magnitude (Debye)      :      8.82381

Rotational constants in cm-1:     0.000563     0.000403     0.000238
Rotational constants in MHz :    16.888779    12.077893     7.132098

                             ****ORCA TERMINATED NORMALLY****
TOTAL RUN TIME: 0 days 0 hours 13 minutes 15 seconds 920 msec
