                         Program Version 4.2.0 -  RELEASE  -
|  1> # ORCA input file
|  2> # SCF done       -183.917691493981          0.000824327046
|  3> ! CAM-B3LYP def2-SVP def2/J RIJCOSX Grid4 TightSCF
|  4> %maxcore 5000
|  5> %tddft
|  6>     Mode sTDDFT
|  7>     Ethresh 5.0
|  8>     maxcore 5000
|  9> end
| 10>
| 11> %pal
| 12>   nprocs 6
| 13>   end
| 14> * xyz 0 1
| 15>    C        7.32463         6.70226        -1.00105
| 16>    S        7.47452         7.31365         0.59152
| 17>    C        5.81419         7.85386         0.59012
| 18>    C        5.21128         7.57097        -0.61765
| 19>    C        6.08138         6.90557        -1.51842
| 20>    C        5.69716         6.49893        -2.91418
| 21>    C        6.44447         7.36005        -3.89507
| 22>    C        7.29601         6.89699        -4.78932
| 23>    C        4.17887         6.61824        -3.10894
| 24>    C        3.64461         7.91929        -2.52223
| 25>    C        3.81118         7.92779        -1.00383
| 26>    C        5.32955         8.49496         1.77366
| 27>    C        4.03782         8.69176         2.09155
| 28>    N        3.63678         9.34657         3.22959
| 29>    C        2.35290         9.57433         3.57667
| 30>    S        1.05451         8.98943         2.58500
| 31>    C       -0.09156         9.69234         3.68854
| 32>    N       -1.43957         9.53705         3.39669
| 33>    O       -2.25323        10.02689         4.16508
| 34>    O       -1.71738         8.91329         2.37965
| 35>    C        0.50010        10.33357         4.74432
| 36>    C        1.90637        10.28512         4.70936
| 37>    C        2.78953        10.87259         5.66894
| 38>    C        2.39356        11.64230         6.71680
| 39>    C        3.22209        12.24739         7.68675
| 40>    C        4.58229        12.18892         7.84890
| 41>    C        5.29770        12.85689         8.87922
| 42>    C        6.64154        12.65444         8.86984
| 43>    C        7.08778        11.80663         7.83085
| 44>    S        5.72193        11.28829         6.85880
| 45>    C        8.37055        11.39132         7.55870
| 46>    C        9.56203        11.72398         8.24680
| 47>    C       10.67338        11.13324         7.73980
| 48>    C       10.44778        10.28639         6.61529
| 49>    S        8.72815        10.30160         6.23433
| 50>    C       11.43073         9.58813         5.97722
| 51>    C       11.37319         8.69647         4.86107
| 52>    C       12.57774         8.09428         4.43957
| 53>    C       12.58233         7.23237         3.37372
| 54>    C       11.37681         6.91058         2.71993
| 55>    C       10.18298         7.49366         3.12117
| 56>    C       10.19060         8.38364         4.17208
| 57>    C       11.64634         5.91800         1.70737
| 58>    C       13.01779         5.61349         1.73658
| 59>    C       13.73764         6.48366         2.74659
| 60>    C       14.52308         5.65379         3.77184
| 61>    C       13.64690         4.62261         4.47385
| 62>    C       14.66545         7.42661         1.94508
| 63>    C       15.34653         8.52788         2.74678
| 64>    C       13.54462         4.66541         0.89681
| 65>    C       12.70377         3.98831        -0.00065
| 66>    C       11.34244         4.32393        -0.03475
| 67>    C       10.80568         5.27301         0.81039
| 68>    C       13.19681         2.96451        -0.89084
| 69>    C       14.40668         2.37897        -0.81031
| 70>    C       14.89212         1.37042        -1.69144
| 71>    S       13.92722         0.77010        -3.00797
| 72>    C       15.17609        -0.34451        -3.48708
| 73>    C       16.26792        -0.25384        -2.64929
| 74>    C       16.11573         0.72752        -1.64564
| 75>    C       17.17295         1.02590        -0.61407
| 76>    C       17.46942         2.49651        -0.52031
| 77>    C       17.64323         3.15309         0.61184
| 78>    C       18.48170         0.29433        -0.95193
| 79>    C       18.20481        -1.14025        -1.37817
| 80>    C       17.47286        -1.13856        -2.71665
| 81>    C       14.90715        -1.17732        -4.62847
| 82>    C       15.78844        -1.84580        -5.37013
| 83>    H        8.16482         6.23096        -1.47134
| 84>    H        5.99828         5.45799        -3.07709
| 85>    H        6.25450         8.42219        -3.82365
| 86>    H        7.51119         5.84432        -4.87768
| 87>    H        7.81561         7.54689        -5.47281
| 88>    H        3.68764         5.77695        -2.61442
| 89>    H        3.95213         6.56172        -4.17524
| 90>    H        2.58748         8.03149        -2.76892
| 91>    H        4.17830         8.76735        -2.95381
| 92>    H        3.11900         7.20108        -0.56500
| 93>    H        3.55654         8.91415        -0.60841
| 94>    H        6.09347         8.82321         2.46801
| 95>    H        3.22930         8.33368         1.47737
| 96>    H        4.35921         9.69884         3.84670
| 97>    H       -0.08293        10.81168         5.50888
| 98>    H        3.84382        10.68859         5.52972
| 99>    H        1.33761        11.83742         6.83974
|100>    H        2.71006        12.85271         8.42456
|101>    H        4.78337        13.46836         9.59965
|102>    H        7.32362        13.08421         9.58144
|103>    H        9.56012        12.38669         9.09365
|104>    H       11.66482        11.26889         8.13600
|105>    H       12.42196         9.73085         6.39419
|106>    H       13.48582         8.31318         4.98245
|107>    H        9.25989         7.24912         2.62000
|108>    H        9.26171         8.83710         4.47578
|109>    H       14.95522         6.32088         4.51909
|110>    H       15.34363         5.14609         3.25989
|111>    H       12.82798         5.11061         4.99785
|112>    H       14.23310         4.06025         5.19735
|113>    H       13.22401         3.92475         3.75466
|114>    H       14.06900         7.88850         1.15381
|115>    H       15.42818         6.80998         1.46365
|116>    H       14.61301         9.21607         3.15774
|117>    H       16.00940         9.09190         2.09370
|118>    H       15.94265         8.11833         3.55814
|119>    H       14.60094         4.44446         0.91805
|120>    H       10.70095         3.80844        -0.73584
|121>    H        9.75278         5.51142         0.77914
|122>    H       12.51477         2.64046        -1.66819
|123>    H       15.09221         2.65761        -0.02482
|124>    H       16.81732         0.66880         0.36145
|125>    H       17.57933         3.00334        -1.47031
|126>    H       17.53956         2.66986         1.57068
|127>    H       17.89305         4.20065         0.63140
|128>    H       19.13609         0.32068        -0.07896
|129>    H       18.98900         0.81859        -1.76545
|130>    H       17.59161        -1.63590        -0.62242
|131>    H       19.14085        -1.69381        -1.47115
|132>    H       17.16641        -2.15221        -2.98394
|133>    H       18.15119        -0.77671        -3.49607
|134>    H       13.85952        -1.21711        -4.90212
|135>    H       16.84770        -1.81562        -5.19570
|136>    H       15.46122        -2.43771        -6.20731
|137> *
|138>
|139>                          ****END OF INPUT****

CARTESIAN COORDINATES (ANGSTROEM)
---------------------------------
  C      7.324630    6.702260   -1.001050
  S      7.474520    7.313650    0.591520
  C      5.814190    7.853860    0.590120
  C      5.211280    7.570970   -0.617650
  C      6.081380    6.905570   -1.518420
  C      5.697160    6.498930   -2.914180
  C      6.444470    7.360050   -3.895070
  C      7.296010    6.896990   -4.789320
  C      4.178870    6.618240   -3.108940
  C      3.644610    7.919290   -2.522230
  C      3.811180    7.927790   -1.003830
  C      5.329550    8.494960    1.773660
  C      4.037820    8.691760    2.091550
  N      3.636780    9.346570    3.229590
  C      2.352900    9.574330    3.576670
  S      1.054510    8.989430    2.585000
  C     -0.091560    9.692340    3.688540
  N     -1.439570    9.537050    3.396690
  O     -2.253230   10.026890    4.165080
  O     -1.717380    8.913290    2.379650
  C      0.500100   10.333570    4.744320
  C      1.906370   10.285120    4.709360
  C      2.789530   10.872590    5.668940
  C      2.393560   11.642300    6.716800
  C      3.222090   12.247390    7.686750
  C      4.582290   12.188920    7.848900
  C      5.297700   12.856890    8.879220
  C      6.641540   12.654440    8.869840
  C      7.087780   11.806630    7.830850
  S      5.721930   11.288290    6.858800
  C      8.370550   11.391320    7.558700
  C      9.562030   11.723980    8.246800
  C     10.673380   11.133240    7.739800
  C     10.447780   10.286390    6.615290
  S      8.728150   10.301600    6.234330
  C     11.430730    9.588130    5.977220
  C     11.373190    8.696470    4.861070
  C     12.577740    8.094280    4.439570
  C     12.582330    7.232370    3.373720
  C     11.376810    6.910580    2.719930
  C     10.182980    7.493660    3.121170
  C     10.190600    8.383640    4.172080
  C     11.646340    5.918000    1.707370
  C     13.017790    5.613490    1.736580
  C     13.737640    6.483660    2.746590
  C     14.523080    5.653790    3.771840
  C     13.646900    4.622610    4.473850
  C     14.665450    7.426610    1.945080
  C     15.346530    8.527880    2.746780
  C     13.544620    4.665410    0.896810
  C     12.703770    3.988310   -0.000650
  C     11.342440    4.323930   -0.034750
  C     10.805680    5.273010    0.810390
  C     13.196810    2.964510   -0.890840
  C     14.406680    2.378970   -0.810310
  C     14.892120    1.370420   -1.691440
  S     13.927220    0.770100   -3.007970
  C     15.176090   -0.344510   -3.487080
  C     16.267920   -0.253840   -2.649290
  C     16.115730    0.727520   -1.645640
  C     17.172950    1.025900   -0.614070
  C     17.469420    2.496510   -0.520310
  C     17.643230    3.153090    0.611840
  C     18.481700    0.294330   -0.951930
  C     18.204810   -1.140250   -1.378170
  C     17.472860   -1.138560   -2.716650
  C     14.907150   -1.177320   -4.628470
  C     15.788440   -1.845800   -5.370130
  H      8.164820    6.230960   -1.471340
  H      5.998280    5.457990   -3.077090
  H      6.254500    8.422190   -3.823650
  H      7.511190    5.844320   -4.877680
  H      7.815610    7.546890   -5.472810
  H      3.687640    5.776950   -2.614420
  H      3.952130    6.561720   -4.175240
  H      2.587480    8.031490   -2.768920
  H      4.178300    8.767350   -2.953810
  H      3.119000    7.201080   -0.565000
  H      3.556540    8.914150   -0.608410
  H      6.093470    8.823210    2.468010
  H      3.229300    8.333680    1.477370
  H      4.359210    9.698840    3.846700
  H     -0.082930   10.811680    5.508880
  H      3.843820   10.688590    5.529720
  H      1.337610   11.837420    6.839740
  H      2.710060   12.852710    8.424560
  H      4.783370   13.468360    9.599650
  H      7.323620   13.084210    9.581440
  H      9.560120   12.386690    9.093650
  H     11.664820   11.268890    8.136000
  H     12.421960    9.730850    6.394190
  H     13.485820    8.313180    4.982450
  H      9.259890    7.249120    2.620000
  H      9.261710    8.837100    4.475780
  H     14.955220    6.320880    4.519090
  H     15.343630    5.146090    3.259890
  H     12.827980    5.110610    4.997850
  H     14.233100    4.060250    5.197350
  H     13.224010    3.924750    3.754660
  H     14.069000    7.888500    1.153810
  H     15.428180    6.809980    1.463650
  H     14.613010    9.216070    3.157740
  H     16.009400    9.091900    2.093700
  H     15.942650    8.118330    3.558140
  H     14.600940    4.444460    0.918050
  H     10.700950    3.808440   -0.735840
  H      9.752780    5.511420    0.779140
  H     12.514770    2.640460   -1.668190
  H     15.092210    2.657610   -0.024820
  H     16.817320    0.668800    0.361450
  H     17.579330    3.003340   -1.470310
  H     17.539560    2.669860    1.570680
  H     17.893050    4.200650    0.631400
  H     19.136090    0.320680   -0.078960
  H     18.989000    0.818590   -1.765450
  H     17.591610   -1.635900   -0.622420
  H     19.140850   -1.693810   -1.471150
  H     17.166410   -2.152210   -2.983940
  H     18.151190   -0.776710   -3.496070
  H     13.859520   -1.217110   -4.902120
  H     16.847700   -1.815620   -5.195700
  H     15.461220   -2.437710   -6.207310

 Total Charge           Charge          ....    0
 Multiplicity           Mult            ....    1
 Number of Electrons    NEL             ....  518
 Basis Dimension        Dim             .... 1242

ORBITAL ENERGIES
----------------

  NO   OCC          E(Eh)            E(eV)
   0   2.0000     -88.972752     -2421.0717
   1   2.0000     -88.947456     -2420.3833
   2   2.0000     -88.946939     -2420.3693
   3   2.0000     -88.944697     -2420.3083
   4   2.0000     -88.937968     -2420.1252
   5   2.0000     -19.220534      -523.0173
   6   2.0000     -19.219825      -522.9980
   7   2.0000     -14.632291      -398.1649
   8   2.0000     -14.475970      -393.9112
   9   2.0000     -10.360465      -281.9226
  10   2.0000     -10.326647      -281.0024
  11   2.0000     -10.323905      -280.9277
  12   2.0000     -10.309121      -280.5254
  13   2.0000     -10.307077      -280.4698
  14   2.0000     -10.304214      -280.3919
  15   2.0000     -10.304117      -280.3893
  16   2.0000     -10.297103      -280.1984
  17   2.0000     -10.293023      -280.0874
  18   2.0000     -10.286722      -279.9159
  19   2.0000     -10.285818      -279.8914
  20   2.0000     -10.284771      -279.8628
  21   2.0000     -10.284409      -279.8530
  22   2.0000     -10.283858      -279.8380
  23   2.0000     -10.283471      -279.8275
  24   2.0000     -10.283395      -279.8254
  25   2.0000     -10.281516      -279.7743
  26   2.0000     -10.281265      -279.7674
  27   2.0000     -10.280094      -279.7356
  28   2.0000     -10.278100      -279.6813
  29   2.0000     -10.275498      -279.6105
  30   2.0000     -10.275185      -279.6020
  31   2.0000     -10.275095      -279.5996
  32   2.0000     -10.274180      -279.5747
  33   2.0000     -10.274106      -279.5726
  34   2.0000     -10.273483      -279.5557
  35   2.0000     -10.271852      -279.5113
  36   2.0000     -10.270299      -279.4690
  37   2.0000     -10.269642      -279.4512
  38   2.0000     -10.268667      -279.4246
  39   2.0000     -10.268459      -279.4190
  40   2.0000     -10.266432      -279.3638
  41   2.0000     -10.266146      -279.3560
  42   2.0000     -10.265868      -279.3485
  43   2.0000     -10.265816      -279.3471
  44   2.0000     -10.265551      -279.3398
  45   2.0000     -10.265388      -279.3354
  46   2.0000     -10.264946      -279.3234
  47   2.0000     -10.264150      -279.3017
  48   2.0000     -10.263822      -279.2928
  49   2.0000     -10.263710      -279.2898
  50   2.0000     -10.263301      -279.2786
  51   2.0000     -10.263196      -279.2758
  52   2.0000     -10.263137      -279.2742
  53   2.0000     -10.262135      -279.2469
  54   2.0000     -10.261801      -279.2378
  55   2.0000     -10.261773      -279.2370
  56   2.0000     -10.261396      -279.2268
  57   2.0000     -10.260938      -279.2143
  58   2.0000     -10.260261      -279.1959
  59   2.0000     -10.260150      -279.1929
  60   2.0000     -10.259936      -279.1871
  61   2.0000     -10.259584      -279.1775
  62   2.0000     -10.259491      -279.1749
  63   2.0000     -10.258899      -279.1588
  64   2.0000     -10.257899      -279.1316
  65   2.0000     -10.252539      -278.9858
  66   2.0000     -10.249284      -278.8972
  67   2.0000     -10.243036      -278.7272
  68   2.0000      -8.068099      -219.5441
  69   2.0000      -8.042725      -218.8537
  70   2.0000      -8.042382      -218.8443
  71   2.0000      -8.040341      -218.7888
  72   2.0000      -8.033872      -218.6128
  73   2.0000      -6.037858      -164.2985
  74   2.0000      -6.033482      -164.1794
  75   2.0000      -6.029368      -164.0675
  76   2.0000      -6.012127      -163.5983
  77   2.0000      -6.011947      -163.5934
  78   2.0000      -6.010148      -163.5444
  79   2.0000      -6.008201      -163.4915
  80   2.0000      -6.007897      -163.4832
  81   2.0000      -6.006146      -163.4355
  82   2.0000      -6.005036      -163.4053
  83   2.0000      -6.003402      -163.3609
  84   2.0000      -6.002950      -163.3486
  85   2.0000      -6.001191      -163.3007
  86   2.0000      -5.999162      -163.2455
  87   2.0000      -5.996027      -163.1602
  88   2.0000      -1.299018       -35.3481
  89   2.0000      -1.117608       -30.4117
  90   2.0000      -1.082670       -29.4609
  91   2.0000      -0.992629       -27.0108
  92   2.0000      -0.991275       -26.9740
  93   2.0000      -0.981473       -26.7072
  94   2.0000      -0.980027       -26.6679
  95   2.0000      -0.978501       -26.6264
  96   2.0000      -0.970025       -26.3957
  97   2.0000      -0.939564       -25.5668
  98   2.0000      -0.918865       -25.0036
  99   2.0000      -0.918277       -24.9876
 100   2.0000      -0.915539       -24.9131
 101   2.0000      -0.912463       -24.8294
 102   2.0000      -0.895034       -24.3551
 103   2.0000      -0.894568       -24.3424
 104   2.0000      -0.885136       -24.0858
 105   2.0000      -0.877412       -23.8756
 106   2.0000      -0.870998       -23.7011
 107   2.0000      -0.864741       -23.5308
 108   2.0000      -0.861371       -23.4391
 109   2.0000      -0.856644       -23.3105
 110   2.0000      -0.847958       -23.0741
 111   2.0000      -0.839517       -22.8444
 112   2.0000      -0.832983       -22.6666
 113   2.0000      -0.830435       -22.5973
 114   2.0000      -0.825038       -22.4504
 115   2.0000      -0.822692       -22.3866
 116   2.0000      -0.818843       -22.2819
 117   2.0000      -0.817294       -22.2397
 118   2.0000      -0.815983       -22.2040
 119   2.0000      -0.812763       -22.1164
 120   2.0000      -0.811508       -22.0822
 121   2.0000      -0.800752       -21.7896
 122   2.0000      -0.790022       -21.4976
 123   2.0000      -0.778232       -21.1768
 124   2.0000      -0.761041       -20.7090
 125   2.0000      -0.759446       -20.6656
 126   2.0000      -0.748873       -20.3779
 127   2.0000      -0.732437       -19.9306
 128   2.0000      -0.718919       -19.5628
 129   2.0000      -0.717881       -19.5345
 130   2.0000      -0.713469       -19.4145
 131   2.0000      -0.712713       -19.3939
 132   2.0000      -0.702129       -19.1059
 133   2.0000      -0.697084       -18.9686
 134   2.0000      -0.687754       -18.7147
 135   2.0000      -0.686236       -18.6734
 136   2.0000      -0.678717       -18.4688
 137   2.0000      -0.671832       -18.2815
 138   2.0000      -0.669749       -18.2248
 139   2.0000      -0.663805       -18.0631
 140   2.0000      -0.660137       -17.9632
 141   2.0000      -0.650164       -17.6919
 142   2.0000      -0.645501       -17.5650
 143   2.0000      -0.644419       -17.5355
 144   2.0000      -0.638165       -17.3654
 145   2.0000      -0.635879       -17.3031
 146   2.0000      -0.631248       -17.1771
 147   2.0000      -0.625127       -17.0106
 148   2.0000      -0.621787       -16.9197
 149   2.0000      -0.619442       -16.8559
 150   2.0000      -0.613780       -16.7018
 151   2.0000      -0.613342       -16.6899
 152   2.0000      -0.611307       -16.6345
 153   2.0000      -0.600248       -16.3336
 154   2.0000      -0.595865       -16.2143
 155   2.0000      -0.593035       -16.1373
 156   2.0000      -0.586839       -15.9687
 157   2.0000      -0.584832       -15.9141
 158   2.0000      -0.582245       -15.8437
 159   2.0000      -0.581234       -15.8162
 160   2.0000      -0.571854       -15.5609
 161   2.0000      -0.568462       -15.4686
 162   2.0000      -0.562334       -15.3019
 163   2.0000      -0.558559       -15.1991
 164   2.0000      -0.555551       -15.1173
 165   2.0000      -0.544676       -14.8214
 166   2.0000      -0.542875       -14.7724
 167   2.0000      -0.538753       -14.6602
 168   2.0000      -0.535126       -14.5615
 169   2.0000      -0.534778       -14.5520
 170   2.0000      -0.531415       -14.4605
 171   2.0000      -0.528852       -14.3908
 172   2.0000      -0.527158       -14.3447
 173   2.0000      -0.525852       -14.3092
 174   2.0000      -0.525254       -14.2929
 175   2.0000      -0.523622       -14.2485
 176   2.0000      -0.517205       -14.0739
 177   2.0000      -0.514928       -14.0119
 178   2.0000      -0.513431       -13.9712
 179   2.0000      -0.512476       -13.9452
 180   2.0000      -0.511044       -13.9062
 181   2.0000      -0.508759       -13.8440
 182   2.0000      -0.501206       -13.6385
 183   2.0000      -0.500111       -13.6087
 184   2.0000      -0.496644       -13.5144
 185   2.0000      -0.496006       -13.4970
 186   2.0000      -0.495188       -13.4747
 187   2.0000      -0.494340       -13.4517
 188   2.0000      -0.490657       -13.3514
 189   2.0000      -0.489273       -13.3138
 190   2.0000      -0.486137       -13.2285
 191   2.0000      -0.485780       -13.2187
 192   2.0000      -0.482452       -13.1282
 193   2.0000      -0.477343       -12.9892
 194   2.0000      -0.475309       -12.9338
 195   2.0000      -0.473131       -12.8745
 196   2.0000      -0.471106       -12.8195
 197   2.0000      -0.469088       -12.7645
 198   2.0000      -0.466282       -12.6882
 199   2.0000      -0.464892       -12.6504
 200   2.0000      -0.462885       -12.5957
 201   2.0000      -0.458722       -12.4825
 202   2.0000      -0.457245       -12.4423
 203   2.0000      -0.455524       -12.3954
 204   2.0000      -0.451355       -12.2820
 205   2.0000      -0.450235       -12.2515
 206   2.0000      -0.448084       -12.1930
 207   2.0000      -0.446444       -12.1483
 208   2.0000      -0.445888       -12.1332
 209   2.0000      -0.442503       -12.0411
 210   2.0000      -0.441759       -12.0209
 211   2.0000      -0.437663       -11.9094
 212   2.0000      -0.433964       -11.8088
 213   2.0000      -0.433389       -11.7931
 214   2.0000      -0.430427       -11.7125
 215   2.0000      -0.427794       -11.6409
 216   2.0000      -0.426586       -11.6080
 217   2.0000      -0.424437       -11.5495
 218   2.0000      -0.423468       -11.5232
 219   2.0000      -0.421493       -11.4694
 220   2.0000      -0.417502       -11.3608
 221   2.0000      -0.414444       -11.2776
 222   2.0000      -0.411697       -11.2028
 223   2.0000      -0.408782       -11.1235
 224   2.0000      -0.408002       -11.1023
 225   2.0000      -0.404695       -11.0123
 226   2.0000      -0.400042       -10.8857
 227   2.0000      -0.399117       -10.8605
 228   2.0000      -0.396578       -10.7914
 229   2.0000      -0.393714       -10.7135
 230   2.0000      -0.391956       -10.6657
 231   2.0000      -0.391098       -10.6423
 232   2.0000      -0.386571       -10.5191
 233   2.0000      -0.383465       -10.4346
 234   2.0000      -0.381346       -10.3770
 235   2.0000      -0.379170       -10.3177
 236   2.0000      -0.377871       -10.2824
 237   2.0000      -0.373397       -10.1606
 238   2.0000      -0.369774       -10.0621
 239   2.0000      -0.364157        -9.9092
 240   2.0000      -0.362759        -9.8712
 241   2.0000      -0.359292        -9.7768
 242   2.0000      -0.349238        -9.5033
 243   2.0000      -0.343487        -9.3468
 244   2.0000      -0.337535        -9.1848
 245   2.0000      -0.328880        -8.9493
 246   2.0000      -0.328622        -8.9423
 247   2.0000      -0.325236        -8.8501
 248   2.0000      -0.322264        -8.7692
 249   2.0000      -0.314759        -8.5650
 250   2.0000      -0.308262        -8.3882
 251   2.0000      -0.307366        -8.3639
 252   2.0000      -0.301576        -8.2063
 253   2.0000      -0.298056        -8.1105
 254   2.0000      -0.290485        -7.9045
 255   2.0000      -0.271484        -7.3875
 256   2.0000      -0.245430        -6.6785
 257   2.0000      -0.233306        -6.3486
 258   2.0000      -0.205638        -5.5957
 259   0.0000      -0.074986        -2.0405
 260   0.0000      -0.044909        -1.2220
 261   0.0000      -0.035736        -0.9724
 262   0.0000      -0.013691        -0.3725
 263   0.0000       0.006621         0.1802

MULLIKEN ATOMIC CHARGES
-----------------------
   0 C :   -0.110072
   1 S :    0.077840
   2 C :   -0.143079
   3 C :   -0.064842
   4 C :   -0.015705
   5 C :    0.043014
   6 C :   -0.016414
   7 C :   -0.027897
   8 C :    0.061685
   9 C :    0.031420
  10 C :    0.088776
  11 C :    0.021396
  12 C :    0.043237
  13 N :   -0.023303
  14 C :   -0.113704
  15 S :    0.125941
  16 C :   -0.006666
  17 N :    0.281863
  18 O :   -0.264663
  19 O :   -0.279813
  20 C :    0.004808
  21 C :    0.126684
  22 C :   -0.027428
  23 C :    0.009602
  24 C :   -0.009853
  25 C :   -0.014695
  26 C :    0.035351
  27 C :    0.025965
  28 C :   -0.029026
  29 S :    0.018054
  30 C :   -0.024878
  31 C :    0.024232
  32 C :    0.035015
  33 C :   -0.004731
  34 S :    0.040358
  35 C :   -0.037024
  36 C :    0.120597
  37 C :   -0.118345
  38 C :    0.030752
  39 C :    0.106567
  40 C :   -0.042647
  41 C :   -0.012235
  42 C :    0.098019
  43 C :    0.019203
  44 C :   -0.133898
  45 C :    0.052014
  46 C :    0.026962
  47 C :    0.081081
  48 C :    0.029984
  49 C :   -0.095472
  50 C :    0.128375
  51 C :   -0.023451
  52 C :   -0.040464
  53 C :   -0.023063
  54 C :    0.019523
  55 C :   -0.111541
  56 S :    0.096280
  57 C :   -0.148003
  58 C :   -0.061339
  59 C :   -0.017238
  60 C :    0.023341
  61 C :   -0.041419
  62 C :   -0.010286
  63 C :    0.059460
  64 C :    0.053472
  65 C :    0.094890
  66 C :    0.027553
  67 C :   -0.033668
  68 H :    0.010770
  69 H :   -0.007421
  70 H :   -0.000556
  71 H :    0.008468
  72 H :    0.017698
  73 H :    0.002520
  74 H :    0.004986
  75 H :    0.004221
  76 H :    0.003797
  77 H :    0.025909
  78 H :    0.013730
  79 H :   -0.017816
  80 H :    0.030533
  81 H :    0.140188
  82 H :    0.007171
  83 H :   -0.038801
  84 H :   -0.022178
  85 H :   -0.018067
  86 H :   -0.013298
  87 H :   -0.015425
  88 H :   -0.013609
  89 H :   -0.013467
  90 H :   -0.026292
  91 H :   -0.040667
  92 H :   -0.051027
  93 H :   -0.029830
  94 H :    0.003436
  95 H :   -0.004711
  96 H :    0.020069
  97 H :    0.006025
  98 H :    0.021840
  99 H :    0.005542
 100 H :   -0.004176
 101 H :    0.019435
 102 H :    0.011611
 103 H :    0.000553
 104 H :   -0.047074
 105 H :   -0.033335
 106 H :   -0.053980
 107 H :   -0.022344
 108 H :   -0.013829
 109 H :    0.002390
 110 H :    0.005500
 111 H :    0.010830
 112 H :    0.019767
 113 H :   -0.000932
 114 H :   -0.005609
 115 H :    0.003628
 116 H :   -0.002745
 117 H :    0.016756
 118 H :    0.016503
 119 H :   -0.009416
 120 H :    0.015263
 121 H :    0.021020
Sum of atomic charges:    0.0000000

LOEWDIN ATOMIC CHARGES
----------------------
   0 C :   -0.188547
   1 S :    0.442685
   2 C :   -0.177304
   3 C :   -0.063038
   4 C :   -0.057097
   5 C :   -0.024390
   6 C :   -0.008985
   7 C :   -0.064205
   8 C :   -0.020913
   9 C :   -0.027656
  10 C :   -0.030414
  11 C :   -0.083895
  12 C :    0.013221
  13 N :    0.043753
  14 C :   -0.092116
  15 S :    0.444555
  16 C :   -0.217963
  17 N :    0.274893
  18 O :   -0.230614
  19 O :   -0.246321
  20 C :    0.008220
  21 C :   -0.109712
  22 C :   -0.037660
  23 C :   -0.038753
  24 C :   -0.064478
  25 C :   -0.143945
  26 C :   -0.031494
  27 C :   -0.039603
  28 C :   -0.181943
  29 S :    0.362592
  30 C :   -0.173994
  31 C :   -0.040983
  32 C :   -0.024932
  33 C :   -0.149263
  34 S :    0.370426
  35 C :   -0.042994
  36 C :   -0.032950
  37 C :   -0.019075
  38 C :   -0.000016
  39 C :   -0.011168
  40 C :   -0.020342
  41 C :   -0.024390
  42 C :   -0.021659
  43 C :    0.007544
  44 C :   -0.034113
  45 C :   -0.016339
  46 C :   -0.056568
  47 C :   -0.009333
  48 C :   -0.059954
  49 C :   -0.020380
  50 C :   -0.020092
  51 C :   -0.022709
  52 C :   -0.022247
  53 C :   -0.027185
  54 C :   -0.039273
  55 C :   -0.170530
  56 S :    0.424194
  57 C :   -0.177747
  58 C :   -0.055100
  59 C :   -0.056740
  60 C :   -0.027044
  61 C :   -0.001692
  62 C :   -0.071047
  63 C :   -0.017586
  64 C :   -0.028477
  65 C :   -0.027216
  66 C :   -0.040797
  67 C :   -0.052478
  68 H :    0.021378
  69 H :    0.033025
  70 H :    0.022810
  71 H :    0.018355
  72 H :    0.022898
  73 H :    0.022994
  74 H :    0.025752
  75 H :    0.026739
  76 H :    0.021073
  77 H :    0.030229
  78 H :    0.029602
  79 H :    0.027309
  80 H :    0.021702
  81 H :    0.097796
  82 H :    0.042842
  83 H :    0.000679
  84 H :    0.028670
  85 H :    0.034354
  86 H :    0.033173
  87 H :    0.031449
  88 H :    0.031692
  89 H :    0.032947
  90 H :    0.032661
  91 H :    0.022226
  92 H :    0.012146
  93 H :    0.006929
  94 H :    0.018535
  95 H :    0.019160
  96 H :    0.025660
  97 H :    0.022454
  98 H :    0.025704
  99 H :    0.027093
 100 H :    0.019534
 101 H :    0.023990
 102 H :    0.026977
 103 H :    0.018683
 104 H :    0.023726
 105 H :    0.024314
 106 H :    0.018198
 107 H :    0.018650
 108 H :    0.031301
 109 H :    0.032901
 110 H :    0.027562
 111 H :    0.019458
 112 H :    0.022771
 113 H :    0.024641
 114 H :    0.021418
 115 H :    0.022986
 116 H :    0.023616
 117 H :    0.032456
 118 H :    0.029091
 119 H :    0.027594
 120 H :    0.020434
 121 H :    0.025037

  Mayer bond orders larger than 0.100000
B(  0-C ,  1-S ) :   1.1467 B(  0-C ,  4-C ) :   1.5778 B(  0-C , 68-H ) :   0.9690
B(  1-S ,  2-C ) :   1.1264 B(  2-C ,  3-C ) :   1.5321 B(  2-C , 11-C ) :   1.1234
B(  3-C ,  4-C ) :   1.3060 B(  3-C , 10-C ) :   1.0570 B(  4-C ,  5-C ) :   0.9614
B(  5-C ,  6-C ) :   1.0058 B(  5-C ,  8-C ) :   1.0597 B(  5-C , 69-H ) :   0.9070
B(  6-C ,  7-C ) :   2.0251 B(  6-C , 70-H ) :   0.9602 B(  7-C , 71-H ) :   0.9584
B(  7-C , 72-H ) :   0.9507 B(  8-C ,  9-C ) :   1.0677 B(  8-C , 73-H ) :   0.9401
B(  8-C , 74-H ) :   0.9362 B(  9-C , 10-C ) :   1.0803 B(  9-C , 75-H ) :   0.9310
B(  9-C , 76-H ) :   0.9473 B( 10-C , 77-H ) :   0.9054 B( 10-C , 78-H ) :   0.9124
B( 11-C , 12-C ) :   1.7105 B( 11-C , 79-H ) :   0.9483 B( 12-C , 13-N ) :   1.0933
B( 12-C , 80-H ) :   0.9545 B( 13-N , 14-C ) :   1.2603 B( 13-N , 81-H ) :   0.9153
B( 14-C , 15-S ) :   1.1326 B( 14-C , 21-C ) :   1.3103 B( 15-S , 16-C ) :   1.0519
B( 16-C , 17-N ) :   0.9966 B( 16-C , 20-C ) :   1.4818 B( 17-N , 18-O ) :   1.5156
B( 17-N , 19-O ) :   1.4937 B( 18-O , 19-O ) :   0.2479 B( 20-C , 21-C ) :   1.2319
B( 20-C , 82-H ) :   1.0000 B( 21-C , 22-C ) :   1.1208 B( 22-C , 23-C ) :   1.6657
B( 22-C , 83-H ) :   0.9468 B( 23-C , 24-C ) :   1.1920 B( 23-C , 84-H ) :   0.9673
B( 24-C , 25-C ) :   1.5838 B( 24-C , 85-H ) :   0.9599 B( 25-C , 26-C ) :   1.1458
B( 25-C , 29-S ) :   1.0307 B( 26-C , 27-C ) :   1.5963 B( 26-C , 86-H ) :   0.9982
B( 27-C , 28-C ) :   1.1808 B( 27-C , 87-H ) :   0.9917 B( 28-C , 29-S ) :   1.0279
B( 28-C , 30-C ) :   1.5305 B( 30-C , 31-C ) :   1.1725 B( 30-C , 34-S ) :   1.0322
B( 31-C , 32-C ) :   1.6064 B( 31-C , 88-H ) :   0.9931 B( 32-C , 33-C ) :   1.1274
B( 32-C , 89-H ) :   0.9994 B( 33-C , 34-S ) :   1.0199 B( 33-C , 35-C ) :   1.5972
B( 35-C , 36-C ) :   1.1084 B( 35-C , 90-H ) :   0.9709 B( 36-C , 37-C ) :   1.2570
B( 36-C , 41-C ) :   1.3200 B( 37-C , 38-C ) :   1.3981 B( 37-C , 91-H ) :   1.0060
B( 38-C , 39-C ) :   1.3697 B( 38-C , 44-C ) :   0.9145 B( 39-C , 40-C ) :   1.3337
B( 39-C , 42-C ) :   1.0039 B( 40-C , 41-C ) :   1.4134 B( 40-C , 92-H ) :   0.9845
B( 41-C , 93-H ) :   0.9696 B( 42-C , 43-C ) :   1.3606 B( 42-C , 52-C ) :   1.3428
B( 43-C , 44-C ) :   0.9254 B( 43-C , 49-C ) :   1.4051 B( 44-C , 45-C ) :   1.0342
B( 44-C , 47-C ) :   1.0171 B( 45-C , 46-C ) :   1.1048 B( 45-C , 94-H ) :   0.9377
B( 45-C , 95-H ) :   0.9384 B( 46-C , 96-H ) :   0.9648 B( 46-C , 97-H ) :   0.9646
B( 46-C , 98-H ) :   0.9627 B( 47-C , 48-C ) :   1.1132 B( 47-C , 99-H ) :   0.9383
B( 47-C ,100-H ) :   0.9371 B( 48-C ,101-H ) :   0.9606 B( 48-C ,102-H ) :   0.9599
B( 48-C ,103-H ) :   0.9629 B( 49-C , 50-C ) :   1.3020 B( 49-C ,104-H ) :   0.9975
B( 50-C , 51-C ) :   1.3345 B( 50-C , 53-C ) :   1.0616 B( 51-C , 52-C ) :   1.3716
B( 51-C ,105-H ) :   0.9938 B( 52-C ,106-H ) :   0.9853 B( 53-C , 54-C ) :   1.6878
B( 53-C ,107-H ) :   0.9819 B( 54-C , 55-C ) :   1.1462 B( 54-C ,108-H ) :   0.9524
B( 55-C , 56-S ) :   1.1107 B( 55-C , 59-C ) :   1.5000 B( 56-S , 57-C ) :   1.1107
B( 57-C , 58-C ) :   1.5457 B( 57-C , 66-C ) :   1.0926 B( 58-C , 59-C ) :   1.3141
B( 58-C , 65-C ) :   1.0510 B( 59-C , 60-C ) :   0.9624 B( 60-C , 61-C ) :   1.0139
B( 60-C , 63-C ) :   1.0658 B( 60-C ,109-H ) :   0.8921 B( 61-C , 62-C ) :   1.9942
B( 61-C ,110-H ) :   0.9647 B( 62-C ,111-H ) :   0.9528 B( 62-C ,112-H ) :   0.9486
B( 63-C , 64-C ) :   1.0710 B( 63-C ,113-H ) :   0.9326 B( 63-C ,114-H ) :   0.9337
B( 64-C , 65-C ) :   1.0929 B( 64-C ,115-H ) :   0.9391 B( 64-C ,116-H ) :   0.9315
B( 65-C ,117-H ) :   0.9155 B( 65-C ,118-H ) :   0.9063 B( 66-C , 67-C ) :   1.9321
B( 66-C ,119-H ) :   0.9485 B( 67-C ,120-H ) :   0.9575 B( 67-C ,121-H ) :   0.9457

-----------------------------------------------------------------------------
         ABSORPTION SPECTRUM VIA TRANSITION ELECTRIC DIPOLE MOMENTS
-----------------------------------------------------------------------------
State   Energy  Wavelength   fosc         T2         TX        TY        TZ
        (cm-1)    (nm)                  (au**2)     (au)      (au)      (au)
-----------------------------------------------------------------------------
   0   14540.2    687.7   0.992111304  22.46287  -4.49439   1.43999   0.43566
   1   21151.6    472.8   0.141168034   2.19719   1.47699   0.12484  -0.01088
   2   21996.5    454.6   0.811410634  12.14404   1.49949  -2.04714  -2.38847
   3   24506.2    408.1   1.509471429  20.27798  -0.79355   2.97755   3.28367
   4   25375.8    394.1   0.146264527   1.89756  -0.76759  -0.85272  -0.76238
   5   27550.4    363.0   0.596420039   7.12688  -2.50660   0.52188   0.75597
   6   28390.2    352.2   0.052916589   0.61362   0.24670   0.70164   0.24587
   7   29769.7    335.9   0.114100344   1.26179   0.93318  -0.12552   0.61254
   8   30831.9    324.3   0.629218460   6.71857   0.79365  -1.62667  -1.85544
   9   32606.6    306.7   0.118521824   1.19665  -0.58838  -0.62329  -0.67969
  10   32784.3    305.0   0.055351795   0.55583   0.63620  -0.28763  -0.26144
  11   33185.2    301.3   0.086381496   0.85694  -0.81238   0.31976   0.30778
  12   33203.6    301.2   0.030797112   0.30535  -0.47401   0.21754   0.18258
  13   33583.7    297.8   0.033192084   0.32537  -0.46134   0.22269   0.25089
  14   33709.4    296.7   0.011268401   0.11005  -0.19564  -0.18570  -0.19311
  15   33799.9    295.9   0.028390011   0.27652   0.43924  -0.20627  -0.20260
  16   34252.0    292.0   0.019378850   0.18626   0.25344   0.21430   0.27587
  17   35895.3    278.6   0.019815037   0.18173   0.22621  -0.18523  -0.31024
  18   36271.1    275.7   0.014403878   0.13074  -0.34278  -0.08617  -0.07624
  19   36468.3    274.2   0.039847285   0.35972   0.57841  -0.11891  -0.10497
  20   36681.0    272.6   0.000476305   0.00427  -0.04981   0.01659  -0.03897
  21   37161.6    269.1   0.062228912   0.55128  -0.11458  -0.43204  -0.59287
  22   37278.6    268.3   0.019992159   0.17655  -0.26287  -0.15092  -0.29099
  23   38161.2    262.0   0.034563385   0.29817   0.28422  -0.18379  -0.42850
  24   38470.1    259.9   0.007890232   0.06752  -0.05881   0.20620   0.14678
  25   38764.4    258.0   0.023501089   0.19959  -0.34690  -0.11408  -0.25735
  26   38964.3    256.6   0.005469539   0.04621   0.17296  -0.08762  -0.09286
  27   39328.5    254.3   0.027063357   0.22654  -0.31270   0.29803   0.19984
  28   39828.2    251.1   0.030047033   0.24836   0.47874  -0.11219   0.08113
  29   40012.2    249.9   0.031772864   0.26142   0.38136  -0.29145  -0.17619
  30   40176.8    248.9   0.098487065   0.80701  -0.81933   0.18351   0.31943

FINAL SINGLE POINT ENERGY     -4527.629074860119

DIPOLE MOMENT
-------------
                                X             Y             Z
Electronic contribution:    -94.58465      47.42202      42.22298
Nuclear contribution   :     98.20091     -47.32751     -41.67175
                        -----------------------------------------
Total Dipole Moment    :      3.61626       0.09451       0.55123
                        -----------------------------------------
Magnitude (a.u.)       :      3.65925
Magnitude (Debye)      :      9.30108

Rotational constants in cm-1:     0.001217     0.000362     0.000290
Rotational constants in MHz :    36.499224    10.858162     8.694865

                             ****ORCA TERMINATED NORMALLY****
TOTAL RUN TIME: 0 days 0 hours 11 minutes 58 seconds 149 msec
