                         Program Version 4.2.0 -  RELEASE  -
|  1> # ORCA input file
|  2> # SCF done       -196.714567410556          0.000675846908
|  3> ! CAM-B3LYP def2-SVP def2/J RIJCOSX Grid4 TightSCF
|  4> %maxcore 5000
|  5> %tddft
|  6>     Mode sTDDFT
|  7>     Ethresh 5.0
|  8>     maxcore 5000
|  9> end
| 10>
| 11> %pal
| 12>   nprocs 6
| 13>   end
| 14> * xyz 0 1
| 15>    C       -5.16507        -2.53786        -0.68594
| 16>    C       -3.84275        -2.89594        -0.63122
| 17>    C       -3.38441        -4.22889        -0.61428
| 18>    N       -2.95413        -5.29340        -0.60472
| 19>    C       -2.76849        -1.98640        -0.53381
| 20>    N       -1.84414        -1.31561        -0.41513
| 21>    C       -6.30187        -3.44753        -0.65286
| 22>    C       -7.49264        -2.68319        -0.56787
| 23>    C       -8.73753        -3.26164        -0.51201
| 24>    C       -8.81222        -4.65784        -0.53332
| 25>    C       -7.61776        -5.41164        -0.62103
| 26>    C       -6.35798        -4.82806        -0.68300
| 27>    S       -7.94985        -7.11537        -0.64117
| 28>    C       -9.64905        -6.81014        -0.53158
| 29>    C       -9.96123        -5.49686        -0.48260
| 30>    C       -7.16176        -1.24557        -0.58072
| 31>    O       -7.95264        -0.32788        -0.63527
| 32>    C       -5.67866        -1.18277        -0.66503
| 33>    C       -4.96424        -0.04536        -0.88686
| 34>    C       -5.43279         1.27787        -0.63621
| 35>    C       -5.01588         2.35566        -1.44514
| 36>    C       -5.47992         3.70423        -1.22376
| 37>    N       -5.02248         4.69550        -2.01009
| 38>    C       -4.20388         4.40990        -2.99304
| 39>    C       -3.79733         3.05924        -3.24866
| 40>    N       -4.19825         2.08059        -2.47602
| 41>    C       -2.94715         2.77716        -4.34661
| 42>    N       -2.26991         2.59171        -5.25188
| 43>    C       -3.70547         5.45081        -3.81435
| 44>    N       -3.27900         6.25718        -4.50812
| 45>    C       -6.36554         4.02379        -0.16848
| 46>    C       -6.71203         2.95962         0.68517
| 47>    C       -6.25426         1.60653         0.45838
| 48>    N       -6.66334         0.77472         1.41506
| 49>    S       -7.58282         1.58378         2.44789
| 50>    N       -7.48497         3.03409         1.77525
| 51>    C       -6.86036         5.37255         0.04870
| 52>    C       -7.16415         6.20733        -1.03780
| 53>    C       -7.59177         7.49532        -0.81513
| 54>    C       -7.73472         7.96237         0.50625
| 55>    C       -7.45528         7.13848         1.58782
| 56>    C       -7.02427         5.85083         1.35507
| 57>    C       -8.17751         9.33690         0.47425
| 58>    C       -8.31290         9.72420        -0.86703
| 59>    C       -7.98865         8.57425        -1.80271
| 60>    C       -6.85832         9.02970        -2.75655
| 61>    C       -5.90385         7.95746        -3.26476
| 62>    C       -9.30262         8.22160        -2.53795
| 63>    C       -9.23772         7.09684        -3.56135
| 64>    C       -8.67672        11.00973        -1.18449
| 65>    C       -8.93141        11.93894        -0.16422
| 66>    C       -8.81078        11.52805         1.17020
| 67>    C       -8.43432        10.24182         1.49587
| 68>    C       -9.28453        13.28866        -0.54165
| 69>    C       -9.71905        14.27523         0.26264
| 70>    C      -10.01646        15.58635        -0.23980
| 71>    C      -10.50920        16.62895         0.44472
| 72>    C      -10.89888        16.62334         1.88852
| 73>    C      -10.76131        17.93610        -0.26395
| 74>    N      -12.16888        18.05326        -0.57653
| 75>    C      -12.82556        19.22602        -0.68429
| 76>    C      -14.07205        19.35901        -1.20235
| 77>    C      -14.77307        20.58252        -1.29180
| 78>    S      -14.12021        22.07378        -0.70346
| 79>    C      -15.52423        22.99579        -1.16338
| 80>    C      -16.45684        22.17077        -1.79409
| 81>    C      -16.04110        20.80265        -1.85415
| 82>    C      -16.88081        19.85046        -2.45115
| 83>    C      -18.08561        20.21467        -3.00590
| 84>    C      -18.94151        19.20730        -3.62723
| 85>    C      -19.03437        17.94469        -3.22929
| 86>    C      -18.47485        21.58889        -3.00202
| 87>    C      -19.76680        22.00452        -3.63822
| 88>    C      -17.67685        22.52691        -2.40798
| 89>    C      -15.52488        24.38848        -0.83385
| 90>    C      -16.58297        25.19388        -0.71628
| 91>    H       -9.62721        -2.65408        -0.45063
| 92>    H       -5.47692        -5.44358        -0.75752
| 93>    H      -10.31933        -7.64740        -0.51114
| 94>    H      -10.96533        -5.11883        -0.41439
| 95>    H       -3.97170        -0.10885        -1.31489
| 96>    H       -7.06783         5.81284        -2.03389
| 97>    H       -7.56480         7.50367         2.59793
| 98>    H       -6.78458         5.20532         2.18426
| 99>    H       -6.25996         9.77441        -2.22429
|100>    H       -7.32138         9.53368        -3.60795
|101>    H       -5.37565         7.48496        -2.44160
|102>    H       -5.16394         8.41586        -3.91752
|103>    H       -6.41652         7.18913        -3.83477
|104>    H       -9.65152         9.12788        -3.03967
|105>    H      -10.04556         7.96372        -1.77737
|106>    H       -8.54110         7.33162        -4.36089
|107>    H      -10.22308         6.96064        -4.00384
|108>    H       -8.94780         6.15889        -3.09769
|109>    H       -8.76561        11.32021        -2.21601
|110>    H       -8.99528        12.23715         1.96242
|111>    H       -8.33217         9.94729         2.52972
|112>    H       -9.18602        13.50349        -1.59989
|113>    H       -9.85337        14.09987         1.31865
|114>    H       -9.79886        15.72901        -1.29256
|115>    H      -11.00167        15.61719         2.28111
|116>    H      -11.84609        17.14611         2.01550
|117>    H      -10.14817        17.14942         2.47994
|118>    H      -10.15912        17.98989        -1.18235
|119>    H      -10.48636        18.77758         0.37774
|120>    H      -12.59064        17.24193        -1.00540
|121>    H      -12.30278        20.08937        -0.29501
|122>    H      -14.57475        18.48380        -1.58936
|123>    H      -16.56330        18.82054        -2.50151
|124>    H      -19.54016        19.54055        -4.46398
|125>    H      -18.49334        17.57042        -2.37608
|126>    H      -19.67748        17.24091        -3.72939
|127>    H      -20.59858        21.43323        -3.22842
|128>    H      -19.73768        21.83429        -4.71467
|129>    H      -19.95339        23.06189        -3.46731
|130>    H      -17.96919        23.56426        -2.43239
|131>    H      -14.54098        24.79140        -0.62170
|132>    H      -17.59381        24.85190        -0.84282
|133>    H      -16.45736        26.23090        -0.45892
|134> *
|135>
|136>                          ****END OF INPUT****

CARTESIAN COORDINATES (ANGSTROEM)
---------------------------------
  C     -5.165070   -2.537860   -0.685940
  C     -3.842750   -2.895940   -0.631220
  C     -3.384410   -4.228890   -0.614280
  N     -2.954130   -5.293400   -0.604720
  C     -2.768490   -1.986400   -0.533810
  N     -1.844140   -1.315610   -0.415130
  C     -6.301870   -3.447530   -0.652860
  C     -7.492640   -2.683190   -0.567870
  C     -8.737530   -3.261640   -0.512010
  C     -8.812220   -4.657840   -0.533320
  C     -7.617760   -5.411640   -0.621030
  C     -6.357980   -4.828060   -0.683000
  S     -7.949850   -7.115370   -0.641170
  C     -9.649050   -6.810140   -0.531580
  C     -9.961230   -5.496860   -0.482600
  C     -7.161760   -1.245570   -0.580720
  O     -7.952640   -0.327880   -0.635270
  C     -5.678660   -1.182770   -0.665030
  C     -4.964240   -0.045360   -0.886860
  C     -5.432790    1.277870   -0.636210
  C     -5.015880    2.355660   -1.445140
  C     -5.479920    3.704230   -1.223760
  N     -5.022480    4.695500   -2.010090
  C     -4.203880    4.409900   -2.993040
  C     -3.797330    3.059240   -3.248660
  N     -4.198250    2.080590   -2.476020
  C     -2.947150    2.777160   -4.346610
  N     -2.269910    2.591710   -5.251880
  C     -3.705470    5.450810   -3.814350
  N     -3.279000    6.257180   -4.508120
  C     -6.365540    4.023790   -0.168480
  C     -6.712030    2.959620    0.685170
  C     -6.254260    1.606530    0.458380
  N     -6.663340    0.774720    1.415060
  S     -7.582820    1.583780    2.447890
  N     -7.484970    3.034090    1.775250
  C     -6.860360    5.372550    0.048700
  C     -7.164150    6.207330   -1.037800
  C     -7.591770    7.495320   -0.815130
  C     -7.734720    7.962370    0.506250
  C     -7.455280    7.138480    1.587820
  C     -7.024270    5.850830    1.355070
  C     -8.177510    9.336900    0.474250
  C     -8.312900    9.724200   -0.867030
  C     -7.988650    8.574250   -1.802710
  C     -6.858320    9.029700   -2.756550
  C     -5.903850    7.957460   -3.264760
  C     -9.302620    8.221600   -2.537950
  C     -9.237720    7.096840   -3.561350
  C     -8.676720   11.009730   -1.184490
  C     -8.931410   11.938940   -0.164220
  C     -8.810780   11.528050    1.170200
  C     -8.434320   10.241820    1.495870
  C     -9.284530   13.288660   -0.541650
  C     -9.719050   14.275230    0.262640
  C    -10.016460   15.586350   -0.239800
  C    -10.509200   16.628950    0.444720
  C    -10.898880   16.623340    1.888520
  C    -10.761310   17.936100   -0.263950
  N    -12.168880   18.053260   -0.576530
  C    -12.825560   19.226020   -0.684290
  C    -14.072050   19.359010   -1.202350
  C    -14.773070   20.582520   -1.291800
  S    -14.120210   22.073780   -0.703460
  C    -15.524230   22.995790   -1.163380
  C    -16.456840   22.170770   -1.794090
  C    -16.041100   20.802650   -1.854150
  C    -16.880810   19.850460   -2.451150
  C    -18.085610   20.214670   -3.005900
  C    -18.941510   19.207300   -3.627230
  C    -19.034370   17.944690   -3.229290
  C    -18.474850   21.588890   -3.002020
  C    -19.766800   22.004520   -3.638220
  C    -17.676850   22.526910   -2.407980
  C    -15.524880   24.388480   -0.833850
  C    -16.582970   25.193880   -0.716280
  H     -9.627210   -2.654080   -0.450630
  H     -5.476920   -5.443580   -0.757520
  H    -10.319330   -7.647400   -0.511140
  H    -10.965330   -5.118830   -0.414390
  H     -3.971700   -0.108850   -1.314890
  H     -7.067830    5.812840   -2.033890
  H     -7.564800    7.503670    2.597930
  H     -6.784580    5.205320    2.184260
  H     -6.259960    9.774410   -2.224290
  H     -7.321380    9.533680   -3.607950
  H     -5.375650    7.484960   -2.441600
  H     -5.163940    8.415860   -3.917520
  H     -6.416520    7.189130   -3.834770
  H     -9.651520    9.127880   -3.039670
  H    -10.045560    7.963720   -1.777370
  H     -8.541100    7.331620   -4.360890
  H    -10.223080    6.960640   -4.003840
  H     -8.947800    6.158890   -3.097690
  H     -8.765610   11.320210   -2.216010
  H     -8.995280   12.237150    1.962420
  H     -8.332170    9.947290    2.529720
  H     -9.186020   13.503490   -1.599890
  H     -9.853370   14.099870    1.318650
  H     -9.798860   15.729010   -1.292560
  H    -11.001670   15.617190    2.281110
  H    -11.846090   17.146110    2.015500
  H    -10.148170   17.149420    2.479940
  H    -10.159120   17.989890   -1.182350
  H    -10.486360   18.777580    0.377740
  H    -12.590640   17.241930   -1.005400
  H    -12.302780   20.089370   -0.295010
  H    -14.574750   18.483800   -1.589360
  H    -16.563300   18.820540   -2.501510
  H    -19.540160   19.540550   -4.463980
  H    -18.493340   17.570420   -2.376080
  H    -19.677480   17.240910   -3.729390
  H    -20.598580   21.433230   -3.228420
  H    -19.737680   21.834290   -4.714670
  H    -19.953390   23.061890   -3.467310
  H    -17.969190   23.564260   -2.432390
  H    -14.540980   24.791400   -0.621700
  H    -17.593810   24.851900   -0.842820
  H    -16.457360   26.230900   -0.458920

 Total Charge           Charge          ....    0
 Multiplicity           Mult            ....    1
 Number of Electrons    NEL             ....  540
 Basis Dimension        Dim             .... 1291

ORBITAL ENERGIES
----------------

  NO   OCC          E(Eh)            E(eV)
   0   2.0000     -89.052339     -2423.2373
   1   2.0000     -88.969067     -2420.9714
   2   2.0000     -88.937657     -2420.1167
   3   2.0000     -19.217882      -522.9451
   4   2.0000     -14.470164      -393.7532
   5   2.0000     -14.468098      -393.6970
   6   2.0000     -14.459640      -393.4668
   7   2.0000     -14.454452      -393.3256
   8   2.0000     -14.434555      -392.7842
   9   2.0000     -14.433865      -392.7654
  10   2.0000     -14.429813      -392.6552
  11   2.0000     -14.417379      -392.3168
  12   2.0000     -14.415714      -392.2715
  13   2.0000     -10.390043      -282.7274
  14   2.0000     -10.385912      -282.6150
  15   2.0000     -10.369378      -282.1651
  16   2.0000     -10.357890      -281.8525
  17   2.0000     -10.355475      -281.7868
  18   2.0000     -10.348172      -281.5881
  19   2.0000     -10.347644      -281.5737
  20   2.0000     -10.345400      -281.5126
  21   2.0000     -10.342148      -281.4241
  22   2.0000     -10.333413      -281.1865
  23   2.0000     -10.327209      -281.0176
  24   2.0000     -10.326914      -281.0096
  25   2.0000     -10.323279      -280.9107
  26   2.0000     -10.319645      -280.8118
  27   2.0000     -10.319322      -280.8030
  28   2.0000     -10.318079      -280.7692
  29   2.0000     -10.317251      -280.7467
  30   2.0000     -10.317157      -280.7441
  31   2.0000     -10.311373      -280.5867
  32   2.0000     -10.308671      -280.5132
  33   2.0000     -10.308108      -280.4979
  34   2.0000     -10.305730      -280.4332
  35   2.0000     -10.304641      -280.4035
  36   2.0000     -10.304285      -280.3939
  37   2.0000     -10.301642      -280.3219
  38   2.0000     -10.294609      -280.1305
  39   2.0000     -10.293051      -280.0882
  40   2.0000     -10.291917      -280.0573
  41   2.0000     -10.286566      -279.9117
  42   2.0000     -10.284806      -279.8638
  43   2.0000     -10.283968      -279.8410
  44   2.0000     -10.283294      -279.8227
  45   2.0000     -10.283073      -279.8166
  46   2.0000     -10.281501      -279.7739
  47   2.0000     -10.281478      -279.7733
  48   2.0000     -10.277883      -279.6754
  49   2.0000     -10.277463      -279.6640
  50   2.0000     -10.276897      -279.6486
  51   2.0000     -10.276643      -279.6417
  52   2.0000     -10.275960      -279.6231
  53   2.0000     -10.274643      -279.5872
  54   2.0000     -10.273783      -279.5638
  55   2.0000     -10.273306      -279.5509
  56   2.0000     -10.272910      -279.5401
  57   2.0000     -10.272593      -279.5315
  58   2.0000     -10.269064      -279.4354
  59   2.0000     -10.268940      -279.4321
  60   2.0000     -10.268601      -279.4228
  61   2.0000     -10.264106      -279.3005
  62   2.0000     -10.260531      -279.2032
  63   2.0000     -10.259132      -279.1652
  64   2.0000     -10.258274      -279.1418
  65   2.0000     -10.257073      -279.1092
  66   2.0000     -10.255385      -279.0632
  67   2.0000     -10.255114      -279.0558
  68   2.0000     -10.254561      -279.0408
  69   2.0000     -10.252456      -278.9835
  70   2.0000     -10.251359      -278.9537
  71   2.0000     -10.250350      -278.9262
  72   2.0000     -10.249352      -278.8990
  73   2.0000     -10.246740      -278.8280
  74   2.0000     -10.246006      -278.8080
  75   2.0000     -10.240606      -278.6611
  76   2.0000      -8.143423      -221.5938
  77   2.0000      -8.065373      -219.4700
  78   2.0000      -8.033129      -218.5926
  79   2.0000      -6.114343      -166.3797
  80   2.0000      -6.106646      -166.1703
  81   2.0000      -6.106489      -166.1660
  82   2.0000      -6.034883      -164.2175
  83   2.0000      -6.030580      -164.1004
  84   2.0000      -6.027021      -164.0036
  85   2.0000      -6.002073      -163.3247
  86   2.0000      -5.998237      -163.2203
  87   2.0000      -5.995792      -163.1538
  88   2.0000      -1.147771       -31.2324
  89   2.0000      -1.131952       -30.8020
  90   2.0000      -1.127000       -30.6672
  91   2.0000      -1.053832       -28.6762
  92   2.0000      -1.032111       -28.0852
  93   2.0000      -1.022088       -27.8124
  94   2.0000      -1.018901       -27.7257
  95   2.0000      -1.010162       -27.4879
  96   2.0000      -1.008386       -27.4396
  97   2.0000      -1.002046       -27.2671
  98   2.0000      -0.995003       -27.0754
  99   2.0000      -0.994048       -27.0494
 100   2.0000      -0.988475       -26.8978
 101   2.0000      -0.983560       -26.7640
 102   2.0000      -0.969872       -26.3916
 103   2.0000      -0.952014       -25.9056
 104   2.0000      -0.934570       -25.4309
 105   2.0000      -0.928024       -25.2528
 106   2.0000      -0.921776       -25.0828
 107   2.0000      -0.916472       -24.9385
 108   2.0000      -0.914812       -24.8933
 109   2.0000      -0.908671       -24.7262
 110   2.0000      -0.894547       -24.3419
 111   2.0000      -0.887594       -24.1527
 112   2.0000      -0.883578       -24.0434
 113   2.0000      -0.876920       -23.8622
 114   2.0000      -0.865639       -23.5552
 115   2.0000      -0.854683       -23.2571
 116   2.0000      -0.851622       -23.1738
 117   2.0000      -0.842321       -22.9207
 118   2.0000      -0.840302       -22.8658
 119   2.0000      -0.839134       -22.8340
 120   2.0000      -0.837733       -22.7959
 121   2.0000      -0.834286       -22.7021
 122   2.0000      -0.827709       -22.5231
 123   2.0000      -0.825431       -22.4611
 124   2.0000      -0.817910       -22.2565
 125   2.0000      -0.803079       -21.8529
 126   2.0000      -0.799727       -21.7617
 127   2.0000      -0.786026       -21.3888
 128   2.0000      -0.781240       -21.2586
 129   2.0000      -0.773638       -21.0518
 130   2.0000      -0.767570       -20.8866
 131   2.0000      -0.759595       -20.6696
 132   2.0000      -0.757901       -20.6235
 133   2.0000      -0.746937       -20.3252
 134   2.0000      -0.733945       -19.9717
 135   2.0000      -0.728842       -19.8328
 136   2.0000      -0.721578       -19.6351
 137   2.0000      -0.714395       -19.4397
 138   2.0000      -0.703260       -19.1367
 139   2.0000      -0.700525       -19.0623
 140   2.0000      -0.699513       -19.0347
 141   2.0000      -0.697093       -18.9689
 142   2.0000      -0.695727       -18.9317
 143   2.0000      -0.692079       -18.8324
 144   2.0000      -0.687254       -18.7011
 145   2.0000      -0.679618       -18.4934
 146   2.0000      -0.675435       -18.3795
 147   2.0000      -0.665592       -18.1117
 148   2.0000      -0.662960       -18.0401
 149   2.0000      -0.660439       -17.9715
 150   2.0000      -0.656631       -17.8678
 151   2.0000      -0.647695       -17.6247
 152   2.0000      -0.639375       -17.3983
 153   2.0000      -0.634723       -17.2717
 154   2.0000      -0.626486       -17.0475
 155   2.0000      -0.622193       -16.9307
 156   2.0000      -0.621906       -16.9229
 157   2.0000      -0.620396       -16.8818
 158   2.0000      -0.613742       -16.7008
 159   2.0000      -0.606270       -16.4974
 160   2.0000      -0.598653       -16.2902
 161   2.0000      -0.597326       -16.2541
 162   2.0000      -0.595892       -16.2151
 163   2.0000      -0.587278       -15.9807
 164   2.0000      -0.581401       -15.8207
 165   2.0000      -0.578646       -15.7458
 166   2.0000      -0.575070       -15.6485
 167   2.0000      -0.573146       -15.5961
 168   2.0000      -0.569931       -15.5086
 169   2.0000      -0.563107       -15.3229
 170   2.0000      -0.561555       -15.2807
 171   2.0000      -0.554435       -15.0869
 172   2.0000      -0.549942       -14.9647
 173   2.0000      -0.548656       -14.9297
 174   2.0000      -0.546502       -14.8711
 175   2.0000      -0.540837       -14.7169
 176   2.0000      -0.538426       -14.6513
 177   2.0000      -0.537010       -14.6128
 178   2.0000      -0.535214       -14.5639
 179   2.0000      -0.532918       -14.5014
 180   2.0000      -0.530267       -14.4293
 181   2.0000      -0.529046       -14.3961
 182   2.0000      -0.526433       -14.3250
 183   2.0000      -0.522747       -14.2247
 184   2.0000      -0.520200       -14.1554
 185   2.0000      -0.518172       -14.1002
 186   2.0000      -0.514044       -13.9879
 187   2.0000      -0.512067       -13.9341
 188   2.0000      -0.510330       -13.8868
 189   2.0000      -0.509912       -13.8754
 190   2.0000      -0.505203       -13.7473
 191   2.0000      -0.502769       -13.6811
 192   2.0000      -0.494580       -13.4582
 193   2.0000      -0.493596       -13.4314
 194   2.0000      -0.492682       -13.4066
 195   2.0000      -0.491140       -13.3646
 196   2.0000      -0.490617       -13.3504
 197   2.0000      -0.488134       -13.2828
 198   2.0000      -0.487148       -13.2560
 199   2.0000      -0.485533       -13.2120
 200   2.0000      -0.483208       -13.1488
 201   2.0000      -0.482798       -13.1376
 202   2.0000      -0.479379       -13.0446
 203   2.0000      -0.476850       -12.9758
 204   2.0000      -0.476269       -12.9599
 205   2.0000      -0.476141       -12.9564
 206   2.0000      -0.471565       -12.8319
 207   2.0000      -0.469156       -12.7664
 208   2.0000      -0.466468       -12.6933
 209   2.0000      -0.462725       -12.5914
 210   2.0000      -0.460238       -12.5237
 211   2.0000      -0.459235       -12.4964
 212   2.0000      -0.458033       -12.4637
 213   2.0000      -0.456597       -12.4246
 214   2.0000      -0.455522       -12.3954
 215   2.0000      -0.455403       -12.3921
 216   2.0000      -0.452509       -12.3134
 217   2.0000      -0.449420       -12.2293
 218   2.0000      -0.449108       -12.2209
 219   2.0000      -0.446599       -12.1526
 220   2.0000      -0.446399       -12.1471
 221   2.0000      -0.445584       -12.1250
 222   2.0000      -0.443639       -12.0720
 223   2.0000      -0.442930       -12.0527
 224   2.0000      -0.439170       -11.9504
 225   2.0000      -0.437323       -11.9002
 226   2.0000      -0.434898       -11.8342
 227   2.0000      -0.433995       -11.8096
 228   2.0000      -0.430071       -11.7028
 229   2.0000      -0.429317       -11.6823
 230   2.0000      -0.427902       -11.6438
 231   2.0000      -0.426364       -11.6020
 232   2.0000      -0.423841       -11.5333
 233   2.0000      -0.422719       -11.5028
 234   2.0000      -0.422259       -11.4903
 235   2.0000      -0.421710       -11.4753
 236   2.0000      -0.419628       -11.4187
 237   2.0000      -0.415593       -11.3089
 238   2.0000      -0.412354       -11.2207
 239   2.0000      -0.409825       -11.1519
 240   2.0000      -0.408781       -11.1235
 241   2.0000      -0.405234       -11.0270
 242   2.0000      -0.402070       -10.9409
 243   2.0000      -0.400963       -10.9108
 244   2.0000      -0.395887       -10.7726
 245   2.0000      -0.392571       -10.6824
 246   2.0000      -0.391283       -10.6474
 247   2.0000      -0.386402       -10.5145
 248   2.0000      -0.384420       -10.4606
 249   2.0000      -0.383930       -10.4473
 250   2.0000      -0.381276       -10.3751
 251   2.0000      -0.377917       -10.2836
 252   2.0000      -0.369356       -10.0507
 253   2.0000      -0.364996        -9.9320
 254   2.0000      -0.363979        -9.9044
 255   2.0000      -0.354961        -9.6590
 256   2.0000      -0.347137        -9.4461
 257   2.0000      -0.344555        -9.3758
 258   2.0000      -0.337737        -9.1903
 259   2.0000      -0.326435        -8.8828
 260   2.0000      -0.319759        -8.7011
 261   2.0000      -0.317084        -8.6283
 262   2.0000      -0.315056        -8.5731
 263   2.0000      -0.307719        -8.3735
 264   2.0000      -0.297854        -8.1050
 265   2.0000      -0.285149        -7.7593
 266   2.0000      -0.282414        -7.6849
 267   2.0000      -0.276326        -7.5192
 268   2.0000      -0.255933        -6.9643
 269   2.0000      -0.199708        -5.4343
 270   0.0000      -0.131312        -3.5732
 271   0.0000      -0.083967        -2.2848
 272   0.0000      -0.060152        -1.6368
 273   0.0000      -0.052301        -1.4232
 274   0.0000      -0.038730        -1.0539

MULLIKEN ATOMIC CHARGES
-----------------------
   0 C :    0.292414
   1 C :   -0.329252
   2 C :   -0.188496
   3 N :    0.153561
   4 C :   -0.201167
   5 N :    0.167463
   6 C :    0.018265
   7 C :   -0.020459
   8 C :   -0.066153
   9 C :    0.112582
  10 C :   -0.092433
  11 C :   -0.021684
  12 S :    0.142822
  13 C :   -0.049289
  14 C :    0.023516
  15 C :    0.153764
  16 O :   -0.155717
  17 C :   -0.053807
  18 C :   -0.073840
  19 C :    0.072514
  20 C :   -0.033871
  21 C :   -0.066890
  22 N :    0.053973
  23 C :   -0.136650
  24 C :   -0.133309
  25 N :    0.056199
  26 C :   -0.197922
  27 N :    0.243739
  28 C :   -0.204960
  29 N :    0.232750
  30 C :    0.111851
  31 C :    0.018531
  32 C :    0.023701
  33 N :   -0.270798
  34 S :    0.560217
  35 N :   -0.281757
  36 C :   -0.007140
  37 C :   -0.051427
  38 C :    0.011257
  39 C :    0.117728
  40 C :   -0.074061
  41 C :    0.039425
  42 C :    0.092800
  43 C :    0.027458
  44 C :   -0.115239
  45 C :    0.077572
  46 C :   -0.001918
  47 C :    0.062718
  48 C :    0.042140
  49 C :   -0.112651
  50 C :    0.136353
  51 C :   -0.014056
  52 C :   -0.043971
  53 C :   -0.011245
  54 C :    0.022032
  55 C :    0.014377
  56 C :   -0.219256
  57 C :    0.104078
  58 C :    0.225804
  59 N :   -0.163835
  60 C :    0.053281
  61 C :   -0.037665
  62 C :   -0.090551
  63 S :    0.095470
  64 C :   -0.162602
  65 C :    0.145938
  66 C :    0.111767
  67 C :   -0.112299
  68 C :    0.082987
  69 C :   -0.033753
  70 C :   -0.020796
  71 C :   -0.075434
  72 C :    0.099769
  73 C :   -0.111329
  74 C :    0.028377
  75 C :   -0.049075
  76 H :   -0.014505
  77 H :   -0.005804
  78 H :    0.040575
  79 H :   -0.007011
  80 H :    0.047166
  81 H :   -0.028602
  82 H :   -0.032443
  83 H :   -0.017306
  84 H :    0.008408
  85 H :   -0.003981
  86 H :    0.037706
  87 H :    0.023251
  88 H :    0.000162
  89 H :   -0.002121
  90 H :    0.004311
  91 H :    0.015467
  92 H :    0.012380
  93 H :    0.008157
  94 H :   -0.039029
  95 H :   -0.031844
  96 H :   -0.035440
  97 H :   -0.024820
  98 H :   -0.015199
  99 H :   -0.029174
 100 H :    0.013138
 101 H :    0.023080
 102 H :    0.027717
 103 H :    0.008284
 104 H :    0.007671
 105 H :    0.115804
 106 H :    0.003524
 107 H :   -0.037694
 108 H :   -0.046775
 109 H :   -0.009868
 110 H :    0.011966
 111 H :    0.014176
 112 H :    0.025282
 113 H :    0.026255
 114 H :    0.005172
 115 H :   -0.049989
 116 H :   -0.018150
 117 H :    0.014790
 118 H :    0.012876
Sum of atomic charges:   -0.0000000

LOEWDIN ATOMIC CHARGES
----------------------
   0 C :    0.073800
   1 C :   -0.130859
   2 C :   -0.017713
   3 N :   -0.048855
   4 C :   -0.023863
   5 N :   -0.045116
   6 C :   -0.022179
   7 C :   -0.051210
   8 C :    0.022044
   9 C :   -0.034549
  10 C :   -0.144783
  11 C :   -0.008004
  12 S :    0.430746
  13 C :   -0.148268
  14 C :   -0.058432
  15 C :    0.084395
  16 O :   -0.148467
  17 C :   -0.069314
  18 C :    0.077555
  19 C :   -0.040613
  20 C :    0.011599
  21 C :   -0.015236
  22 N :    0.014356
  23 C :   -0.035003
  24 C :   -0.016170
  25 N :   -0.000890
  26 C :   -0.034620
  27 N :    0.004690
  28 C :   -0.032955
  29 N :   -0.004440
  30 C :    0.027941
  31 C :   -0.042930
  32 C :   -0.024749
  33 N :   -0.272170
  34 S :    0.697606
  35 N :   -0.274005
  36 C :   -0.031681
  37 C :    0.007455
  38 C :   -0.003184
  39 C :    0.007439
  40 C :   -0.027281
  41 C :    0.009399
  42 C :   -0.025797
  43 C :    0.012140
  44 C :   -0.032520
  45 C :   -0.014656
  46 C :   -0.059017
  47 C :   -0.010342
  48 C :   -0.058149
  49 C :   -0.020904
  50 C :   -0.018865
  51 C :   -0.016717
  52 C :   -0.012903
  53 C :   -0.017313
  54 C :   -0.023117
  55 C :   -0.046750
  56 C :   -0.038354
  57 C :   -0.049195
  58 C :    0.049948
  59 N :   -0.010144
  60 C :    0.034627
  61 C :   -0.138781
  62 C :   -0.154807
  63 S :    0.437822
  64 C :   -0.206650
  65 C :   -0.037230
  66 C :   -0.066338
  67 C :   -0.002000
  68 C :   -0.043403
  69 C :   -0.018190
  70 C :   -0.052442
  71 C :   -0.018078
  72 C :   -0.046126
  73 C :   -0.032676
  74 C :   -0.042673
  75 C :   -0.074603
  76 H :    0.039237
  77 H :    0.040955
  78 H :    0.029944
  79 H :    0.035149
  80 H :    0.049055
  81 H :    0.023078
  82 H :    0.028256
  83 H :    0.027465
  84 H :    0.028277
  85 H :    0.020571
  86 H :    0.024136
  87 H :    0.031246
  88 H :    0.014816
  89 H :    0.020535
  90 H :    0.025998
  91 H :    0.022775
  92 H :    0.028562
  93 H :    0.021107
  94 H :    0.024210
  95 H :    0.025218
  96 H :    0.027075
  97 H :    0.026200
  98 H :    0.022845
  99 H :    0.024877
 100 H :    0.027601
 101 H :    0.034569
 102 H :    0.038024
 103 H :    0.016710
 104 H :    0.028276
 105 H :    0.077344
 106 H :    0.020342
 107 H :    0.023348
 108 H :    0.021835
 109 H :    0.026021
 110 H :    0.018256
 111 H :    0.021016
 112 H :    0.032889
 113 H :    0.032091
 114 H :    0.028506
 115 H :    0.022435
 116 H :    0.024126
 117 H :    0.017287
 118 H :    0.020452

  Mayer bond orders larger than 0.100000
B(  0-C ,  1-C ) :   1.6530 B(  0-C ,  6-C ) :   1.0084 B(  0-C , 17-C ) :   1.0542
B(  1-C ,  2-C ) :   1.1409 B(  1-C ,  4-C ) :   1.1406 B(  2-C ,  3-N ) :   2.9727
B(  4-C ,  5-N ) :   2.9919 B(  6-C ,  7-C ) :   1.2657 B(  6-C , 11-C ) :   1.4101
B(  7-C ,  8-C ) :   1.4258 B(  7-C , 15-C ) :   0.9510 B(  8-C ,  9-C ) :   1.2490
B(  8-C , 76-H ) :   1.0169 B(  9-C , 10-C ) :   1.3005 B(  9-C , 14-C ) :   1.1687
B( 10-C , 11-C ) :   1.3252 B( 10-C , 12-S ) :   1.0981 B( 11-C , 77-H ) :   0.9834
B( 12-S , 13-C ) :   1.1263 B( 13-C , 14-C ) :   1.6301 B( 13-C , 78-H ) :   0.9685
B( 14-C , 79-H ) :   1.0003 B( 15-C , 16-O ) :   2.2211 B( 15-C , 17-C ) :   0.9376
B( 17-C , 18-C ) :   1.6256 B( 18-C , 19-C ) :   1.1475 B( 18-C , 80-H ) :   0.9294
B( 19-C , 20-C ) :   1.2676 B( 19-C , 30-C ) :   0.1301 B( 19-C , 32-C ) :   1.2165
B( 20-C , 21-C ) :   1.1063 B( 20-C , 25-N ) :   1.4465 B( 21-C , 22-N ) :   1.4313
B( 21-C , 30-C ) :   1.2766 B( 22-N , 23-C ) :   1.7432 B( 23-C , 24-C ) :   1.1967
B( 23-C , 28-C ) :   1.1595 B( 24-C , 25-N ) :   1.7475 B( 24-C , 26-C ) :   1.1513
B( 26-C , 27-N ) :   3.0450 B( 28-C , 29-N ) :   3.0007 B( 30-C , 31-C ) :   1.2444
B( 30-C , 36-C ) :   1.0352 B( 31-C , 32-C ) :   1.1039 B( 31-C , 35-N ) :   1.4803
B( 32-C , 33-N ) :   1.4971 B( 33-N , 34-S ) :   1.2918 B( 33-N , 35-N ) :   0.1557
B( 34-S , 35-N ) :   1.3078 B( 36-C , 37-C ) :   1.2943 B( 36-C , 41-C ) :   1.3468
B( 37-C , 38-C ) :   1.4146 B( 37-C , 81-H ) :   0.9847 B( 38-C , 39-C ) :   1.3834
B( 38-C , 44-C ) :   0.9246 B( 39-C , 40-C ) :   1.3216 B( 39-C , 42-C ) :   0.9994
B( 40-C , 41-C ) :   1.3911 B( 40-C , 82-H ) :   0.9946 B( 41-C , 83-H ) :   0.9800
B( 42-C , 43-C ) :   1.3905 B( 42-C , 52-C ) :   1.3181 B( 43-C , 44-C ) :   0.9317
B( 43-C , 49-C ) :   1.3751 B( 44-C , 45-C ) :   1.0008 B( 44-C , 47-C ) :   1.0139
B( 45-C , 46-C ) :   1.1260 B( 45-C , 84-H ) :   0.9385 B( 45-C , 85-H ) :   0.9316
B( 46-C , 86-H ) :   0.9545 B( 46-C , 87-H ) :   0.9556 B( 46-C , 88-H ) :   0.9606
B( 47-C , 48-C ) :   1.1166 B( 47-C , 89-H ) :   0.9361 B( 47-C , 90-H ) :   0.9397
B( 48-C , 91-H ) :   0.9591 B( 48-C , 92-H ) :   0.9568 B( 48-C , 93-H ) :   0.9622
B( 49-C , 50-C ) :   1.2928 B( 49-C , 94-H ) :   1.0088 B( 50-C , 51-C ) :   1.3440
B( 50-C , 53-C ) :   1.0437 B( 51-C , 52-C ) :   1.4070 B( 51-C , 95-H ) :   0.9852
B( 52-C , 96-H ) :   0.9904 B( 53-C , 54-C ) :   1.7290 B( 53-C , 97-H ) :   0.9871
B( 54-C , 55-C ) :   1.0938 B( 54-C , 98-H ) :   0.9651 B( 55-C , 56-C ) :   1.7752
B( 55-C , 99-H ) :   0.9730 B( 56-C , 57-C ) :   1.0777 B( 56-C , 58-C ) :   1.0391
B( 57-C ,100-H ) :   0.9537 B( 57-C ,101-H ) :   0.9466 B( 57-C ,102-H ) :   0.9453
B( 58-C , 59-N ) :   0.9870 B( 58-C ,103-H ) :   0.9334 B( 58-C ,104-H ) :   0.9289
B( 59-N , 60-C ) :   1.2185 B( 59-N ,105-H ) :   0.9379 B( 60-C , 61-C ) :   1.6093
B( 60-C ,106-H ) :   0.9640 B( 61-C , 62-C ) :   1.1989 B( 61-C ,107-H ) :   0.9567
B( 62-C , 63-S ) :   1.1578 B( 62-C , 64-C ) :   0.1042 B( 62-C , 66-C ) :   1.3242
B( 63-S , 64-C ) :   1.1014 B( 64-C , 65-C ) :   1.3950 B( 64-C , 74-C ) :   1.1171
B( 65-C , 66-C ) :   1.1946 B( 65-C , 73-C ) :   1.1679 B( 66-C , 67-C ) :   1.1904
B( 67-C , 68-C ) :   1.5204 B( 67-C ,108-H ) :   0.9917 B( 68-C , 69-C ) :   1.0314
B( 68-C , 71-C ) :   1.1914 B( 69-C , 70-C ) :   1.9739 B( 69-C ,109-H ) :   0.9513
B( 70-C ,110-H ) :   0.9563 B( 70-C ,111-H ) :   0.9497 B( 71-C , 72-C ) :   1.0879
B( 71-C , 73-C ) :   1.5656 B( 72-C ,112-H ) :   0.9434 B( 72-C ,113-H ) :   0.9410
B( 72-C ,114-H ) :   0.9540 B( 73-C ,115-H ) :   0.9910 B( 74-C , 75-C ) :   1.9164
B( 74-C ,116-H ) :   0.9467 B( 75-C ,117-H ) :   0.9580 B( 75-C ,118-H ) :   0.9468

-----------------------------------------------------------------------------
         ABSORPTION SPECTRUM VIA TRANSITION ELECTRIC DIPOLE MOMENTS
-----------------------------------------------------------------------------
State   Energy  Wavelength   fosc         T2         TX        TY        TZ
        (cm-1)    (nm)                  (au**2)     (au)      (au)      (au)
-----------------------------------------------------------------------------
   0    9382.6   1065.8   0.003480262   0.12211  -0.13972   0.32027   0.00420
   1   13081.2    764.5   0.710095222  17.87087   1.15208  -4.04710  -0.40565
   2   19068.0    524.4   0.004755133   0.08210   0.17437   0.21942  -0.05957
   3   20631.9    484.7   0.000205539   0.00328   0.01095   0.05615  -0.00274
   4   21665.1    461.6   0.570768592   8.67310   1.81818  -2.29882   0.28769
   5   22343.5    447.6   0.052322492   0.77093   0.40809   0.76952   0.11057
   6   22819.3    438.2   0.009378432   0.13530   0.05744   0.20924  -0.29702
   7   23341.3    428.4   0.024120569   0.34020  -0.27732   0.50047  -0.11328
   8   23814.4    419.9   0.320979777   4.43724   0.01645  -2.09354   0.23252
   9   23951.6    417.5   0.000886959   0.01219   0.07840   0.07744  -0.00686
  10   25233.6    396.3   0.024245297   0.31632   0.22924  -0.48216   0.17689
  11   25643.3    390.0   0.000047244   0.00061  -0.01735   0.01702  -0.00399
  12   25994.6    384.7   0.048729627   0.61714  -0.55165  -0.49106   0.26774
  13   26468.1    377.8   0.000135382   0.00168  -0.01916  -0.03308   0.01493
  14   27117.8    368.8   0.013785751   0.16736   0.15924   0.32297  -0.19414
  15   27266.6    366.7   0.024680702   0.29799   0.16822   0.46954  -0.22186
  16   27656.5    361.6   0.000171940   0.00205  -0.04040  -0.01961   0.00546
  17   27889.3    358.6   0.091963381   1.08556  -0.30076   0.91347  -0.40084
  18   28666.8    348.8   0.012003375   0.13785   0.30977   0.04917  -0.19868
  19   28985.8    345.0   0.238534242   2.70920   0.25567   1.62216  -0.11156
  20   29770.5    335.9   0.019186655   0.21217   0.38690   0.17620   0.17729
  21   29969.9    333.7   0.018365587   0.20174  -0.39108  -0.21563   0.04801
  22   30089.3    332.3   0.232016426   2.53853   1.33239   0.80795  -0.33241
  23   30354.9    329.4   0.242937093   2.63476   0.16539  -1.35394  -0.87991
  24   30447.2    328.4   0.026130187   0.28253  -0.36853   0.07291   0.37603
  25   30602.0    326.8   0.171090658   1.84057   0.00017   1.31762   0.32319
  26   31675.5    315.7   0.455145404   4.73045   1.83545  -0.02292  -1.16664
  27   32106.6    311.5   0.290063944   2.97423  -0.07718   1.57473   0.69894
  28   32523.6    307.5   0.260655825   2.63842  -1.11906   1.11551   0.37654
  29   32845.5    304.5   0.276936989   2.77575   0.29592  -1.61598   0.27713
  30   33434.4    299.1   0.049050979   0.48298   0.60537   0.34055  -0.02313
  31   33520.8    298.3   0.000422547   0.00415   0.02943   0.05293  -0.02195
  32   33752.1    296.3   0.703505765   6.86187   0.67216  -2.30716   1.04263
  33   35060.1    285.2   0.449598058   4.22169   1.99845   0.46043  -0.12610
  34   35469.0    281.9   0.077828053   0.72238   0.21545   0.76515   0.30085
  35   35863.1    278.8   0.127015226   1.16596   0.50895   0.83178   0.46376
  36   36134.7    276.7   0.228320823   2.08016   0.48030   0.86437  -1.04992
  37   36381.4    274.9   0.378272781   3.42295  -1.05863  -0.36297   1.47326
  38   37116.8    269.4   0.011711060   0.10387   0.11663   0.09931  -0.28356
  39   37241.0    268.5   0.009060503   0.08010  -0.18898  -0.10344   0.18353
  40   37482.1    266.8   0.114261245   1.00358   0.73625   0.51157   0.44700
  41   37608.0    265.9   0.000003551   0.00003  -0.00149  -0.00312   0.00438
  42   37933.5    263.6   0.010151007   0.08810   0.12071   0.24273  -0.12086
  43   38198.9    261.8   0.432514723   3.72757  -1.35710  -1.10654  -0.81329
  44   38268.0    261.3   0.025858539   0.22246   0.14335   0.39926  -0.20615
  45   38510.1    259.7   0.010100380   0.08635  -0.14342  -0.09409   0.23859
  46   38662.2    258.7   0.017583818   0.14973  -0.09857   0.29386   0.23165
  47   38702.6    258.4   0.003392883   0.02886  -0.15300   0.07021   0.02282
  48   39088.3    255.8   0.041529472   0.34977   0.05689   0.58411  -0.07317
  49   39301.6    254.4   0.004590699   0.03845  -0.10531   0.03363   0.16196
  50   39386.2    253.9   0.003644304   0.03046  -0.04444   0.16817  -0.01436
  51   39592.6    252.6   0.042179899   0.35073  -0.02327  -0.53724   0.24811
  52   39699.9    251.9   0.135179144   1.12097  -1.01167  -0.15936  -0.26852
  53   40115.6    249.3   0.131782031   1.08148  -0.55339   0.87048  -0.13230
  54   40214.2    248.7   0.205008583   1.67830  -1.17376  -0.08468  -0.54168

FINAL SINGLE POINT ENERGY     -4184.805969197608

DIPOLE MOMENT
-------------
                                X             Y             Z
Electronic contribution:     92.18941    -194.18558      17.40008
Nuclear contribution   :    -95.11294     193.24125     -15.33166
                        -----------------------------------------
Total Dipole Moment    :     -2.92353      -0.94433       2.06842
                        -----------------------------------------
Magnitude (a.u.)       :      3.70367
Magnitude (Debye)      :      9.41397

Rotational constants in cm-1:     0.001787     0.000155     0.000149
Rotational constants in MHz :    53.580644     4.645562     4.480332

                             ****ORCA TERMINATED NORMALLY****
TOTAL RUN TIME: 0 days 0 hours 11 minutes 20 seconds 343 msec
