                         Program Version 4.2.0 -  RELEASE  -
|  1> # ORCA input file
|  2> # SCF done       -204.042365656428          0.000976885060
|  3> ! CAM-B3LYP def2-SVP def2/J RIJCOSX Grid4 TightSCF
|  4> %maxcore 5000
|  5> %tddft
|  6>     Mode sTDDFT
|  7>     Ethresh 5.0
|  8>     maxcore 5000
|  9> end
| 10>
| 11> %pal
| 12>   nprocs 6
| 13>   end
| 14> * xyz 0 1
| 15>    C       -0.85929         0.75227        -0.27645
| 16>    C       -0.95913        -0.25312         0.65107
| 17>    C        0.01975        -1.24858         0.84645
| 18>    N        0.78872        -2.07573         1.05157
| 19>    C       -2.05910        -0.42381         1.51709
| 20>    N       -2.92770        -0.61905         2.24211
| 21>    C        0.22878         0.94339        -1.22711
| 22>    C       -0.07417         2.05959        -2.04537
| 23>    C        0.79444         2.53585        -2.99711
| 24>    C        2.00227         1.85499        -3.17911
| 25>    C        2.27739         0.71376        -2.38654
| 26>    C        1.41193         0.25039        -1.40268
| 27>    S        3.81165         0.00977        -2.79124
| 28>    C        4.06254         1.23968        -4.00127
| 29>    C        3.04980         2.13576        -4.09728
| 30>   Br        5.62241         1.21358        -5.03743
| 31>    C       -1.40413         2.58851        -1.69065
| 32>    O       -1.94046         3.56754        -2.16170
| 33>    C       -1.86021         1.76156        -0.54021
| 34>    C       -2.93563         2.09271         0.23705
| 35>    C       -4.02521         2.85883        -0.24056
| 36>    S       -4.89694         3.97701         0.75870
| 37>    C       -6.00000         4.37413        -0.53009
| 38>    C       -5.71554         3.61091        -1.66662
| 39>    C       -4.61482         2.76003        -1.50485
| 40>    C       -4.20829         1.73423        -2.37830
| 41>    N       -3.88304         0.80112        -2.96022
| 42>    C       -6.55435         3.68210        -2.90189
| 43>    F       -7.87701         3.64108        -2.60859
| 44>    F       -6.38715         4.83504        -3.58168
| 45>    F       -6.34798         2.68729        -3.75872
| 46>    C       -7.00201         5.35157        -0.38454
| 47>    C       -7.37955         5.89520         0.81503
| 48>    C       -8.32068         6.91673         1.00808
| 49>    C       -8.83515         7.78243         0.06476
| 50>    C       -9.78416         8.80824         0.30637
| 51>    C      -10.05566         9.59967        -0.77145
| 52>    C       -9.32636         9.24707        -1.92485
| 53>    S       -8.31793         7.85312        -1.60168
| 54>    C       -9.28080         9.83373        -3.17594
| 55>    C       -9.97762        10.94187        -3.70547
| 56>    C       -9.63111        11.26254        -4.98517
| 57>    C       -8.63183        10.42579        -5.53993
| 58>    S       -8.17551         9.18988        -4.36311
| 59>    C       -8.01448        10.47908        -6.75889
| 60>    N       -7.04464         9.58236        -7.06169
| 61>    C       -6.27113         9.47279        -8.15927
| 62>    S       -6.41310        10.54324        -9.51113
| 63>    C       -5.10444         9.69797       -10.28643
| 64>    N       -4.73395        10.14942       -11.55741
| 65>    O       -3.83559         9.56579       -12.13188
| 66>    O       -5.35864        11.10368       -11.99284
| 67>    C       -4.59461         8.66810        -9.54591
| 68>    C       -5.25423         8.50559        -8.31161
| 69>    C       -4.97230         7.51491        -7.32146
| 70>    C       -3.92792         6.65202        -7.31325
| 71>    C       -3.77502         5.72162        -6.25421
| 72>    C       -2.72683         4.89651        -5.99408
| 73>    C       -1.38788         4.80839        -6.53318
| 74>    C       -0.62258         5.84861        -6.99360
| 75>    C        0.73079         5.70868        -7.36433
| 76>    N        1.83601         5.63441        -7.66397
| 77>    C       -1.05373         7.19103        -7.02396
| 78>    N       -1.34525         8.30134        -7.03273
| 79>    C       -0.90557         3.45789        -6.26248
| 80>    C       -1.81187         2.81562        -5.37876
| 81>    C       -2.92875         3.73330        -5.08198
| 82>    O       -3.84128         3.59018        -4.30433
| 83>    C       -1.60712         1.53644        -4.92208
| 84>    C       -0.45131         0.87033        -5.34233
| 85>    C        0.43241         1.50962        -6.24307
| 86>    C        0.22185         2.79911        -6.71571
| 87>    S        1.78313         0.49235        -6.64244
| 88>    C        1.17311        -0.74418        -5.57306
| 89>    C        0.00395        -0.42403        -4.97001
| 90>   Br        2.15030        -2.32834        -5.34355
| 91>    H        0.55129         3.40666        -3.58562
| 92>    H        1.67648        -0.60822        -0.80815
| 93>    H        3.04116         2.95935        -4.78828
| 94>    H       -2.97470         1.78068         1.27310
| 95>    H       -7.51881         5.63534        -1.28825
| 96>    H       -6.93522         5.47945         1.71194
| 97>    H       -8.65580         7.08338         2.02361
| 98>    H      -10.23375         8.93276         1.27569
| 99>    H      -10.74087        10.42829        -0.75982
|100>    H      -10.71184        11.47242        -3.12641
|101>    H      -10.05416        12.07758        -5.54425
|102>    H       -8.26184        11.22486        -7.49804
|103>    H       -6.84778         8.90717        -6.32717
|104>    H       -3.78030         8.06101        -9.89511
|105>    H       -5.64564         7.46006        -6.47396
|106>    H       -3.20678         6.65619        -8.11514
|107>    H       -4.62678         5.59037        -5.59343
|108>    H       -2.31795         1.06282        -4.26122
|109>    H        0.91356         3.24488        -7.41166
|110>    H       -0.51845        -1.06758        -4.28615
|111> *
|112>
|113>                          ****END OF INPUT****

CARTESIAN COORDINATES (ANGSTROEM)
---------------------------------
  C     -0.859290    0.752270   -0.276450
  C     -0.959130   -0.253120    0.651070
  C      0.019750   -1.248580    0.846450
  N      0.788720   -2.075730    1.051570
  C     -2.059100   -0.423810    1.517090
  N     -2.927700   -0.619050    2.242110
  C      0.228780    0.943390   -1.227110
  C     -0.074170    2.059590   -2.045370
  C      0.794440    2.535850   -2.997110
  C      2.002270    1.854990   -3.179110
  C      2.277390    0.713760   -2.386540
  C      1.411930    0.250390   -1.402680
  S      3.811650    0.009770   -2.791240
  C      4.062540    1.239680   -4.001270
  C      3.049800    2.135760   -4.097280
  Br     5.622410    1.213580   -5.037430
  C     -1.404130    2.588510   -1.690650
  O     -1.940460    3.567540   -2.161700
  C     -1.860210    1.761560   -0.540210
  C     -2.935630    2.092710    0.237050
  C     -4.025210    2.858830   -0.240560
  S     -4.896940    3.977010    0.758700
  C     -6.000000    4.374130   -0.530090
  C     -5.715540    3.610910   -1.666620
  C     -4.614820    2.760030   -1.504850
  C     -4.208290    1.734230   -2.378300
  N     -3.883040    0.801120   -2.960220
  C     -6.554350    3.682100   -2.901890
  F     -7.877010    3.641080   -2.608590
  F     -6.387150    4.835040   -3.581680
  F     -6.347980    2.687290   -3.758720
  C     -7.002010    5.351570   -0.384540
  C     -7.379550    5.895200    0.815030
  C     -8.320680    6.916730    1.008080
  C     -8.835150    7.782430    0.064760
  C     -9.784160    8.808240    0.306370
  C    -10.055660    9.599670   -0.771450
  C     -9.326360    9.247070   -1.924850
  S     -8.317930    7.853120   -1.601680
  C     -9.280800    9.833730   -3.175940
  C     -9.977620   10.941870   -3.705470
  C     -9.631110   11.262540   -4.985170
  C     -8.631830   10.425790   -5.539930
  S     -8.175510    9.189880   -4.363110
  C     -8.014480   10.479080   -6.758890
  N     -7.044640    9.582360   -7.061690
  C     -6.271130    9.472790   -8.159270
  S     -6.413100   10.543240   -9.511130
  C     -5.104440    9.697970  -10.286430
  N     -4.733950   10.149420  -11.557410
  O     -3.835590    9.565790  -12.131880
  O     -5.358640   11.103680  -11.992840
  C     -4.594610    8.668100   -9.545910
  C     -5.254230    8.505590   -8.311610
  C     -4.972300    7.514910   -7.321460
  C     -3.927920    6.652020   -7.313250
  C     -3.775020    5.721620   -6.254210
  C     -2.726830    4.896510   -5.994080
  C     -1.387880    4.808390   -6.533180
  C     -0.622580    5.848610   -6.993600
  C      0.730790    5.708680   -7.364330
  N      1.836010    5.634410   -7.663970
  C     -1.053730    7.191030   -7.023960
  N     -1.345250    8.301340   -7.032730
  C     -0.905570    3.457890   -6.262480
  C     -1.811870    2.815620   -5.378760
  C     -2.928750    3.733300   -5.081980
  O     -3.841280    3.590180   -4.304330
  C     -1.607120    1.536440   -4.922080
  C     -0.451310    0.870330   -5.342330
  C      0.432410    1.509620   -6.243070
  C      0.221850    2.799110   -6.715710
  S      1.783130    0.492350   -6.642440
  C      1.173110   -0.744180   -5.573060
  C      0.003950   -0.424030   -4.970010
  Br     2.150300   -2.328340   -5.343550
  H      0.551290    3.406660   -3.585620
  H      1.676480   -0.608220   -0.808150
  H      3.041160    2.959350   -4.788280
  H     -2.974700    1.780680    1.273100
  H     -7.518810    5.635340   -1.288250
  H     -6.935220    5.479450    1.711940
  H     -8.655800    7.083380    2.023610
  H    -10.233750    8.932760    1.275690
  H    -10.740870   10.428290   -0.759820
  H    -10.711840   11.472420   -3.126410
  H    -10.054160   12.077580   -5.544250
  H     -8.261840   11.224860   -7.498040
  H     -6.847780    8.907170   -6.327170
  H     -3.780300    8.061010   -9.895110
  H     -5.645640    7.460060   -6.473960
  H     -3.206780    6.656190   -8.115140
  H     -4.626780    5.590370   -5.593430
  H     -2.317950    1.062820   -4.261220
  H      0.913560    3.244880   -7.411660
  H     -0.518450   -1.067580   -4.286150

 Total Charge           Charge          ....    0
 Multiplicity           Mult            ....    1
 Number of Electrons    NEL             ....  618
 Basis Dimension        Dim             .... 1224

ORBITAL ENERGIES
----------------

  NO   OCC          E(Eh)            E(eV)
   0   2.0000    -482.883392    -13139.9251
   1   2.0000    -482.882555    -13139.9023
   2   2.0000     -88.998092     -2421.7612
   3   2.0000     -88.985794     -2421.4266
   4   2.0000     -88.975070     -2421.1347
   5   2.0000     -88.973992     -2421.1054
   6   2.0000     -88.973436     -2421.0903
   7   2.0000     -88.964959     -2420.8596
   8   2.0000     -62.561125     -1702.3748
   9   2.0000     -62.560152     -1702.3483
  10   2.0000     -56.395070     -1534.5879
  11   2.0000     -56.394116     -1534.5619
  12   2.0000     -56.392361     -1534.5142
  13   2.0000     -56.392346     -1534.5137
  14   2.0000     -56.391423     -1534.4886
  15   2.0000     -56.391331     -1534.4861
  16   2.0000     -24.801267      -674.8768
  17   2.0000     -24.798454      -674.8002
  18   2.0000     -24.794423      -674.6906
  19   2.0000     -19.242024      -523.6021
  20   2.0000     -19.241978      -523.6009
  21   2.0000     -19.219219      -522.9815
  22   2.0000     -19.213423      -522.8238
  23   2.0000     -14.653991      -398.7554
  24   2.0000     -14.510341      -394.8465
  25   2.0000     -14.418351      -392.3433
  26   2.0000     -14.416734      -392.2993
  27   2.0000     -14.416349      -392.2888
  28   2.0000     -14.416218      -392.2852
  29   2.0000     -14.410117      -392.1192
  30   2.0000     -10.523081      -286.3476
  31   2.0000     -10.387710      -282.6640
  32   2.0000     -10.370514      -282.1960
  33   2.0000     -10.364636      -282.0361
  34   2.0000     -10.362345      -281.9737
  35   2.0000     -10.356312      -281.8096
  36   2.0000     -10.356096      -281.8037
  37   2.0000     -10.351403      -281.6760
  38   2.0000     -10.345384      -281.5122
  39   2.0000     -10.344417      -281.4859
  40   2.0000     -10.343547      -281.4622
  41   2.0000     -10.342509      -281.4340
  42   2.0000     -10.340994      -281.3928
  43   2.0000     -10.340838      -281.3885
  44   2.0000     -10.335667      -281.2478
  45   2.0000     -10.333734      -281.1952
  46   2.0000     -10.333733      -281.1952
  47   2.0000     -10.328428      -281.0508
  48   2.0000     -10.326998      -281.0119
  49   2.0000     -10.326201      -280.9902
  50   2.0000     -10.325939      -280.9831
  51   2.0000     -10.323900      -280.9276
  52   2.0000     -10.321062      -280.8504
  53   2.0000     -10.320605      -280.8379
  54   2.0000     -10.319984      -280.8210
  55   2.0000     -10.319252      -280.8011
  56   2.0000     -10.318982      -280.7938
  57   2.0000     -10.318848      -280.7901
  58   2.0000     -10.317057      -280.7414
  59   2.0000     -10.316401      -280.7235
  60   2.0000     -10.315197      -280.6908
  61   2.0000     -10.314382      -280.6686
  62   2.0000     -10.313488      -280.6443
  63   2.0000     -10.310567      -280.5648
  64   2.0000     -10.309649      -280.5398
  65   2.0000     -10.308250      -280.5017
  66   2.0000     -10.307162      -280.4721
  67   2.0000     -10.307021      -280.4683
  68   2.0000     -10.305971      -280.4397
  69   2.0000     -10.305727      -280.4331
  70   2.0000     -10.305364      -280.4232
  71   2.0000     -10.302946      -280.3574
  72   2.0000     -10.301589      -280.3205
  73   2.0000     -10.301489      -280.3178
  74   2.0000     -10.299998      -280.2772
  75   2.0000     -10.299250      -280.2568
  76   2.0000     -10.295728      -280.1610
  77   2.0000     -10.294688      -280.1327
  78   2.0000     -10.293626      -280.1038
  79   2.0000     -10.293222      -280.0928
  80   2.0000     -10.292836      -280.0823
  81   2.0000     -10.291898      -280.0568
  82   2.0000     -10.289959      -280.0040
  83   2.0000     -10.289407      -279.9890
  84   2.0000      -8.790543      -239.2028
  85   2.0000      -8.789520      -239.1750
  86   2.0000      -8.093578      -220.2375
  87   2.0000      -8.081398      -219.9060
  88   2.0000      -8.070794      -219.6175
  89   2.0000      -8.070105      -219.5987
  90   2.0000      -8.069280      -219.5763
  91   2.0000      -8.060955      -219.3497
  92   2.0000      -6.626825      -180.3251
  93   2.0000      -6.625833      -180.2981
  94   2.0000      -6.612330      -179.9307
  95   2.0000      -6.612040      -179.9228
  96   2.0000      -6.611237      -179.9009
  97   2.0000      -6.611051      -179.8958
  98   2.0000      -6.063334      -164.9917
  99   2.0000      -6.058888      -164.8707
 100   2.0000      -6.054863      -164.7612
 101   2.0000      -6.050626      -164.6459
 102   2.0000      -6.046528      -164.5344
 103   2.0000      -6.043492      -164.4518
 104   2.0000      -6.040469      -164.3695
 105   2.0000      -6.039919      -164.3546
 106   2.0000      -6.039033      -164.3304
 107   2.0000      -6.036213      -164.2537
 108   2.0000      -6.035929      -164.2460
 109   2.0000      -6.034728      -164.2133
 110   2.0000      -6.032072      -164.1410
 111   2.0000      -6.030787      -164.1061
 112   2.0000      -6.030611      -164.1013
 113   2.0000      -6.030525      -164.0989
 114   2.0000      -6.026514      -163.9898
 115   2.0000      -6.022068      -163.8688
 116   2.0000      -2.742713       -74.6330
 117   2.0000      -2.741679       -74.6049
 118   2.0000      -2.738642       -74.5222
 119   2.0000      -2.738435       -74.5166
 120   2.0000      -2.737557       -74.4927
 121   2.0000      -2.737532       -74.4920
 122   2.0000      -2.726925       -74.2034
 123   2.0000      -2.726895       -74.2026
 124   2.0000      -2.725866       -74.1746
 125   2.0000      -2.725857       -74.1743
 126   2.0000      -1.388846       -37.7924
 127   2.0000      -1.323234       -36.0070
 128   2.0000      -1.293732       -35.2042
 129   2.0000      -1.284447       -34.9516
 130   2.0000      -1.142819       -31.0977
 131   2.0000      -1.135565       -30.9003
 132   2.0000      -1.129448       -30.7339
 133   2.0000      -1.118521       -30.4365
 134   2.0000      -1.026854       -27.9421
 135   2.0000      -1.023950       -27.8631
 136   2.0000      -1.023427       -27.8489
 137   2.0000      -1.021700       -27.8019
 138   2.0000      -1.014363       -27.6022
 139   2.0000      -1.013945       -27.5908
 140   2.0000      -1.011749       -27.5311
 141   2.0000      -0.996256       -27.1095
 142   2.0000      -0.995192       -27.0805
 143   2.0000      -0.993905       -27.0455
 144   2.0000      -0.992433       -27.0055
 145   2.0000      -0.990808       -26.9613
 146   2.0000      -0.988947       -26.9106
 147   2.0000      -0.946963       -25.7682
 148   2.0000      -0.945234       -25.7211
 149   2.0000      -0.936258       -25.4769
 150   2.0000      -0.932264       -25.3682
 151   2.0000      -0.919080       -25.0094
 152   2.0000      -0.911185       -24.7946
 153   2.0000      -0.908444       -24.7200
 154   2.0000      -0.907479       -24.6938
 155   2.0000      -0.897695       -24.4275
 156   2.0000      -0.890607       -24.2346
 157   2.0000      -0.886008       -24.1095
 158   2.0000      -0.885837       -24.1048
 159   2.0000      -0.882899       -24.0249
 160   2.0000      -0.877452       -23.8767
 161   2.0000      -0.871143       -23.7050
 162   2.0000      -0.868117       -23.6227
 163   2.0000      -0.853834       -23.2340
 164   2.0000      -0.843294       -22.9472
 165   2.0000      -0.837956       -22.8019
 166   2.0000      -0.832532       -22.6544
 167   2.0000      -0.828689       -22.5498
 168   2.0000      -0.825653       -22.4672
 169   2.0000      -0.816127       -22.2079
 170   2.0000      -0.793517       -21.5927
 171   2.0000      -0.787395       -21.4261
 172   2.0000      -0.776044       -21.1172
 173   2.0000      -0.764838       -20.8123
 174   2.0000      -0.760369       -20.6907
 175   2.0000      -0.757069       -20.6009
 176   2.0000      -0.748474       -20.3670
 177   2.0000      -0.738463       -20.0946
 178   2.0000      -0.724041       -19.7022
 179   2.0000      -0.721603       -19.6358
 180   2.0000      -0.706841       -19.2341
 181   2.0000      -0.702880       -19.1263
 182   2.0000      -0.698775       -19.0146
 183   2.0000      -0.693536       -18.8721
 184   2.0000      -0.692519       -18.8444
 185   2.0000      -0.689183       -18.7536
 186   2.0000      -0.684908       -18.6373
 187   2.0000      -0.676648       -18.4125
 188   2.0000      -0.673083       -18.3155
 189   2.0000      -0.670617       -18.2484
 190   2.0000      -0.667502       -18.1636
 191   2.0000      -0.665378       -18.1059
 192   2.0000      -0.657905       -17.9025
 193   2.0000      -0.656334       -17.8597
 194   2.0000      -0.645740       -17.5715
 195   2.0000      -0.644022       -17.5247
 196   2.0000      -0.641410       -17.4537
 197   2.0000      -0.637617       -17.3504
 198   2.0000      -0.637274       -17.3411
 199   2.0000      -0.635270       -17.2866
 200   2.0000      -0.624597       -16.9961
 201   2.0000      -0.622826       -16.9480
 202   2.0000      -0.615241       -16.7416
 203   2.0000      -0.611629       -16.6433
 204   2.0000      -0.602547       -16.3961
 205   2.0000      -0.599631       -16.3168
 206   2.0000      -0.598270       -16.2798
 207   2.0000      -0.596618       -16.2348
 208   2.0000      -0.594245       -16.1702
 209   2.0000      -0.584405       -15.9025
 210   2.0000      -0.579623       -15.7723
 211   2.0000      -0.577265       -15.7082
 212   2.0000      -0.572553       -15.5800
 213   2.0000      -0.562018       -15.2933
 214   2.0000      -0.560000       -15.2384
 215   2.0000      -0.558320       -15.1927
 216   2.0000      -0.554539       -15.0898
 217   2.0000      -0.553354       -15.0575
 218   2.0000      -0.551840       -15.0163
 219   2.0000      -0.550759       -14.9869
 220   2.0000      -0.548494       -14.9253
 221   2.0000      -0.545234       -14.8366
 222   2.0000      -0.541249       -14.7281
 223   2.0000      -0.539388       -14.6775
 224   2.0000      -0.535267       -14.5653
 225   2.0000      -0.533792       -14.5252
 226   2.0000      -0.527870       -14.3641
 227   2.0000      -0.526906       -14.3379
 228   2.0000      -0.525415       -14.2973
 229   2.0000      -0.524568       -14.2742
 230   2.0000      -0.519325       -14.1316
 231   2.0000      -0.518918       -14.1205
 232   2.0000      -0.516818       -14.0633
 233   2.0000      -0.513464       -13.9721
 234   2.0000      -0.511547       -13.9199
 235   2.0000      -0.510001       -13.8778
 236   2.0000      -0.506759       -13.7896
 237   2.0000      -0.502900       -13.6846
 238   2.0000      -0.501718       -13.6524
 239   2.0000      -0.499230       -13.5847
 240   2.0000      -0.498258       -13.5583
 241   2.0000      -0.497007       -13.5243
 242   2.0000      -0.495249       -13.4764
 243   2.0000      -0.493028       -13.4160
 244   2.0000      -0.491931       -13.3861
 245   2.0000      -0.490541       -13.3483
 246   2.0000      -0.488243       -13.2858
 247   2.0000      -0.484226       -13.1765
 248   2.0000      -0.482542       -13.1306
 249   2.0000      -0.481708       -13.1079
 250   2.0000      -0.478440       -13.0190
 251   2.0000      -0.476095       -12.9552
 252   2.0000      -0.473239       -12.8775
 253   2.0000      -0.468652       -12.7527
 254   2.0000      -0.466457       -12.6929
 255   2.0000      -0.461774       -12.5655
 256   2.0000      -0.459207       -12.4957
 257   2.0000      -0.458997       -12.4899
 258   2.0000      -0.455200       -12.3866
 259   2.0000      -0.454326       -12.3628
 260   2.0000      -0.451378       -12.2826
 261   2.0000      -0.451063       -12.2741
 262   2.0000      -0.449813       -12.2400
 263   2.0000      -0.448277       -12.1982
 264   2.0000      -0.445466       -12.1217
 265   2.0000      -0.444176       -12.0866
 266   2.0000      -0.443711       -12.0740
 267   2.0000      -0.442494       -12.0409
 268   2.0000      -0.440170       -11.9776
 269   2.0000      -0.439132       -11.9494
 270   2.0000      -0.435957       -11.8630
 271   2.0000      -0.430583       -11.7168
 272   2.0000      -0.428309       -11.6549
 273   2.0000      -0.427906       -11.6439
 274   2.0000      -0.425342       -11.5741
 275   2.0000      -0.423541       -11.5251
 276   2.0000      -0.418023       -11.3750
 277   2.0000      -0.416212       -11.3257
 278   2.0000      -0.414394       -11.2762
 279   2.0000      -0.413839       -11.2611
 280   2.0000      -0.411284       -11.1916
 281   2.0000      -0.408503       -11.1159
 282   2.0000      -0.405424       -11.0321
 283   2.0000      -0.394788       -10.7427
 284   2.0000      -0.389731       -10.6051
 285   2.0000      -0.388364       -10.5679
 286   2.0000      -0.384290       -10.4571
 287   2.0000      -0.381390       -10.3781
 288   2.0000      -0.374101       -10.1798
 289   2.0000      -0.372281       -10.1303
 290   2.0000      -0.371768       -10.1163
 291   2.0000      -0.370859       -10.0916
 292   2.0000      -0.369122       -10.0443
 293   2.0000      -0.362936        -9.8760
 294   2.0000      -0.357290        -9.7224
 295   2.0000      -0.353074        -9.6076
 296   2.0000      -0.350458        -9.5364
 297   2.0000      -0.342997        -9.3334
 298   2.0000      -0.341274        -9.2865
 299   2.0000      -0.335942        -9.1414
 300   2.0000      -0.330534        -8.9943
 301   2.0000      -0.317169        -8.6306
 302   2.0000      -0.314470        -8.5572
 303   2.0000      -0.313725        -8.5369
 304   2.0000      -0.293789        -7.9944
 305   2.0000      -0.289866        -7.8876
 306   2.0000      -0.289264        -7.8713
 307   2.0000      -0.273214        -7.4345
 308   2.0000      -0.228591        -6.2203
 309   0.0000      -0.114523        -3.1163
 310   0.0000      -0.094336        -2.5670
 311   0.0000      -0.086650        -2.3579
 312   0.0000      -0.066093        -1.7985
 313   0.0000      -0.058404        -1.5893

MULLIKEN ATOMIC CHARGES
-----------------------
   0 C :    0.293862
   1 C :   -0.332436
   2 C :   -0.186710
   3 N :    0.153930
   4 C :   -0.204850
   5 N :    0.162486
   6 C :    0.032951
   7 C :   -0.021438
   8 C :   -0.053700
   9 C :    0.100826
  10 C :   -0.077060
  11 C :   -0.039533
  12 S :    0.189384
  13 C :   -0.134558
  14 C :    0.054780
  15 Br:    0.028952
  16 C :    0.137253
  17 O :   -0.139413
  18 C :   -0.117100
  19 C :    0.033501
  20 C :   -0.103915
  21 S :    0.172828
  22 C :   -0.097359
  23 C :   -0.046809
  24 C :    0.036766
  25 C :   -0.163094
  26 N :    0.108753
  27 C :    0.537960
  28 F :   -0.175580
  29 F :   -0.168047
  30 F :   -0.132442
  31 C :   -0.020846
  32 C :    0.017241
  33 C :   -0.010231
  34 C :   -0.014962
  35 C :    0.033626
  36 C :    0.037326
  37 C :   -0.048804
  38 S :    0.069434
  39 C :   -0.023676
  40 C :    0.026838
  41 C :    0.055361
  42 C :   -0.051952
  43 S :    0.021594
  44 C :    0.053426
  45 N :   -0.026162
  46 C :   -0.105191
  47 S :    0.167507
  48 C :   -0.007705
  49 N :    0.279330
  50 O :   -0.242896
  51 O :   -0.267963
  52 C :    0.028493
  53 C :    0.134581
  54 C :   -0.037145
  55 C :    0.024514
  56 C :    0.008583
  57 C :   -0.099987
  58 C :    0.267628
  59 C :   -0.331434
  60 C :   -0.183859
  61 N :    0.152956
  62 C :   -0.211940
  63 N :    0.163848
  64 C :    0.001181
  65 C :    0.009334
  66 C :    0.176380
  67 O :   -0.149573
  68 C :   -0.058226
  69 C :    0.134189
  70 C :   -0.111241
  71 C :   -0.043572
  72 S :    0.179074
  73 C :   -0.129697
  74 C :    0.044373
  75 Br:    0.025759
  76 H :   -0.013384
  77 H :   -0.007667
  78 H :    0.002207
  79 H :    0.042061
  80 H :    0.029245
  81 H :   -0.000136
  82 H :   -0.008960
  83 H :   -0.006777
  84 H :   -0.006317
  85 H :   -0.003651
  86 H :   -0.000162
  87 H :    0.032534
  88 H :    0.161626
  89 H :    0.018754
  90 H :   -0.010834
  91 H :    0.018256
  92 H :    0.009708
  93 H :   -0.041639
  94 H :   -0.005116
  95 H :    0.004552
Sum of atomic charges:   -0.0000000

LOEWDIN ATOMIC CHARGES
----------------------
   0 C :    0.072838
   1 C :   -0.135390
   2 C :   -0.018612
   3 N :   -0.050408
   4 C :   -0.022338
   5 N :   -0.049462
   6 C :   -0.020535
   7 C :   -0.052171
   8 C :    0.027970
   9 C :   -0.033957
  10 C :   -0.141759
  11 C :   -0.012529
  12 S :    0.438068
  13 C :   -0.275843
  14 C :   -0.073829
  15 Br:    0.140822
  16 C :    0.082928
  17 O :   -0.134483
  18 C :   -0.079008
  19 C :    0.042333
  20 C :   -0.159407
  21 S :    0.480823
  22 C :   -0.117214
  23 C :   -0.101056
  24 C :   -0.043906
  25 C :   -0.000135
  26 N :   -0.063454
  27 C :    0.174830
  28 F :   -0.071735
  29 F :   -0.067035
  30 F :   -0.025708
  31 C :   -0.076326
  32 C :   -0.007623
  33 C :   -0.074781
  34 C :   -0.124912
  35 C :   -0.035715
  36 C :   -0.023518
  37 C :   -0.192376
  38 S :    0.405382
  39 C :   -0.154583
  40 C :   -0.039933
  41 C :   -0.015624
  42 C :   -0.183205
  43 S :    0.356574
  44 C :    0.008585
  45 N :    0.058663
  46 C :   -0.094041
  47 S :    0.459082
  48 C :   -0.204111
  49 N :    0.273656
  50 O :   -0.209433
  51 O :   -0.233562
  52 C :    0.020136
  53 C :   -0.106793
  54 C :    0.016932
  55 C :   -0.024235
  56 C :    0.061072
  57 C :   -0.086828
  58 C :    0.072222
  59 C :   -0.142984
  60 C :   -0.019915
  61 N :   -0.054552
  62 C :   -0.023590
  63 N :   -0.051958
  64 C :   -0.022337
  65 C :   -0.052746
  66 C :    0.097224
  67 O :   -0.129366
  68 C :    0.030236
  69 C :   -0.033448
  70 C :   -0.147160
  71 C :   -0.022375
  72 S :    0.440085
  73 C :   -0.273275
  74 C :   -0.064768
  75 Br:    0.137228
  76 H :    0.039725
  77 H :    0.040791
  78 H :    0.038796
  79 H :    0.047138
  80 H :    0.015339
  81 H :    0.027260
  82 H :    0.036551
  83 H :    0.035681
  84 H :    0.034959
  85 H :    0.036703
  86 H :    0.038633
  87 H :    0.036839
  88 H :    0.080588
  89 H :    0.049824
  90 H :    0.029250
  91 H :    0.032502
  92 H :    0.042669
  93 H :    0.033718
  94 H :    0.039318
  95 H :    0.042075

  Mayer bond orders larger than 0.100000
B(  0-C ,  1-C ) :   1.6452 B(  0-C ,  6-C ) :   1.0079 B(  0-C , 18-C ) :   1.0742
B(  1-C ,  2-C ) :   1.1395 B(  1-C ,  4-C ) :   1.1443 B(  2-C ,  3-N ) :   2.9718
B(  4-C ,  5-N ) :   2.9912 B(  6-C ,  7-C ) :   1.2698 B(  6-C , 11-C ) :   1.3989
B(  7-C ,  8-C ) :   1.4197 B(  7-C , 16-C ) :   0.9441 B(  8-C ,  9-C ) :   1.2437
B(  8-C , 76-H ) :   1.0207 B(  9-C , 10-C ) :   1.3030 B(  9-C , 14-C ) :   1.1708
B( 10-C , 11-C ) :   1.3224 B( 10-C , 12-S ) :   1.0922 B( 11-C , 77-H ) :   0.9821
B( 12-S , 13-C ) :   1.0891 B( 13-C , 14-C ) :   1.6018 B( 13-C , 15-Br) :   1.0255
B( 14-C , 78-H ) :   1.0032 B( 16-C , 17-O ) :   2.2025 B( 16-C , 18-C ) :   0.9359
B( 18-C , 19-C ) :   1.6201 B( 19-C , 20-C ) :   1.1594 B( 19-C , 79-H ) :   0.9305
B( 20-C , 21-S ) :   1.0970 B( 20-C , 24-C ) :   1.4621 B( 21-S , 22-C ) :   1.1441
B( 22-C , 23-C ) :   1.4120 B( 22-C , 31-C ) :   1.2402 B( 23-C , 24-C ) :   1.3689
B( 23-C , 27-C ) :   0.9392 B( 24-C , 25-C ) :   1.1232 B( 25-C , 26-N ) :   2.8832
B( 26-N , 93-H ) :   0.1228 B( 27-C , 28-F ) :   1.1276 B( 27-C , 29-F ) :   1.1281
B( 27-C , 30-F ) :   1.1732 B( 31-C , 32-C ) :   1.5481 B( 31-C , 80-H ) :   0.9226
B( 32-C , 33-C ) :   1.2450 B( 32-C , 81-H ) :   0.9672 B( 33-C , 34-C ) :   1.5261
B( 33-C , 82-H ) :   0.9634 B( 34-C , 35-C ) :   1.1648 B( 34-C , 38-S ) :   1.0655
B( 35-C , 36-C ) :   1.5745 B( 35-C , 83-H ) :   0.9983 B( 36-C , 37-C ) :   1.1988
B( 36-C , 84-H ) :   0.9951 B( 37-C , 38-S ) :   1.0368 B( 37-C , 39-C ) :   1.4953
B( 39-C , 40-C ) :   1.1936 B( 39-C , 43-S ) :   1.0657 B( 40-C , 41-C ) :   1.5978
B( 40-C , 85-H ) :   0.9941 B( 41-C , 42-C ) :   1.1627 B( 41-C , 86-H ) :   0.9954
B( 42-C , 43-S ) :   1.0127 B( 42-C , 44-C ) :   1.5840 B( 44-C , 45-N ) :   1.1520
B( 44-C , 87-H ) :   0.9652 B( 45-N , 46-C ) :   1.2572 B( 45-N , 88-H ) :   0.8927
B( 46-C , 47-S ) :   1.1370 B( 46-C , 53-C ) :   1.3187 B( 47-S , 48-C ) :   1.0589
B( 48-C , 49-N ) :   0.9720 B( 48-C , 52-C ) :   1.5157 B( 49-N , 50-O ) :   1.5375
B( 49-N , 51-O ) :   1.5038 B( 50-O , 51-O ) :   0.2584 B( 52-C , 53-C ) :   1.2246
B( 52-C , 89-H ) :   0.9990 B( 53-C , 54-C ) :   1.0677 B( 54-C , 55-C ) :   1.6929
B( 54-C , 90-H ) :   0.9716 B( 55-C , 56-C ) :   1.1208 B( 55-C , 91-H ) :   0.9611
B( 56-C , 57-C ) :   1.6270 B( 56-C , 92-H ) :   0.9478 B( 57-C , 58-C ) :   1.0361
B( 57-C , 66-C ) :   0.9566 B( 58-C , 59-C ) :   1.6482 B( 58-C , 64-C ) :   1.0078
B( 59-C , 60-C ) :   1.1317 B( 59-C , 62-C ) :   1.1577 B( 60-C , 61-N ) :   2.9906
B( 62-C , 63-N ) :   3.0116 B( 64-C , 65-C ) :   1.2721 B( 64-C , 71-C ) :   1.3985
B( 65-C , 66-C ) :   0.9192 B( 65-C , 68-C ) :   1.4185 B( 66-C , 67-O ) :   2.1686
B( 68-C , 69-C ) :   1.2537 B( 68-C , 93-H ) :   0.9859 B( 69-C , 70-C ) :   1.2947
B( 69-C , 74-C ) :   1.1721 B( 70-C , 71-C ) :   1.3182 B( 70-C , 72-S ) :   1.0905
B( 71-C , 94-H ) :   0.9880 B( 72-S , 73-C ) :   1.0859 B( 73-C , 74-C ) :   1.6020
B( 73-C , 75-Br) :   1.0226 B( 74-C , 95-H ) :   1.0037

-----------------------------------------------------------------------------
         ABSORPTION SPECTRUM VIA TRANSITION ELECTRIC DIPOLE MOMENTS
-----------------------------------------------------------------------------
State   Energy  Wavelength   fosc         T2         TX        TY        TZ
        (cm-1)    (nm)                  (au**2)     (au)      (au)      (au)
-----------------------------------------------------------------------------
   0   10593.8    943.9   0.544901268  16.93326  -1.26111   2.59135  -2.93730
   1   16038.3    623.5   0.517619714  10.62497   2.62418  -1.91853  -0.24059
   2   18486.5    540.9   0.441354271   7.85975  -1.37735  -0.38556   2.41122
   3   20485.9    488.1   0.748899334  12.03495   2.72780  -2.14093  -0.10245
   4   22689.0    440.7   0.078735355   1.14243   0.54129  -0.03155  -0.92111
   5   23637.1    423.1   0.219108883   3.05169  -1.13488   1.22910  -0.50305
   6   24183.1    413.5   0.500536793   6.81397   1.97518  -1.65371  -0.42178
   7   24226.1    412.8   0.111458504   1.51462  -0.39001  -0.18279   1.15287
   8   24437.2    409.2   0.153680073   2.07034   0.25441  -1.16440   0.80610
   9   24662.6    405.5   0.081068959   1.08216   0.87542   0.19639  -0.52652
  10   24901.5    401.6   0.034100267   0.45083   0.38264   0.03934  -0.55033
  11   26189.6    381.8   0.206438594   2.59500  -0.52083   0.28443   1.49761
  12   26941.1    371.2   0.160140273   1.95686  -0.03684  -1.34815   0.37149
  13   27749.2    360.4   0.008346838   0.09903  -0.23526  -0.16332   0.13039
  14   27985.7    357.3   0.034159342   0.40184  -0.00299   0.62732  -0.09110
  15   28306.6    353.3   0.006922241   0.08051  -0.24477   0.05305   0.13335
  16   28608.7    349.5   0.013228966   0.15223   0.33015  -0.05375   0.20085
  17   28853.6    346.6   0.076241035   0.86989  -0.37065   0.26306  -0.81444
  18   29192.6    342.6   0.126589461   1.42758  -0.89112   0.60147   0.52127
  19   29698.7    336.7   0.036098207   0.40015   0.16950  -0.59948  -0.10976
  20   29873.7    334.7   0.010634449   0.11719  -0.02961  -0.20349   0.27369
  21   30095.5    332.3   0.150897971   1.65066  -0.89495   0.28671   0.87608
  22   30352.1    329.5   0.059745300   0.64802  -0.49625  -0.06948   0.63002
  23   30700.0    325.7   0.214457465   2.29974   1.14789   0.45952  -0.87803
  24   30895.4    323.7   0.163283442   1.73990  -0.38062   1.13171  -0.56059
  25   31051.2    322.0   0.302977764   3.21224   1.01717   0.50188  -1.38771
  26   31144.2    321.1   0.115288188   1.21866   0.04638  -0.85838   0.69260
  27   31281.7    319.7   0.032029490   0.33708  -0.54699   0.18202  -0.06897
  28   31779.9    314.7   0.103694208   1.07418  -0.59744   0.69600  -0.48252
  29   32211.5    310.4   0.168933958   1.72656  -0.52540   0.79868  -0.90146
  30   32746.4    305.4   0.034574198   0.34759  -0.34407  -0.16766   0.44843
  31   32872.7    304.2   0.244229005   2.44589  -0.06941  -1.51639   0.37633
  32   33086.0    302.2   0.126953708   1.26321  -0.46853   1.01528  -0.11361
  33   33176.3    301.4   0.003337157   0.03311   0.17968   0.02040  -0.02036
  34   33616.5    297.5   0.058335074   0.57128  -0.15334  -0.58755   0.45006
  35   33690.3    296.8   0.075242042   0.73524  -0.31738   0.74250   0.28846
  36   33871.4    295.2   0.104813192   1.01873   0.12051  -0.86884   0.49932
  37   34011.4    294.0   0.054485478   0.52739  -0.28594   0.64800  -0.16037
  38   34218.3    292.2   0.006490590   0.06245  -0.24461  -0.04511  -0.02405
  39   34543.8    289.5   0.120965680   1.15283   0.52957  -0.84740   0.39280
  40   34740.1    287.9   0.057579216   0.54564   0.46341   0.46296  -0.34142
  41   35053.0    285.3   0.058641379   0.55075   0.57176  -0.29259  -0.37179
  42   35343.8    282.9   0.106990250   0.99657  -0.52036   0.37681   0.76407
  43   35410.1    282.4   0.054071298   0.50271  -0.13079  -0.66337   0.21340
  44   35913.9    278.4   0.092768820   0.85038   0.36002  -0.61742   0.58272
  45   36192.0    276.3   0.043796861   0.39839  -0.07140  -0.43992   0.44694
  46   36324.4    275.3   0.062721884   0.56845   0.56045   0.14138  -0.48411
  47   36486.7    274.1   0.052488492   0.47359  -0.02674   0.52380  -0.44555
  48   37182.6    268.9   0.107344977   0.95042  -0.47723   0.82024   0.22333
  49   37410.2    267.3   0.011253453   0.09903   0.26954   0.14378   0.07554
  50   37507.6    266.6   0.180495664   1.58425  -0.01749  -0.65425   1.07513
  51   37652.2    265.6   0.081980532   0.71680   0.59320  -0.38631  -0.46441
  52   37926.0    263.7   0.022310365   0.19366  -0.23894  -0.28979   0.22933
  53   38164.4    262.0   0.031214521   0.26926  -0.51408   0.04133   0.05720
  54   38532.3    259.5   0.046276707   0.39538  -0.44085   0.34842  -0.28220
  55   38739.1    258.1   0.021168338   0.17989  -0.07545   0.41335  -0.05784
  56   38968.1    256.6   0.002523304   0.02132   0.03154  -0.11947   0.07777
  57   39125.1    255.6   0.004230504   0.03560   0.00481  -0.15171  -0.11206
  58   39480.2    253.3   0.021593699   0.18006  -0.38055   0.07249  -0.17318
  59   39580.7    252.6   0.024427232   0.20317   0.39471  -0.20147   0.08240
  60   39864.0    250.9   0.045201418   0.37329  -0.45634  -0.21624   0.34393
  61   39966.0    250.2   0.030058305   0.24760   0.36687  -0.22732  -0.24765
  62   40161.4    249.0   0.009648111   0.07909   0.05314   0.09203  -0.26037
  63   40319.9    248.0   0.002723666   0.02224  -0.08586  -0.09036   0.08186

FINAL SINGLE POINT ENERGY    -10585.806326916287

DIPOLE MOMENT
-------------
                                X             Y             Z
Electronic contribution:    147.15301    -120.07911     -24.33918
Nuclear contribution   :   -150.48970     122.95019      25.61861
                        -----------------------------------------
Total Dipole Moment    :     -3.33669       2.87108       1.27943
                        -----------------------------------------
Magnitude (a.u.)       :      4.58405
Magnitude (Debye)      :     11.65174

Rotational constants in cm-1:     0.000930     0.000411     0.000309
Rotational constants in MHz :    27.893271    12.333755     9.250037

                             ****ORCA TERMINATED NORMALLY****
TOTAL RUN TIME: 0 days 0 hours 13 minutes 9 seconds 104 msec
