                         Program Version 4.2.0 -  RELEASE  -
|  1> # ORCA input file
|  2> # SCF done       -206.508250535180          0.004001693720
|  3> ! CAM-B3LYP def2-SVP def2/J RIJCOSX Grid4 TightSCF
|  4> %maxcore 5000
|  5> %tddft
|  6>     Mode sTDDFT
|  7>     Ethresh 5.0
|  8>     maxcore 5000
|  9> end
| 10>
| 11> %pal
| 12>   nprocs 6
| 13>   end
| 14> * xyz 0 1
| 15>    C       -0.34534        -0.48271        -0.21629
| 16>    C        0.70223         0.26943         0.24469
| 17>    C        2.03445        -0.18858         0.31784
| 18>    N        3.13407        -0.50117         0.40847
| 19>    C        0.62241         1.61171         0.66966
| 20>    N        0.66699         2.71123         1.00022
| 21>    C       -0.24166        -1.82323        -0.77285
| 22>    C       -1.50884        -2.20360        -1.27610
| 23>    C       -1.73432        -3.42102        -1.87180
| 24>    C       -0.65531        -4.30431        -1.97977
| 25>    C        0.60956        -3.91403        -1.47608
| 26>    C        0.83652        -2.68511        -0.87127
| 27>    S        1.80342        -5.15452        -1.71421
| 28>    C        0.60402        -6.16668        -2.47538
| 29>    C       -0.62709        -5.60691        -2.54898
| 30>   Br        1.09126        -7.86658        -3.09923
| 31>    C       -2.48399        -1.11432        -1.05426
| 32>    O       -3.65148        -1.13756        -1.36799
| 33>    C       -1.73580        -0.05745        -0.31973
| 34>    C       -2.25247         1.01255         0.33722
| 35>    C       -3.56350         1.60121         0.27109
| 36>    C       -4.00457         2.31913         1.40754
| 37>    O       -3.17236         2.37056         2.49606
| 38>    C       -2.77618         3.66397         2.94665
| 39>    C       -2.02226         4.45372         1.88427
| 40>    C       -5.27742         2.90866         1.40653
| 41>    C       -6.04003         2.88016         0.23365
| 42>    C       -5.57894         2.24709        -0.91479
| 43>    C       -4.35614         1.57781        -0.87412
| 44>    O       -6.23522         2.21316        -2.09261
| 45>    C       -7.45320         2.92936        -2.23539
| 46>    C       -7.88517         2.82591        -3.68761
| 47>    C       -5.82529         3.50067         2.61055
| 48>    C       -6.70591         4.52781         2.61872
| 49>    C       -7.28823         5.08424         3.77880
| 50>    C       -8.17039         6.12854         3.74001
| 51>    C       -8.83291         6.75728         4.82699
| 52>    C       -9.67125         7.76511         4.46694
| 53>    C       -9.72465         7.99522         3.07043
| 54>    S       -8.66294         6.89125         2.23123
| 55>    C      -10.47494         8.91950         2.37679
| 56>    C      -11.41310         9.86076         2.86162
| 57>    C      -11.99609        10.60868         1.88939
| 58>    C      -11.56286        10.29998         0.56704
| 59>    S      -10.36288         9.02038         0.63182
| 60>    C      -11.94370        10.97564        -0.55615
| 61>    N      -11.58713        10.73956        -1.85491
| 62>    C      -11.26193         9.56660        -2.42794
| 63>    S      -11.79729         8.06646        -1.72647
| 64>    C      -10.89752         7.18027        -2.92213
| 65>    N      -10.90689         5.79393        -2.82857
| 66>    O      -10.28055         5.15526        -3.66149
| 67>    O      -11.54208         5.30624        -1.90512
| 68>    C      -10.24416         7.98898        -3.81123
| 69>    C      -10.47389         9.36073        -3.58968
| 70>    C       -9.89657        10.33815        -4.45252
| 71>    C      -10.37145        11.57861        -4.75528
| 72>    C       -9.64151        12.43975        -5.59557
| 73>    C       -9.91620        13.69672        -6.06801
| 74>    C      -10.93922        14.68170        -5.82359
| 75>    C      -11.72854        14.83737        -4.70391
| 76>    C      -12.66801        15.87444        -4.52928
| 77>    N      -13.45479        16.68688        -4.33024
| 78>    C      -11.66481        14.03756        -3.55990
| 79>    N      -11.65944        13.41697        -2.58909
| 80>    C      -10.88989        15.64697        -6.92080
| 81>    C       -9.74327        15.38646        -7.71135
| 82>    C       -9.05618        14.19686        -7.17541
| 83>    O       -8.02285        13.70014        -7.56471
| 84>    C       -9.40571        16.14617        -8.80349
| 85>    C      -10.24916        17.21015        -9.14353
| 86>    C      -11.40276        17.45179        -8.36067
| 87>    C      -11.73839        16.68757        -7.24933
| 88>    S      -12.31458        18.80161        -8.96605
| 89>    C      -11.14667        19.02287       -10.24211
| 90>    C      -10.12679        18.13176       -10.21867
| 91>   Br      -11.38553        20.40715       -11.48465
| 92>    H       -2.71249        -3.68183        -2.24446
| 93>    H        1.81604        -2.43636        -0.49812
| 94>    H       -1.48174        -6.09116        -2.98548
| 95>    H       -1.61109         1.49450         1.06686
| 96>    H       -2.13206         3.45846         3.80440
| 97>    H       -3.64696         4.24059         3.28178
| 98>    H       -1.11718         3.93352         1.57888
| 99>    H       -1.74498         5.42332         2.28802
|100>    H       -2.65391         4.60529         1.01018
|101>    H       -7.02187         3.32417         0.25460
|102>    H       -4.03194         1.06258        -1.76099
|103>    H       -7.29987         3.98207        -1.96146
|104>    H       -8.22183         2.50261        -1.57870
|105>    H       -7.09602         3.19995        -4.33353
|106>    H       -8.78351         3.41618        -3.84385
|107>    H       -8.08272         1.78947        -3.94509
|108>    H       -5.51114         3.05793         3.54753
|109>    H       -6.98666         4.99110         1.68111
|110>    H       -7.03602         4.66317         4.74274
|111>    H       -8.66801         6.43509         5.84004
|112>    H      -10.25471         8.34692         5.15764
|113>    H      -11.63328         9.95122         3.90995
|114>    H      -12.73368        11.37097         2.06528
|115>    H      -12.53330        11.87353        -0.43000
|116>    H      -11.52592        11.60716        -2.40074
|117>    H       -9.64341         7.60058        -4.61431
|118>    H       -8.99205        10.01396        -4.95360
|119>    H      -11.34310        11.88264        -4.40525
|120>    H       -8.71514        12.03328        -5.99256
|121>    H       -8.52073        15.92635        -9.37978
|122>    H      -12.63305        16.91014        -6.69229
|123>    H       -9.32112        18.12280       -10.92997
|124> *
|125>
|126>                          ****END OF INPUT****

CARTESIAN COORDINATES (ANGSTROEM)
---------------------------------
  C     -0.345340   -0.482710   -0.216290
  C      0.702230    0.269430    0.244690
  C      2.034450   -0.188580    0.317840
  N      3.134070   -0.501170    0.408470
  C      0.622410    1.611710    0.669660
  N      0.666990    2.711230    1.000220
  C     -0.241660   -1.823230   -0.772850
  C     -1.508840   -2.203600   -1.276100
  C     -1.734320   -3.421020   -1.871800
  C     -0.655310   -4.304310   -1.979770
  C      0.609560   -3.914030   -1.476080
  C      0.836520   -2.685110   -0.871270
  S      1.803420   -5.154520   -1.714210
  C      0.604020   -6.166680   -2.475380
  C     -0.627090   -5.606910   -2.548980
  Br     1.091260   -7.866580   -3.099230
  C     -2.483990   -1.114320   -1.054260
  O     -3.651480   -1.137560   -1.367990
  C     -1.735800   -0.057450   -0.319730
  C     -2.252470    1.012550    0.337220
  C     -3.563500    1.601210    0.271090
  C     -4.004570    2.319130    1.407540
  O     -3.172360    2.370560    2.496060
  C     -2.776180    3.663970    2.946650
  C     -2.022260    4.453720    1.884270
  C     -5.277420    2.908660    1.406530
  C     -6.040030    2.880160    0.233650
  C     -5.578940    2.247090   -0.914790
  C     -4.356140    1.577810   -0.874120
  O     -6.235220    2.213160   -2.092610
  C     -7.453200    2.929360   -2.235390
  C     -7.885170    2.825910   -3.687610
  C     -5.825290    3.500670    2.610550
  C     -6.705910    4.527810    2.618720
  C     -7.288230    5.084240    3.778800
  C     -8.170390    6.128540    3.740010
  C     -8.832910    6.757280    4.826990
  C     -9.671250    7.765110    4.466940
  C     -9.724650    7.995220    3.070430
  S     -8.662940    6.891250    2.231230
  C    -10.474940    8.919500    2.376790
  C    -11.413100    9.860760    2.861620
  C    -11.996090   10.608680    1.889390
  C    -11.562860   10.299980    0.567040
  S    -10.362880    9.020380    0.631820
  C    -11.943700   10.975640   -0.556150
  N    -11.587130   10.739560   -1.854910
  C    -11.261930    9.566600   -2.427940
  S    -11.797290    8.066460   -1.726470
  C    -10.897520    7.180270   -2.922130
  N    -10.906890    5.793930   -2.828570
  O    -10.280550    5.155260   -3.661490
  O    -11.542080    5.306240   -1.905120
  C    -10.244160    7.988980   -3.811230
  C    -10.473890    9.360730   -3.589680
  C     -9.896570   10.338150   -4.452520
  C    -10.371450   11.578610   -4.755280
  C     -9.641510   12.439750   -5.595570
  C     -9.916200   13.696720   -6.068010
  C    -10.939220   14.681700   -5.823590
  C    -11.728540   14.837370   -4.703910
  C    -12.668010   15.874440   -4.529280
  N    -13.454790   16.686880   -4.330240
  C    -11.664810   14.037560   -3.559900
  N    -11.659440   13.416970   -2.589090
  C    -10.889890   15.646970   -6.920800
  C     -9.743270   15.386460   -7.711350
  C     -9.056180   14.196860   -7.175410
  O     -8.022850   13.700140   -7.564710
  C     -9.405710   16.146170   -8.803490
  C    -10.249160   17.210150   -9.143530
  C    -11.402760   17.451790   -8.360670
  C    -11.738390   16.687570   -7.249330
  S    -12.314580   18.801610   -8.966050
  C    -11.146670   19.022870  -10.242110
  C    -10.126790   18.131760  -10.218670
  Br   -11.385530   20.407150  -11.484650
  H     -2.712490   -3.681830   -2.244460
  H      1.816040   -2.436360   -0.498120
  H     -1.481740   -6.091160   -2.985480
  H     -1.611090    1.494500    1.066860
  H     -2.132060    3.458460    3.804400
  H     -3.646960    4.240590    3.281780
  H     -1.117180    3.933520    1.578880
  H     -1.744980    5.423320    2.288020
  H     -2.653910    4.605290    1.010180
  H     -7.021870    3.324170    0.254600
  H     -4.031940    1.062580   -1.760990
  H     -7.299870    3.982070   -1.961460
  H     -8.221830    2.502610   -1.578700
  H     -7.096020    3.199950   -4.333530
  H     -8.783510    3.416180   -3.843850
  H     -8.082720    1.789470   -3.945090
  H     -5.511140    3.057930    3.547530
  H     -6.986660    4.991100    1.681110
  H     -7.036020    4.663170    4.742740
  H     -8.668010    6.435090    5.840040
  H    -10.254710    8.346920    5.157640
  H    -11.633280    9.951220    3.909950
  H    -12.733680   11.370970    2.065280
  H    -12.533300   11.873530   -0.430000
  H    -11.525920   11.607160   -2.400740
  H     -9.643410    7.600580   -4.614310
  H     -8.992050   10.013960   -4.953600
  H    -11.343100   11.882640   -4.405250
  H     -8.715140   12.033280   -5.992560
  H     -8.520730   15.926350   -9.379780
  H    -12.633050   16.910140   -6.692290
  H     -9.321120   18.122800  -10.929970

 Total Charge           Charge          ....    0
 Multiplicity           Mult            ....    1
 Number of Electrons    NEL             ....  620
 Basis Dimension        Dim             .... 1294

ORBITAL ENERGIES
----------------

  NO   OCC          E(Eh)            E(eV)
   0   2.0000    -482.889799    -13140.0995
   1   2.0000    -482.883299    -13139.9226
   2   2.0000     -88.982472     -2421.3362
   3   2.0000     -88.980571     -2421.2844
   4   2.0000     -88.972625     -2421.0682
   5   2.0000     -88.951451     -2420.4920
   6   2.0000     -88.945416     -2420.3278
   7   2.0000     -62.567501     -1702.5482
   8   2.0000     -62.561007     -1702.3715
   9   2.0000     -56.401458     -1534.7617
  10   2.0000     -56.398728     -1534.6874
  11   2.0000     -56.398701     -1534.6867
  12   2.0000     -56.394953     -1534.5847
  13   2.0000     -56.392242     -1534.5109
  14   2.0000     -56.392211     -1534.5101
  15   2.0000     -19.235823      -523.4334
  16   2.0000     -19.235242      -523.4175
  17   2.0000     -19.233956      -523.3826
  18   2.0000     -19.230064      -523.2766
  19   2.0000     -19.218158      -522.9527
  20   2.0000     -19.210477      -522.7437
  21   2.0000     -14.646989      -398.5648
  22   2.0000     -14.477175      -393.9439
  23   2.0000     -14.440368      -392.9424
  24   2.0000     -14.423329      -392.4787
  25   2.0000     -14.413547      -392.2126
  26   2.0000     -14.411079      -392.1454
  27   2.0000     -10.373967      -282.2900
  28   2.0000     -10.368249      -282.1344
  29   2.0000     -10.363940      -282.0172
  30   2.0000     -10.362740      -281.9845
  31   2.0000     -10.356496      -281.8146
  32   2.0000     -10.355223      -281.7799
  33   2.0000     -10.350609      -281.6544
  34   2.0000     -10.350103      -281.6406
  35   2.0000     -10.338337      -281.3205
  36   2.0000     -10.337613      -281.3008
  37   2.0000     -10.336838      -281.2797
  38   2.0000     -10.330725      -281.1133
  39   2.0000     -10.327645      -281.0295
  40   2.0000     -10.327094      -281.0145
  41   2.0000     -10.325273      -280.9650
  42   2.0000     -10.324417      -280.9417
  43   2.0000     -10.322521      -280.8901
  44   2.0000     -10.322197      -280.8813
  45   2.0000     -10.321544      -280.8635
  46   2.0000     -10.317701      -280.7589
  47   2.0000     -10.314870      -280.6819
  48   2.0000     -10.314567      -280.6736
  49   2.0000     -10.314197      -280.6636
  50   2.0000     -10.313669      -280.6492
  51   2.0000     -10.312982      -280.6305
  52   2.0000     -10.312177      -280.6086
  53   2.0000     -10.311800      -280.5983
  54   2.0000     -10.311313      -280.5851
  55   2.0000     -10.310409      -280.5605
  56   2.0000     -10.309625      -280.5392
  57   2.0000     -10.308443      -280.5070
  58   2.0000     -10.308406      -280.5060
  59   2.0000     -10.306113      -280.4436
  60   2.0000     -10.304721      -280.4057
  61   2.0000     -10.304005      -280.3862
  62   2.0000     -10.303065      -280.3606
  63   2.0000     -10.302354      -280.3413
  64   2.0000     -10.301255      -280.3114
  65   2.0000     -10.298967      -280.2491
  66   2.0000     -10.297638      -280.2130
  67   2.0000     -10.297039      -280.1967
  68   2.0000     -10.296377      -280.1787
  69   2.0000     -10.294028      -280.1147
  70   2.0000     -10.291559      -280.0476
  71   2.0000     -10.291439      -280.0443
  72   2.0000     -10.289609      -279.9945
  73   2.0000     -10.289299      -279.9861
  74   2.0000     -10.288721      -279.9703
  75   2.0000     -10.288088      -279.9531
  76   2.0000     -10.282700      -279.8065
  77   2.0000     -10.282411      -279.7986
  78   2.0000     -10.280139      -279.7368
  79   2.0000     -10.279718      -279.7253
  80   2.0000     -10.276890      -279.6484
  81   2.0000     -10.272865      -279.5389
  82   2.0000     -10.267654      -279.3971
  83   2.0000     -10.242410      -278.7101
  84   2.0000     -10.238657      -278.6080
  85   2.0000      -8.796925      -239.3765
  86   2.0000      -8.790444      -239.2001
  87   2.0000      -8.077457      -219.7988
  88   2.0000      -8.076543      -219.7739
  89   2.0000      -8.068598      -219.5577
  90   2.0000      -8.047297      -218.9781
  91   2.0000      -8.041803      -218.8286
  92   2.0000      -6.633241      -180.4997
  93   2.0000      -6.626707      -180.3219
  94   2.0000      -6.618667      -180.1031
  95   2.0000      -6.618433      -180.0967
  96   2.0000      -6.612199      -179.9271
  97   2.0000      -6.611992      -179.9214
  98   2.0000      -6.047129      -164.5507
  99   2.0000      -6.046217      -164.5259
 100   2.0000      -6.042507      -164.4250
 101   2.0000      -6.041959      -164.4101
 102   2.0000      -6.039015      -164.3300
 103   2.0000      -6.038297      -164.3104
 104   2.0000      -6.037776      -164.2962
 105   2.0000      -6.034022      -164.1941
 106   2.0000      -6.029811      -164.0795
 107   2.0000      -6.017033      -163.7318
 108   2.0000      -6.012874      -163.6186
 109   2.0000      -6.011502      -163.5813
 110   2.0000      -6.008281      -163.4936
 111   2.0000      -6.007617      -163.4756
 112   2.0000      -6.002623      -163.3397
 113   2.0000      -2.749136       -74.8078
 114   2.0000      -2.744994       -74.6951
 115   2.0000      -2.744857       -74.6914
 116   2.0000      -2.742616       -74.6304
 117   2.0000      -2.738501       -74.5184
 118   2.0000      -2.738346       -74.5142
 119   2.0000      -2.733259       -74.3758
 120   2.0000      -2.733246       -74.3754
 121   2.0000      -2.726809       -74.2002
 122   2.0000      -2.726797       -74.1999
 123   2.0000      -1.314725       -35.7755
 124   2.0000      -1.138228       -30.9727
 125   2.0000      -1.136852       -30.9353
 126   2.0000      -1.133252       -30.8373
 127   2.0000      -1.132954       -30.8292
 128   2.0000      -1.126891       -30.6643
 129   2.0000      -1.085700       -29.5434
 130   2.0000      -1.036364       -28.2009
 131   2.0000      -1.024679       -27.8829
 132   2.0000      -1.019480       -27.7415
 133   2.0000      -1.010604       -27.4999
 134   2.0000      -1.009813       -27.4784
 135   2.0000      -1.003056       -27.2945
 136   2.0000      -0.997118       -27.1330
 137   2.0000      -0.996184       -27.1075
 138   2.0000      -0.991498       -26.9800
 139   2.0000      -0.985639       -26.8206
 140   2.0000      -0.974712       -26.5233
 141   2.0000      -0.954170       -25.9643
 142   2.0000      -0.950757       -25.8714
 143   2.0000      -0.938457       -25.5367
 144   2.0000      -0.936227       -25.4760
 145   2.0000      -0.916664       -24.9437
 146   2.0000      -0.913882       -24.8680
 147   2.0000      -0.905181       -24.6312
 148   2.0000      -0.905062       -24.6280
 149   2.0000      -0.895442       -24.3662
 150   2.0000      -0.892156       -24.2768
 151   2.0000      -0.887206       -24.1421
 152   2.0000      -0.882620       -24.0173
 153   2.0000      -0.878384       -23.9020
 154   2.0000      -0.869048       -23.6480
 155   2.0000      -0.865456       -23.5503
 156   2.0000      -0.860763       -23.4226
 157   2.0000      -0.849613       -23.1192
 158   2.0000      -0.839989       -22.8573
 159   2.0000      -0.836787       -22.7701
 160   2.0000      -0.832249       -22.6466
 161   2.0000      -0.830329       -22.5944
 162   2.0000      -0.826009       -22.4768
 163   2.0000      -0.823363       -22.4048
 164   2.0000      -0.816108       -22.2074
 165   2.0000      -0.800203       -21.7746
 166   2.0000      -0.790665       -21.5151
 167   2.0000      -0.781039       -21.2532
 168   2.0000      -0.769801       -20.9473
 169   2.0000      -0.765652       -20.8345
 170   2.0000      -0.759571       -20.6690
 171   2.0000      -0.754436       -20.5293
 172   2.0000      -0.738130       -20.0855
 173   2.0000      -0.727963       -19.8089
 174   2.0000      -0.720812       -19.6143
 175   2.0000      -0.711585       -19.3632
 176   2.0000      -0.708697       -19.2846
 177   2.0000      -0.703934       -19.1550
 178   2.0000      -0.698852       -19.0167
 179   2.0000      -0.694251       -18.8915
 180   2.0000      -0.687543       -18.7090
 181   2.0000      -0.686071       -18.6689
 182   2.0000      -0.682331       -18.5672
 183   2.0000      -0.675049       -18.3690
 184   2.0000      -0.666020       -18.1233
 185   2.0000      -0.659904       -17.9569
 186   2.0000      -0.655269       -17.8308
 187   2.0000      -0.654163       -17.8007
 188   2.0000      -0.647792       -17.6273
 189   2.0000      -0.640662       -17.4333
 190   2.0000      -0.635640       -17.2966
 191   2.0000      -0.633853       -17.2480
 192   2.0000      -0.629254       -17.1229
 193   2.0000      -0.628162       -17.0931
 194   2.0000      -0.622956       -16.9515
 195   2.0000      -0.619862       -16.8673
 196   2.0000      -0.618016       -16.8171
 197   2.0000      -0.614932       -16.7331
 198   2.0000      -0.609202       -16.5772
 199   2.0000      -0.603626       -16.4255
 200   2.0000      -0.602754       -16.4018
 201   2.0000      -0.600586       -16.3428
 202   2.0000      -0.595585       -16.2067
 203   2.0000      -0.591741       -16.1021
 204   2.0000      -0.585007       -15.9189
 205   2.0000      -0.582583       -15.8529
 206   2.0000      -0.581540       -15.8245
 207   2.0000      -0.575662       -15.6646
 208   2.0000      -0.570839       -15.5333
 209   2.0000      -0.562874       -15.3166
 210   2.0000      -0.556626       -15.1466
 211   2.0000      -0.556001       -15.1296
 212   2.0000      -0.551928       -15.0187
 213   2.0000      -0.549390       -14.9497
 214   2.0000      -0.547395       -14.8954
 215   2.0000      -0.544370       -14.8130
 216   2.0000      -0.542540       -14.7633
 217   2.0000      -0.538196       -14.6450
 218   2.0000      -0.536333       -14.5944
 219   2.0000      -0.535048       -14.5594
 220   2.0000      -0.533339       -14.5129
 221   2.0000      -0.530820       -14.4444
 222   2.0000      -0.529219       -14.4008
 223   2.0000      -0.523700       -14.2506
 224   2.0000      -0.520102       -14.1527
 225   2.0000      -0.515990       -14.0408
 226   2.0000      -0.514846       -14.0097
 227   2.0000      -0.514057       -13.9882
 228   2.0000      -0.511326       -13.9139
 229   2.0000      -0.507864       -13.8197
 230   2.0000      -0.506255       -13.7759
 231   2.0000      -0.505571       -13.7573
 232   2.0000      -0.504067       -13.7163
 233   2.0000      -0.501869       -13.6566
 234   2.0000      -0.500884       -13.6297
 235   2.0000      -0.499374       -13.5886
 236   2.0000      -0.496165       -13.5013
 237   2.0000      -0.493260       -13.4223
 238   2.0000      -0.491269       -13.3681
 239   2.0000      -0.489944       -13.3321
 240   2.0000      -0.485080       -13.1997
 241   2.0000      -0.484254       -13.1772
 242   2.0000      -0.479557       -13.0494
 243   2.0000      -0.478024       -13.0077
 244   2.0000      -0.476216       -12.9585
 245   2.0000      -0.472728       -12.8636
 246   2.0000      -0.470379       -12.7997
 247   2.0000      -0.469151       -12.7662
 248   2.0000      -0.467947       -12.7335
 249   2.0000      -0.467039       -12.7088
 250   2.0000      -0.465695       -12.6722
 251   2.0000      -0.459042       -12.4912
 252   2.0000      -0.454729       -12.3738
 253   2.0000      -0.454120       -12.3572
 254   2.0000      -0.453634       -12.3440
 255   2.0000      -0.451976       -12.2989
 256   2.0000      -0.448720       -12.2103
 257   2.0000      -0.446964       -12.1625
 258   2.0000      -0.444738       -12.1019
 259   2.0000      -0.444178       -12.0867
 260   2.0000      -0.443454       -12.0670
 261   2.0000      -0.443193       -12.0599
 262   2.0000      -0.441418       -12.0116
 263   2.0000      -0.441055       -12.0017
 264   2.0000      -0.439279       -11.9534
 265   2.0000      -0.437635       -11.9087
 266   2.0000      -0.436824       -11.8866
 267   2.0000      -0.435512       -11.8509
 268   2.0000      -0.435181       -11.8419
 269   2.0000      -0.433752       -11.8030
 270   2.0000      -0.428052       -11.6479
 271   2.0000      -0.426405       -11.6031
 272   2.0000      -0.424483       -11.5508
 273   2.0000      -0.420752       -11.4492
 274   2.0000      -0.415439       -11.3047
 275   2.0000      -0.414939       -11.2911
 276   2.0000      -0.410106       -11.1596
 277   2.0000      -0.409247       -11.1362
 278   2.0000      -0.404092       -10.9959
 279   2.0000      -0.401415       -10.9231
 280   2.0000      -0.399659       -10.8753
 281   2.0000      -0.391878       -10.6635
 282   2.0000      -0.391168       -10.6442
 283   2.0000      -0.386292       -10.5115
 284   2.0000      -0.384507       -10.4630
 285   2.0000      -0.383380       -10.4323
 286   2.0000      -0.379008       -10.3133
 287   2.0000      -0.378098       -10.2886
 288   2.0000      -0.377360       -10.2685
 289   2.0000      -0.372569       -10.1381
 290   2.0000      -0.372460       -10.1352
 291   2.0000      -0.364062        -9.9066
 292   2.0000      -0.359489        -9.7822
 293   2.0000      -0.356059        -9.6889
 294   2.0000      -0.353086        -9.6080
 295   2.0000      -0.346430        -9.4268
 296   2.0000      -0.343445        -9.3456
 297   2.0000      -0.337742        -9.1904
 298   2.0000      -0.332832        -9.0568
 299   2.0000      -0.326654        -8.8887
 300   2.0000      -0.320914        -8.7325
 301   2.0000      -0.312036        -8.4909
 302   2.0000      -0.310309        -8.4439
 303   2.0000      -0.303809        -8.2671
 304   2.0000      -0.301139        -8.1944
 305   2.0000      -0.292864        -7.9692
 306   2.0000      -0.287756        -7.8302
 307   2.0000      -0.274580        -7.4717
 308   2.0000      -0.264128        -7.1873
 309   2.0000      -0.215339        -5.8597
 310   0.0000      -0.103735        -2.8228
 311   0.0000      -0.081966        -2.2304
 312   0.0000      -0.077511        -2.1092
 313   0.0000      -0.063756        -1.7349
 314   0.0000      -0.052026        -1.4157

MULLIKEN ATOMIC CHARGES
-----------------------
   0 C :    0.301286
   1 C :   -0.350088
   2 C :   -0.187503
   3 N :    0.147145
   4 C :   -0.174323
   5 N :    0.156219
   6 C :    0.014371
   7 C :   -0.018537
   8 C :   -0.072854
   9 C :    0.119900
  10 C :   -0.090170
  11 C :   -0.020728
  12 S :    0.184864
  13 C :   -0.124597
  14 C :    0.041260
  15 Br:    0.023090
  16 C :    0.145926
  17 O :   -0.135449
  18 C :   -0.061866
  19 C :   -0.021705
  20 C :    0.038207
  21 C :    0.108250
  22 O :   -0.329220
  23 C :    0.171721
  24 C :   -0.031669
  25 C :    0.075841
  26 C :   -0.155877
  27 C :    0.251998
  28 C :   -0.028641
  29 O :   -0.302835
  30 C :    0.125769
  31 C :    0.021197
  32 C :   -0.035195
  33 C :    0.005046
  34 C :   -0.006112
  35 C :   -0.018782
  36 C :    0.044296
  37 C :    0.026560
  38 C :   -0.037478
  39 S :    0.059646
  40 C :   -0.061044
  41 C :    0.034068
  42 C :    0.032392
  43 C :   -0.051335
  44 S :    0.090503
  45 C :    0.005634
  46 N :   -0.008148
  47 C :   -0.116772
  48 S :    0.191563
  49 C :   -0.021999
  50 N :    0.291461
  51 O :   -0.263041
  52 O :   -0.266721
  53 C :    0.011669
  54 C :    0.121893
  55 C :   -0.016439
  56 C :   -0.019787
  57 C :    0.005707
  58 C :   -0.106711
  59 C :    0.317954
  60 C :   -0.372272
  61 C :   -0.180689
  62 N :    0.152996
  63 C :   -0.113703
  64 N :    0.086524
  65 C :   -0.007621
  66 C :    0.005654
  67 C :    0.131132
  68 O :   -0.147205
  69 C :   -0.069648
  70 C :    0.115367
  71 C :   -0.091802
  72 C :   -0.016402
  73 S :    0.188103
  74 C :   -0.125043
  75 C :    0.039574
  76 Br:    0.027993
  77 H :   -0.009852
  78 H :   -0.006587
  79 H :   -0.003367
  80 H :    0.027432
  81 H :    0.021696
  82 H :    0.014453
  83 H :    0.035014
  84 H :    0.015303
  85 H :    0.023647
  86 H :   -0.020170
  87 H :   -0.014042
  88 H :    0.007499
  89 H :    0.022739
  90 H :    0.012767
  91 H :    0.028584
  92 H :    0.018418
  93 H :    0.012685
  94 H :    0.009360
  95 H :   -0.014386
  96 H :   -0.010357
  97 H :   -0.011717
  98 H :   -0.013199
  99 H :   -0.008104
 100 H :    0.021367
 101 H :    0.141153
 102 H :    0.009448
 103 H :    0.016740
 104 H :    0.011511
 105 H :    0.020780
 106 H :   -0.007714
 107 H :   -0.004447
 108 H :    0.000583
Sum of atomic charges:   -0.0000000

LOEWDIN ATOMIC CHARGES
----------------------
   0 C :    0.081338
   1 C :   -0.142944
   2 C :   -0.018004
   3 N :   -0.055277
   4 C :   -0.011644
   5 N :   -0.049383
   6 C :   -0.022707
   7 C :   -0.049107
   8 C :    0.022061
   9 C :   -0.031651
  10 C :   -0.143942
  11 C :   -0.009574
  12 S :    0.430851
  13 C :   -0.271349
  14 C :   -0.070005
  15 Br:    0.136338
  16 C :    0.082372
  17 O :   -0.129230
  18 C :   -0.096260
  19 C :    0.096786
  20 C :   -0.056784
  21 C :    0.057126
  22 O :   -0.120939
  23 C :    0.082454
  24 C :   -0.078154
  25 C :   -0.051254
  26 C :   -0.038972
  27 C :    0.044202
  28 C :    0.008566
  29 O :   -0.100337
  30 C :    0.083873
  31 C :   -0.064731
  32 C :   -0.005624
  33 C :   -0.036783
  34 C :   -0.046658
  35 C :   -0.144895
  36 C :   -0.026326
  37 C :   -0.032162
  38 C :   -0.170903
  39 S :    0.366755
  40 C :   -0.186433
  41 C :   -0.037551
  42 C :   -0.030411
  43 C :   -0.185491
  44 S :    0.375588
  45 C :   -0.025751
  46 N :    0.056992
  47 C :   -0.099709
  48 S :    0.483692
  49 C :   -0.223269
  50 N :    0.277279
  51 O :   -0.227983
  52 O :   -0.233533
  53 C :    0.007257
  54 C :   -0.121434
  55 C :    0.051763
  56 C :   -0.070121
  57 C :    0.077376
  58 C :   -0.114740
  59 C :    0.087654
  60 C :   -0.162802
  61 C :   -0.021682
  62 N :   -0.053732
  63 C :    0.036602
  64 N :   -0.079592
  65 C :   -0.021744
  66 C :   -0.049561
  67 C :    0.083124
  68 O :   -0.145530
  69 C :    0.023100
  70 C :   -0.030959
  71 C :   -0.144446
  72 C :   -0.009273
  73 S :    0.434235
  74 C :   -0.269948
  75 C :   -0.070263
  76 Br:    0.139904
  77 H :    0.041162
  78 H :    0.040878
  79 H :    0.038973
  80 H :    0.042857
  81 H :    0.024428
  82 H :    0.009579
  83 H :    0.025958
  84 H :    0.032141
  85 H :    0.025912
  86 H :    0.030730
  87 H :    0.035852
  88 H :    0.010009
  89 H :    0.014999
  90 H :    0.025242
  91 H :    0.030049
  92 H :    0.027013
  93 H :    0.032225
  94 H :    0.020712
  95 H :    0.033511
  96 H :    0.034678
  97 H :    0.032579
  98 H :    0.032515
  99 H :    0.034190
 100 H :    0.036283
 101 H :    0.071413
 102 H :    0.045789
 103 H :    0.041018
 104 H :    0.025083
 105 H :    0.045461
 106 H :    0.042246
 107 H :    0.040833
 108 H :    0.039952

  Mayer bond orders larger than 0.100000
B(  0-C ,  1-C ) :   1.6381 B(  0-C ,  6-C ) :   1.0094 B(  0-C , 18-C ) :   1.0558
B(  1-C ,  2-C ) :   1.1379 B(  1-C ,  4-C ) :   1.1508 B(  2-C ,  3-N ) :   2.9726
B(  4-C ,  5-N ) :   2.9359 B(  6-C ,  7-C ) :   1.2736 B(  6-C , 11-C ) :   1.4012
B(  7-C ,  8-C ) :   1.4244 B(  7-C , 16-C ) :   0.9387 B(  8-C ,  9-C ) :   1.2462
B(  8-C , 77-H ) :   1.0167 B(  9-C , 10-C ) :   1.3032 B(  9-C , 14-C ) :   1.1634
B( 10-C , 11-C ) :   1.3368 B( 10-C , 12-S ) :   1.0841 B( 11-C , 78-H ) :   0.9798
B( 12-S , 13-C ) :   1.0859 B( 13-C , 14-C ) :   1.6187 B( 13-C , 15-Br) :   1.0191
B( 14-C , 79-H ) :   0.9999 B( 16-C , 17-O ) :   2.2360 B( 16-C , 18-C ) :   0.9298
B( 18-C , 19-C ) :   1.6091 B( 19-C , 20-C ) :   1.1048 B( 19-C , 80-H ) :   0.9370
B( 20-C , 21-C ) :   1.2871 B( 20-C , 28-C ) :   1.3269 B( 21-C , 22-O ) :   1.1735
B( 21-C , 25-C ) :   1.3419 B( 22-O , 23-C ) :   0.9211 B( 23-C , 24-C ) :   1.1028
B( 23-C , 81-H ) :   0.9574 B( 23-C , 82-H ) :   0.9450 B( 24-C , 83-H ) :   0.9498
B( 24-C , 84-H ) :   0.9550 B( 24-C , 85-H ) :   0.9587 B( 25-C , 26-C ) :   1.2968
B( 25-C , 32-C ) :   1.0206 B( 26-C , 27-C ) :   1.2853 B( 26-C , 86-H ) :   0.9956
B( 27-C , 28-C ) :   1.3427 B( 27-C , 29-O ) :   1.1600 B( 28-C , 87-H ) :   0.9947
B( 29-O , 30-C ) :   0.9395 B( 30-C , 31-C ) :   1.1013 B( 30-C , 88-H ) :   0.9493
B( 30-C , 89-H ) :   0.9514 B( 31-C , 90-H ) :   0.9656 B( 31-C , 91-H ) :   0.9462
B( 31-C , 92-H ) :   0.9652 B( 32-C , 33-C ) :   1.6832 B( 32-C , 93-H ) :   0.9784
B( 33-C , 34-C ) :   1.1292 B( 33-C , 94-H ) :   0.9634 B( 34-C , 35-C ) :   1.5960
B( 34-C , 95-H ) :   0.9847 B( 35-C , 36-C ) :   1.1280 B( 35-C , 39-S ) :   1.0234
B( 36-C , 37-C ) :   1.6061 B( 36-C , 96-H ) :   0.9992 B( 37-C , 38-C ) :   1.1777
B( 37-C , 97-H ) :   0.9942 B( 38-C , 39-S ) :   1.0500 B( 38-C , 40-C ) :   1.5290
B( 40-C , 41-C ) :   1.1730 B( 40-C , 44-S ) :   1.0343 B( 41-C , 42-C ) :   1.6244
B( 41-C , 98-H ) :   0.9926 B( 42-C , 43-C ) :   1.1354 B( 42-C , 99-H ) :   0.9984
B( 43-C , 44-S ) :   1.0362 B( 43-C , 45-C ) :   1.6012 B( 45-C , 46-N ) :   1.1325
B( 45-C ,100-H ) :   0.9643 B( 46-N , 47-C ) :   1.3020 B( 46-N ,101-H ) :   0.8536
B( 47-C , 48-S ) :   1.1504 B( 47-C , 54-C ) :   1.2505 B( 48-S , 49-C ) :   1.0533
B( 49-C , 50-N ) :   0.9931 B( 49-C , 53-C ) :   1.4646 B( 50-N , 51-O ) :   1.4770
B( 50-N , 52-O ) :   1.5088 B( 51-O , 52-O ) :   0.2444 B( 53-C , 54-C ) :   1.2349
B( 53-C ,102-H ) :   1.0051 B( 54-C , 55-C ) :   1.1076 B( 55-C , 56-C ) :   1.5945
B( 55-C ,103-H ) :   0.9754 B( 56-C , 57-C ) :   1.1961 B( 56-C ,104-H ) :   0.9533
B( 57-C , 58-C ) :   1.5377 B( 57-C ,105-H ) :   0.9447 B( 58-C , 59-C ) :   1.0625
B( 58-C , 67-C ) :   0.9516 B( 59-C , 60-C ) :   1.5846 B( 59-C , 65-C ) :   1.0163
B( 60-C , 61-C ) :   1.1173 B( 60-C , 63-C ) :   1.2112 B( 61-C , 62-N ) :   2.9844
B( 63-C , 64-N ) :   2.8703 B( 64-N ,101-H ) :   0.1308 B( 65-C , 66-C ) :   1.2697
B( 65-C , 72-C ) :   1.4123 B( 66-C , 67-C ) :   0.9265 B( 66-C , 69-C ) :   1.4324
B( 67-C , 68-O ) :   2.2444 B( 69-C , 70-C ) :   1.2460 B( 69-C ,106-H ) :   1.0168
B( 70-C , 71-C ) :   1.3066 B( 70-C , 75-C ) :   1.1654 B( 71-C , 72-C ) :   1.3317
B( 71-C , 73-S ) :   1.0853 B( 72-C ,107-H ) :   0.9800 B( 73-S , 74-C ) :   1.0892
B( 74-C , 75-C ) :   1.6151 B( 74-C , 76-Br) :   1.0219 B( 75-C ,108-H ) :   1.0001

-----------------------------------------------------------------------------
         ABSORPTION SPECTRUM VIA TRANSITION ELECTRIC DIPOLE MOMENTS
-----------------------------------------------------------------------------
State   Energy  Wavelength   fosc         T2         TX        TY        TZ
        (cm-1)    (nm)                  (au**2)     (au)      (au)      (au)
-----------------------------------------------------------------------------
   0   11455.9    872.9   0.660718858  18.98726  -1.23741   3.18297  -2.70643
   1   15687.1    637.5   0.537460730  11.27923  -2.29153   1.81782  -1.65034
   2   18238.5    548.3   0.024795127   0.44756   0.01613   0.14805   0.65221
   3   20592.2    485.6   0.287811084   4.60130   0.34487   1.86327  -1.00529
   4   20941.7    477.5   0.167398498   2.63157  -0.70091   1.44801  -0.20870
   5   22524.9    444.0   0.324220208   4.73863   1.55104  -1.37738  -0.66009
   6   23558.3    424.5   0.289883480   4.05094   1.24741  -1.28301  -0.92130
   7   24985.5    400.2   0.051915624   0.68405   0.61586  -0.54049   0.11244
   8   25460.7    392.8   0.443968308   5.74059  -1.03119   2.02065   0.77085
   9   26734.4    374.0   0.352802820   4.34447  -1.53987   1.40309   0.06787
  10   26916.2    371.5   0.244997871   2.99657  -0.60592  -0.94616   1.31689
  11   26991.3    370.5   0.085783622   1.04630  -0.54052   0.40034  -0.77063
  12   27704.9    360.9   0.293563349   3.48835  -0.73783   1.33031   1.08363
  13   28617.0    349.4   0.143965841   1.65619  -0.24281   1.21906   0.33338
  14   28770.9    347.6   0.156021236   1.78528  -0.05418   1.23926   0.49656
  15   29114.7    343.5   0.094191824   1.06506  -0.14595   0.92791   0.42749
  16   29292.3    341.4   0.154698456   1.73863  -0.46489   1.20729   0.25490
  17   29592.4    337.9   0.096815881   1.07707  -0.20973  -0.89865  -0.47488
  18   29937.6    334.0   0.014089726   0.15494  -0.12028  -0.11629   0.35630
  19   30071.1    332.5   0.140412973   1.53721  -0.52993   1.07782   0.30771
  20   30387.2    329.1   0.209517973   2.26990   0.47770   0.35213  -1.38481
  21   30439.8    328.5   0.590140024   6.38247   0.46354   2.00701  -1.46271
  22   30852.0    324.1   0.081363249   0.86820  -0.45140  -0.72948  -0.36373
  23   31838.8    314.1   0.052823660   0.54619  -0.34658   0.34841   0.55199
  24   31919.0    313.3   0.053760139   0.55448  -0.29339   0.67413   0.11811
  25   32349.5    309.1   0.093833901   0.95492  -0.36181  -0.19474   0.88662
  26   32395.1    308.7   0.013403396   0.13621   0.06418  -0.04858  -0.36018
  27   33032.0    302.7   0.039679563   0.39546  -0.46013   0.35742   0.23662
  28   33242.8    300.8   0.081166019   0.80381   0.29585  -0.14196  -0.83434
  29   33674.1    297.0   0.019732409   0.19291   0.15844   0.18789  -0.36401
  30   33764.2    296.2   0.158708553   1.54746  -0.34829   1.12541  -0.39951
  31   33885.3    295.1   0.289823057   2.81577  -0.55087  -0.56420   1.48121
  32   34153.7    292.8   0.311889693   3.00634   0.46748   1.24232   1.11555
  33   34207.4    292.3   0.357669093   3.44220  -0.41681  -1.73349  -0.51330
  34   34765.5    287.6   0.053956881   0.51095   0.53084  -0.35974  -0.31582
  35   34911.9    286.4   0.024087317   0.22714   0.44710  -0.16395   0.01889
  36   35111.4    284.8   0.147830066   1.38609   0.70862  -0.93444   0.10373
  37   35465.8    282.0   0.036943844   0.34293   0.37066   0.18115  -0.41561
  38   35897.7    278.6   0.004305841   0.03949  -0.00525   0.08930   0.17744
  39   36076.6    277.2   0.073877816   0.67416   0.05046   0.65615  -0.49101
  40   36734.8    272.2   0.006283602   0.05631  -0.04257   0.20549  -0.11079
  41   37054.3    269.9   0.025742169   0.22871   0.08839  -0.35649   0.30629
  42   37323.5    267.9   0.029676920   0.26177   0.40363  -0.30140  -0.08947
  43   37753.5    264.9   0.107881097   0.94073   0.36491  -0.83074   0.34270
  44   37918.5    263.7   0.041858579   0.36342   0.22498  -0.05191  -0.55687
  45   38199.5    261.8   0.013535455   0.11665   0.24564  -0.23181  -0.05075
  46   38640.7    258.8   0.055212266   0.47040  -0.28891  -0.33516   0.52402
  47   38935.9    256.8   0.034228008   0.28941   0.02710  -0.35302   0.40502
  48   38995.5    256.4   0.093981724   0.79342  -0.25122   0.55396  -0.65072
  49   39207.1    255.1   0.132997539   1.11675   0.65373  -0.82398  -0.10222
  50   39441.6    253.5   0.034803139   0.29050   0.41084  -0.29118   0.19215
  51   39491.2    253.2   0.033332290   0.27787  -0.21765   0.46740   0.10971
  52   39726.8    251.7   0.025735168   0.21326   0.03701   0.08317   0.45275
  53   39763.0    251.5   0.038485779   0.31864   0.51349  -0.09767  -0.21313
  54   39962.9    250.2   0.166404407   1.37083  -1.11355   0.36149  -0.01248
  55   40056.5    249.6   0.061583941   0.50614   0.24696  -0.54840   0.38001
  56   40207.7    248.7   0.047588237   0.38964  -0.31535   0.47766  -0.24908

FINAL SINGLE POINT ENERGY    -10143.547354156959

DIPOLE MOMENT
-------------
                                X             Y             Z
Electronic contribution:     32.26825      11.19282    -134.76161
Nuclear contribution   :    -34.30823      -9.41890     134.27435
                        -----------------------------------------
Total Dipole Moment    :     -2.03998       1.77393      -0.48726
                        -----------------------------------------
Magnitude (a.u.)       :      2.74695
Magnitude (Debye)      :      6.98220

Rotational constants in cm-1:     0.000860     0.000143     0.000131
Rotational constants in MHz :    25.775351     4.300434     3.918075

                             ****ORCA TERMINATED NORMALLY****
TOTAL RUN TIME: 0 days 0 hours 12 minutes 33 seconds 866 msec
