                         Program Version 4.2.0 -  RELEASE  -
|  1> # ORCA input file
|  2> # SCF done       -158.886264364737          0.000790036920
|  3> ! CAM-B3LYP def2-SVP def2/J RIJCOSX Grid4 TightSCF
|  4> %maxcore 5000
|  5> %tddft
|  6>     Mode sTDDFT
|  7>     Ethresh 5.0
|  8>     maxcore 5000
|  9> end
| 10>
| 11> %pal
| 12>   nprocs 6
| 13>   end
| 14> * xyz 0 1
| 15>    C        1.29705        11.77060        12.22185
| 16>    C        2.30179        12.64556        12.53216
| 17>    C        2.33026        14.02038        12.28839
| 18>    N        2.34823        15.14941        12.08455
| 19>    S        3.64938        11.85436        13.32208
| 20>    C        2.83463        10.33227        13.22243
| 21>    C        1.58783        10.44809        12.61413
| 22>    C        0.70647         9.36142        12.47801
| 23>    N       -0.01212         8.47032        12.41347
| 24>    N        3.35988         9.15104        13.65478
| 25>    C        4.46505         8.93414        14.41586
| 26>    S        5.36123        10.22728        15.13546
| 27>    C        6.40206         9.06302        15.89540
| 28>    N        7.43820         9.55609        16.69422
| 29>    O        8.17560         8.75022        17.22962
| 30>    O        7.51777        10.76902        16.79360
| 31>    C        6.07648         7.76729        15.60371
| 32>    C        4.96571         7.66348        14.74495
| 33>    C        4.42250         6.44591        14.21276
| 34>    C        4.81111         5.20417        14.56797
| 35>    C        4.32181         3.99033        14.00128
| 36>    C        3.49432         3.76205        12.90616
| 37>    C        2.98493         4.79480        12.10485
| 38>    N        2.60142         5.66995        11.46819
| 39>    C        3.26335         2.37806        12.67462
| 40>    C        3.93003         1.59171        13.60966
| 41>    S        4.83230         2.49633        14.75655
| 42>    S        3.72105        -0.11723        13.42628
| 43>    C        2.71038         0.21510        12.05619
| 44>    C        2.54104         1.56180        11.75233
| 45>    C        1.70222         1.72869        10.62149
| 46>    C        1.33073         2.94191        10.03200
| 47>    N        0.99466         3.90604         9.50605
| 48>    C        1.25144         0.50852        10.09723
| 49>    S        1.87409        -0.86050        11.00291
| 50>    C        0.40047         0.36292         8.99280
| 51>    C       -0.06128        -0.81378         8.45408
| 52>    C       -0.93967        -0.93897         7.34915
| 53>    C       -1.25138        -2.22570         7.02192
| 54>    C       -0.63392        -3.18837         7.84461
| 55>    S        0.36023        -2.40280         9.05564
| 56>    C       -0.72374        -4.56852         7.80175
| 57>    C       -1.47966        -5.38474         6.93685
| 58>    C       -1.33952        -6.72019         7.18380
| 59>    C       -0.46517        -7.02914         8.24957
| 60>    S        0.17714        -5.55083         8.93423
| 61>    C       -0.14966        -8.29308         8.70452
| 62>    C        0.71918        -8.62867         9.73754
| 63>    S        1.60989        -7.44299        10.64853
| 64>    C        2.38679        -8.63681        11.63070
| 65>    C        1.96721        -9.92649        11.27419
| 66>    C        1.02459        -9.93111        10.20672
| 67>    C        0.51669       -11.14883         9.74666
| 68>    C        0.91707       -12.34206        10.31307
| 69>    C        0.38142       -13.60579         9.81355
| 70>    C       -0.84378       -13.77052         9.33135
| 71>    C        1.86414       -12.33883        11.37779
| 72>    C        2.29277       -13.62826        12.00956
| 73>    C        2.36696       -11.15199        11.83980
| 74>    C        3.31979        -8.27172        12.64639
| 75>    C        3.68266        -7.01834        12.93369
| 76>    H        0.38244        12.06137        11.73695
| 77>    H        2.83474         8.32558        13.37775
| 78>    H        6.63691         6.93769        15.99273
| 79>    H        3.66374         6.54650        13.45283
| 80>    H        5.54410         5.07042        15.35124
| 81>    H        0.07443         1.28390         8.52642
| 82>    H       -1.31338        -0.07083         6.83600
| 83>    H       -1.90377        -2.50339         6.21343
| 84>    H       -2.10463        -4.97289         6.16505
| 85>    H       -1.83999        -7.49422         6.62851
| 86>    H       -0.63316        -9.11583         8.19412
| 87>    H       -0.18216       -11.16205         8.92475
| 88>    H        1.04891       -14.45553         9.85976
| 89>    H       -1.56120       -12.96749         9.29947
| 90>    H       -1.18256       -14.72487         8.96639
| 91>    H        1.42736       -14.20597        12.33042
| 92>    H        2.92391       -13.43772        12.87400
| 93>    H        2.85947       -14.23335        11.30169
| 94>    H        3.07869       -11.15214        12.65178
| 95>    H        3.74724        -9.09487        13.20323
| 96>    H        3.27711        -6.17814        12.39473
| 97>    H        4.39463        -6.80181        13.70959
| 98> *
| 99>
|100>                          ****END OF INPUT****

CARTESIAN COORDINATES (ANGSTROEM)
---------------------------------
  C      1.297050   11.770600   12.221850
  C      2.301790   12.645560   12.532160
  C      2.330260   14.020380   12.288390
  N      2.348230   15.149410   12.084550
  S      3.649380   11.854360   13.322080
  C      2.834630   10.332270   13.222430
  C      1.587830   10.448090   12.614130
  C      0.706470    9.361420   12.478010
  N     -0.012120    8.470320   12.413470
  N      3.359880    9.151040   13.654780
  C      4.465050    8.934140   14.415860
  S      5.361230   10.227280   15.135460
  C      6.402060    9.063020   15.895400
  N      7.438200    9.556090   16.694220
  O      8.175600    8.750220   17.229620
  O      7.517770   10.769020   16.793600
  C      6.076480    7.767290   15.603710
  C      4.965710    7.663480   14.744950
  C      4.422500    6.445910   14.212760
  C      4.811110    5.204170   14.567970
  C      4.321810    3.990330   14.001280
  C      3.494320    3.762050   12.906160
  C      2.984930    4.794800   12.104850
  N      2.601420    5.669950   11.468190
  C      3.263350    2.378060   12.674620
  C      3.930030    1.591710   13.609660
  S      4.832300    2.496330   14.756550
  S      3.721050   -0.117230   13.426280
  C      2.710380    0.215100   12.056190
  C      2.541040    1.561800   11.752330
  C      1.702220    1.728690   10.621490
  C      1.330730    2.941910   10.032000
  N      0.994660    3.906040    9.506050
  C      1.251440    0.508520   10.097230
  S      1.874090   -0.860500   11.002910
  C      0.400470    0.362920    8.992800
  C     -0.061280   -0.813780    8.454080
  C     -0.939670   -0.938970    7.349150
  C     -1.251380   -2.225700    7.021920
  C     -0.633920   -3.188370    7.844610
  S      0.360230   -2.402800    9.055640
  C     -0.723740   -4.568520    7.801750
  C     -1.479660   -5.384740    6.936850
  C     -1.339520   -6.720190    7.183800
  C     -0.465170   -7.029140    8.249570
  S      0.177140   -5.550830    8.934230
  C     -0.149660   -8.293080    8.704520
  C      0.719180   -8.628670    9.737540
  S      1.609890   -7.442990   10.648530
  C      2.386790   -8.636810   11.630700
  C      1.967210   -9.926490   11.274190
  C      1.024590   -9.931110   10.206720
  C      0.516690  -11.148830    9.746660
  C      0.917070  -12.342060   10.313070
  C      0.381420  -13.605790    9.813550
  C     -0.843780  -13.770520    9.331350
  C      1.864140  -12.338830   11.377790
  C      2.292770  -13.628260   12.009560
  C      2.366960  -11.151990   11.839800
  C      3.319790   -8.271720   12.646390
  C      3.682660   -7.018340   12.933690
  H      0.382440   12.061370   11.736950
  H      2.834740    8.325580   13.377750
  H      6.636910    6.937690   15.992730
  H      3.663740    6.546500   13.452830
  H      5.544100    5.070420   15.351240
  H      0.074430    1.283900    8.526420
  H     -1.313380   -0.070830    6.836000
  H     -1.903770   -2.503390    6.213430
  H     -2.104630   -4.972890    6.165050
  H     -1.839990   -7.494220    6.628510
  H     -0.633160   -9.115830    8.194120
  H     -0.182160  -11.162050    8.924750
  H      1.048910  -14.455530    9.859760
  H     -1.561200  -12.967490    9.299470
  H     -1.182560  -14.724870    8.966390
  H      1.427360  -14.205970   12.330420
  H      2.923910  -13.437720   12.874000
  H      2.859470  -14.233350   11.301690
  H      3.078690  -11.152140   12.651780
  H      3.747240   -9.094870   13.203230
  H      3.277110   -6.178140   12.394730
  H      4.394630   -6.801810   13.709590

 Total Charge           Charge          ....    0
 Multiplicity           Mult            ....    1
 Number of Electrons    NEL             ....  478
 Basis Dimension        Dim             ....  996

ORBITAL ENERGIES
----------------

  NO   OCC          E(Eh)            E(eV)
   0   2.0000     -89.005343     -2421.9585
   1   2.0000     -88.999246     -2421.7926
   2   2.0000     -88.987199     -2421.4648
   3   2.0000     -88.984057     -2421.3793
   4   2.0000     -88.978027     -2421.2152
   5   2.0000     -88.966796     -2420.9096
   6   2.0000     -88.954383     -2420.5718
   7   2.0000     -88.953477     -2420.5472
   8   2.0000     -19.242853      -523.6247
   9   2.0000     -19.242628      -523.6185
  10   2.0000     -14.654864      -398.7791
  11   2.0000     -14.510839      -394.8600
  12   2.0000     -14.416519      -392.2934
  13   2.0000     -14.414924      -392.2500
  14   2.0000     -14.411472      -392.1561
  15   2.0000     -14.392755      -391.6468
  16   2.0000     -10.394663      -282.8532
  17   2.0000     -10.385729      -282.6101
  18   2.0000     -10.351066      -281.6668
  19   2.0000     -10.346344      -281.5383
  20   2.0000     -10.338282      -281.3190
  21   2.0000     -10.337060      -281.2857
  22   2.0000     -10.329822      -281.0887
  23   2.0000     -10.329563      -281.0817
  24   2.0000     -10.326992      -281.0117
  25   2.0000     -10.324514      -280.9443
  26   2.0000     -10.324449      -280.9425
  27   2.0000     -10.319727      -280.8141
  28   2.0000     -10.319141      -280.7981
  29   2.0000     -10.317910      -280.7646
  30   2.0000     -10.317151      -280.7440
  31   2.0000     -10.316467      -280.7253
  32   2.0000     -10.313528      -280.6454
  33   2.0000     -10.312102      -280.6066
  34   2.0000     -10.311937      -280.6021
  35   2.0000     -10.311880      -280.6005
  36   2.0000     -10.309806      -280.5441
  37   2.0000     -10.308980      -280.5216
  38   2.0000     -10.308722      -280.5146
  39   2.0000     -10.306914      -280.4654
  40   2.0000     -10.306108      -280.4435
  41   2.0000     -10.305184      -280.4183
  42   2.0000     -10.304842      -280.4090
  43   2.0000     -10.297304      -280.2039
  44   2.0000     -10.293656      -280.1046
  45   2.0000     -10.293070      -280.0887
  46   2.0000     -10.293061      -280.0884
  47   2.0000     -10.290128      -280.0086
  48   2.0000     -10.287043      -279.9247
  49   2.0000     -10.286329      -279.9053
  50   2.0000     -10.285709      -279.8884
  51   2.0000     -10.284263      -279.8490
  52   2.0000     -10.282742      -279.8076
  53   2.0000     -10.282309      -279.7959
  54   2.0000     -10.281541      -279.7750
  55   2.0000     -10.277398      -279.6622
  56   2.0000     -10.276828      -279.6467
  57   2.0000     -10.273556      -279.5577
  58   2.0000     -10.270966      -279.4872
  59   2.0000     -10.269095      -279.4363
  60   2.0000     -10.268541      -279.4212
  61   2.0000      -8.100550      -220.4272
  62   2.0000      -8.094466      -220.2616
  63   2.0000      -8.082671      -219.9407
  64   2.0000      -8.079159      -219.8451
  65   2.0000      -8.072841      -219.6732
  66   2.0000      -8.061523      -219.3652
  67   2.0000      -8.050389      -219.0622
  68   2.0000      -8.049618      -219.0412
  69   2.0000      -6.070202      -165.1786
  70   2.0000      -6.065728      -165.0569
  71   2.0000      -6.064212      -165.0156
  72   2.0000      -6.062088      -164.9578
  73   2.0000      -6.059651      -164.8915
  74   2.0000      -6.055886      -164.7890
  75   2.0000      -6.052183      -164.6883
  76   2.0000      -6.049138      -164.6054
  77   2.0000      -6.047989      -164.5741
  78   2.0000      -6.044936      -164.4911
  79   2.0000      -6.044370      -164.4757
  80   2.0000      -6.042503      -164.4249
  81   2.0000      -6.039960      -164.3557
  82   2.0000      -6.038148      -164.3064
  83   2.0000      -6.034415      -164.2048
  84   2.0000      -6.030565      -164.1000
  85   2.0000      -6.026392      -163.9865
  86   2.0000      -6.024292      -163.9293
  87   2.0000      -6.020145      -163.8165
  88   2.0000      -6.019379      -163.7956
  89   2.0000      -6.015919      -163.7015
  90   2.0000      -6.015223      -163.6825
  91   2.0000      -6.011450      -163.5799
  92   2.0000      -6.010605      -163.5569
  93   2.0000      -1.324186       -36.0329
  94   2.0000      -1.143461       -31.1152
  95   2.0000      -1.119932       -30.4749
  96   2.0000      -1.038556       -28.2605
  97   2.0000      -1.031837       -28.0777
  98   2.0000      -1.011638       -27.5281
  99   2.0000      -1.008132       -27.4327
 100   2.0000      -1.004103       -27.3230
 101   2.0000      -1.000069       -27.2133
 102   2.0000      -0.997338       -27.1389
 103   2.0000      -0.992847       -27.0167
 104   2.0000      -0.989371       -26.9221
 105   2.0000      -0.979251       -26.6468
 106   2.0000      -0.974231       -26.5102
 107   2.0000      -0.949854       -25.8468
 108   2.0000      -0.946035       -25.7429
 109   2.0000      -0.927798       -25.2467
 110   2.0000      -0.910379       -24.7727
 111   2.0000      -0.905637       -24.6436
 112   2.0000      -0.896458       -24.3939
 113   2.0000      -0.890571       -24.2337
 114   2.0000      -0.884991       -24.0818
 115   2.0000      -0.879646       -23.9364
 116   2.0000      -0.872517       -23.7424
 117   2.0000      -0.870005       -23.6740
 118   2.0000      -0.865368       -23.5479
 119   2.0000      -0.859559       -23.3898
 120   2.0000      -0.856520       -23.3071
 121   2.0000      -0.849254       -23.1094
 122   2.0000      -0.832513       -22.6538
 123   2.0000      -0.829553       -22.5733
 124   2.0000      -0.819818       -22.3084
 125   2.0000      -0.813359       -22.1326
 126   2.0000      -0.801829       -21.8189
 127   2.0000      -0.792471       -21.5642
 128   2.0000      -0.779066       -21.1995
 129   2.0000      -0.766074       -20.8459
 130   2.0000      -0.756750       -20.5922
 131   2.0000      -0.747557       -20.3421
 132   2.0000      -0.735806       -20.0223
 133   2.0000      -0.718303       -19.5460
 134   2.0000      -0.717717       -19.5301
 135   2.0000      -0.716095       -19.4859
 136   2.0000      -0.705939       -19.2096
 137   2.0000      -0.692823       -18.8527
 138   2.0000      -0.688745       -18.7417
 139   2.0000      -0.682468       -18.5709
 140   2.0000      -0.672886       -18.3102
 141   2.0000      -0.667090       -18.1524
 142   2.0000      -0.662911       -18.0387
 143   2.0000      -0.653410       -17.7802
 144   2.0000      -0.647678       -17.6242
 145   2.0000      -0.640541       -17.4300
 146   2.0000      -0.638355       -17.3705
 147   2.0000      -0.636247       -17.3132
 148   2.0000      -0.633514       -17.2388
 149   2.0000      -0.631305       -17.1787
 150   2.0000      -0.629790       -17.1374
 151   2.0000      -0.620549       -16.8860
 152   2.0000      -0.606725       -16.5098
 153   2.0000      -0.602059       -16.3829
 154   2.0000      -0.599313       -16.3081
 155   2.0000      -0.597025       -16.2459
 156   2.0000      -0.584403       -15.9024
 157   2.0000      -0.580799       -15.8043
 158   2.0000      -0.578857       -15.7515
 159   2.0000      -0.574204       -15.6249
 160   2.0000      -0.571293       -15.5457
 161   2.0000      -0.567902       -15.4534
 162   2.0000      -0.559750       -15.2316
 163   2.0000      -0.552979       -15.0473
 164   2.0000      -0.548094       -14.9144
 165   2.0000      -0.539224       -14.6730
 166   2.0000      -0.538406       -14.6508
 167   2.0000      -0.532566       -14.4919
 168   2.0000      -0.527197       -14.3458
 169   2.0000      -0.526028       -14.3139
 170   2.0000      -0.524286       -14.2666
 171   2.0000      -0.519090       -14.1252
 172   2.0000      -0.518537       -14.1101
 173   2.0000      -0.514732       -14.0066
 174   2.0000      -0.513646       -13.9770
 175   2.0000      -0.509835       -13.8733
 176   2.0000      -0.507337       -13.8054
 177   2.0000      -0.505514       -13.7557
 178   2.0000      -0.501822       -13.6553
 179   2.0000      -0.500447       -13.6179
 180   2.0000      -0.493436       -13.4271
 181   2.0000      -0.492044       -13.3892
 182   2.0000      -0.489948       -13.3322
 183   2.0000      -0.488447       -13.2913
 184   2.0000      -0.487397       -13.2627
 185   2.0000      -0.483559       -13.1583
 186   2.0000      -0.480951       -13.0873
 187   2.0000      -0.475913       -12.9503
 188   2.0000      -0.475360       -12.9352
 189   2.0000      -0.470204       -12.7949
 190   2.0000      -0.465988       -12.6802
 191   2.0000      -0.465772       -12.6743
 192   2.0000      -0.460009       -12.5175
 193   2.0000      -0.457213       -12.4414
 194   2.0000      -0.456188       -12.4135
 195   2.0000      -0.455172       -12.3859
 196   2.0000      -0.453518       -12.3409
 197   2.0000      -0.449302       -12.2261
 198   2.0000      -0.446615       -12.1530
 199   2.0000      -0.443891       -12.0789
 200   2.0000      -0.441714       -12.0197
 201   2.0000      -0.439612       -11.9625
 202   2.0000      -0.438385       -11.9291
 203   2.0000      -0.433785       -11.8039
 204   2.0000      -0.429291       -11.6816
 205   2.0000      -0.427093       -11.6218
 206   2.0000      -0.425835       -11.5876
 207   2.0000      -0.423967       -11.5367
 208   2.0000      -0.421377       -11.4663
 209   2.0000      -0.419185       -11.4066
 210   2.0000      -0.418538       -11.3890
 211   2.0000      -0.417496       -11.3606
 212   2.0000      -0.416398       -11.3308
 213   2.0000      -0.416094       -11.3225
 214   2.0000      -0.414308       -11.2739
 215   2.0000      -0.408563       -11.1176
 216   2.0000      -0.400341       -10.8938
 217   2.0000      -0.390229       -10.6187
 218   2.0000      -0.388933       -10.5834
 219   2.0000      -0.383362       -10.4318
 220   2.0000      -0.382404       -10.4057
 221   2.0000      -0.379312       -10.3216
 222   2.0000      -0.371606       -10.1119
 223   2.0000      -0.371601       -10.1118
 224   2.0000      -0.367451        -9.9988
 225   2.0000      -0.359593        -9.7850
 226   2.0000      -0.352970        -9.6048
 227   2.0000      -0.347533        -9.4568
 228   2.0000      -0.343317        -9.3421
 229   2.0000      -0.336807        -9.1650
 230   2.0000      -0.333807        -9.0833
 231   2.0000      -0.328207        -8.9310
 232   2.0000      -0.315796        -8.5932
 233   2.0000      -0.299627        -8.1533
 234   2.0000      -0.296186        -8.0596
 235   2.0000      -0.295460        -8.0399
 236   2.0000      -0.263575        -7.1722
 237   2.0000      -0.256179        -6.9710
 238   2.0000      -0.207093        -5.6353
 239   0.0000      -0.096214        -2.6181
 240   0.0000      -0.069454        -1.8899
 241   0.0000      -0.060903        -1.6573
 242   0.0000      -0.041779        -1.1369
 243   0.0000      -0.023719        -0.6454

MULLIKEN ATOMIC CHARGES
-----------------------
   0 C :    0.115087
   1 C :   -0.262920
   2 C :   -0.137954
   3 N :    0.140159
   4 S :    0.190032
   5 C :   -0.059162
   6 C :   -0.052214
   7 C :   -0.227040
   8 N :    0.174220
   9 N :   -0.008938
  10 C :   -0.094988
  11 S :    0.162317
  12 C :    0.002451
  13 N :    0.276170
  14 O :   -0.246842
  15 O :   -0.261808
  16 C :    0.015905
  17 C :    0.124691
  18 C :   -0.037229
  19 C :    0.043402
  20 C :   -0.108789
  21 C :   -0.020204
  22 C :   -0.291328
  23 N :    0.177916
  24 C :    0.149185
  25 C :   -0.237506
  26 S :    0.167712
  27 S :    0.183999
  28 C :   -0.231328
  29 C :    0.174436
  30 C :   -0.035956
  31 C :   -0.327619
  32 N :    0.196563
  33 C :   -0.067971
  34 S :    0.135454
  35 C :   -0.046164
  36 C :   -0.022193
  37 C :    0.026269
  38 C :    0.038167
  39 C :   -0.039563
  40 S :    0.051687
  41 C :   -0.022198
  42 C :    0.021724
  43 C :    0.036978
  44 C :   -0.046397
  45 S :    0.064004
  46 C :   -0.003924
  47 C :   -0.099275
  48 S :    0.116420
  49 C :   -0.101195
  50 C :    0.133213
  51 C :    0.143374
  52 C :   -0.110190
  53 C :    0.085156
  54 C :   -0.038440
  55 C :   -0.012313
  56 C :   -0.077204
  57 C :    0.097158
  58 C :   -0.096488
  59 C :    0.000192
  60 C :   -0.026237
  61 H :    0.019253
  62 H :    0.180039
  63 H :    0.014343
  64 H :   -0.019476
  65 H :   -0.020558
  66 H :    0.012693
  67 H :   -0.004557
  68 H :   -0.010385
  69 H :   -0.013325
  70 H :   -0.009970
  71 H :   -0.014330
  72 H :   -0.037340
  73 H :   -0.002044
  74 H :    0.019106
  75 H :    0.023081
  76 H :    0.031701
  77 H :    0.009454
  78 H :    0.032070
  79 H :   -0.042276
  80 H :   -0.008312
  81 H :    0.022703
  82 H :    0.025661
Sum of atomic charges:   -0.0000000

LOEWDIN ATOMIC CHARGES
----------------------
   0 C :    0.028408
   1 C :   -0.229942
   2 C :   -0.058429
   3 N :   -0.040807
   4 S :    0.473850
   5 C :   -0.088705
   6 C :   -0.144488
   7 C :   -0.048593
   8 N :   -0.032224
   9 N :    0.041736
  10 C :   -0.101818
  11 S :    0.463087
  12 C :   -0.207907
  13 N :    0.273906
  14 O :   -0.213420
  15 O :   -0.228205
  16 C :    0.008422
  17 C :   -0.099301
  18 C :   -0.010289
  19 C :   -0.047562
  20 C :   -0.130297
  21 C :   -0.102102
  22 C :   -0.028100
  23 N :   -0.043301
  24 C :   -0.059014
  25 C :   -0.336571
  26 S :    0.452965
  27 S :    0.418903
  28 C :   -0.340837
  29 C :   -0.060372
  30 C :   -0.114895
  31 C :   -0.043385
  32 N :   -0.047758
  33 C :   -0.125013
  34 S :    0.436326
  35 C :   -0.086157
  36 C :   -0.137592
  37 C :   -0.036661
  38 C :   -0.026396
  39 C :   -0.187509
  40 S :    0.367368
  41 C :   -0.163635
  42 C :   -0.047302
  43 C :   -0.021941
  44 C :   -0.166858
  45 S :    0.376124
  46 C :   -0.053725
  47 C :   -0.180265
  48 S :    0.472704
  49 C :   -0.175421
  50 C :   -0.042052
  51 C :   -0.039247
  52 C :   -0.007411
  53 C :   -0.025151
  54 C :   -0.021024
  55 C :   -0.037631
  56 C :   -0.016304
  57 C :   -0.044904
  58 C :   -0.025662
  59 C :   -0.040335
  60 C :   -0.047752
  61 H :    0.053416
  62 H :    0.112689
  63 H :    0.045842
  64 H :    0.030363
  65 H :    0.028180
  66 H :    0.048926
  67 H :    0.036676
  68 H :    0.034021
  69 H :    0.032252
  70 H :    0.034473
  71 H :    0.039938
  72 H :    0.024714
  73 H :    0.029040
  74 H :    0.021036
  75 H :    0.025359
  76 H :    0.035799
  77 H :    0.030168
  78 H :    0.035142
  79 H :    0.023961
  80 H :    0.034387
  81 H :    0.017256
  82 H :    0.026831

  Mayer bond orders larger than 0.100000
B(  0-C ,  1-C ) :   1.5559 B(  0-C ,  6-C ) :   1.2810 B(  0-C , 61-H ) :   1.0059
B(  1-C ,  2-C ) :   1.1753 B(  1-C ,  4-S ) :   1.0756 B(  2-C ,  3-N ) :   3.0182
B(  4-S ,  5-C ) :   1.1513 B(  5-C ,  6-C ) :   1.4318 B(  5-C ,  9-N ) :   1.2035
B(  6-C ,  7-C ) :   1.0832 B(  7-C ,  8-N ) :   3.0329 B(  9-N , 10-C ) :   1.1951
B(  9-N , 62-H ) :   0.8765 B( 10-C , 11-S ) :   1.1377 B( 10-C , 17-C ) :   1.3604
B( 11-S , 12-C ) :   1.0768 B( 12-C , 13-N ) :   0.9721 B( 12-C , 16-C ) :   1.4971
B( 13-N , 14-O ) :   1.5331 B( 13-N , 15-O ) :   1.5108 B( 14-O , 15-O ) :   0.2594
B( 16-C , 17-C ) :   1.2356 B( 16-C , 63-H ) :   0.9978 B( 17-C , 18-C ) :   1.0829
B( 18-C , 19-C ) :   1.7420 B( 18-C , 64-H ) :   0.9460 B( 19-C , 20-C ) :   1.1342
B( 19-C , 65-H ) :   0.9433 B( 20-C , 21-C ) :   1.4873 B( 20-C , 26-S ) :   1.1317
B( 21-C , 22-C ) :   1.1797 B( 21-C , 24-C ) :   1.2680 B( 22-C , 23-N ) :   2.9245
B( 24-C , 25-C ) :   1.4055 B( 24-C , 29-C ) :   1.0533 B( 25-C , 26-S ) :   1.0897
B( 25-C , 27-S ) :   1.0841 B( 27-S , 28-C ) :   1.0747 B( 28-C , 29-C ) :   1.4062
B( 28-C , 34-S ) :   1.0869 B( 29-C , 30-C ) :   1.2658 B( 30-C , 31-C ) :   1.1937
B( 30-C , 33-C ) :   1.4364 B( 31-C , 32-N ) :   2.9743 B( 33-C , 34-S ) :   1.0959
B( 33-C , 35-C ) :   1.2411 B( 35-C , 36-C ) :   1.5284 B( 35-C , 66-H ) :   0.9620
B( 36-C , 37-C ) :   1.1566 B( 36-C , 40-S ) :   1.0486 B( 37-C , 38-C ) :   1.5696
B( 37-C , 67-H ) :   1.0012 B( 38-C , 39-C ) :   1.2035 B( 38-C , 68-H ) :   0.9936
B( 39-C , 40-S ) :   1.0334 B( 39-C , 41-C ) :   1.4856 B( 41-C , 42-C ) :   1.2043
B( 41-C , 45-S ) :   1.0546 B( 42-C , 43-C ) :   1.5600 B( 42-C , 69-H ) :   0.9939
B( 43-C , 44-C ) :   1.1727 B( 43-C , 70-H ) :   0.9993 B( 44-C , 45-S ) :   1.0352
B( 44-C , 46-C ) :   1.5102 B( 46-C , 47-C ) :   1.2693 B( 46-C , 71-H ) :   0.9623
B( 47-C , 48-S ) :   1.1155 B( 47-C , 51-C ) :   1.2496 B( 48-S , 49-C ) :   1.1408
B( 49-C , 50-C ) :   1.3163 B( 49-C , 59-C ) :   1.1580 B( 50-C , 51-C ) :   1.2267
B( 50-C , 58-C ) :   1.1884 B( 51-C , 52-C ) :   1.2246 B( 52-C , 53-C ) :   1.4968
B( 52-C , 72-H ) :   0.9900 B( 53-C , 54-C ) :   1.0330 B( 53-C , 56-C ) :   1.2124
B( 54-C , 55-C ) :   1.9742 B( 54-C , 73-H ) :   0.9506 B( 55-C , 74-H ) :   0.9574
B( 55-C , 75-H ) :   0.9499 B( 56-C , 57-C ) :   1.0864 B( 56-C , 58-C ) :   1.5557
B( 57-C , 76-H ) :   0.9437 B( 57-C , 77-H ) :   0.9539 B( 57-C , 78-H ) :   0.9409
B( 58-C , 79-H ) :   0.9898 B( 59-C , 60-C ) :   1.8887 B( 59-C , 80-H ) :   0.9586
B( 60-C , 81-H ) :   0.9566 B( 60-C , 82-H ) :   0.9493

-----------------------------------------------------------------------------
         ABSORPTION SPECTRUM VIA TRANSITION ELECTRIC DIPOLE MOMENTS
-----------------------------------------------------------------------------
State   Energy  Wavelength   fosc         T2         TX        TY        TZ
        (cm-1)    (nm)                  (au**2)     (au)      (au)      (au)
-----------------------------------------------------------------------------
   0   11190.7    893.6   1.052316550  30.95731  -0.29699   5.53085  -0.52798
   1   19026.3    525.6   0.012646590   0.21882  -0.24379  -0.25810  -0.30459
   2   20674.0    483.7   0.027305746   0.43482   0.34330   0.29653   0.47857
   3   23065.4    433.5   1.159956394  16.55604  -2.18129  -2.10825  -2.71169
   4   23503.9    425.5   0.004527830   0.06342   0.00267   0.24320   0.06533
   5   25438.3    393.1   0.676756349   8.75830  -1.62375   2.20487  -1.12263
   6   25799.1    387.6   0.003720641   0.04748   0.07904  -0.13499   0.15169
   7   26600.0    375.9   0.565335530   6.99682   0.95411   2.26918   0.96815
   8   26989.4    370.5   0.019651682   0.23971   0.07529   0.48093   0.05241
   9   28669.0    348.8   0.006148562   0.07061  -0.00030  -0.21610   0.15461
  10   28871.2    346.4   0.033818344   0.38562   0.01392  -0.61461   0.08768
  11   30692.7    325.8   0.132430338   1.42046   0.70047  -0.41653   0.86966
  12   30986.0    322.7   0.030410615   0.32310   0.27420  -0.34090   0.36290
  13   31166.5    320.9   0.049367944   0.52147  -0.46839   0.17932  -0.51955
  14   31949.3    313.0   0.162713166   1.67663   0.79668   0.61225   0.81675
  15   32394.0    308.7   0.041541274   0.42217  -0.46267   0.01159  -0.45604
  16   32670.9    306.1   0.085028143   0.85680  -0.30817  -0.85106  -0.19372
  17   32996.3    303.1   0.157972517   1.57613   0.61551  -0.81537   0.72969
  18   33298.0    300.3   0.236526506   2.33850  -1.00274  -0.91246  -0.70742
  19   33924.8    294.8   0.049973796   0.48495  -0.26284  -0.61786  -0.18472
  20   34038.7    293.8   0.043990201   0.42546   0.35467   0.45775   0.30022
  21   34811.1    287.3   0.066455465   0.62848   0.51788   0.32949   0.50171
  22   35011.2    285.6   0.050871357   0.47835  -0.24358   0.62139  -0.18136
  23   35403.5    282.5   0.273970785   2.54762   0.37794   1.53048   0.24983
  24   36015.4    277.7   0.007564977   0.06915   0.05949  -0.15077   0.20708
  25   36030.5    277.5   0.003855954   0.03523   0.01270  -0.18482   0.03018
  26   36604.8    273.2   0.000650415   0.00585   0.05238   0.02552   0.04954
  27   36706.4    272.4   0.000324699   0.00291  -0.03426   0.03099  -0.02789
  28   36917.7    270.9   0.013103099   0.11685   0.29022  -0.10407   0.14761
  29   37295.6    268.1   0.073521524   0.64898  -0.33089  -0.70557  -0.20411
  30   37880.5    264.0   0.043409160   0.37726  -0.35229  -0.26908  -0.42515
  31   37976.7    263.3   0.004794276   0.04156   0.13671  -0.06122   0.13829
  32   38178.7    261.9   0.051419432   0.44339  -0.36749   0.26940  -0.48555
  33   39352.1    254.1   0.001781527   0.01490  -0.08572   0.04212  -0.07603
  34   39843.4    251.0   0.037368709   0.30876  -0.31270  -0.32547  -0.32412
  35   40092.1    249.4   0.173931657   1.42822  -0.29039  -1.14739  -0.16547
  36   40221.9    248.6   0.000070929   0.00058  -0.00369   0.02117  -0.01090

FINAL SINGLE POINT ENERGY     -5388.499724764772

DIPOLE MOMENT
-------------
                                X             Y             Z
Electronic contribution:     18.86964     113.98367      19.24249
Nuclear contribution   :    -19.51816    -120.03014     -19.62066
                        -----------------------------------------
Total Dipole Moment    :     -0.64852      -6.04647      -0.37817
                        -----------------------------------------
Magnitude (a.u.)       :      6.09289
Magnitude (Debye)      :     15.48691

Rotational constants in cm-1:     0.002479     0.000264     0.000240
Rotational constants in MHz :    74.312590     7.920782     7.198902

                             ****ORCA TERMINATED NORMALLY****
TOTAL RUN TIME: 0 days 0 hours 10 minutes 33 seconds 234 msec
