                         Program Version 4.2.0 -  RELEASE  -
|  1> # ORCA input file
|  2> # SCF done       -160.851706024764          0.000771843671
|  3> ! CAM-B3LYP def2-SVP def2/J RIJCOSX Grid4 TightSCF
|  4> %maxcore 5000
|  5> %tddft
|  6>     Mode sTDDFT
|  7>     Ethresh 5.0
|  8>     maxcore 5000
|  9> end
| 10>
| 11> %pal
| 12>   nprocs 6
| 13>   end
| 14> * xyz 0 1
| 15>    C        4.16415       -12.92602        -5.16191
| 16>    C        3.52858       -11.79136        -4.83495
| 17>    C        2.70116       -10.97984        -5.67906
| 18>    C        2.17970        -9.89151        -5.07110
| 19>    C        2.54026        -9.75634        -3.70041
| 20>    S        3.59279       -11.07233        -3.21920
| 21>    C        2.13041        -8.77820        -2.82934
| 22>    C        1.29067        -7.66707        -3.10332
| 23>    C        0.99753        -6.90957        -2.01932
| 24>    C        1.55415        -7.39190        -0.79759
| 25>    S        2.58616        -8.78272        -1.13455
| 26>    C        1.29671        -6.87020         0.43184
| 27>    N        1.61035        -7.41647         1.65738
| 28>    C        1.77879        -8.73015         1.96881
| 29>    S        2.86285        -9.14489         3.26430
| 30>    C        2.54392       -10.82866         2.98019
| 31>    N        3.15722       -11.75359         3.82519
| 32>    O        2.92734       -12.93535         3.63804
| 33>    O        3.87936       -11.30304         4.70188
| 34>    C        1.66893       -11.04630         1.95034
| 35>    C        1.18947        -9.85611         1.37263
| 36>    C        0.19785        -9.78563         0.33550
| 37>    C        0.03593       -10.72200        -0.63188
| 38>    C       -0.76970       -10.51187        -1.76768
| 39>    C       -0.66057       -11.24297        -2.92078
| 40>    C       -1.27194       -10.97121        -4.16928
| 41>    C       -0.85986       -11.78041        -5.18293
| 42>    C        0.08385       -12.75595        -4.78958
| 43>    S        0.41833       -12.62285        -3.08038
| 44>    C        0.67161       -13.72258        -5.57576
| 45>    C        0.44824       -13.95082        -6.95515
| 46>    C        1.07137       -15.05257        -7.43817
| 47>    C        1.79010       -15.79548        -6.45460
| 48>    S        1.79561       -14.90048        -4.93561
| 49>    C        2.35336       -17.00704        -6.71594
| 50>    N        2.88101       -17.95016        -5.87888
| 51>    C        2.73284       -18.18796        -4.54280
| 52>    S        4.05784       -19.05245        -3.79704
| 53>    C        3.24371       -18.98475        -2.26947
| 54>    N        3.85490       -19.60571        -1.17823
| 55>    O        3.27630       -19.57345        -0.10725
| 56>    O        4.93111       -20.14502        -1.38687
| 57>    C        2.04332       -18.33397        -2.33857
| 58>    C        1.70663       -17.89817        -3.63759
| 59>    C        0.44718       -17.24091        -3.88105
| 60>    C       -0.27721       -17.23797        -5.01756
| 61>    C       -1.36246       -16.33099        -5.24758
| 62>    C       -1.84183       -15.34043        -4.32748
| 63>    C       -2.74363       -14.51856        -4.97918
| 64>    C       -3.44993       -13.38062        -4.53812
| 65>    C       -4.22422       -12.72092        -5.45561
| 66>    C       -5.03279       -11.54588        -5.35531
| 67>    C       -5.60381       -11.28905        -6.58773
| 68>    C       -5.16630       -12.30358        -7.49668
| 69>    C       -4.32621       -13.18040        -6.82580
| 70>    C       -3.63657       -14.32854        -7.25993
| 71>    C       -2.85428       -14.98735        -6.34470
| 72>    C       -1.99514       -16.12103        -6.46214
| 73>    C       -6.48386       -10.18391        -6.88282
| 74>    C       -7.03619        -9.92556        -8.06496
| 75>    H        4.11357       -13.31185        -6.16497
| 76>    H        4.75485       -13.46955        -4.44839
| 77>    H        2.52894       -11.25406        -6.70512
| 78>    H        1.53129        -9.18096        -5.55247
| 79>    H        0.92370        -7.46999        -4.09444
| 80>    H        0.36460        -6.03984        -2.03416
| 81>    H        0.78309        -5.91946         0.48998
| 82>    H        1.83894        -6.76041         2.39318
| 83>    H        1.35341       -12.03252         1.66317
| 84>    H       -0.38749        -8.87742         0.28722
| 85>    H        0.65743       -11.60732        -0.62672
| 86>    H       -1.42965        -9.65401        -1.77933
| 87>    H       -1.98527       -10.17371        -4.28110
| 88>    H       -1.21218       -11.70574        -6.19573
| 89>    H       -0.18486       -13.30670        -7.53775
| 90>    H        0.99853       -15.40007        -8.45326
| 91>    H        2.38566       -17.30719        -7.75675
| 92>    H        3.55873       -18.56212        -6.31710
| 93>    H        1.40645       -18.20980        -1.48111
| 94>    H        0.08164       -16.68659        -3.02844
| 95>    H        0.00615       -17.86481        -5.85190
| 96>    H       -1.54161       -15.24166        -3.30044
| 97>    H       -3.37017       -13.04977        -3.51182
| 98>    H       -5.16737       -10.96573        -4.46023
| 99>    H       -5.44758       -12.37325        -8.53161
|100>    H       -3.71901       -14.66358        -8.28480
|101>    H       -1.84826       -16.69603        -7.35830
|102>    H       -6.68905        -9.53009        -6.04361
|103>    H       -6.86317       -10.54519        -8.92817
|104>    H       -7.68540        -9.07969        -8.21076
|105> *
|106>
|107>                          ****END OF INPUT****

CARTESIAN COORDINATES (ANGSTROEM)
---------------------------------
  C      4.164150  -12.926020   -5.161910
  C      3.528580  -11.791360   -4.834950
  C      2.701160  -10.979840   -5.679060
  C      2.179700   -9.891510   -5.071100
  C      2.540260   -9.756340   -3.700410
  S      3.592790  -11.072330   -3.219200
  C      2.130410   -8.778200   -2.829340
  C      1.290670   -7.667070   -3.103320
  C      0.997530   -6.909570   -2.019320
  C      1.554150   -7.391900   -0.797590
  S      2.586160   -8.782720   -1.134550
  C      1.296710   -6.870200    0.431840
  N      1.610350   -7.416470    1.657380
  C      1.778790   -8.730150    1.968810
  S      2.862850   -9.144890    3.264300
  C      2.543920  -10.828660    2.980190
  N      3.157220  -11.753590    3.825190
  O      2.927340  -12.935350    3.638040
  O      3.879360  -11.303040    4.701880
  C      1.668930  -11.046300    1.950340
  C      1.189470   -9.856110    1.372630
  C      0.197850   -9.785630    0.335500
  C      0.035930  -10.722000   -0.631880
  C     -0.769700  -10.511870   -1.767680
  C     -0.660570  -11.242970   -2.920780
  C     -1.271940  -10.971210   -4.169280
  C     -0.859860  -11.780410   -5.182930
  C      0.083850  -12.755950   -4.789580
  S      0.418330  -12.622850   -3.080380
  C      0.671610  -13.722580   -5.575760
  C      0.448240  -13.950820   -6.955150
  C      1.071370  -15.052570   -7.438170
  C      1.790100  -15.795480   -6.454600
  S      1.795610  -14.900480   -4.935610
  C      2.353360  -17.007040   -6.715940
  N      2.881010  -17.950160   -5.878880
  C      2.732840  -18.187960   -4.542800
  S      4.057840  -19.052450   -3.797040
  C      3.243710  -18.984750   -2.269470
  N      3.854900  -19.605710   -1.178230
  O      3.276300  -19.573450   -0.107250
  O      4.931110  -20.145020   -1.386870
  C      2.043320  -18.333970   -2.338570
  C      1.706630  -17.898170   -3.637590
  C      0.447180  -17.240910   -3.881050
  C     -0.277210  -17.237970   -5.017560
  C     -1.362460  -16.330990   -5.247580
  C     -1.841830  -15.340430   -4.327480
  C     -2.743630  -14.518560   -4.979180
  C     -3.449930  -13.380620   -4.538120
  C     -4.224220  -12.720920   -5.455610
  C     -5.032790  -11.545880   -5.355310
  C     -5.603810  -11.289050   -6.587730
  C     -5.166300  -12.303580   -7.496680
  C     -4.326210  -13.180400   -6.825800
  C     -3.636570  -14.328540   -7.259930
  C     -2.854280  -14.987350   -6.344700
  C     -1.995140  -16.121030   -6.462140
  C     -6.483860  -10.183910   -6.882820
  C     -7.036190   -9.925560   -8.064960
  H      4.113570  -13.311850   -6.164970
  H      4.754850  -13.469550   -4.448390
  H      2.528940  -11.254060   -6.705120
  H      1.531290   -9.180960   -5.552470
  H      0.923700   -7.469990   -4.094440
  H      0.364600   -6.039840   -2.034160
  H      0.783090   -5.919460    0.489980
  H      1.838940   -6.760410    2.393180
  H      1.353410  -12.032520    1.663170
  H     -0.387490   -8.877420    0.287220
  H      0.657430  -11.607320   -0.626720
  H     -1.429650   -9.654010   -1.779330
  H     -1.985270  -10.173710   -4.281100
  H     -1.212180  -11.705740   -6.195730
  H     -0.184860  -13.306700   -7.537750
  H      0.998530  -15.400070   -8.453260
  H      2.385660  -17.307190   -7.756750
  H      3.558730  -18.562120   -6.317100
  H      1.406450  -18.209800   -1.481110
  H      0.081640  -16.686590   -3.028440
  H      0.006150  -17.864810   -5.851900
  H     -1.541610  -15.241660   -3.300440
  H     -3.370170  -13.049770   -3.511820
  H     -5.167370  -10.965730   -4.460230
  H     -5.447580  -12.373250   -8.531610
  H     -3.719010  -14.663580   -8.284800
  H     -1.848260  -16.696030   -7.358300
  H     -6.689050   -9.530090   -6.043610
  H     -6.863170  -10.545190   -8.928170
  H     -7.685400   -9.079690   -8.210760

 Total Charge           Charge          ....    0
 Multiplicity           Mult            ....    1
 Number of Electrons    NEL             ....  462
 Basis Dimension        Dim             .... 1014

ORBITAL ENERGIES
----------------

  NO   OCC          E(Eh)            E(eV)
   0   2.0000     -88.971587     -2421.0400
   1   2.0000     -88.968651     -2420.9601
   2   2.0000     -88.946761     -2420.3644
   3   2.0000     -88.941464     -2420.2203
   4   2.0000     -88.935907     -2420.0691
   5   2.0000     -88.928319     -2419.8626
   6   2.0000     -19.226522      -523.1803
   7   2.0000     -19.226087      -523.1684
   8   2.0000     -19.221271      -523.0374
   9   2.0000     -19.220892      -523.0271
  10   2.0000     -14.638081      -398.3224
  11   2.0000     -14.632944      -398.1827
  12   2.0000     -14.484886      -394.1538
  13   2.0000     -14.473007      -393.8305
  14   2.0000     -10.360040      -281.9110
  15   2.0000     -10.354760      -281.7673
  16   2.0000     -10.333614      -281.1919
  17   2.0000     -10.332273      -281.1554
  18   2.0000     -10.327148      -281.0160
  19   2.0000     -10.319342      -280.8036
  20   2.0000     -10.310575      -280.5650
  21   2.0000     -10.306929      -280.4658
  22   2.0000     -10.305723      -280.4330
  23   2.0000     -10.303086      -280.3612
  24   2.0000     -10.302412      -280.3429
  25   2.0000     -10.300729      -280.2971
  26   2.0000     -10.298381      -280.2332
  27   2.0000     -10.297785      -280.2170
  28   2.0000     -10.295355      -280.1508
  29   2.0000     -10.295023      -280.1418
  30   2.0000     -10.294854      -280.1372
  31   2.0000     -10.293926      -280.1120
  32   2.0000     -10.291409      -280.0435
  33   2.0000     -10.286679      -279.9148
  34   2.0000     -10.286016      -279.8967
  35   2.0000     -10.284875      -279.8657
  36   2.0000     -10.283572      -279.8302
  37   2.0000     -10.282139      -279.7912
  38   2.0000     -10.281447      -279.7724
  39   2.0000     -10.281334      -279.7693
  40   2.0000     -10.280600      -279.7493
  41   2.0000     -10.277982      -279.6781
  42   2.0000     -10.277378      -279.6617
  43   2.0000     -10.277134      -279.6550
  44   2.0000     -10.276115      -279.6273
  45   2.0000     -10.275546      -279.6118
  46   2.0000     -10.272247      -279.5220
  47   2.0000     -10.270488      -279.4742
  48   2.0000     -10.270225      -279.4670
  49   2.0000     -10.267123      -279.3826
  50   2.0000     -10.266831      -279.3747
  51   2.0000     -10.266568      -279.3675
  52   2.0000     -10.266125      -279.3555
  53   2.0000     -10.263006      -279.2706
  54   2.0000     -10.262907      -279.2679
  55   2.0000     -10.262659      -279.2611
  56   2.0000     -10.260946      -279.2145
  57   2.0000     -10.260040      -279.1899
  58   2.0000     -10.258442      -279.1464
  59   2.0000     -10.255590      -279.0688
  60   2.0000      -8.067783      -219.5355
  61   2.0000      -8.064623      -219.4495
  62   2.0000      -8.040852      -218.8027
  63   2.0000      -8.037043      -218.6991
  64   2.0000      -8.030990      -218.5344
  65   2.0000      -8.024704      -218.3633
  66   2.0000      -6.037528      -164.2895
  67   2.0000      -6.034311      -164.2020
  68   2.0000      -6.033158      -164.1706
  69   2.0000      -6.029977      -164.0840
  70   2.0000      -6.028937      -164.0557
  71   2.0000      -6.025906      -163.9733
  72   2.0000      -6.010816      -163.5626
  73   2.0000      -6.006767      -163.4525
  74   2.0000      -6.006748      -163.4519
  75   2.0000      -6.002827      -163.3452
  76   2.0000      -6.001600      -163.3118
  77   2.0000      -6.001047      -163.2968
  78   2.0000      -5.998007      -163.2141
  79   2.0000      -5.996967      -163.1858
  80   2.0000      -5.994555      -163.1201
  81   2.0000      -5.991459      -163.0359
  82   2.0000      -5.990699      -163.0152
  83   2.0000      -5.985175      -162.8649
  84   2.0000      -1.306574       -35.5537
  85   2.0000      -1.301373       -35.4122
  86   2.0000      -1.125650       -30.6305
  87   2.0000      -1.120319       -30.4854
  88   2.0000      -1.082851       -29.4659
  89   2.0000      -1.074260       -29.2321
  90   2.0000      -0.996068       -27.1044
  91   2.0000      -0.991807       -26.9884
  92   2.0000      -0.989555       -26.9272
  93   2.0000      -0.982496       -26.7351
  94   2.0000      -0.981155       -26.6986
  95   2.0000      -0.970206       -26.4007
  96   2.0000      -0.958926       -26.0937
  97   2.0000      -0.956581       -26.0299
  98   2.0000      -0.912387       -24.8273
  99   2.0000      -0.907010       -24.6810
 100   2.0000      -0.893811       -24.3218
 101   2.0000      -0.888082       -24.1659
 102   2.0000      -0.884209       -24.0606
 103   2.0000      -0.875784       -23.8313
 104   2.0000      -0.863174       -23.4882
 105   2.0000      -0.859071       -23.3765
 106   2.0000      -0.856086       -23.2953
 107   2.0000      -0.850458       -23.1421
 108   2.0000      -0.840698       -22.8766
 109   2.0000      -0.835833       -22.7442
 110   2.0000      -0.833836       -22.6898
 111   2.0000      -0.831309       -22.6211
 112   2.0000      -0.823126       -22.3984
 113   2.0000      -0.818704       -22.2781
 114   2.0000      -0.811040       -22.0695
 115   2.0000      -0.792757       -21.5720
 116   2.0000      -0.792271       -21.5588
 117   2.0000      -0.782605       -21.2958
 118   2.0000      -0.773553       -21.0495
 119   2.0000      -0.764320       -20.7982
 120   2.0000      -0.754141       -20.5212
 121   2.0000      -0.739413       -20.1205
 122   2.0000      -0.732413       -19.9300
 123   2.0000      -0.722776       -19.6677
 124   2.0000      -0.715550       -19.4711
 125   2.0000      -0.696874       -18.9629
 126   2.0000      -0.686290       -18.6749
 127   2.0000      -0.679504       -18.4903
 128   2.0000      -0.672756       -18.3066
 129   2.0000      -0.668562       -18.1925
 130   2.0000      -0.664619       -18.0852
 131   2.0000      -0.651900       -17.7391
 132   2.0000      -0.649477       -17.6732
 133   2.0000      -0.645798       -17.5731
 134   2.0000      -0.638590       -17.3769
 135   2.0000      -0.630673       -17.1615
 136   2.0000      -0.624325       -16.9887
 137   2.0000      -0.622063       -16.9272
 138   2.0000      -0.620691       -16.8899
 139   2.0000      -0.619047       -16.8451
 140   2.0000      -0.618517       -16.8307
 141   2.0000      -0.617178       -16.7943
 142   2.0000      -0.614375       -16.7180
 143   2.0000      -0.613814       -16.7027
 144   2.0000      -0.608849       -16.5676
 145   2.0000      -0.603546       -16.4233
 146   2.0000      -0.598918       -16.2974
 147   2.0000      -0.594892       -16.1878
 148   2.0000      -0.593657       -16.1542
 149   2.0000      -0.591406       -16.0930
 150   2.0000      -0.587359       -15.9829
 151   2.0000      -0.580624       -15.7996
 152   2.0000      -0.575444       -15.6586
 153   2.0000      -0.574983       -15.6461
 154   2.0000      -0.569508       -15.4971
 155   2.0000      -0.558893       -15.2083
 156   2.0000      -0.552658       -15.0386
 157   2.0000      -0.548113       -14.9149
 158   2.0000      -0.544341       -14.8123
 159   2.0000      -0.540805       -14.7160
 160   2.0000      -0.533008       -14.5039
 161   2.0000      -0.530353       -14.4316
 162   2.0000      -0.525090       -14.2884
 163   2.0000      -0.521412       -14.1883
 164   2.0000      -0.516952       -14.0670
 165   2.0000      -0.513921       -13.9845
 166   2.0000      -0.509092       -13.8531
 167   2.0000      -0.507236       -13.8026
 168   2.0000      -0.506189       -13.7741
 169   2.0000      -0.503976       -13.7139
 170   2.0000      -0.496657       -13.5147
 171   2.0000      -0.496019       -13.4974
 172   2.0000      -0.492286       -13.3958
 173   2.0000      -0.490610       -13.3502
 174   2.0000      -0.487528       -13.2663
 175   2.0000      -0.486953       -13.2507
 176   2.0000      -0.484905       -13.1949
 177   2.0000      -0.482075       -13.1179
 178   2.0000      -0.478444       -13.0191
 179   2.0000      -0.474954       -12.9242
 180   2.0000      -0.473147       -12.8750
 181   2.0000      -0.468118       -12.7381
 182   2.0000      -0.467160       -12.7121
 183   2.0000      -0.464057       -12.6276
 184   2.0000      -0.461637       -12.5618
 185   2.0000      -0.457256       -12.4426
 186   2.0000      -0.454285       -12.3617
 187   2.0000      -0.451368       -12.2823
 188   2.0000      -0.450070       -12.2470
 189   2.0000      -0.448692       -12.2095
 190   2.0000      -0.443679       -12.0731
 191   2.0000      -0.440217       -11.9789
 192   2.0000      -0.437560       -11.9066
 193   2.0000      -0.435500       -11.8505
 194   2.0000      -0.433214       -11.7883
 195   2.0000      -0.424011       -11.5379
 196   2.0000      -0.423581       -11.5262
 197   2.0000      -0.421472       -11.4688
 198   2.0000      -0.418554       -11.3894
 199   2.0000      -0.416461       -11.3325
 200   2.0000      -0.413207       -11.2439
 201   2.0000      -0.406870       -11.0715
 202   2.0000      -0.400236       -10.8910
 203   2.0000      -0.396401       -10.7866
 204   2.0000      -0.392656       -10.6847
 205   2.0000      -0.389523       -10.5995
 206   2.0000      -0.380712       -10.3597
 207   2.0000      -0.376336       -10.2406
 208   2.0000      -0.374356       -10.1867
 209   2.0000      -0.369719       -10.0606
 210   2.0000      -0.366896        -9.9837
 211   2.0000      -0.364042        -9.9061
 212   2.0000      -0.361179        -9.8282
 213   2.0000      -0.357876        -9.7383
 214   2.0000      -0.354687        -9.6515
 215   2.0000      -0.349808        -9.5188
 216   2.0000      -0.341623        -9.2960
 217   2.0000      -0.338370        -9.2075
 218   2.0000      -0.332865        -9.0577
 219   2.0000      -0.332167        -9.0387
 220   2.0000      -0.325064        -8.8454
 221   2.0000      -0.317784        -8.6474
 222   2.0000      -0.302973        -8.2443
 223   2.0000      -0.301277        -8.1982
 224   2.0000      -0.284239        -7.7345
 225   2.0000      -0.275188        -7.4882
 226   2.0000      -0.271046        -7.3755
 227   2.0000      -0.261664        -7.1202
 228   2.0000      -0.232338        -6.3222
 229   2.0000      -0.210722        -5.7340
 230   2.0000      -0.205338        -5.5875
 231   0.0000      -0.091278        -2.4838
 232   0.0000      -0.070421        -1.9163
 233   0.0000      -0.053165        -1.4467
 234   0.0000      -0.042036        -1.1439
 235   0.0000      -0.031856        -0.8668

MULLIKEN ATOMIC CHARGES
-----------------------
   0 C :    0.022088
   1 C :   -0.106209
   2 C :    0.074886
   3 C :    0.022662
   4 C :   -0.055232
   5 S :    0.076043
   6 C :   -0.055665
   7 C :    0.024166
   8 C :    0.036617
   9 C :   -0.063186
  10 S :    0.077336
  11 C :   -0.006596
  12 N :   -0.024101
  13 C :   -0.126666
  14 S :    0.155577
  15 C :   -0.009042
  16 N :    0.280429
  17 O :   -0.255853
  18 O :   -0.274875
  19 C :   -0.001146
  20 C :    0.092798
  21 C :   -0.005445
  22 C :    0.016015
  23 C :   -0.003991
  24 C :   -0.022401
  25 C :    0.004635
  26 C :    0.064933
  27 C :   -0.036310
  28 S :    0.066714
  29 C :   -0.081377
  30 C :    0.053522
  31 C :    0.029871
  32 C :   -0.050937
  33 S :    0.111356
  34 C :   -0.023658
  35 N :    0.004995
  36 C :   -0.150283
  37 S :    0.141328
  38 C :    0.005084
  39 N :    0.281118
  40 O :   -0.251084
  41 O :   -0.270507
  42 C :   -0.016954
  43 C :    0.145394
  44 C :   -0.046554
  45 C :    0.056201
  46 C :    0.029346
  47 C :   -0.003185
  48 C :    0.032443
  49 C :    0.029948
  50 C :    0.041089
  51 C :   -0.047022
  52 C :    0.067799
  53 C :   -0.039850
  54 C :    0.053622
  55 C :   -0.032340
  56 C :    0.059769
  57 C :   -0.017429
  58 C :    0.008832
  59 C :   -0.028360
  60 H :    0.009851
  61 H :    0.016370
  62 H :   -0.020923
  63 H :   -0.021915
  64 H :   -0.021403
  65 H :   -0.021311
  66 H :    0.002421
  67 H :    0.141503
  68 H :    0.007549
  69 H :    0.000492
  70 H :    0.000784
  71 H :   -0.019264
  72 H :   -0.017973
  73 H :   -0.013124
  74 H :   -0.018834
  75 H :   -0.023178
  76 H :    0.009181
  77 H :    0.144159
  78 H :    0.009198
  79 H :   -0.009892
  80 H :   -0.027321
  81 H :   -0.019969
  82 H :   -0.024092
  83 H :   -0.036343
  84 H :   -0.032417
  85 H :   -0.034062
  86 H :   -0.040604
  87 H :   -0.023271
  88 H :    0.005938
  89 H :    0.018089
Sum of atomic charges:   -0.0000000

LOEWDIN ATOMIC CHARGES
----------------------
   0 C :   -0.078347
   1 C :   -0.154175
   2 C :   -0.030124
   3 C :   -0.036649
   4 C :   -0.174383
   5 S :    0.349068
   6 C :   -0.188305
   7 C :   -0.035723
   8 C :   -0.043093
   9 C :   -0.176437
  10 S :    0.388897
  11 C :   -0.039772
  12 N :    0.024448
  13 C :   -0.118177
  14 S :    0.437962
  15 C :   -0.212511
  16 N :    0.273986
  17 O :   -0.222091
  18 O :   -0.239940
  19 C :    0.007427
  20 C :   -0.110718
  21 C :   -0.021794
  22 C :   -0.033564
  23 C :   -0.051601
  24 C :   -0.150852
  25 C :   -0.035070
  26 C :   -0.024419
  27 C :   -0.175274
  28 S :    0.375281
  29 C :   -0.179261
  30 C :   -0.033222
  31 C :   -0.035181
  32 C :   -0.180933
  33 S :    0.441510
  34 C :   -0.020117
  35 N :    0.034567
  36 C :   -0.115921
  37 S :    0.430672
  38 C :   -0.211063
  39 N :    0.274526
  40 O :   -0.216558
  41 O :   -0.236151
  42 C :    0.006980
  43 C :   -0.098802
  44 C :   -0.053600
  45 C :   -0.030350
  46 C :   -0.060518
  47 C :    0.053652
  48 C :   -0.066758
  49 C :    0.076570
  50 C :   -0.065926
  51 C :   -0.002369
  52 C :   -0.061311
  53 C :    0.025134
  54 C :   -0.065297
  55 C :    0.055306
  56 C :   -0.058809
  57 C :    0.008076
  58 C :   -0.020849
  59 C :   -0.059855
  60 H :    0.023968
  61 H :    0.023426
  62 H :    0.029519
  63 H :    0.027858
  64 H :    0.029299
  65 H :    0.028890
  66 H :    0.027286
  67 H :    0.091026
  68 H :    0.044672
  69 H :    0.028721
  70 H :    0.019662
  71 H :    0.031000
  72 H :    0.031254
  73 H :    0.032093
  74 H :    0.030917
  75 H :    0.028219
  76 H :    0.031988
  77 H :    0.092975
  78 H :    0.046278
  79 H :    0.024098
  80 H :    0.023000
  81 H :    0.021692
  82 H :    0.035200
  83 H :    0.019884
  84 H :    0.021375
  85 H :    0.031107
  86 H :    0.018722
  87 H :    0.027657
  88 H :    0.016976
  89 H :    0.023046

  Mayer bond orders larger than 0.100000
B(  0-C ,  1-C ) :   1.8628 B(  0-C , 60-H ) :   0.9419 B(  0-C , 61-H ) :   0.9362
B(  1-C ,  2-C ) :   1.0827 B(  1-C ,  5-S ) :   1.0071 B(  2-C ,  3-C ) :   1.6425
B(  2-C , 62-H ) :   0.9926 B(  3-C ,  4-C ) :   1.1589 B(  3-C , 63-H ) :   0.9913
B(  4-C ,  5-S ) :   1.0447 B(  4-C ,  6-C ) :   1.5637 B(  6-C ,  7-C ) :   1.1581
B(  6-C , 10-S ) :   1.0306 B(  7-C ,  8-C ) :   1.6325 B(  7-C , 64-H ) :   0.9931
B(  8-C ,  9-C ) :   1.1159 B(  8-C , 65-H ) :   0.9991 B(  9-C , 10-S ) :   1.0353
B(  9-C , 11-C ) :   1.6368 B( 11-C , 12-N ) :   1.1074 B( 11-C , 66-H ) :   0.9619
B( 12-N , 13-C ) :   1.2022 B( 12-N , 67-H ) :   0.9114 B( 13-C , 14-S ) :   1.1292
B( 13-C , 20-C ) :   1.3562 B( 14-S , 15-C ) :   1.0734 B( 15-C , 16-N ) :   0.9798
B( 15-C , 19-C ) :   1.4775 B( 16-N , 17-O ) :   1.5298 B( 16-N , 18-O ) :   1.5022
B( 17-O , 18-O ) :   0.2532 B( 19-C , 20-C ) :   1.2416 B( 19-C , 68-H ) :   1.0058
B( 20-C , 21-C ) :   1.0681 B( 21-C , 22-C ) :   1.6831 B( 21-C , 69-H ) :   0.9668
B( 22-C , 23-C ) :   1.1489 B( 22-C , 70-H ) :   0.9698 B( 23-C , 24-C ) :   1.5691
B( 23-C , 71-H ) :   0.9820 B( 24-C , 25-C ) :   1.1359 B( 24-C , 28-S ) :   1.0263
B( 25-C , 26-C ) :   1.5577 B( 25-C , 72-H ) :   1.0053 B( 26-C , 27-C ) :   1.1976
B( 26-C , 73-H ) :   0.9957 B( 27-C , 28-S ) :   1.0521 B( 27-C , 29-C ) :   1.5046
B( 29-C , 30-C ) :   1.1766 B( 29-C , 33-S ) :   1.0581 B( 30-C , 31-C ) :   1.6068
B( 30-C , 74-H ) :   0.9906 B( 31-C , 32-C ) :   1.1143 B( 31-C , 75-H ) :   1.0007
B( 32-C , 33-S ) :   1.0295 B( 32-C , 34-C ) :   1.6326 B( 34-C , 35-N ) :   1.1560
B( 34-C , 76-H ) :   0.9513 B( 35-N , 36-C ) :   1.1726 B( 35-N , 77-H ) :   0.9053
B( 36-C , 37-S ) :   1.1207 B( 36-C , 43-C ) :   1.3893 B( 37-S , 38-C ) :   1.0757
B( 38-C , 39-N ) :   0.9738 B( 38-C , 42-C ) :   1.4818 B( 39-N , 40-O ) :   1.5336
B( 39-N , 41-O ) :   1.5044 B( 40-O , 41-O ) :   0.2578 B( 42-C , 43-C ) :   1.2069
B( 42-C , 78-H ) :   1.0136 B( 43-C , 44-C ) :   1.0766 B( 44-C , 45-C ) :   1.7053
B( 44-C , 79-H ) :   0.9586 B( 45-C , 46-C ) :   1.1107 B( 45-C , 80-H ) :   0.9648
B( 46-C , 47-C ) :   1.1422 B( 46-C , 57-C ) :   1.4876 B( 47-C , 48-C ) :   1.4272
B( 47-C , 81-H ) :   1.0073 B( 48-C , 49-C ) :   1.1306 B( 48-C , 56-C ) :   1.1434
B( 49-C , 50-C ) :   1.4375 B( 49-C , 82-H ) :   1.0028 B( 50-C , 51-C ) :   1.0963
B( 50-C , 54-C ) :   1.1418 B( 51-C , 52-C ) :   1.4919 B( 51-C , 83-H ) :   1.0181
B( 52-C , 53-C ) :   1.1577 B( 52-C , 58-C ) :   1.0829 B( 53-C , 54-C ) :   1.4263
B( 53-C , 84-H ) :   1.0081 B( 54-C , 55-C ) :   1.1262 B( 55-C , 56-C ) :   1.4450
B( 55-C , 85-H ) :   1.0071 B( 56-C , 57-C ) :   1.0819 B( 57-C , 86-H ) :   1.0175
B( 58-C , 59-C ) :   1.9344 B( 58-C , 87-H ) :   0.9660 B( 59-C , 88-H ) :   0.9519
B( 59-C , 89-H ) :   0.9494

-----------------------------------------------------------------------------
         ABSORPTION SPECTRUM VIA TRANSITION ELECTRIC DIPOLE MOMENTS
-----------------------------------------------------------------------------
State   Energy  Wavelength   fosc         T2         TX        TY        TZ
        (cm-1)    (nm)                  (au**2)     (au)      (au)      (au)
-----------------------------------------------------------------------------
   0    8656.3   1155.2   0.041204092   1.56706   0.98203   0.31059   0.71148
   1    9516.6   1050.8   0.038538684   1.33319   0.90267   0.37584   0.61410
   2   12086.3    827.4   0.015398514   0.41943   0.30007   0.56223   0.11528
   3   14041.8    712.2   0.118731203   2.78366   0.24391   1.50608   0.67519
   4   14843.4    673.7   0.274035793   6.07784   0.13411  -2.26754  -0.95819
   5   17284.2    578.6   0.168501155   3.20944  -0.57605   0.45076   1.63537
   6   18374.7    544.2   0.218281245   3.91085  -0.13067  -0.91511  -1.74824
   7   18988.4    526.6   0.172736435   2.99482   1.12793  -1.03497  -0.80711
   8   21206.1    471.6   0.303179235   4.70668  -0.90113   0.94358  -1.73329
   9   21949.6    455.6   0.103511667   1.55252  -0.51901   0.70236   0.88874
  10   23079.4    433.3   0.206321523   2.94304  -0.50653   1.38323   0.87928
  11   23387.0    427.6   0.123415113   1.73728  -0.67082   0.82777   0.77593
  12   23525.1    425.1   0.013650154   0.19102   0.03132  -0.34065   0.27203
  13   23903.9    418.3   0.193769666   2.66866  -0.30235   1.52685   0.49597
  14   24428.6    409.4   0.246160908   3.31739   0.56695  -1.14370  -1.29919
  15   25048.5    399.2   0.174358171   2.29158  -1.06982   1.00565   0.36843
  16   25306.8    395.2   0.214477044   2.79010  -0.23241  -0.62880  -1.52993
  17   26364.8    379.3   0.036621185   0.45728  -0.18196  -0.08136  -0.64618
  18   26795.6    373.2   0.011755322   0.14443  -0.10835  -0.12323   0.34278
  19   27099.1    369.0   0.013433486   0.16320   0.10092   0.12098   0.37199
  20   27569.3    362.7   0.054194837   0.64715  -0.31100   0.35986   0.64880
  21   28196.4    354.7   0.013876162   0.16201   0.27122  -0.06640   0.28990
  22   28928.8    345.7   0.358452978   4.07923   0.40776  -0.89567  -1.76373
  23   29168.4    342.8   0.137914982   1.55659   0.41010  -0.49493   1.06932
  24   30181.9    331.3   0.032309253   0.35242  -0.44395  -0.29170  -0.26502
  25   30633.2    326.4   0.156159800   1.67823  -0.66796  -0.08706  -1.10657
  26   30663.6    326.1   0.323010261   3.46792   0.86534  -0.96941   1.33392
  27   31006.0    322.5   0.133443838   1.41686   0.33286  -1.08666   0.35390
  28   31214.2    320.4   0.825077584   8.70197  -2.06082   1.95857  -0.78677
  29   31769.0    314.8   1.449841833  15.02425   2.41539  -2.40654   1.84355
  30   32116.6    311.4   0.067497301   0.69188  -0.24786   0.78598  -0.11259
  31   32707.7    305.7   0.007062467   0.07109  -0.22290  -0.00559  -0.14619
  32   32920.6    303.8   0.020890891   0.20891  -0.13949  -0.43285  -0.04575
  33   33003.8    303.0   0.006079038   0.06064  -0.20561   0.12753  -0.04580
  34   33094.3    302.2   0.013395296   0.13325   0.00484  -0.26629   0.24964
  35   33208.4    301.1   0.017519204   0.17368  -0.26354   0.28104  -0.15887
  36   33245.0    300.8   0.044378625   0.43946  -0.36957   0.45450  -0.31035
  37   33654.5    297.1   0.052207436   0.51070  -0.25135   0.41560  -0.52421
  38   33936.5    294.7   0.043758399   0.42449  -0.51835   0.34829  -0.18574
  39   34077.0    293.5   0.017817629   0.17213   0.34203   0.10937   0.20782
  40   34216.5    292.3   0.004500872   0.04330  -0.18749   0.06732   0.06016
  41   34384.4    290.8   0.074643482   0.71467   0.61488  -0.20257   0.54366
  42   34495.0    289.9   0.166600506   1.59000   0.88892  -0.89408  -0.02076
  43   34698.0    288.2   0.038596009   0.36620   0.20905  -0.28431   0.49159
  44   34848.5    287.0   0.008430730   0.07964   0.24301  -0.00722  -0.14332
  45   34975.1    285.9   0.034626784   0.32593   0.26435  -0.42764   0.27051
  46   35153.8    284.5   0.031186892   0.29206  -0.09398   0.51628   0.12916
  47   35352.3    282.9   0.013500818   0.12572   0.00226  -0.33687  -0.11062
  48   35385.6    282.6   0.006207984   0.05776   0.07318   0.04362  -0.22472
  49   35571.6    281.1   0.016307693   0.15093  -0.14666   0.19697  -0.30103
  50   35755.4    279.7   0.029042471   0.26740  -0.49423   0.10074   0.11400
  51   36192.4    276.3   0.048703107   0.44301  -0.08435  -0.61329   0.24450
  52   36586.9    273.3   0.010029443   0.09025   0.24054  -0.17871  -0.02113
  53   36788.4    271.8   0.045512713   0.40728   0.16738  -0.06805  -0.61208
  54   37109.8    269.5   0.026842923   0.23813   0.02899  -0.30096   0.38303
  55   37402.2    267.4   0.024577043   0.21633  -0.26662   0.33605  -0.17974
  56   37510.2    266.6   0.010498434   0.09214  -0.22895  -0.03834  -0.19559
  57   37776.2    264.7   0.003941698   0.03435   0.13782  -0.02392  -0.12159
  58   37877.6    264.0   0.043231996   0.37575   0.44558  -0.27296   0.32047
  59   38264.4    261.3   0.009577946   0.08240  -0.21715  -0.14930  -0.11383
  60   38367.7    260.6   0.032717801   0.28073   0.23832   0.31661   0.35170
  61   38753.2    258.0   0.044394298   0.37713   0.32866   0.19858   0.47925
  62   39253.3    254.8   0.028190760   0.23643   0.04556   0.42468   0.23239
  63   39482.4    253.3   0.017813299   0.14853   0.00737  -0.28213  -0.26245
  64   39658.0    252.2   0.022799045   0.18926  -0.27680   0.26757  -0.20261
  65   39704.3    251.9   0.029930278   0.24817   0.08999  -0.45268   0.18748
  66   39911.6    250.6   0.010076402   0.08312  -0.09537   0.00128   0.27206
  67   40063.0    249.6   0.006685996   0.05494   0.20024   0.02802   0.11857
  68   40118.7    249.3   0.010196795   0.08367   0.24739  -0.10408   0.10789
  69   40171.9    248.9   0.030009594   0.24593  -0.43315   0.14063  -0.19630

FINAL SINGLE POINT ENERGY     -4675.945843356055

DIPOLE MOMENT
-------------
                                X             Y             Z
Electronic contribution:     39.45704     -17.16097      39.01733
Nuclear contribution   :    -41.50383      19.77901     -43.33843
                        -----------------------------------------
Total Dipole Moment    :     -2.04679       2.61805      -4.32110
                        -----------------------------------------
Magnitude (a.u.)       :      5.45119
Magnitude (Debye)      :     13.85582

Rotational constants in cm-1:     0.001209     0.000977     0.000653
Rotational constants in MHz :    36.248277    29.285740    19.585898

                             ****ORCA TERMINATED NORMALLY****
TOTAL RUN TIME: 0 days 0 hours 13 minutes 4 seconds 48 msec
