                         Program Version 4.2.0 -  RELEASE  -
|  1> # ORCA input file
|  2> # SCF done       -156.798223888542          0.000525599875
|  3> ! CAM-B3LYP def2-SVP def2/J RIJCOSX Grid4 TightSCF
|  4> %maxcore 5000
|  5> %tddft
|  6>     Mode sTDDFT
|  7>     Ethresh 5.0
|  8>     maxcore 5000
|  9> end
| 10>
| 11> %pal
| 12>   nprocs 6
| 13>   end
| 14> * xyz 0 1
| 15>    C       -3.78443        -6.88269        -1.49611
| 16>    C       -2.62410        -6.37192        -1.11142
| 17>    C       -2.20786        -4.93085        -1.23589
| 18>    C       -0.97672        -4.75904        -0.41291
| 19>    C       -0.37328        -5.89667        -0.03796
| 20>    S       -1.32877        -7.34348        -0.40908
| 21>    C        0.95728        -6.06826         0.46588
| 22>    C        1.80314        -5.16132         1.05937
| 23>    C        3.10278        -5.64816         1.22614
| 24>    C        3.28134        -6.92810         0.74319
| 25>    S        1.77960        -7.55663         0.12198
| 26>    C        4.48968        -7.66181         0.60564
| 27>    C        4.54470        -8.83425        -0.06916
| 28>    C        5.69367        -9.57665        -0.41777
| 29>    C        5.68848       -10.74069        -1.16950
| 30>    C        6.95054       -11.24202        -1.44080
| 31>    C        7.97615       -10.47543        -0.90298
| 32>    S        7.32731        -9.10546        -0.03479
| 33>    C        9.35568       -10.73362        -1.02011
| 34>    C        9.94149       -11.80733        -1.68544
| 35>    C       11.31765       -11.81764        -1.63880
| 36>    C       11.86467       -10.74323        -0.92699
| 37>    S       10.58099        -9.70548        -0.31941
| 38>    C       13.21224       -10.52610        -0.71379
| 39>    N       13.72346        -9.49878        -0.01414
| 40>    C       15.02568        -9.28926         0.24575
| 41>    S       16.23439       -10.41077        -0.33574
| 42>    C       17.45814        -9.44971         0.44087
| 43>    N       18.78546        -9.87447         0.32108
| 44>    O       19.64793        -9.20576         0.86307
| 45>    O       18.98157       -10.89264        -0.32220
| 46>    C       16.97702        -8.35500         1.09447
| 47>    C       15.56958        -8.21879         1.00367
| 48>    C       14.80689        -7.17698         1.56033
| 49>    C       15.31647        -6.19150         2.38420
| 50>    C       14.62986        -5.12113         2.93034
| 51>    C       13.31134        -4.69592         2.74461
| 52>    C       12.75673        -3.57997         3.37638
| 53>    C       11.45115        -3.31191         3.01982
| 54>    C       10.93005        -4.20612         2.09156
| 55>    S       12.11813        -5.41121         1.67985
| 56>    C        9.64145        -4.17498         1.52022
| 57>    C        8.64486        -3.24855         1.79184
| 58>    C        7.48841        -3.45345         1.05740
| 59>    C        7.55285        -4.53834         0.19687
| 60>    S        9.10280        -5.32557         0.32270
| 61>    C        6.50642        -4.95776        -0.65275
| 62>    C        6.49775        -6.01312        -1.50306
| 63>    C        5.34572        -6.36841        -2.24997
| 64>    C        5.12003        -7.48633        -3.02703
| 65>    C        3.81659        -7.57467        -3.52158
| 66>    C        3.01724        -6.51583        -3.14873
| 67>    S        3.90816        -5.38391        -2.17965
| 68>    C        1.62413        -6.30087        -3.35646
| 69>    C        0.66187        -7.16120        -3.82542
| 70>    C       -0.64130        -6.64529        -3.71837
| 71>    C       -0.69094        -5.39188        -3.18107
| 72>    S        0.90277        -4.80467        -2.83531
| 73>    C       -1.87418        -4.61063        -2.73201
| 74>    H       -4.55331        -6.25947        -1.91997
| 75>    H       -4.00269        -7.93070        -1.39857
| 76>    H       -3.02038        -4.26666        -0.92613
| 77>    H       -0.53380        -3.78731        -0.28328
| 78>    H        1.48791        -4.17785         1.35826
| 79>    H        3.90525        -5.07801         1.65984
| 80>    H        5.38964        -7.20993         1.00047
| 81>    H        3.61611        -9.25183        -0.44175
| 82>    H        4.77560       -11.19673        -1.50945
| 83>    H        7.12686       -12.13305        -2.01461
| 84>    H        9.35937       -12.55873        -2.18629
| 85>    H       11.93468       -12.57053        -2.09403
| 86>    H       13.92099       -11.23093        -1.12249
| 87>    H       13.06344        -8.82286         0.36184
| 88>    H       17.62980        -7.67333         1.60760
| 89>    H       13.75095        -7.15801         1.33512
| 90>    H       16.36065        -6.25711         2.65535
| 91>    H       15.19373        -4.48512         3.60173
| 92>    H       13.31904        -2.98834         4.07696
| 93>    H       10.88483        -2.48681         3.41145
| 94>    H        8.76677        -2.45170         2.50236
| 95>    H        6.61280        -2.83281         1.13198
| 96>    H        5.60764        -4.35467        -0.58461
| 97>    H        7.37001        -6.64454        -1.60282
| 98>    H        5.87813        -8.22776        -3.20934
| 99>    H        3.46215        -8.38781        -4.12919
|100>    H        0.88353        -8.14567        -4.19483
|101>    H       -1.52133        -7.19576        -4.00149
|102>    H       -2.74452        -4.86208        -3.34029
|103>    H       -1.67322        -3.54143        -2.81891
|104> *
|105>
|106>                          ****END OF INPUT****

CARTESIAN COORDINATES (ANGSTROEM)
---------------------------------
  C     -3.784430   -6.882690   -1.496110
  C     -2.624100   -6.371920   -1.111420
  C     -2.207860   -4.930850   -1.235890
  C     -0.976720   -4.759040   -0.412910
  C     -0.373280   -5.896670   -0.037960
  S     -1.328770   -7.343480   -0.409080
  C      0.957280   -6.068260    0.465880
  C      1.803140   -5.161320    1.059370
  C      3.102780   -5.648160    1.226140
  C      3.281340   -6.928100    0.743190
  S      1.779600   -7.556630    0.121980
  C      4.489680   -7.661810    0.605640
  C      4.544700   -8.834250   -0.069160
  C      5.693670   -9.576650   -0.417770
  C      5.688480  -10.740690   -1.169500
  C      6.950540  -11.242020   -1.440800
  C      7.976150  -10.475430   -0.902980
  S      7.327310   -9.105460   -0.034790
  C      9.355680  -10.733620   -1.020110
  C      9.941490  -11.807330   -1.685440
  C     11.317650  -11.817640   -1.638800
  C     11.864670  -10.743230   -0.926990
  S     10.580990   -9.705480   -0.319410
  C     13.212240  -10.526100   -0.713790
  N     13.723460   -9.498780   -0.014140
  C     15.025680   -9.289260    0.245750
  S     16.234390  -10.410770   -0.335740
  C     17.458140   -9.449710    0.440870
  N     18.785460   -9.874470    0.321080
  O     19.647930   -9.205760    0.863070
  O     18.981570  -10.892640   -0.322200
  C     16.977020   -8.355000    1.094470
  C     15.569580   -8.218790    1.003670
  C     14.806890   -7.176980    1.560330
  C     15.316470   -6.191500    2.384200
  C     14.629860   -5.121130    2.930340
  C     13.311340   -4.695920    2.744610
  C     12.756730   -3.579970    3.376380
  C     11.451150   -3.311910    3.019820
  C     10.930050   -4.206120    2.091560
  S     12.118130   -5.411210    1.679850
  C      9.641450   -4.174980    1.520220
  C      8.644860   -3.248550    1.791840
  C      7.488410   -3.453450    1.057400
  C      7.552850   -4.538340    0.196870
  S      9.102800   -5.325570    0.322700
  C      6.506420   -4.957760   -0.652750
  C      6.497750   -6.013120   -1.503060
  C      5.345720   -6.368410   -2.249970
  C      5.120030   -7.486330   -3.027030
  C      3.816590   -7.574670   -3.521580
  C      3.017240   -6.515830   -3.148730
  S      3.908160   -5.383910   -2.179650
  C      1.624130   -6.300870   -3.356460
  C      0.661870   -7.161200   -3.825420
  C     -0.641300   -6.645290   -3.718370
  C     -0.690940   -5.391880   -3.181070
  S      0.902770   -4.804670   -2.835310
  C     -1.874180   -4.610630   -2.732010
  H     -4.553310   -6.259470   -1.919970
  H     -4.002690   -7.930700   -1.398570
  H     -3.020380   -4.266660   -0.926130
  H     -0.533800   -3.787310   -0.283280
  H      1.487910   -4.177850    1.358260
  H      3.905250   -5.078010    1.659840
  H      5.389640   -7.209930    1.000470
  H      3.616110   -9.251830   -0.441750
  H      4.775600  -11.196730   -1.509450
  H      7.126860  -12.133050   -2.014610
  H      9.359370  -12.558730   -2.186290
  H     11.934680  -12.570530   -2.094030
  H     13.920990  -11.230930   -1.122490
  H     13.063440   -8.822860    0.361840
  H     17.629800   -7.673330    1.607600
  H     13.750950   -7.158010    1.335120
  H     16.360650   -6.257110    2.655350
  H     15.193730   -4.485120    3.601730
  H     13.319040   -2.988340    4.076960
  H     10.884830   -2.486810    3.411450
  H      8.766770   -2.451700    2.502360
  H      6.612800   -2.832810    1.131980
  H      5.607640   -4.354670   -0.584610
  H      7.370010   -6.644540   -1.602820
  H      5.878130   -8.227760   -3.209340
  H      3.462150   -8.387810   -4.129190
  H      0.883530   -8.145670   -4.194830
  H     -1.521330   -7.195760   -4.001490
  H     -2.744520   -4.862080   -3.340290
  H     -1.673220   -3.541430   -2.818910

 Total Charge           Charge          ....    0
 Multiplicity           Mult            ....    1
 Number of Electrons    NEL             ....  480
 Basis Dimension        Dim             .... 1012

ORBITAL ENERGIES
----------------

  NO   OCC          E(Eh)            E(eV)
   0   2.0000     -88.971908     -2421.0487
   1   2.0000     -88.965619     -2420.8776
   2   2.0000     -88.958611     -2420.6869
   3   2.0000     -88.954258     -2420.5684
   4   2.0000     -88.952487     -2420.5202
   5   2.0000     -88.946958     -2420.3698
   6   2.0000     -88.941611     -2420.2243
   7   2.0000     -88.941300     -2420.2158
   8   2.0000     -88.927021     -2419.8273
   9   2.0000     -19.238966      -523.5189
  10   2.0000     -19.237476      -523.4783
  11   2.0000     -14.648704      -398.6115
  12   2.0000     -14.514570      -394.9615
  13   2.0000     -10.346275      -281.5365
  14   2.0000     -10.345797      -281.5235
  15   2.0000     -10.333044      -281.1764
  16   2.0000     -10.316958      -280.7387
  17   2.0000     -10.314979      -280.6849
  18   2.0000     -10.310075      -280.5514
  19   2.0000     -10.308004      -280.4950
  20   2.0000     -10.304452      -280.3984
  21   2.0000     -10.302769      -280.3526
  22   2.0000     -10.301342      -280.3138
  23   2.0000     -10.301060      -280.3061
  24   2.0000     -10.300744      -280.2975
  25   2.0000     -10.298241      -280.2294
  26   2.0000     -10.297467      -280.2083
  27   2.0000     -10.297411      -280.2068
  28   2.0000     -10.297273      -280.2031
  29   2.0000     -10.295526      -280.1555
  30   2.0000     -10.293413      -280.0980
  31   2.0000     -10.291863      -280.0558
  32   2.0000     -10.288756      -279.9713
  33   2.0000     -10.288214      -279.9565
  34   2.0000     -10.285974      -279.8956
  35   2.0000     -10.283975      -279.8412
  36   2.0000     -10.283034      -279.8156
  37   2.0000     -10.282832      -279.8101
  38   2.0000     -10.276920      -279.6492
  39   2.0000     -10.276318      -279.6328
  40   2.0000     -10.275933      -279.6223
  41   2.0000     -10.275791      -279.6185
  42   2.0000     -10.275522      -279.6112
  43   2.0000     -10.275153      -279.6011
  44   2.0000     -10.274455      -279.5821
  45   2.0000     -10.272763      -279.5361
  46   2.0000     -10.271856      -279.5114
  47   2.0000     -10.271456      -279.5005
  48   2.0000     -10.271122      -279.4914
  49   2.0000     -10.270575      -279.4766
  50   2.0000     -10.269543      -279.4485
  51   2.0000     -10.268969      -279.4329
  52   2.0000     -10.267106      -279.3822
  53   2.0000     -10.266264      -279.3593
  54   2.0000     -10.263208      -279.2761
  55   2.0000     -10.262721      -279.2628
  56   2.0000     -10.260658      -279.2067
  57   2.0000     -10.258740      -279.1545
  58   2.0000     -10.257309      -279.1156
  59   2.0000      -8.067410      -219.5254
  60   2.0000      -8.061299      -219.3591
  61   2.0000      -8.053587      -219.1492
  62   2.0000      -8.049168      -219.0290
  63   2.0000      -8.048042      -218.9984
  64   2.0000      -8.042186      -218.8390
  65   2.0000      -8.036869      -218.6943
  66   2.0000      -8.036530      -218.6851
  67   2.0000      -8.023404      -218.3279
  68   2.0000      -6.037361      -164.2850
  69   2.0000      -6.033129      -164.1698
  70   2.0000      -6.030768      -164.1055
  71   2.0000      -6.028094      -164.0328
  72   2.0000      -6.026851      -163.9990
  73   2.0000      -6.022866      -163.8905
  74   2.0000      -6.022861      -163.8904
  75   2.0000      -6.018915      -163.7830
  76   2.0000      -6.018517      -163.7722
  77   2.0000      -6.017338      -163.7401
  78   2.0000      -6.015670      -163.6947
  79   2.0000      -6.014616      -163.6660
  80   2.0000      -6.013371      -163.6321
  81   2.0000      -6.011384      -163.5781
  82   2.0000      -6.011124      -163.5710
  83   2.0000      -6.010017      -163.5409
  84   2.0000      -6.007354      -163.4684
  85   2.0000      -6.006154      -163.4357
  86   2.0000      -6.005878      -163.4282
  87   2.0000      -6.004425      -163.3887
  88   2.0000      -6.002134      -163.3264
  89   2.0000      -6.001656      -163.3134
  90   2.0000      -5.998932      -163.2392
  91   2.0000      -5.998733      -163.2338
  92   2.0000      -5.993447      -163.0900
  93   2.0000      -5.989416      -162.9803
  94   2.0000      -5.983644      -162.8232
  95   2.0000      -1.318029       -35.8654
  96   2.0000      -1.136843       -30.9351
  97   2.0000      -1.104955       -30.0674
  98   2.0000      -1.003000       -27.2930
  99   2.0000      -0.995495       -27.0888
 100   2.0000      -0.989843       -26.9350
 101   2.0000      -0.988475       -26.8978
 102   2.0000      -0.979408       -26.6510
 103   2.0000      -0.975276       -26.5386
 104   2.0000      -0.969184       -26.3729
 105   2.0000      -0.966589       -26.3022
 106   2.0000      -0.952360       -25.9150
 107   2.0000      -0.917894       -24.9772
 108   2.0000      -0.903716       -24.5914
 109   2.0000      -0.895641       -24.3716
 110   2.0000      -0.892044       -24.2738
 111   2.0000      -0.877529       -23.8788
 112   2.0000      -0.872553       -23.7434
 113   2.0000      -0.863085       -23.4857
 114   2.0000      -0.858547       -23.3622
 115   2.0000      -0.846879       -23.0447
 116   2.0000      -0.845828       -23.0162
 117   2.0000      -0.837167       -22.7805
 118   2.0000      -0.832991       -22.6668
 119   2.0000      -0.829906       -22.5829
 120   2.0000      -0.825997       -22.4765
 121   2.0000      -0.821948       -22.3663
 122   2.0000      -0.818649       -22.2766
 123   2.0000      -0.816447       -22.2166
 124   2.0000      -0.807141       -21.9634
 125   2.0000      -0.803376       -21.8610
 126   2.0000      -0.800055       -21.7706
 127   2.0000      -0.785883       -21.3850
 128   2.0000      -0.773553       -21.0494
 129   2.0000      -0.765867       -20.8403
 130   2.0000      -0.744839       -20.2681
 131   2.0000      -0.743099       -20.2208
 132   2.0000      -0.729872       -19.8608
 133   2.0000      -0.716422       -19.4948
 134   2.0000      -0.709368       -19.3029
 135   2.0000      -0.693908       -18.8822
 136   2.0000      -0.680792       -18.5253
 137   2.0000      -0.674448       -18.3527
 138   2.0000      -0.666612       -18.1394
 139   2.0000      -0.664474       -18.0812
 140   2.0000      -0.658813       -17.9272
 141   2.0000      -0.656519       -17.8648
 142   2.0000      -0.637140       -17.3374
 143   2.0000      -0.633576       -17.2405
 144   2.0000      -0.629857       -17.1393
 145   2.0000      -0.629417       -17.1273
 146   2.0000      -0.626562       -17.0496
 147   2.0000      -0.622491       -16.9388
 148   2.0000      -0.621423       -16.9098
 149   2.0000      -0.618469       -16.8294
 150   2.0000      -0.615631       -16.7522
 151   2.0000      -0.612451       -16.6656
 152   2.0000      -0.609920       -16.5968
 153   2.0000      -0.602468       -16.3940
 154   2.0000      -0.598147       -16.2764
 155   2.0000      -0.596536       -16.2326
 156   2.0000      -0.590752       -16.0752
 157   2.0000      -0.587995       -16.0002
 158   2.0000      -0.585667       -15.9368
 159   2.0000      -0.583849       -15.8873
 160   2.0000      -0.581288       -15.8177
 161   2.0000      -0.580318       -15.7913
 162   2.0000      -0.565490       -15.3878
 163   2.0000      -0.552035       -15.0216
 164   2.0000      -0.548323       -14.9206
 165   2.0000      -0.542861       -14.7720
 166   2.0000      -0.540476       -14.7071
 167   2.0000      -0.536307       -14.5937
 168   2.0000      -0.533976       -14.5302
 169   2.0000      -0.524908       -14.2835
 170   2.0000      -0.519140       -14.1265
 171   2.0000      -0.517177       -14.0731
 172   2.0000      -0.512774       -13.9533
 173   2.0000      -0.505928       -13.7670
 174   2.0000      -0.502791       -13.6816
 175   2.0000      -0.501032       -13.6338
 176   2.0000      -0.497481       -13.5372
 177   2.0000      -0.496062       -13.4985
 178   2.0000      -0.494436       -13.4543
 179   2.0000      -0.491973       -13.3873
 180   2.0000      -0.491278       -13.3683
 181   2.0000      -0.490070       -13.3355
 182   2.0000      -0.487558       -13.2671
 183   2.0000      -0.482196       -13.1212
 184   2.0000      -0.481149       -13.0927
 185   2.0000      -0.477636       -12.9971
 186   2.0000      -0.474670       -12.9164
 187   2.0000      -0.473670       -12.8892
 188   2.0000      -0.468770       -12.7559
 189   2.0000      -0.466498       -12.6941
 190   2.0000      -0.463882       -12.6229
 191   2.0000      -0.461203       -12.5500
 192   2.0000      -0.457759       -12.4563
 193   2.0000      -0.455855       -12.4044
 194   2.0000      -0.454605       -12.3704
 195   2.0000      -0.454424       -12.3655
 196   2.0000      -0.450248       -12.2519
 197   2.0000      -0.445514       -12.1230
 198   2.0000      -0.444574       -12.0975
 199   2.0000      -0.442278       -12.0350
 200   2.0000      -0.441123       -12.0036
 201   2.0000      -0.438978       -11.9452
 202   2.0000      -0.434300       -11.8179
 203   2.0000      -0.430540       -11.7156
 204   2.0000      -0.425430       -11.5765
 205   2.0000      -0.423298       -11.5185
 206   2.0000      -0.420112       -11.4318
 207   2.0000      -0.416220       -11.3259
 208   2.0000      -0.415324       -11.3015
 209   2.0000      -0.412933       -11.2365
 210   2.0000      -0.410549       -11.1716
 211   2.0000      -0.405192       -11.0258
 212   2.0000      -0.403745       -10.9865
 213   2.0000      -0.399745       -10.8776
 214   2.0000      -0.393334       -10.7032
 215   2.0000      -0.389094       -10.5878
 216   2.0000      -0.386471       -10.5164
 217   2.0000      -0.384977       -10.4758
 218   2.0000      -0.384067       -10.4510
 219   2.0000      -0.377228       -10.2649
 220   2.0000      -0.370638       -10.0856
 221   2.0000      -0.365391        -9.9428
 222   2.0000      -0.361385        -9.8338
 223   2.0000      -0.349665        -9.5149
 224   2.0000      -0.338881        -9.2214
 225   2.0000      -0.335225        -9.1219
 226   2.0000      -0.328324        -8.9341
 227   2.0000      -0.325615        -8.8604
 228   2.0000      -0.321289        -8.7427
 229   2.0000      -0.318717        -8.6727
 230   2.0000      -0.318365        -8.6631
 231   2.0000      -0.309401        -8.4192
 232   2.0000      -0.305775        -8.3206
 233   2.0000      -0.301707        -8.2099
 234   2.0000      -0.283969        -7.7272
 235   2.0000      -0.269311        -7.3283
 236   2.0000      -0.253258        -6.8915
 237   2.0000      -0.236296        -6.4299
 238   2.0000      -0.222997        -6.0681
 239   2.0000      -0.183548        -4.9946
 240   0.0000      -0.098361        -2.6765
 241   0.0000      -0.054368        -1.4794
 242   0.0000      -0.046833        -1.2744
 243   0.0000      -0.028068        -0.7638
 244   0.0000      -0.009173        -0.2496

MULLIKEN ATOMIC CHARGES
-----------------------
   0 C :   -0.031730
   1 C :   -0.115876
   2 C :    0.057062
   3 C :   -0.087894
   4 C :    0.015334
   5 S :    0.064678
   6 C :   -0.044147
   7 C :    0.011203
   8 C :    0.009122
   9 C :   -0.057644
  10 S :    0.107567
  11 C :    0.042105
  12 C :    0.015998
  13 C :   -0.047862
  14 C :    0.013289
  15 C :   -0.000992
  16 C :   -0.051407
  17 S :    0.118788
  18 C :   -0.048129
  19 C :    0.019207
  20 C :    0.016134
  21 C :   -0.039684
  22 S :    0.086405
  23 C :   -0.009258
  24 N :    0.051826
  25 C :   -0.171665
  26 S :    0.119610
  27 C :    0.020162
  28 N :    0.272955
  29 O :   -0.245755
  30 O :   -0.255455
  31 C :   -0.001641
  32 C :    0.170461
  33 C :   -0.071694
  34 C :    0.013921
  35 C :    0.000464
  36 C :   -0.035626
  37 C :    0.017668
  38 C :    0.012530
  39 C :   -0.030205
  40 S :    0.058984
  41 C :   -0.039467
  42 C :   -0.002772
  43 C :    0.011627
  44 C :   -0.036296
  45 S :    0.113848
  46 C :   -0.012777
  47 C :    0.007312
  48 C :   -0.050520
  49 C :    0.039848
  50 C :   -0.023748
  51 C :   -0.009698
  52 S :    0.084593
  53 C :   -0.046822
  54 C :   -0.018336
  55 C :    0.073267
  56 C :   -0.230246
  57 S :    0.110646
  58 C :    0.208614
  59 H :    0.011275
  60 H :    0.013217
  61 H :    0.019667
  62 H :   -0.014448
  63 H :   -0.023495
  64 H :   -0.023106
  65 H :   -0.002162
  66 H :   -0.001061
  67 H :   -0.019569
  68 H :   -0.021394
  69 H :   -0.015556
  70 H :   -0.012883
  71 H :    0.029621
  72 H :    0.158465
  73 H :    0.014889
  74 H :   -0.043215
  75 H :   -0.025318
  76 H :   -0.017738
  77 H :   -0.019292
  78 H :   -0.020904
  79 H :   -0.020896
  80 H :   -0.021095
  81 H :   -0.002954
  82 H :   -0.007079
  83 H :   -0.019548
  84 H :   -0.028860
  85 H :   -0.029054
  86 H :   -0.026868
  87 H :    0.012221
  88 H :    0.009254
Sum of atomic charges:   -0.0000000

LOEWDIN ATOMIC CHARGES
----------------------
   0 C :   -0.100259
   1 C :   -0.126878
   2 C :   -0.030301
   3 C :   -0.068441
   4 C :   -0.156881
   5 S :    0.332003
   6 C :   -0.188301
   7 C :   -0.051919
   8 C :   -0.061054
   9 C :   -0.165249
  10 S :    0.443605
  11 C :   -0.039472
  12 C :   -0.045153
  13 C :   -0.164718
  14 C :   -0.052071
  15 C :   -0.058400
  16 C :   -0.187647
  17 S :    0.430553
  18 C :   -0.180899
  19 C :   -0.046787
  20 C :   -0.052691
  21 C :   -0.182296
  22 S :    0.387324
  23 C :   -0.040615
  24 N :    0.130881
  25 C :   -0.165614
  26 S :    0.412292
  27 C :   -0.185592
  28 N :    0.274360
  29 O :   -0.212357
  30 O :   -0.222407
  31 C :    0.011463
  32 C :   -0.068667
  33 C :   -0.069420
  34 C :   -0.038991
  35 C :   -0.063169
  36 C :   -0.160089
  37 C :   -0.051347
  38 C :   -0.052266
  39 C :   -0.188217
  40 S :    0.407825
  41 C :   -0.180756
  42 C :   -0.057199
  43 C :   -0.055237
  44 C :   -0.171341
  45 S :    0.412829
  46 C :   -0.058771
  47 C :   -0.045725
  48 C :   -0.167796
  49 C :   -0.051312
  50 C :   -0.066304
  51 C :   -0.179002
  52 S :    0.434681
  53 C :   -0.190277
  54 C :   -0.060044
  55 C :   -0.062681
  56 C :   -0.178008
  57 S :    0.432302
  58 C :   -0.020202
  59 H :    0.024037
  60 H :    0.023660
  61 H :    0.037100
  62 H :    0.020618
  63 H :    0.028352
  64 H :    0.027019
  65 H :    0.030844
  66 H :    0.026109
  67 H :    0.030933
  68 H :    0.028214
  69 H :    0.032083
  70 H :    0.032345
  71 H :    0.029961
  72 H :    0.101562
  73 H :    0.045097
  74 H :   -0.000902
  75 H :    0.028389
  76 H :    0.035100
  77 H :    0.030142
  78 H :    0.029110
  79 H :    0.028413
  80 H :    0.029189
  81 H :    0.024165
  82 H :    0.020985
  83 H :    0.029153
  84 H :    0.026119
  85 H :    0.025577
  86 H :    0.027239
  87 H :    0.034129
  88 H :    0.027963

  Mayer bond orders larger than 0.100000
B(  0-C ,  1-C ) :   1.9966 B(  0-C , 59-H ) :   0.9453 B(  0-C , 60-H ) :   0.9375
B(  1-C ,  2-C ) :   0.9681 B(  1-C ,  5-S ) :   1.0134 B(  2-C ,  3-C ) :   0.9942
B(  2-C , 58-C ) :   1.0140 B(  2-C , 61-H ) :   0.9062 B(  3-C ,  4-C ) :   1.7829
B(  3-C , 62-H ) :   0.9896 B(  4-C ,  5-S ) :   1.0041 B(  4-C ,  6-C ) :   1.0628
B(  6-C ,  7-C ) :   1.5413 B(  6-C ,  9-C ) :   0.1032 B(  6-C , 10-S ) :   1.1319
B(  7-C ,  8-C ) :   1.2469 B(  7-C , 63-H ) :   1.0031 B(  8-C ,  9-C ) :   1.4726
B(  8-C , 64-H ) :   0.9997 B(  9-C , 10-S ) :   1.1220 B(  9-C , 11-C ) :   1.1686
B( 11-C , 12-C ) :   1.6270 B( 11-C , 65-H ) :   0.9761 B( 12-C , 13-C ) :   1.1924
B( 12-C , 66-H ) :   0.9623 B( 13-C , 14-C ) :   1.4337 B( 13-C , 17-S ) :   1.0979
B( 14-C , 15-C ) :   1.2947 B( 14-C , 67-H ) :   1.0020 B( 15-C , 16-C ) :   1.4544
B( 15-C , 68-H ) :   0.9952 B( 16-C , 17-S ) :   1.1012 B( 16-C , 18-C ) :   1.1914
B( 18-C , 19-C ) :   1.4299 B( 18-C , 22-S ) :   1.0919 B( 19-C , 20-C ) :   1.3653
B( 19-C , 69-H ) :   0.9933 B( 20-C , 21-C ) :   1.3470 B( 20-C , 70-H ) :   0.9968
B( 21-C , 22-S ) :   1.0642 B( 21-C , 23-C ) :   1.3360 B( 23-C , 24-N ) :   1.2768
B( 23-C , 25-C ) :   0.1042 B( 23-C , 71-H ) :   0.9574 B( 24-N , 25-C ) :   1.3029
B( 24-N , 72-H ) :   0.9013 B( 25-C , 26-S ) :   1.0473 B( 25-C , 32-C ) :   1.1985
B( 26-S , 27-C ) :   1.0552 B( 27-C , 28-N ) :   0.9622 B( 27-C , 31-C ) :   1.5614
B( 28-N , 29-O ) :   1.5339 B( 28-N , 30-O ) :   1.5166 B( 29-O , 30-O ) :   0.2667
B( 31-C , 32-C ) :   1.1438 B( 31-C , 73-H ) :   0.9997 B( 32-C , 33-C ) :   1.3401
B( 33-C , 34-C ) :   1.3431 B( 33-C , 74-H ) :   0.9434 B( 34-C , 35-C ) :   1.4846
B( 34-C , 75-H ) :   0.9636 B( 35-C , 36-C ) :   1.2647 B( 35-C , 76-H ) :   0.9584
B( 36-C , 37-C ) :   1.3787 B( 36-C , 40-S ) :   1.0816 B( 37-C , 38-C ) :   1.3328
B( 37-C , 77-H ) :   1.0004 B( 38-C , 39-C ) :   1.4415 B( 38-C , 78-H ) :   0.9940
B( 39-C , 40-S ) :   1.0975 B( 39-C , 41-C ) :   1.1749 B( 41-C , 42-C ) :   1.4678
B( 41-C , 45-S ) :   1.1035 B( 42-C , 43-C ) :   1.2909 B( 42-C , 79-H ) :   0.9964
B( 43-C , 44-C ) :   1.4343 B( 43-C , 80-H ) :   1.0010 B( 44-C , 45-S ) :   1.0979
B( 44-C , 46-C ) :   1.1932 B( 46-C , 47-C ) :   1.6022 B( 46-C , 81-H ) :   0.9636
B( 47-C , 48-C ) :   1.1666 B( 47-C , 82-H ) :   0.9771 B( 48-C , 49-C ) :   1.4777
B( 48-C , 51-C ) :   0.1018 B( 48-C , 52-S ) :   1.1082 B( 49-C , 50-C ) :   1.2473
B( 49-C , 83-H ) :   0.9978 B( 50-C , 51-C ) :   1.5244 B( 50-C , 84-H ) :   1.0020
B( 51-C , 52-S ) :   1.1297 B( 51-C , 53-C ) :   1.0913 B( 53-C , 54-C ) :   1.5483
B( 53-C , 57-S ) :   1.1307 B( 54-C , 55-C ) :   1.2331 B( 54-C , 85-H ) :   0.9966
B( 55-C , 56-C ) :   1.5959 B( 55-C , 86-H ) :   0.9949 B( 56-C , 57-S ) :   1.1411
B( 56-C , 58-C ) :   1.0370 B( 58-C , 87-H ) :   0.9257 B( 58-C , 88-H ) :   0.9223

-----------------------------------------------------------------------------
         ABSORPTION SPECTRUM VIA TRANSITION ELECTRIC DIPOLE MOMENTS
-----------------------------------------------------------------------------
State   Energy  Wavelength   fosc         T2         TX        TY        TZ
        (cm-1)    (nm)                  (au**2)     (au)      (au)      (au)
-----------------------------------------------------------------------------
   0    4859.2   2057.9   0.088837855   6.01874   0.87375   2.16947   0.74073
   1   12239.3    817.0   0.002153519   0.05793  -0.15367   0.07524  -0.16926
   2   14273.2    700.6   0.094927854   2.18951   1.44546   0.08961  -0.30352
   3   16539.5    604.6   1.347603417  26.82343   4.95840  -0.33797   1.45721
   4   17983.6    556.1   1.372197045  25.11971   4.79117  -1.46211   0.16308
   5   19933.9    501.7   0.116272792   1.92026  -1.04713   0.76432   0.48950
   6   21714.3    460.5   0.085145983   1.29090   0.27916  -0.87635  -0.66707
   7   22816.6    438.3   0.648555476   9.35776   0.90377   2.28014   1.82810
   8   24542.1    407.5   0.168445575   2.25956  -1.49297   0.17465  -0.00918
   9   25352.3    394.4   0.048621055   0.63137   0.43232  -0.49408  -0.44761
  10   25704.2    389.0   0.131442660   1.68348   0.82032  -0.96630  -0.27718
  11   25900.4    386.1   0.269769579   3.42896   1.63154   0.07898   0.87224
  12   26290.8    380.4   0.002506011   0.03138   0.00648  -0.15891  -0.07802
  13   26651.2    375.2   0.102370607   1.26454  -1.10000  -0.12490  -0.19733
  14   27428.1    364.6   0.021850537   0.26227  -0.16536   0.42843   0.22665
  15   28914.6    345.8   0.030998086   0.35293   0.31671  -0.49872  -0.06254
  16   29449.9    339.6   0.095453720   1.06705  -0.08880  -0.44810  -0.92648
  17   29969.9    333.7   0.059686223   0.65564  -0.48798   0.63097   0.13923
  18   30427.2    328.7   0.104421886   1.12981  -0.81116   0.56528   0.39025
  19   31298.0    319.5   0.045730282   0.48102   0.56016  -0.31193  -0.26447
  20   31815.0    314.3   0.054655965   0.56556   0.71448  -0.23469   0.00145
  21   31932.2    313.2   0.007923663   0.08169   0.09019  -0.20562  -0.17685
  22   32005.2    312.4   0.005445857   0.05602  -0.12916  -0.00932   0.19811
  23   32029.2    312.2   0.006543798   0.06726  -0.03800   0.17867   0.18411
  24   32321.1    309.4   0.016743950   0.17055  -0.23704   0.33815   0.00349
  25   32525.9    307.4   0.071548167   0.72418   0.47991  -0.63551  -0.29999
  26   32860.2    304.3   0.004240683   0.04249   0.17637  -0.10547  -0.01596
  27   33243.9    300.8   0.054953080   0.54420  -0.02897   0.51558   0.52681
  28   33879.8    295.2   0.032087875   0.31180  -0.30785   0.43957   0.15430
  29   34239.7    292.1   0.000719098   0.00691   0.00223  -0.03707   0.07440
  30   34332.0    291.3   0.024451035   0.23446   0.13280  -0.37331  -0.27832
  31   34636.0    288.7   0.034373116   0.32671   0.08738  -0.40829  -0.39036
  32   34911.9    286.4   0.008448636   0.07967  -0.10329   0.25701  -0.05430
  33   35264.8    283.6   0.102825238   0.95992   0.18229  -0.60066  -0.75226
  34   35547.2    281.3   0.027700203   0.25654   0.45938  -0.20330   0.06461
  35   35693.5    280.2   0.030192768   0.27848  -0.35930   0.36291   0.13296
  36   35877.3    278.7   0.042130872   0.38660   0.18561   0.39930   0.43898
  37   36082.1    277.1   0.046456585   0.42387  -0.11475   0.58698   0.25720
  38   36271.5    275.7   0.007294634   0.06621  -0.17674  -0.09791  -0.15933
  39   36875.3    271.2   0.012988464   0.11596  -0.10259   0.29057   0.14493
  40   37082.4    269.7   0.006519380   0.05788  -0.05823   0.22071   0.07599
  41   37545.9    266.3   0.006741402   0.05911   0.04320  -0.06102  -0.23134
  42   37771.3    264.8   0.000122126   0.00106  -0.00563   0.02096   0.02436
  43   38019.8    263.0   0.029468231   0.25516   0.48116  -0.12630  -0.08771
  44   38181.0    261.9   0.000981531   0.00846  -0.00336   0.06145  -0.06838
  45   38307.5    261.0   0.024361642   0.20936   0.42842  -0.08353  -0.13728
  46   38468.8    260.0   0.004688488   0.04012  -0.13557  -0.13971   0.04715
  47   38679.2    258.5   0.009928957   0.08451  -0.01969  -0.27165  -0.10161
  48   38819.4    257.6   0.090039447   0.76359   0.82002  -0.27155  -0.13201
  49   39159.6    255.4   0.143029308   1.20244   0.90211  -0.61953  -0.06945
  50   39810.4    251.2   0.031049385   0.25676   0.24361   0.38341   0.22452
  51   39954.8    250.3   0.009474337   0.07806  -0.25771  -0.02018  -0.10603
  52   40068.9    249.6   0.005734609   0.04712  -0.15822  -0.10676  -0.10337
  53   40295.5    248.2   0.008898022   0.07270   0.02100  -0.26524   0.04363

FINAL SINGLE POINT ENERGY     -5610.701717253794

DIPOLE MOMENT
-------------
                                X             Y             Z
Electronic contribution:     35.60259     -11.49699       2.47931
Nuclear contribution   :    -38.06168      11.96895      -2.66764
                        -----------------------------------------
Total Dipole Moment    :     -2.45909       0.47196      -0.18832
                        -----------------------------------------
Magnitude (a.u.)       :      2.51104
Magnitude (Debye)      :      6.38256

Rotational constants in cm-1:     0.002666     0.000434     0.000394
Rotational constants in MHz :    79.938055    13.019313    11.814048

                             ****ORCA TERMINATED NORMALLY****
TOTAL RUN TIME: 0 days 0 hours 9 minutes 29 seconds 231 msec
