                         Program Version 4.2.0 -  RELEASE  -
|  1> # ORCA input file
|  2> # SCF done       -172.061425391781          0.000959693884
|  3> ! CAM-B3LYP def2-SVP def2/J RIJCOSX Grid4 TightSCF
|  4> %maxcore 5000
|  5> %tddft
|  6>     Mode sTDDFT
|  7>     Ethresh 5.0
|  8>     maxcore 5000
|  9> end
| 10>
| 11> %pal
| 12>   nprocs 6
| 13>   end
| 14> * xyz 0 1
| 15>    C        8.48351         2.89362        16.08000
| 16>    C        8.63770         1.68418        15.52473
| 17>    C        9.08203         0.47644        16.16033
| 18>    C        9.14050        -0.59692        15.34220
| 19>    C        8.75100        -0.33317        13.99895
| 20>    S        8.30026         1.35145        13.81863
| 21>    C        8.71220        -1.22083        12.95126
| 22>    C        9.05747        -2.59507        12.95635
| 23>    C        8.91544        -3.20087        11.75037
| 24>    C        8.45465        -2.35220        10.70433
| 25>    S        8.20251        -0.73625        11.34406
| 26>    C        8.17115        -2.79033         9.43799
| 27>    C        7.72137        -2.10497         8.28524
| 28>    C        7.07198        -2.76320         7.23639
| 29>    C        6.71039        -1.81974         6.20172
| 30>    C        7.22599        -0.57623         6.63506
| 31>    C        7.12075         0.60725         5.90725
| 32>    C        7.74876         1.74070         6.47212
| 33>    C        8.42417         1.62098         7.66024
| 34>    C        8.49597         0.41529         8.38523
| 35>    C        7.86018        -0.69806         7.89210
| 36>    C        6.39945         0.53090         4.69452
| 37>    C        5.83961        -0.66076         4.29891
| 38>    C        5.98135        -1.85012         5.03263
| 39>    N        6.72171        -4.10013         7.25200
| 40>    C        6.77570        -4.94711         6.19788
| 41>    S        7.65673        -4.53340         4.76044
| 42>    C        7.23540        -6.07776         4.07846
| 43>    N        7.67466        -6.36022         2.79093
| 44>    O        7.37381        -7.44111         2.30788
| 45>    O        8.33663        -5.49760         2.22975
| 46>    C        6.48063        -6.85479         4.92027
| 47>    C        6.20619        -6.22771         6.14421
| 48>    C        5.40987        -6.79032         7.21238
| 49>    C        4.61711        -7.85773         7.09211
| 50>    C        3.83235        -8.39718         8.21021
| 51>    C        4.42829        -9.16544         9.15510
| 52>    S        3.35857        -9.76294        10.36933
| 53>    C        2.03960        -8.93687         9.60335
| 54>    C        2.42204        -8.22971         8.45438
| 55>    C        1.44890        -7.47841         7.75313
| 56>    C        1.89086        -6.69974         6.54046
| 57>    C        2.31219        -5.27682         6.91336
| 58>    C        0.13596        -7.43536         8.20119
| 59>    C       -0.88504        -6.60361         7.46725
| 60>    C       -1.77592        -7.46953         6.57505
| 61>    C       -0.25973        -8.19268         9.33566
| 62>    C       -1.55560        -8.40212         9.95180
| 63>    C       -1.47668        -9.25309        11.01915
| 64>    S        0.09642        -9.82827        11.37103
| 65>    C        0.71797        -8.93594        10.01751
| 66>    C       -2.83518        -7.84505         9.57931
| 67>    C       -4.01575        -8.46652         9.75348
| 68>    C       -5.26291        -7.87490         9.40146
| 69>    S       -5.41008        -6.27606         8.68954
| 70>    C       -7.15710        -6.32528         8.57397
| 71>    C       -7.56525        -7.53390         9.07089
| 72>    C       -6.53151        -8.37819         9.52021
| 73>    O       -7.10447        -9.52912         9.98499
| 74>    C       -8.44805        -9.39306         9.82508
| 75>    O       -9.24934       -10.21114        10.12875
| 76>    O       -8.74918        -8.18705         9.26972
| 77>    C       -7.90581        -5.22478         8.03813
| 78>    C       -9.23321        -5.22387         7.93365
| 79>    H        8.69940         3.04988        17.12212
| 80>    H        8.14280         3.73897        15.51098
| 81>    H        9.33867         0.47024        17.20467
| 82>    H        9.45153        -1.57907        15.65138
| 83>    H        9.39740        -3.09182        13.84719
| 84>    H        9.13148        -4.23924        11.56664
| 85>    H        8.27850        -3.86482         9.31535
| 86>    H        7.70189         2.69053         5.95996
| 87>    H        8.92128         2.48660         8.07358
| 88>    H        9.05599         0.40184         9.30530
| 89>    H        6.28402         1.41552         4.08561
| 90>    H        5.27502        -0.69684         3.37854
| 91>    H        5.51491        -2.75204         4.66633
| 92>    H        6.55226        -4.51195         8.16081
| 93>    H        6.15605        -7.84048         4.64283
| 94>    H        5.43839        -6.27596         8.16538
| 95>    H        4.55947        -8.40417         6.15969
| 96>    H        5.46485        -9.43909         9.19713
| 97>    H        2.74316        -7.20206         6.08667
| 98>    H        1.10174        -6.67042         5.78992
| 99>    H        1.49414        -4.73289         7.37941
|100>    H        2.63026        -4.73377         6.02628
|101>    H        3.14151        -5.30427         7.61553
|102>    H       -0.39582        -5.85419         6.85047
|103>    H       -1.48812        -6.05271         8.18728
|104>    H       -2.53291        -6.85726         6.09031
|105>    H       -2.27565        -8.24221         7.15370
|106>    H       -1.17728        -7.95499         5.80728
|107>    H       -2.28434        -9.54635        11.66075
|108>    H       -2.86386        -6.85416         9.15419
|109>    H       -4.08056        -9.46988        10.14926
|110>    H       -7.31563        -4.37716         7.71958
|111>    H       -9.82226        -6.06724         8.25008
|112>    H       -9.76158        -4.37952         7.52787
|113> *
|114>
|115>                          ****END OF INPUT****

CARTESIAN COORDINATES (ANGSTROEM)
---------------------------------
  C      8.483510    2.893620   16.080000
  C      8.637700    1.684180   15.524730
  C      9.082030    0.476440   16.160330
  C      9.140500   -0.596920   15.342200
  C      8.751000   -0.333170   13.998950
  S      8.300260    1.351450   13.818630
  C      8.712200   -1.220830   12.951260
  C      9.057470   -2.595070   12.956350
  C      8.915440   -3.200870   11.750370
  C      8.454650   -2.352200   10.704330
  S      8.202510   -0.736250   11.344060
  C      8.171150   -2.790330    9.437990
  C      7.721370   -2.104970    8.285240
  C      7.071980   -2.763200    7.236390
  C      6.710390   -1.819740    6.201720
  C      7.225990   -0.576230    6.635060
  C      7.120750    0.607250    5.907250
  C      7.748760    1.740700    6.472120
  C      8.424170    1.620980    7.660240
  C      8.495970    0.415290    8.385230
  C      7.860180   -0.698060    7.892100
  C      6.399450    0.530900    4.694520
  C      5.839610   -0.660760    4.298910
  C      5.981350   -1.850120    5.032630
  N      6.721710   -4.100130    7.252000
  C      6.775700   -4.947110    6.197880
  S      7.656730   -4.533400    4.760440
  C      7.235400   -6.077760    4.078460
  N      7.674660   -6.360220    2.790930
  O      7.373810   -7.441110    2.307880
  O      8.336630   -5.497600    2.229750
  C      6.480630   -6.854790    4.920270
  C      6.206190   -6.227710    6.144210
  C      5.409870   -6.790320    7.212380
  C      4.617110   -7.857730    7.092110
  C      3.832350   -8.397180    8.210210
  C      4.428290   -9.165440    9.155100
  S      3.358570   -9.762940   10.369330
  C      2.039600   -8.936870    9.603350
  C      2.422040   -8.229710    8.454380
  C      1.448900   -7.478410    7.753130
  C      1.890860   -6.699740    6.540460
  C      2.312190   -5.276820    6.913360
  C      0.135960   -7.435360    8.201190
  C     -0.885040   -6.603610    7.467250
  C     -1.775920   -7.469530    6.575050
  C     -0.259730   -8.192680    9.335660
  C     -1.555600   -8.402120    9.951800
  C     -1.476680   -9.253090   11.019150
  S      0.096420   -9.828270   11.371030
  C      0.717970   -8.935940   10.017510
  C     -2.835180   -7.845050    9.579310
  C     -4.015750   -8.466520    9.753480
  C     -5.262910   -7.874900    9.401460
  S     -5.410080   -6.276060    8.689540
  C     -7.157100   -6.325280    8.573970
  C     -7.565250   -7.533900    9.070890
  C     -6.531510   -8.378190    9.520210
  O     -7.104470   -9.529120    9.984990
  C     -8.448050   -9.393060    9.825080
  O     -9.249340  -10.211140   10.128750
  O     -8.749180   -8.187050    9.269720
  C     -7.905810   -5.224780    8.038130
  C     -9.233210   -5.223870    7.933650
  H      8.699400    3.049880   17.122120
  H      8.142800    3.738970   15.510980
  H      9.338670    0.470240   17.204670
  H      9.451530   -1.579070   15.651380
  H      9.397400   -3.091820   13.847190
  H      9.131480   -4.239240   11.566640
  H      8.278500   -3.864820    9.315350
  H      7.701890    2.690530    5.959960
  H      8.921280    2.486600    8.073580
  H      9.055990    0.401840    9.305300
  H      6.284020    1.415520    4.085610
  H      5.275020   -0.696840    3.378540
  H      5.514910   -2.752040    4.666330
  H      6.552260   -4.511950    8.160810
  H      6.156050   -7.840480    4.642830
  H      5.438390   -6.275960    8.165380
  H      4.559470   -8.404170    6.159690
  H      5.464850   -9.439090    9.197130
  H      2.743160   -7.202060    6.086670
  H      1.101740   -6.670420    5.789920
  H      1.494140   -4.732890    7.379410
  H      2.630260   -4.733770    6.026280
  H      3.141510   -5.304270    7.615530
  H     -0.395820   -5.854190    6.850470
  H     -1.488120   -6.052710    8.187280
  H     -2.532910   -6.857260    6.090310
  H     -2.275650   -8.242210    7.153700
  H     -1.177280   -7.954990    5.807280
  H     -2.284340   -9.546350   11.660750
  H     -2.863860   -6.854160    9.154190
  H     -4.080560   -9.469880   10.149260
  H     -7.315630   -4.377160    7.719580
  H     -9.822260   -6.067240    8.250080
  H     -9.761580   -4.379520    7.527870

 Total Charge           Charge          ....    0
 Multiplicity           Mult            ....    1
 Number of Electrons    NEL             ....  490
 Basis Dimension        Dim             .... 1090

ORBITAL ENERGIES
----------------

  NO   OCC          E(Eh)            E(eV)
   0   2.0000     -88.973213     -2421.0842
   1   2.0000     -88.969198     -2420.9749
   2   2.0000     -88.953778     -2420.5554
   3   2.0000     -88.950917     -2420.4775
   4   2.0000     -88.946098     -2420.3464
   5   2.0000     -88.940140     -2420.1842
   6   2.0000     -19.307641      -525.3876
   7   2.0000     -19.307159      -525.3745
   8   2.0000     -19.223865      -523.1080
   9   2.0000     -19.223050      -523.0858
  10   2.0000     -19.218659      -522.9663
  11   2.0000     -14.635437      -398.2505
  12   2.0000     -14.471946      -393.8017
  13   2.0000     -10.463945      -284.7384
  14   2.0000     -10.360978      -281.9366
  15   2.0000     -10.350127      -281.6413
  16   2.0000     -10.349167      -281.6151
  17   2.0000     -10.328947      -281.0649
  18   2.0000     -10.321842      -280.8716
  19   2.0000     -10.320882      -280.8455
  20   2.0000     -10.319830      -280.8169
  21   2.0000     -10.311926      -280.6018
  22   2.0000     -10.311614      -280.5933
  23   2.0000     -10.309748      -280.5425
  24   2.0000     -10.308234      -280.5013
  25   2.0000     -10.299659      -280.2680
  26   2.0000     -10.299161      -280.2544
  27   2.0000     -10.298246      -280.2295
  28   2.0000     -10.296117      -280.1716
  29   2.0000     -10.294201      -280.1194
  30   2.0000     -10.291648      -280.0500
  31   2.0000     -10.291408      -280.0434
  32   2.0000     -10.289759      -279.9986
  33   2.0000     -10.289722      -279.9976
  34   2.0000     -10.289543      -279.9927
  35   2.0000     -10.289346      -279.9873
  36   2.0000     -10.286690      -279.9151
  37   2.0000     -10.286618      -279.9131
  38   2.0000     -10.286605      -279.9128
  39   2.0000     -10.285863      -279.8926
  40   2.0000     -10.285845      -279.8921
  41   2.0000     -10.285378      -279.8794
  42   2.0000     -10.284687      -279.8606
  43   2.0000     -10.284335      -279.8510
  44   2.0000     -10.283162      -279.8191
  45   2.0000     -10.281798      -279.7819
  46   2.0000     -10.279380      -279.7161
  47   2.0000     -10.278599      -279.6949
  48   2.0000     -10.278108      -279.6815
  49   2.0000     -10.277958      -279.6775
  50   2.0000     -10.276538      -279.6388
  51   2.0000     -10.276036      -279.6252
  52   2.0000     -10.275721      -279.6166
  53   2.0000     -10.275691      -279.6158
  54   2.0000     -10.274673      -279.5881
  55   2.0000     -10.274520      -279.5839
  56   2.0000     -10.274041      -279.5709
  57   2.0000     -10.272003      -279.5154
  58   2.0000     -10.271873      -279.5119
  59   2.0000     -10.266488      -279.3653
  60   2.0000     -10.264064      -279.2994
  61   2.0000     -10.257578      -279.1229
  62   2.0000     -10.256440      -279.0919
  63   2.0000     -10.254991      -279.0525
  64   2.0000      -8.068336      -219.5506
  65   2.0000      -8.064034      -219.4335
  66   2.0000      -8.050012      -219.0520
  67   2.0000      -8.047140      -218.9738
  68   2.0000      -8.042083      -218.8362
  69   2.0000      -8.036872      -218.6944
  70   2.0000      -6.038031      -164.3032
  71   2.0000      -6.033615      -164.1830
  72   2.0000      -6.033541      -164.1810
  73   2.0000      -6.029780      -164.0786
  74   2.0000      -6.029713      -164.0768
  75   2.0000      -6.025415      -163.9599
  76   2.0000      -6.019454      -163.7977
  77   2.0000      -6.016645      -163.7212
  78   2.0000      -6.015251      -163.6833
  79   2.0000      -6.012474      -163.6077
  80   2.0000      -6.011879      -163.5916
  81   2.0000      -6.011786      -163.5890
  82   2.0000      -6.008733      -163.5059
  83   2.0000      -6.007817      -163.4810
  84   2.0000      -6.006702      -163.4507
  85   2.0000      -6.002892      -163.3470
  86   2.0000      -6.002788      -163.3442
  87   2.0000      -5.997373      -163.1968
  88   2.0000      -1.302596       -35.4454
  89   2.0000      -1.283421       -34.9236
  90   2.0000      -1.167891       -31.7799
  91   2.0000      -1.141581       -31.0640
  92   2.0000      -1.121133       -30.5076
  93   2.0000      -1.080066       -29.3901
  94   2.0000      -1.003200       -27.2984
  95   2.0000      -0.999484       -27.1973
  96   2.0000      -0.999151       -27.1883
  97   2.0000      -0.993741       -27.0411
  98   2.0000      -0.983384       -26.7592
  99   2.0000      -0.972969       -26.4758
 100   2.0000      -0.970815       -26.4172
 101   2.0000      -0.926900       -25.2222
 102   2.0000      -0.926113       -25.2008
 103   2.0000      -0.918530       -24.9945
 104   2.0000      -0.916524       -24.9399
 105   2.0000      -0.910671       -24.7806
 106   2.0000      -0.888809       -24.1857
 107   2.0000      -0.887582       -24.1523
 108   2.0000      -0.879105       -23.9217
 109   2.0000      -0.865764       -23.5586
 110   2.0000      -0.861986       -23.4558
 111   2.0000      -0.858201       -23.3528
 112   2.0000      -0.848434       -23.0871
 113   2.0000      -0.846622       -23.0378
 114   2.0000      -0.842928       -22.9372
 115   2.0000      -0.836763       -22.7695
 116   2.0000      -0.835269       -22.7288
 117   2.0000      -0.823791       -22.4165
 118   2.0000      -0.817858       -22.2551
 119   2.0000      -0.816940       -22.2301
 120   2.0000      -0.812494       -22.1091
 121   2.0000      -0.809321       -22.0227
 122   2.0000      -0.786669       -21.4064
 123   2.0000      -0.780877       -21.2487
 124   2.0000      -0.779201       -21.2031
 125   2.0000      -0.759934       -20.6789
 126   2.0000      -0.737811       -20.0769
 127   2.0000      -0.736808       -20.0496
 128   2.0000      -0.733750       -19.9664
 129   2.0000      -0.724655       -19.7189
 130   2.0000      -0.721560       -19.6346
 131   2.0000      -0.718685       -19.5564
 132   2.0000      -0.712282       -19.3822
 133   2.0000      -0.701944       -19.1009
 134   2.0000      -0.697379       -18.9766
 135   2.0000      -0.691368       -18.8131
 136   2.0000      -0.687369       -18.7043
 137   2.0000      -0.673331       -18.3223
 138   2.0000      -0.672708       -18.3053
 139   2.0000      -0.671536       -18.2734
 140   2.0000      -0.663913       -18.0660
 141   2.0000      -0.657848       -17.9010
 142   2.0000      -0.646845       -17.6015
 143   2.0000      -0.637125       -17.3371
 144   2.0000      -0.632487       -17.2109
 145   2.0000      -0.628078       -17.0909
 146   2.0000      -0.622328       -16.9344
 147   2.0000      -0.620109       -16.8740
 148   2.0000      -0.619862       -16.8673
 149   2.0000      -0.616709       -16.7815
 150   2.0000      -0.610053       -16.6004
 151   2.0000      -0.606819       -16.5124
 152   2.0000      -0.606218       -16.4960
 153   2.0000      -0.600753       -16.3473
 154   2.0000      -0.599184       -16.3046
 155   2.0000      -0.595391       -16.2014
 156   2.0000      -0.594266       -16.1708
 157   2.0000      -0.578620       -15.7450
 158   2.0000      -0.574570       -15.6348
 159   2.0000      -0.570423       -15.5220
 160   2.0000      -0.565029       -15.3752
 161   2.0000      -0.558928       -15.2092
 162   2.0000      -0.555002       -15.1024
 163   2.0000      -0.551181       -14.9984
 164   2.0000      -0.546593       -14.8735
 165   2.0000      -0.542990       -14.7755
 166   2.0000      -0.538128       -14.6432
 167   2.0000      -0.535716       -14.5776
 168   2.0000      -0.534145       -14.5348
 169   2.0000      -0.532674       -14.4948
 170   2.0000      -0.528095       -14.3702
 171   2.0000      -0.524367       -14.2687
 172   2.0000      -0.518417       -14.1068
 173   2.0000      -0.516424       -14.0526
 174   2.0000      -0.513663       -13.9775
 175   2.0000      -0.510588       -13.8938
 176   2.0000      -0.506897       -13.7934
 177   2.0000      -0.504505       -13.7283
 178   2.0000      -0.501370       -13.6430
 179   2.0000      -0.499661       -13.5965
 180   2.0000      -0.498469       -13.5640
 181   2.0000      -0.496953       -13.5228
 182   2.0000      -0.495979       -13.4963
 183   2.0000      -0.495340       -13.4789
 184   2.0000      -0.495087       -13.4720
 185   2.0000      -0.489291       -13.3143
 186   2.0000      -0.488266       -13.2864
 187   2.0000      -0.488058       -13.2807
 188   2.0000      -0.485182       -13.2025
 189   2.0000      -0.482542       -13.1306
 190   2.0000      -0.481067       -13.0905
 191   2.0000      -0.480333       -13.0705
 192   2.0000      -0.473910       -12.8958
 193   2.0000      -0.468239       -12.7414
 194   2.0000      -0.466747       -12.7008
 195   2.0000      -0.463192       -12.6041
 196   2.0000      -0.462447       -12.5838
 197   2.0000      -0.460051       -12.5186
 198   2.0000      -0.458467       -12.4755
 199   2.0000      -0.452903       -12.3241
 200   2.0000      -0.449780       -12.2391
 201   2.0000      -0.447615       -12.1802
 202   2.0000      -0.445615       -12.1258
 203   2.0000      -0.442754       -12.0480
 204   2.0000      -0.440615       -11.9897
 205   2.0000      -0.439421       -11.9572
 206   2.0000      -0.433003       -11.7826
 207   2.0000      -0.430235       -11.7073
 208   2.0000      -0.429493       -11.6871
 209   2.0000      -0.427715       -11.6387
 210   2.0000      -0.425487       -11.5781
 211   2.0000      -0.424389       -11.5482
 212   2.0000      -0.423419       -11.5218
 213   2.0000      -0.417471       -11.3600
 214   2.0000      -0.417307       -11.3555
 215   2.0000      -0.413447       -11.2505
 216   2.0000      -0.410322       -11.1654
 217   2.0000      -0.407820       -11.0973
 218   2.0000      -0.406596       -11.0640
 219   2.0000      -0.398661       -10.8481
 220   2.0000      -0.396502       -10.7894
 221   2.0000      -0.391307       -10.6480
 222   2.0000      -0.388718       -10.5775
 223   2.0000      -0.384654       -10.4670
 224   2.0000      -0.382502       -10.4084
 225   2.0000      -0.376706       -10.2507
 226   2.0000      -0.372656       -10.1405
 227   2.0000      -0.366856        -9.9827
 228   2.0000      -0.363719        -9.8973
 229   2.0000      -0.352257        -9.5854
 230   2.0000      -0.341099        -9.2818
 231   2.0000      -0.339334        -9.2338
 232   2.0000      -0.338836        -9.2202
 233   2.0000      -0.325834        -8.8664
 234   2.0000      -0.322675        -8.7804
 235   2.0000      -0.321155        -8.7391
 236   2.0000      -0.312230        -8.4962
 237   2.0000      -0.310993        -8.4626
 238   2.0000      -0.297002        -8.0818
 239   2.0000      -0.288668        -7.8551
 240   2.0000      -0.285162        -7.7596
 241   2.0000      -0.270547        -7.3620
 242   2.0000      -0.260283        -7.0827
 243   2.0000      -0.251756        -6.8506
 244   2.0000      -0.215052        -5.8519
 245   0.0000      -0.080604        -2.1933
 246   0.0000      -0.044127        -1.2008
 247   0.0000      -0.043568        -1.1855
 248   0.0000      -0.035752        -0.9729
 249   0.0000      -0.006814        -0.1854

MULLIKEN ATOMIC CHARGES
-----------------------
   0 C :   -0.025397
   1 C :   -0.067451
   2 C :    0.052824
   3 C :    0.029441
   4 C :   -0.065610
   5 S :    0.077657
   6 C :   -0.059325
   7 C :    0.038280
   8 C :    0.024109
   9 C :   -0.010789
  10 S :    0.084716
  11 C :   -0.145911
  12 C :    0.108743
  13 C :   -0.014511
  14 C :    0.113975
  15 C :   -0.067098
  16 C :    0.117107
  17 C :   -0.025686
  18 C :    0.044106
  19 C :   -0.087510
  20 C :    0.113005
  21 C :   -0.020215
  22 C :    0.040963
  23 C :   -0.073678
  24 N :   -0.025577
  25 C :   -0.116671
  26 S :    0.174169
  27 C :   -0.021850
  28 N :    0.279832
  29 O :   -0.264650
  30 O :   -0.274049
  31 C :   -0.002705
  32 C :    0.125453
  33 C :    0.002262
  34 C :   -0.077111
  35 C :    0.021149
  36 C :   -0.100015
  37 S :    0.117076
  38 C :   -0.138602
  39 C :    0.122234
  40 C :   -0.123612
  41 C :    0.052899
  42 C :    0.055590
  43 C :   -0.133502
  44 C :    0.024309
  45 C :    0.035035
  46 C :    0.131083
  47 C :    0.079538
  48 C :   -0.121669
  49 S :    0.134068
  50 C :   -0.161376
  51 C :   -0.037607
  52 C :    0.031241
  53 C :   -0.189115
  54 S :    0.108171
  55 C :   -0.198392
  56 C :    0.186595
  57 C :    0.185007
  58 O :   -0.210164
  59 C :    0.291751
  60 O :   -0.130714
  61 O :   -0.215487
  62 C :    0.055462
  63 C :   -0.017134
  64 H :    0.020767
  65 H :    0.022318
  66 H :   -0.010581
  67 H :   -0.011995
  68 H :   -0.014504
  69 H :   -0.014446
  70 H :   -0.028485
  71 H :   -0.025915
  72 H :   -0.013836
  73 H :   -0.018774
  74 H :   -0.023396
  75 H :   -0.011119
  76 H :   -0.017831
  77 H :    0.146118
  78 H :    0.004263
  79 H :   -0.022949
  80 H :    0.030508
  81 H :    0.014230
  82 H :   -0.010643
  83 H :    0.004002
  84 H :    0.008325
  85 H :    0.013400
  86 H :   -0.004172
  87 H :   -0.002341
  88 H :    0.004579
  89 H :    0.013277
  90 H :    0.024671
  91 H :    0.007340
  92 H :    0.022526
  93 H :    0.004413
  94 H :   -0.000789
  95 H :   -0.012423
  96 H :    0.038232
  97 H :    0.030562
Sum of atomic charges:   -0.0000000

LOEWDIN ATOMIC CHARGES
----------------------
   0 C :   -0.074794
   1 C :   -0.139732
   2 C :   -0.030015
   3 C :   -0.027013
   4 C :   -0.176601
   5 S :    0.349902
   6 C :   -0.183830
   7 C :   -0.032427
   8 C :   -0.035490
   9 C :   -0.145164
  10 S :    0.390414
  11 C :   -0.073892
  12 C :   -0.049103
  13 C :    0.001899
  14 C :   -0.038070
  15 C :   -0.015749
  16 C :   -0.024976
  17 C :   -0.001459
  18 C :   -0.024820
  19 C :   -0.004764
  20 C :   -0.014815
  21 C :    0.003933
  22 C :   -0.025815
  23 C :   -0.006271
  24 N :    0.031767
  25 C :   -0.097806
  26 S :    0.477411
  27 C :   -0.219820
  28 N :    0.274303
  29 O :   -0.230336
  30 O :   -0.241100
  31 C :    0.001171
  32 C :   -0.112669
  33 C :   -0.024319
  34 C :   -0.018936
  35 C :   -0.064077
  36 C :   -0.170006
  37 S :    0.403823
  38 C :   -0.179114
  39 C :   -0.044219
  40 C :   -0.019399
  41 C :   -0.029461
  42 C :   -0.047555
  43 C :   -0.021650
  44 C :   -0.031405
  45 C :   -0.050531
  46 C :   -0.039555
  47 C :   -0.065437
  48 C :   -0.165503
  49 S :    0.421280
  50 C :   -0.177791
  51 C :   -0.013865
  52 C :   -0.040468
  53 C :   -0.186008
  54 S :    0.435693
  55 C :   -0.191931
  56 C :   -0.007740
  57 C :   -0.010219
  58 O :   -0.032669
  59 C :    0.105375
  60 O :   -0.125598
  61 O :   -0.032483
  62 C :   -0.043113
  63 C :   -0.026440
  64 H :    0.029086
  65 H :    0.026652
  66 H :    0.033793
  67 H :    0.032253
  68 H :    0.031648
  69 H :    0.031834
  70 H :    0.026393
  71 H :    0.028458
  72 H :    0.030044
  73 H :    0.013526
  74 H :    0.029431
  75 H :    0.031030
  76 H :    0.023072
  77 H :    0.089814
  78 H :    0.041778
  79 H :    0.022043
  80 H :    0.030406
  81 H :    0.023243
  82 H :    0.028963
  83 H :    0.025528
  84 H :    0.021751
  85 H :    0.024320
  86 H :    0.019852
  87 H :    0.026213
  88 H :    0.023083
  89 H :    0.023757
  90 H :    0.025189
  91 H :    0.024640
  92 H :    0.023441
  93 H :    0.020602
  94 H :    0.037617
  95 H :    0.031128
  96 H :    0.028855
  97 H :    0.029605

  Mayer bond orders larger than 0.100000
B(  0-C ,  1-C ) :   1.8668 B(  0-C , 64-H ) :   0.9500 B(  0-C , 65-H ) :   0.9411
B(  1-C ,  2-C ) :   1.0796 B(  1-C ,  5-S ) :   1.0066 B(  2-C ,  3-C ) :   1.6632
B(  2-C , 66-H ) :   0.9925 B(  3-C ,  4-C ) :   1.1518 B(  3-C , 67-H ) :   0.9919
B(  4-C ,  5-S ) :   1.0435 B(  4-C ,  6-C ) :   1.5600 B(  6-C ,  7-C ) :   1.1649
B(  6-C , 10-S ) :   1.0347 B(  7-C ,  8-C ) :   1.6130 B(  7-C , 68-H ) :   0.9915
B(  8-C ,  9-C ) :   1.1252 B(  8-C , 69-H ) :   0.9972 B(  9-C , 10-S ) :   1.0277
B(  9-C , 11-C ) :   1.6066 B( 11-C , 12-C ) :   1.1037 B( 11-C , 70-H ) :   0.9528
B( 12-C , 13-C ) :   1.5381 B( 12-C , 20-C ) :   0.9916 B( 13-C , 14-C ) :   1.0413
B( 13-C , 24-N ) :   1.0989 B( 14-C , 15-C ) :   1.2324 B( 14-C , 23-C ) :   1.3985
B( 15-C , 16-C ) :   1.3117 B( 15-C , 20-C ) :   1.2587 B( 16-C , 17-C ) :   1.1835
B( 16-C , 21-C ) :   1.1955 B( 17-C , 18-C ) :   1.5106 B( 17-C , 71-H ) :   0.9941
B( 18-C , 19-C ) :   1.2578 B( 18-C , 72-H ) :   0.9822 B( 19-C , 20-C ) :   1.4333
B( 19-C , 73-H ) :   0.9825 B( 21-C , 22-C ) :   1.4898 B( 21-C , 74-H ) :   0.9934
B( 22-C , 23-C ) :   1.2715 B( 22-C , 75-H ) :   0.9821 B( 23-C , 76-H ) :   0.9953
B( 24-N , 25-C ) :   1.2243 B( 24-N , 77-H ) :   0.8977 B( 25-C , 26-S ) :   1.1403
B( 25-C , 32-C ) :   1.3574 B( 26-S , 27-C ) :   1.0667 B( 27-C , 28-N ) :   0.9903
B( 27-C , 31-C ) :   1.4655 B( 28-N , 29-O ) :   1.5181 B( 28-N , 30-O ) :   1.5013
B( 29-O , 30-O ) :   0.2506 B( 31-C , 32-C ) :   1.2499 B( 31-C , 78-H ) :   1.0001
B( 32-C , 33-C ) :   1.0420 B( 33-C , 34-C ) :   1.8848 B( 33-C , 79-H ) :   0.9555
B( 34-C , 35-C ) :   0.9569 B( 34-C , 80-H ) :   0.9369 B( 35-C , 36-C ) :   1.6564
B( 35-C , 39-C ) :   1.1815 B( 36-C , 37-S ) :   1.1003 B( 36-C , 81-H ) :   0.9666
B( 37-S , 38-C ) :   1.0827 B( 38-C , 39-C ) :   1.3650 B( 38-C , 50-C ) :   1.3753
B( 39-C , 40-C ) :   1.2608 B( 40-C , 41-C ) :   1.0736 B( 40-C , 43-C ) :   1.5191
B( 41-C , 42-C ) :   1.1167 B( 41-C , 82-H ) :   0.8990 B( 41-C , 83-H ) :   0.9109
B( 42-C , 84-H ) :   0.9618 B( 42-C , 85-H ) :   0.9662 B( 42-C , 86-H ) :   0.9534
B( 43-C , 44-C ) :   1.0594 B( 43-C , 46-C ) :   1.2452 B( 44-C , 45-C ) :   1.1098
B( 44-C , 87-H ) :   0.9090 B( 44-C , 88-H ) :   0.9263 B( 45-C , 89-H ) :   0.9655
B( 45-C , 90-H ) :   0.9644 B( 45-C , 91-H ) :   0.9565 B( 46-C , 47-C ) :   1.1490
B( 46-C , 50-C ) :   1.3726 B( 47-C , 48-C ) :   1.5990 B( 47-C , 51-C ) :   1.0261
B( 48-C , 49-S ) :   1.1224 B( 48-C , 92-H ) :   0.9620 B( 49-S , 50-C ) :   1.0806
B( 51-C , 52-C ) :   1.7280 B( 51-C , 93-H ) :   0.9629 B( 52-C , 53-C ) :   1.1338
B( 52-C , 94-H ) :   0.9817 B( 53-C , 54-S ) :   1.0823 B( 53-C , 55-C ) :   0.1042
B( 53-C , 57-C ) :   1.5108 B( 54-S , 55-C ) :   1.0841 B( 55-C , 56-C ) :   1.5383
B( 55-C , 62-C ) :   1.1073 B( 56-C , 57-C ) :   1.2320 B( 56-C , 61-O ) :   1.0655
B( 57-C , 58-O ) :   1.0814 B( 58-O , 59-C ) :   1.0739 B( 59-C , 60-O ) :   2.2582
B( 59-C , 61-O ) :   1.0685 B( 62-C , 63-C ) :   1.9362 B( 62-C , 95-H ) :   0.9498
B( 63-C , 96-H ) :   0.9514 B( 63-C , 97-H ) :   0.9474

-----------------------------------------------------------------------------
         ABSORPTION SPECTRUM VIA TRANSITION ELECTRIC DIPOLE MOMENTS
-----------------------------------------------------------------------------
State   Energy  Wavelength   fosc         T2         TX        TY        TZ
        (cm-1)    (nm)                  (au**2)     (au)      (au)      (au)
-----------------------------------------------------------------------------
   0   14815.0    675.0   0.982590686  21.83474  -0.89433  -2.10445  -4.07507
   1   22095.5    452.6   0.319333231   4.75790   0.30575   1.47880   1.57402
   2   23096.6    433.0   0.232910061   3.31983  -0.15511  -0.10323  -1.81249
   3   24468.2    408.7   0.096621914   1.30002   0.39135  -0.78226  -0.73139
   4   28328.9    353.0   0.187054432   2.17377  -0.23210  -1.41661  -0.33632
   5   28599.6    349.7   0.000201819   0.00232   0.03718   0.02643   0.01558
   6   29145.0    343.1   1.039063194  11.73691   3.19305  -1.08810   0.59783
   7   29883.6    334.6   0.000966494   0.01065  -0.01727   0.06816  -0.07552
   8   29968.6    333.7   0.030716359   0.33743   0.21303  -0.33782   0.42181
   9   30623.5    326.5   0.067177805   0.72218   0.09450  -0.13649   0.83344
  10   31740.9    315.1   0.186521381   1.93458  -0.98264   0.38023   0.90798
  11   31902.3    313.5   0.014749732   0.15221  -0.14699  -0.34197   0.11688
  12   32594.1    306.8   0.072693826   0.73423  -0.23399  -0.29864  -0.76831
  13   32972.9    303.3   0.343778661   3.43239   0.23982   1.78314  -0.44192
  14   33752.1    296.3   0.009945057   0.09700  -0.24078  -0.12771  -0.15072
  15   33755.8    296.2   0.007021116   0.06848  -0.05975   0.10040  -0.23415
  16   33810.9    295.8   0.005152257   0.05017  -0.03871  -0.16468   0.14680
  17   34262.2    291.9   0.043144862   0.41456  -0.45523  -0.04908  -0.45268
  18   35044.5    285.4   0.004021933   0.03778  -0.04383  -0.17727   0.06661
  19   35599.5    280.9   0.000030174   0.00028  -0.00138  -0.00738   0.01492
  20   35897.0    278.6   0.184730179   1.69416   0.79500  -0.80177   0.64753
  21   35955.4    278.1   0.116266282   1.06455  -0.09051  -0.44732   0.92534
  22   36105.5    277.0   0.084077976   0.76663  -0.12916  -0.64839   0.57405
  23   36256.8    275.8   0.005866764   0.05327   0.22444  -0.03545  -0.04048
  24   36805.6    271.7   0.025711267   0.22998   0.42349   0.15566  -0.16249
  25   37067.0    269.8   0.327271068   2.90667  -1.58777  -0.00678   0.62097
  26   37893.9    263.9   0.029587202   0.25705  -0.24578   0.00835  -0.44336
  27   38348.3    260.8   0.000057668   0.00050  -0.01369   0.00996   0.01443
  28   38957.3    256.7   0.006521281   0.05511   0.20577   0.03851  -0.10623
  29   38985.0    256.5   0.049696020   0.41966  -0.26785  -0.24210   0.53787
  30   39342.0    254.2   0.208083997   1.74124  -1.31100   0.15002   0.00394
  31   39560.9    252.8   0.096800023   0.80554  -0.16205  -0.68160  -0.56097
  32   39798.6    251.3   0.034388208   0.28446   0.24950  -0.47139  -0.00207
  33   40133.9    249.2   0.028647455   0.23499   0.40948   0.20100  -0.16406

FINAL SINGLE POINT ENERGY     -4834.683944332978

DIPOLE MOMENT
-------------
                                X             Y             Z
Electronic contribution:      2.83703     -20.42408       7.56387
Nuclear contribution   :     -2.04512      22.46700      -5.30359
                        -----------------------------------------
Total Dipole Moment    :      0.79191       2.04292       2.26028
                        -----------------------------------------
Magnitude (a.u.)       :      3.14794
Magnitude (Debye)      :      8.00143

Rotational constants in cm-1:     0.001078     0.000375     0.000334
Rotational constants in MHz :    32.319580    11.237766    10.024461

                             ****ORCA TERMINATED NORMALLY****
TOTAL RUN TIME: 0 days 0 hours 7 minutes 55 seconds 376 msec
