                         Program Version 4.2.0 -  RELEASE  -
|  1> # ORCA input file
|  2> # SCF done       -199.318138697747          0.000932611330
|  3> ! CAM-B3LYP def2-SVP def2/J RIJCOSX Grid4 TightSCF
|  4> %maxcore 5000
|  5> %tddft
|  6>     Mode sTDDFT
|  7>     Ethresh 5.0
|  8>     maxcore 5000
|  9> end
| 10>
| 11> %pal
| 12>   nprocs 6
| 13>   end
| 14> * xyz 0 1
| 15>    C       -1.20947         1.21476        -1.65635
| 16>    C       -2.23286         1.87112        -2.29109
| 17>    C       -3.33535         1.22134        -2.88635
| 18>    N       -4.26074         0.75732        -3.38254
| 19>    C       -2.34423         3.26755        -2.46147
| 20>    N       -2.50309         4.38949        -2.65270
| 21>    C       -1.08762        -0.23237        -1.51984
| 22>    C        0.12488        -0.52597        -0.83115
| 23>    C        0.51813        -1.80693        -0.57093
| 24>    C       -0.30128        -2.87741        -0.99324
| 25>    C       -1.52033        -2.59375        -1.67435
| 26>    C       -1.89983        -1.25626        -1.93114
| 27>    C       -2.33286        -3.66898        -2.08776
| 28>    C       -1.95888        -4.96271        -1.84460
| 29>    C       -0.75662        -5.24075        -1.17729
| 30>    C        0.05428        -4.22019        -0.75981
| 31>    C        0.80945         0.73061        -0.49451
| 32>    O        1.86608         0.84944         0.09504
| 33>    C       -0.05051         1.81225        -1.01317
| 34>    C        0.17509         3.15160        -0.88449
| 35>    C        1.25516         3.85542        -0.30777
| 36>    C        1.25632         5.24671        -0.25211
| 37>    C        2.50288         5.78214         0.17565
| 38>    C        2.85829         7.12116         0.35141
| 39>    C        4.15624         7.41865         0.72497
| 40>    C        5.09225         6.39651         0.98143
| 41>    C        4.73091         5.07515         0.86784
| 42>    C        3.43792         4.76337         0.45520
| 43>    S        2.77882         3.17478         0.22426
| 44>    C        4.54377         8.77602         0.81971
| 45>    N        4.84807         9.88010         0.86400
| 46>    C        0.17436         6.12095        -0.63652
| 47>    N       -1.09855         6.10348        -0.12671
| 48>    C       -1.57713         5.29127         0.96495
| 49>    C       -0.88019         5.64677         2.27533
| 50>    C       -1.84744         7.21514        -0.58311
| 51>    O       -2.98117         7.44952        -0.22414
| 52>    C       -0.94940         7.90219        -1.48160
| 53>    C        0.28130         7.18961        -1.50161
| 54>    C        1.22142         7.92339        -2.32482
| 55>    O        2.35952         7.69344        -2.67071
| 56>    N        0.51458         9.08693        -2.68115
| 57>    C        1.09730        10.09978        -3.52394
| 58>    C        0.43438        10.14449        -4.89761
| 59>    C       -0.75952         9.09408        -2.16254
| 60>    C       -1.59211        10.24296        -2.13168
| 61>    C       -2.90428        10.21975        -1.79329
| 62>    C       -3.58872        11.40429        -1.40071
| 63>    C       -3.00049        12.44901        -0.69752
| 64>    C       -3.94488        13.48723        -0.39504
| 65>    C       -3.78971        14.62147         0.39734
| 66>    C       -4.85821        15.49284         0.55332
| 67>    C       -6.10153        15.23584        -0.04645
| 68>    C       -6.28949        14.08251        -0.77358
| 69>    C       -5.21926        13.21267        -0.93333
| 70>    S       -5.26833        11.67752        -1.75010
| 71>    C       -4.68470        16.65864         1.33454
| 72>    N       -4.53424        17.60214         1.96786
| 73>    C       -1.65628        12.34375        -0.21131
| 74>    C       -0.74712        13.34315        -0.08658
| 75>    C        0.51959        13.27452         0.62679
| 76>    C        1.15087        12.14677         1.08440
| 77>    C        2.29684        12.16911         1.91128
| 78>    N        3.18267        12.13722         2.63928
| 79>    C        0.77167        10.82169         0.79890
| 80>    N        0.55980         9.71519         0.56759
| 81>    C        1.01634        14.63952         0.75096
| 82>    C        0.17891        15.50520        -0.01305
| 83>    C       -0.89937        14.71862        -0.63442
| 84>    O       -1.70468        15.08753        -1.46266
| 85>    C        0.41047        16.84794        -0.09251
| 86>    C        1.50545        17.40066         0.60889
| 87>    C        2.35149        16.54173         1.36882
| 88>    C        2.09240        15.15360         1.42624
| 89>    C        3.44453        17.10294         2.06022
| 90>    C        3.68919        18.44816         2.00758
| 91>    C        2.85322        19.29322         1.26240
| 92>    C        1.78475        18.78072         0.57743
| 93>    H        1.44441        -2.00066        -0.05063
| 94>    H       -2.82761        -1.07727        -2.45056
| 95>    H       -3.25706        -3.44988        -2.60209
| 96>    H       -2.58765        -5.77940        -2.16601
| 97>    H       -0.47617        -6.26742        -0.99551
| 98>    H        0.98092        -4.42809        -0.24507
| 99>    H       -0.56873         3.81174        -1.31351
|100>    H        2.13852         7.90991         0.19610
|101>    H        6.09511         6.66653         1.27643
|102>    H        5.43490         4.28607         1.08099
|103>    H       -1.43935         4.22957         0.73976
|104>    H       -2.64816         5.49994         1.03875
|105>    H        0.18214         5.41691         2.22341
|106>    H       -1.31890         5.08025         3.09197
|107>    H       -0.99442         6.70793         2.48339
|108>    H        2.15334         9.83300        -3.62364
|109>    H        1.02965        11.07660        -3.03237
|110>    H        0.52795         9.17854        -5.38772
|111>    H        0.91684        10.89657        -5.51558
|112>    H       -0.62231        10.38838        -4.80996
|113>    H       -1.11791        11.19465        -2.33626
|114>    H       -3.44555         9.28450        -1.75995
|115>    H       -2.85697        14.82525         0.89988
|116>    H       -6.90948        15.93866         0.08783
|117>    H       -7.24865        13.84888        -1.20804
|118>    H       -1.37104        11.34517         0.10394
|119>    H       -0.23916        17.48240        -0.67707
|120>    H        2.74996        14.53017         2.01078
|121>    H        4.08446        16.44768         2.63263
|122>    H        4.52829        18.86892         2.54100
|123>    H        3.05986        20.35257         1.23372
|124>    H        1.13749        19.42656         0.00246
|125> *
|126>
|127>                          ****END OF INPUT****

CARTESIAN COORDINATES (ANGSTROEM)
---------------------------------
  C     -1.209470    1.214760   -1.656350
  C     -2.232860    1.871120   -2.291090
  C     -3.335350    1.221340   -2.886350
  N     -4.260740    0.757320   -3.382540
  C     -2.344230    3.267550   -2.461470
  N     -2.503090    4.389490   -2.652700
  C     -1.087620   -0.232370   -1.519840
  C      0.124880   -0.525970   -0.831150
  C      0.518130   -1.806930   -0.570930
  C     -0.301280   -2.877410   -0.993240
  C     -1.520330   -2.593750   -1.674350
  C     -1.899830   -1.256260   -1.931140
  C     -2.332860   -3.668980   -2.087760
  C     -1.958880   -4.962710   -1.844600
  C     -0.756620   -5.240750   -1.177290
  C      0.054280   -4.220190   -0.759810
  C      0.809450    0.730610   -0.494510
  O      1.866080    0.849440    0.095040
  C     -0.050510    1.812250   -1.013170
  C      0.175090    3.151600   -0.884490
  C      1.255160    3.855420   -0.307770
  C      1.256320    5.246710   -0.252110
  C      2.502880    5.782140    0.175650
  C      2.858290    7.121160    0.351410
  C      4.156240    7.418650    0.724970
  C      5.092250    6.396510    0.981430
  C      4.730910    5.075150    0.867840
  C      3.437920    4.763370    0.455200
  S      2.778820    3.174780    0.224260
  C      4.543770    8.776020    0.819710
  N      4.848070    9.880100    0.864000
  C      0.174360    6.120950   -0.636520
  N     -1.098550    6.103480   -0.126710
  C     -1.577130    5.291270    0.964950
  C     -0.880190    5.646770    2.275330
  C     -1.847440    7.215140   -0.583110
  O     -2.981170    7.449520   -0.224140
  C     -0.949400    7.902190   -1.481600
  C      0.281300    7.189610   -1.501610
  C      1.221420    7.923390   -2.324820
  O      2.359520    7.693440   -2.670710
  N      0.514580    9.086930   -2.681150
  C      1.097300   10.099780   -3.523940
  C      0.434380   10.144490   -4.897610
  C     -0.759520    9.094080   -2.162540
  C     -1.592110   10.242960   -2.131680
  C     -2.904280   10.219750   -1.793290
  C     -3.588720   11.404290   -1.400710
  C     -3.000490   12.449010   -0.697520
  C     -3.944880   13.487230   -0.395040
  C     -3.789710   14.621470    0.397340
  C     -4.858210   15.492840    0.553320
  C     -6.101530   15.235840   -0.046450
  C     -6.289490   14.082510   -0.773580
  C     -5.219260   13.212670   -0.933330
  S     -5.268330   11.677520   -1.750100
  C     -4.684700   16.658640    1.334540
  N     -4.534240   17.602140    1.967860
  C     -1.656280   12.343750   -0.211310
  C     -0.747120   13.343150   -0.086580
  C      0.519590   13.274520    0.626790
  C      1.150870   12.146770    1.084400
  C      2.296840   12.169110    1.911280
  N      3.182670   12.137220    2.639280
  C      0.771670   10.821690    0.798900
  N      0.559800    9.715190    0.567590
  C      1.016340   14.639520    0.750960
  C      0.178910   15.505200   -0.013050
  C     -0.899370   14.718620   -0.634420
  O     -1.704680   15.087530   -1.462660
  C      0.410470   16.847940   -0.092510
  C      1.505450   17.400660    0.608890
  C      2.351490   16.541730    1.368820
  C      2.092400   15.153600    1.426240
  C      3.444530   17.102940    2.060220
  C      3.689190   18.448160    2.007580
  C      2.853220   19.293220    1.262400
  C      1.784750   18.780720    0.577430
  H      1.444410   -2.000660   -0.050630
  H     -2.827610   -1.077270   -2.450560
  H     -3.257060   -3.449880   -2.602090
  H     -2.587650   -5.779400   -2.166010
  H     -0.476170   -6.267420   -0.995510
  H      0.980920   -4.428090   -0.245070
  H     -0.568730    3.811740   -1.313510
  H      2.138520    7.909910    0.196100
  H      6.095110    6.666530    1.276430
  H      5.434900    4.286070    1.080990
  H     -1.439350    4.229570    0.739760
  H     -2.648160    5.499940    1.038750
  H      0.182140    5.416910    2.223410
  H     -1.318900    5.080250    3.091970
  H     -0.994420    6.707930    2.483390
  H      2.153340    9.833000   -3.623640
  H      1.029650   11.076600   -3.032370
  H      0.527950    9.178540   -5.387720
  H      0.916840   10.896570   -5.515580
  H     -0.622310   10.388380   -4.809960
  H     -1.117910   11.194650   -2.336260
  H     -3.445550    9.284500   -1.759950
  H     -2.856970   14.825250    0.899880
  H     -6.909480   15.938660    0.087830
  H     -7.248650   13.848880   -1.208040
  H     -1.371040   11.345170    0.103940
  H     -0.239160   17.482400   -0.677070
  H      2.749960   14.530170    2.010780
  H      4.084460   16.447680    2.632630
  H      4.528290   18.868920    2.541000
  H      3.059860   20.352570    1.233720
  H      1.137490   19.426560    0.002460

 Total Charge           Charge          ....    0
 Multiplicity           Mult            ....    1
 Number of Electrons    NEL             ....  536
 Basis Dimension        Dim             .... 1260

ORBITAL ENERGIES
----------------

  NO   OCC          E(Eh)            E(eV)
   0   2.0000     -88.971283     -2421.0317
   1   2.0000     -88.963623     -2420.8232
   2   2.0000     -19.225799      -523.1606
   3   2.0000     -19.216956      -522.9200
   4   2.0000     -19.193062      -522.2698
   5   2.0000     -19.187723      -522.1245
   6   2.0000     -14.454713      -393.3327
   7   2.0000     -14.450750      -393.2249
   8   2.0000     -14.426811      -392.5735
   9   2.0000     -14.422469      -392.4553
  10   2.0000     -14.418072      -392.3357
  11   2.0000     -14.409993      -392.1159
  12   2.0000     -14.400193      -391.8492
  13   2.0000     -14.391642      -391.6165
  14   2.0000     -10.374663      -282.3089
  15   2.0000     -10.374128      -282.2944
  16   2.0000     -10.372738      -282.2566
  17   2.0000     -10.367409      -282.1115
  18   2.0000     -10.347054      -281.5576
  19   2.0000     -10.345980      -281.5284
  20   2.0000     -10.344205      -281.4801
  21   2.0000     -10.343516      -281.4614
  22   2.0000     -10.342720      -281.4397
  23   2.0000     -10.339100      -281.3412
  24   2.0000     -10.330996      -281.1207
  25   2.0000     -10.330964      -281.1198
  26   2.0000     -10.328916      -281.0641
  27   2.0000     -10.327666      -281.0301
  28   2.0000     -10.324478      -280.9433
  29   2.0000     -10.323904      -280.9277
  30   2.0000     -10.321009      -280.8489
  31   2.0000     -10.320934      -280.8469
  32   2.0000     -10.314567      -280.6736
  33   2.0000     -10.313681      -280.6495
  34   2.0000     -10.311785      -280.5979
  35   2.0000     -10.310962      -280.5755
  36   2.0000     -10.307346      -280.4772
  37   2.0000     -10.307268      -280.4750
  38   2.0000     -10.306754      -280.4610
  39   2.0000     -10.306286      -280.4483
  40   2.0000     -10.306047      -280.4418
  41   2.0000     -10.305862      -280.4368
  42   2.0000     -10.305139      -280.4171
  43   2.0000     -10.304407      -280.3972
  44   2.0000     -10.303253      -280.3658
  45   2.0000     -10.301819      -280.3267
  46   2.0000     -10.301578      -280.3202
  47   2.0000     -10.301403      -280.3154
  48   2.0000     -10.301341      -280.3137
  49   2.0000     -10.301143      -280.3084
  50   2.0000     -10.300812      -280.2993
  51   2.0000     -10.300098      -280.2799
  52   2.0000     -10.299909      -280.2748
  53   2.0000     -10.297263      -280.2028
  54   2.0000     -10.296949      -280.1942
  55   2.0000     -10.296722      -280.1880
  56   2.0000     -10.296451      -280.1807
  57   2.0000     -10.296376      -280.1786
  58   2.0000     -10.296274      -280.1758
  59   2.0000     -10.294411      -280.1252
  60   2.0000     -10.293997      -280.1139
  61   2.0000     -10.293234      -280.0932
  62   2.0000     -10.291146      -280.0363
  63   2.0000     -10.291104      -280.0352
  64   2.0000     -10.290400      -280.0160
  65   2.0000     -10.289837      -280.0007
  66   2.0000     -10.289441      -279.9899
  67   2.0000     -10.289399      -279.9888
  68   2.0000     -10.289122      -279.9812
  69   2.0000     -10.288954      -279.9767
  70   2.0000     -10.285228      -279.8753
  71   2.0000     -10.284593      -279.8580
  72   2.0000     -10.284392      -279.8525
  73   2.0000     -10.283908      -279.8394
  74   2.0000     -10.263431      -279.2822
  75   2.0000     -10.262525      -279.2575
  76   2.0000     -10.262144      -279.2471
  77   2.0000     -10.260345      -279.1982
  78   2.0000      -8.067503      -219.5279
  79   2.0000      -8.057446      -219.2542
  80   2.0000      -6.036939      -164.2735
  81   2.0000      -6.032900      -164.1635
  82   2.0000      -6.028992      -164.0572
  83   2.0000      -6.027076      -164.0051
  84   2.0000      -6.022666      -163.8851
  85   2.0000      -6.018999      -163.7853
  86   2.0000      -1.141299       -31.0563
  87   2.0000      -1.133253       -30.8374
  88   2.0000      -1.131739       -30.7962
  89   2.0000      -1.125813       -30.6349
  90   2.0000      -1.065313       -28.9886
  91   2.0000      -1.056253       -28.7421
  92   2.0000      -1.023377       -27.8475
  93   2.0000      -1.022109       -27.8130
  94   2.0000      -1.016185       -27.6518
  95   2.0000      -1.008780       -27.4503
  96   2.0000      -1.003617       -27.3098
  97   2.0000      -1.002442       -27.2778
  98   2.0000      -0.998013       -27.1573
  99   2.0000      -0.991898       -26.9909
 100   2.0000      -0.988016       -26.8853
 101   2.0000      -0.979822       -26.6623
 102   2.0000      -0.975637       -26.5484
 103   2.0000      -0.971507       -26.4360
 104   2.0000      -0.956353       -26.0237
 105   2.0000      -0.948061       -25.7981
 106   2.0000      -0.929467       -25.2921
 107   2.0000      -0.927615       -25.2417
 108   2.0000      -0.926226       -25.2039
 109   2.0000      -0.915969       -24.9248
 110   2.0000      -0.908799       -24.7297
 111   2.0000      -0.906352       -24.6631
 112   2.0000      -0.892522       -24.2868
 113   2.0000      -0.886831       -24.1319
 114   2.0000      -0.885695       -24.1010
 115   2.0000      -0.880653       -23.9638
 116   2.0000      -0.880325       -23.9549
 117   2.0000      -0.870502       -23.6876
 118   2.0000      -0.862506       -23.4700
 119   2.0000      -0.853339       -23.2205
 120   2.0000      -0.841622       -22.9017
 121   2.0000      -0.838662       -22.8212
 122   2.0000      -0.832469       -22.6526
 123   2.0000      -0.829595       -22.5744
 124   2.0000      -0.827858       -22.5272
 125   2.0000      -0.818858       -22.2823
 126   2.0000      -0.805823       -21.9275
 127   2.0000      -0.798547       -21.7296
 128   2.0000      -0.781452       -21.2644
 129   2.0000      -0.771839       -21.0028
 130   2.0000      -0.767805       -20.8930
 131   2.0000      -0.762882       -20.7591
 132   2.0000      -0.759425       -20.6650
 133   2.0000      -0.738390       -20.0926
 134   2.0000      -0.732897       -19.9431
 135   2.0000      -0.722881       -19.6706
 136   2.0000      -0.716536       -19.4979
 137   2.0000      -0.710385       -19.3305
 138   2.0000      -0.707651       -19.2562
 139   2.0000      -0.707487       -19.2517
 140   2.0000      -0.704419       -19.1682
 141   2.0000      -0.702674       -19.1207
 142   2.0000      -0.698790       -19.0150
 143   2.0000      -0.692274       -18.8377
 144   2.0000      -0.688354       -18.7311
 145   2.0000      -0.682673       -18.5765
 146   2.0000      -0.681672       -18.5492
 147   2.0000      -0.673106       -18.3161
 148   2.0000      -0.668235       -18.1836
 149   2.0000      -0.655968       -17.8498
 150   2.0000      -0.650175       -17.6922
 151   2.0000      -0.641061       -17.4441
 152   2.0000      -0.638679       -17.3793
 153   2.0000      -0.628671       -17.1070
 154   2.0000      -0.626293       -17.0423
 155   2.0000      -0.620307       -16.8794
 156   2.0000      -0.615080       -16.7372
 157   2.0000      -0.610719       -16.6185
 158   2.0000      -0.608697       -16.5635
 159   2.0000      -0.607717       -16.5368
 160   2.0000      -0.605846       -16.4859
 161   2.0000      -0.594798       -16.1853
 162   2.0000      -0.586292       -15.9538
 163   2.0000      -0.583361       -15.8740
 164   2.0000      -0.575652       -15.6643
 165   2.0000      -0.573252       -15.5990
 166   2.0000      -0.570696       -15.5294
 167   2.0000      -0.568992       -15.4830
 168   2.0000      -0.565913       -15.3993
 169   2.0000      -0.553891       -15.0721
 170   2.0000      -0.551818       -15.0157
 171   2.0000      -0.551271       -15.0008
 172   2.0000      -0.548812       -14.9339
 173   2.0000      -0.547799       -14.9064
 174   2.0000      -0.545556       -14.8453
 175   2.0000      -0.545044       -14.8314
 176   2.0000      -0.542885       -14.7726
 177   2.0000      -0.540770       -14.7151
 178   2.0000      -0.533936       -14.5291
 179   2.0000      -0.532561       -14.4917
 180   2.0000      -0.530699       -14.4410
 181   2.0000      -0.529527       -14.4092
 182   2.0000      -0.529379       -14.4051
 183   2.0000      -0.526733       -14.3331
 184   2.0000      -0.526519       -14.3273
 185   2.0000      -0.523361       -14.2414
 186   2.0000      -0.519862       -14.1462
 187   2.0000      -0.518840       -14.1184
 188   2.0000      -0.516615       -14.0578
 189   2.0000      -0.515169       -14.0185
 190   2.0000      -0.513988       -13.9863
 191   2.0000      -0.511975       -13.9315
 192   2.0000      -0.510621       -13.8947
 193   2.0000      -0.508742       -13.8436
 194   2.0000      -0.504115       -13.7177
 195   2.0000      -0.502782       -13.6814
 196   2.0000      -0.502252       -13.6670
 197   2.0000      -0.501540       -13.6476
 198   2.0000      -0.499481       -13.5916
 199   2.0000      -0.496776       -13.5180
 200   2.0000      -0.492908       -13.4127
 201   2.0000      -0.491567       -13.3762
 202   2.0000      -0.485138       -13.2013
 203   2.0000      -0.478948       -13.0328
 204   2.0000      -0.477599       -12.9961
 205   2.0000      -0.473571       -12.8865
 206   2.0000      -0.471083       -12.8188
 207   2.0000      -0.467373       -12.7179
 208   2.0000      -0.466363       -12.6904
 209   2.0000      -0.465189       -12.6584
 210   2.0000      -0.463761       -12.6196
 211   2.0000      -0.462935       -12.5971
 212   2.0000      -0.461795       -12.5661
 213   2.0000      -0.456626       -12.4254
 214   2.0000      -0.456346       -12.4178
 215   2.0000      -0.452924       -12.3247
 216   2.0000      -0.451056       -12.2739
 217   2.0000      -0.448438       -12.2026
 218   2.0000      -0.448111       -12.1937
 219   2.0000      -0.446104       -12.1391
 220   2.0000      -0.444136       -12.0856
 221   2.0000      -0.443016       -12.0551
 222   2.0000      -0.439749       -11.9662
 223   2.0000      -0.438763       -11.9394
 224   2.0000      -0.438024       -11.9192
 225   2.0000      -0.437594       -11.9075
 226   2.0000      -0.436757       -11.8848
 227   2.0000      -0.433383       -11.7929
 228   2.0000      -0.432812       -11.7774
 229   2.0000      -0.431668       -11.7463
 230   2.0000      -0.429146       -11.6777
 231   2.0000      -0.428496       -11.6600
 232   2.0000      -0.427635       -11.6365
 233   2.0000      -0.426969       -11.6184
 234   2.0000      -0.424658       -11.5555
 235   2.0000      -0.421462       -11.4686
 236   2.0000      -0.419234       -11.4079
 237   2.0000      -0.418276       -11.3819
 238   2.0000      -0.413721       -11.2579
 239   2.0000      -0.411907       -11.2086
 240   2.0000      -0.409982       -11.1562
 241   2.0000      -0.405949       -11.0464
 242   2.0000      -0.405176       -11.0254
 243   2.0000      -0.402558       -10.9542
 244   2.0000      -0.401356       -10.9215
 245   2.0000      -0.396057       -10.7773
 246   2.0000      -0.393702       -10.7132
 247   2.0000      -0.383543       -10.4367
 248   2.0000      -0.380851       -10.3635
 249   2.0000      -0.371119       -10.0987
 250   2.0000      -0.365462        -9.9447
 251   2.0000      -0.360341        -9.8054
 252   2.0000      -0.353130        -9.6091
 253   2.0000      -0.346659        -9.4331
 254   2.0000      -0.340180        -9.2568
 255   2.0000      -0.339843        -9.2476
 256   2.0000      -0.334450        -9.1009
 257   2.0000      -0.330128        -8.9832
 258   2.0000      -0.322236        -8.7685
 259   2.0000      -0.315494        -8.5850
 260   2.0000      -0.313576        -8.5328
 261   2.0000      -0.309546        -8.4232
 262   2.0000      -0.304351        -8.2818
 263   2.0000      -0.296511        -8.0685
 264   2.0000      -0.296328        -8.0635
 265   2.0000      -0.288959        -7.8630
 266   2.0000      -0.287006        -7.8098
 267   2.0000      -0.246293        -6.7020
 268   0.0000      -0.107356        -2.9213
 269   0.0000      -0.093190        -2.5358
 270   0.0000      -0.071527        -1.9463
 271   0.0000      -0.063317        -1.7229
 272   0.0000      -0.055021        -1.4972

MULLIKEN ATOMIC CHARGES
-----------------------
   0 C :    0.335355
   1 C :   -0.355499
   2 C :   -0.183986
   3 N :    0.152932
   4 C :   -0.186540
   5 N :    0.154311
   6 C :    0.044993
   7 C :   -0.009486
   8 C :   -0.076785
   9 C :    0.097672
  10 C :    0.094470
  11 C :   -0.080382
  12 C :   -0.017153
  13 C :    0.037167
  14 C :    0.036189
  15 C :   -0.014828
  16 C :    0.166510
  17 O :   -0.161744
  18 C :   -0.082912
  19 C :   -0.103308
  20 C :   -0.055164
  21 C :    0.047708
  22 C :    0.123647
  23 C :   -0.000989
  24 C :   -0.093505
  25 C :    0.051895
  26 C :   -0.005999
  27 C :   -0.050680
  28 S :    0.194713
  29 C :   -0.140679
  30 N :    0.102751
  31 C :    0.024375
  32 N :   -0.254309
  33 C :    0.096895
  34 C :   -0.001009
  35 C :    0.174089
  36 O :   -0.189046
  37 C :   -0.042072
  38 C :   -0.003447
  39 C :    0.131157
  40 O :   -0.180472
  41 N :   -0.266755
  42 C :    0.100450
  43 C :   -0.000391
  44 C :    0.134052
  45 C :   -0.078667
  46 C :    0.042998
  47 C :   -0.115165
  48 C :    0.134451
  49 C :    0.137617
  50 C :   -0.017112
  51 C :   -0.101293
  52 C :    0.040586
  53 C :    0.006901
  54 C :   -0.075278
  55 S :    0.176459
  56 C :   -0.145456
  57 N :    0.099328
  58 C :   -0.145165
  59 C :   -0.069247
  60 C :    0.316934
  61 C :   -0.356355
  62 C :   -0.172608
  63 N :    0.158211
  64 C :   -0.143655
  65 N :    0.124205
  66 C :    0.048338
  67 C :    0.003821
  68 C :    0.097172
  69 O :   -0.136486
  70 C :   -0.077755
  71 C :    0.098217
  72 C :    0.095847
  73 C :   -0.080283
  74 C :   -0.017479
  75 C :    0.036955
  76 C :    0.035954
  77 C :   -0.014275
  78 H :   -0.011985
  79 H :   -0.008051
  80 H :   -0.008569
  81 H :   -0.003158
  82 H :   -0.003569
  83 H :   -0.016484
  84 H :    0.033022
  85 H :   -0.001489
  86 H :   -0.000726
  87 H :   -0.013655
  88 H :    0.018152
  89 H :    0.049074
  90 H :    0.028606
  91 H :    0.022888
  92 H :    0.031111
  93 H :    0.049436
  94 H :    0.019757
  95 H :    0.030134
  96 H :    0.025646
  97 H :    0.017254
  98 H :    0.032844
  99 H :    0.049002
 100 H :   -0.003895
 101 H :    0.000696
 102 H :   -0.011096
 103 H :    0.062527
 104 H :   -0.008594
 105 H :   -0.003648
 106 H :   -0.005654
 107 H :   -0.003898
 108 H :   -0.002865
 109 H :   -0.014714
Sum of atomic charges:   -0.0000000

LOEWDIN ATOMIC CHARGES
----------------------
   0 C :    0.076158
   1 C :   -0.138277
   2 C :   -0.016964
   3 N :   -0.051529
   4 C :   -0.021954
   5 N :   -0.046596
   6 C :   -0.026004
   7 C :   -0.056495
   8 C :    0.034324
   9 C :   -0.008067
  10 C :   -0.005665
  11 C :    0.021192
  12 C :   -0.004513
  13 C :   -0.011851
  14 C :   -0.010789
  15 C :   -0.008915
  16 C :    0.084014
  17 O :   -0.155182
  18 C :   -0.094933
  19 C :    0.052447
  20 C :   -0.166468
  21 C :   -0.022691
  22 C :   -0.040630
  23 C :    0.044915
  24 C :   -0.071185
  25 C :    0.019959
  26 C :   -0.035943
  27 C :   -0.142004
  28 S :    0.482812
  29 C :   -0.026999
  30 N :   -0.057040
  31 C :    0.070574
  32 N :    0.005015
  33 C :    0.034676
  34 C :   -0.060439
  35 C :    0.090416
  36 O :   -0.184072
  37 C :   -0.099047
  38 C :   -0.104581
  39 C :    0.080292
  40 O :   -0.186491
  41 N :   -0.000614
  42 C :    0.036553
  43 C :   -0.060858
  44 C :    0.071040
  45 C :   -0.018877
  46 C :    0.001681
  47 C :   -0.130137
  48 C :   -0.051709
  49 C :   -0.029291
  50 C :    0.029533
  51 C :   -0.070371
  52 C :    0.009257
  53 C :   -0.031532
  54 C :   -0.138352
  55 S :    0.443290
  56 C :   -0.028338
  57 N :   -0.061103
  58 C :    0.067473
  59 C :   -0.101499
  60 C :    0.079817
  61 C :   -0.140255
  62 C :   -0.020052
  63 N :   -0.036194
  64 C :    0.000132
  65 N :   -0.064496
  66 C :   -0.027956
  67 C :   -0.059319
  68 C :    0.072399
  69 O :   -0.137337
  70 C :    0.034198
  71 C :   -0.006587
  72 C :   -0.005717
  73 C :    0.024553
  74 C :   -0.003634
  75 C :   -0.011936
  76 C :   -0.010113
  77 C :   -0.007834
  78 H :    0.039586
  79 H :    0.039407
  80 H :    0.035149
  81 H :    0.033957
  82 H :    0.033407
  83 H :    0.032298
  84 H :    0.049862
  85 H :    0.038767
  86 H :    0.040849
  87 H :    0.034791
  88 H :    0.019881
  89 H :    0.039051
  90 H :    0.025462
  91 H :    0.031111
  92 H :    0.032242
  93 H :    0.039644
  94 H :    0.020790
  95 H :    0.032384
  96 H :    0.031596
  97 H :    0.022836
  98 H :    0.039762
  99 H :    0.047082
 100 H :    0.037832
 101 H :    0.040947
 102 H :    0.035982
 103 H :    0.050472
 104 H :    0.040531
 105 H :    0.040808
 106 H :    0.035983
 107 H :    0.033665
 108 H :    0.033577
 109 H :    0.033000

  Mayer bond orders larger than 0.100000
B(  0-C ,  1-C ) :   1.6269 B(  0-C ,  6-C ) :   0.9857 B(  0-C , 18-C ) :   1.0679
B(  1-C ,  2-C ) :   1.1505 B(  1-C ,  4-C ) :   1.1453 B(  2-C ,  3-N ) :   2.9628
B(  4-C ,  5-N ) :   2.9533 B(  6-C ,  7-C ) :   1.2141 B(  6-C , 11-C ) :   1.4502
B(  7-C ,  8-C ) :   1.4675 B(  7-C , 16-C ) :   0.9546 B(  8-C ,  9-C ) :   1.1797
B(  8-C , 78-H ) :   1.0161 B(  9-C , 10-C ) :   1.2546 B(  9-C , 15-C ) :   1.2429
B( 10-C , 11-C ) :   1.2054 B( 10-C , 12-C ) :   1.2424 B( 11-C , 79-H ) :   0.9883
B( 12-C , 13-C ) :   1.4874 B( 12-C , 80-H ) :   0.9967 B( 13-C , 14-C ) :   1.2602
B( 13-C , 81-H ) :   0.9889 B( 14-C , 15-C ) :   1.4883 B( 14-C , 82-H ) :   0.9891
B( 15-C , 83-H ) :   0.9976 B( 16-C , 17-O ) :   2.1735 B( 16-C , 18-C ) :   0.9466
B( 18-C , 19-C ) :   1.5712 B( 19-C , 20-C ) :   1.2180 B( 19-C , 84-H ) :   0.9285
B( 20-C , 21-C ) :   1.4366 B( 20-C , 28-S ) :   1.0762 B( 21-C , 22-C ) :   1.1998
B( 21-C , 31-C ) :   0.9907 B( 22-C , 23-C ) :   1.2870 B( 22-C , 27-C ) :   1.2817
B( 23-C , 24-C ) :   1.4506 B( 23-C , 85-H ) :   0.9680 B( 24-C , 25-C ) :   1.2924
B( 24-C , 29-C ) :   1.0596 B( 25-C , 26-C ) :   1.4493 B( 25-C , 86-H ) :   0.9920
B( 26-C , 27-C ) :   1.3113 B( 26-C , 87-H ) :   0.9956 B( 27-C , 28-S ) :   1.0533
B( 29-C , 30-N ) :   3.0345 B( 31-C , 32-N ) :   1.2055 B( 31-C , 38-C ) :   1.4747
B( 32-N , 33-C ) :   0.9517 B( 32-N , 35-C ) :   1.0157 B( 33-C , 34-C ) :   1.1152
B( 33-C , 88-H ) :   0.9438 B( 33-C , 89-H ) :   0.9272 B( 34-C , 90-H ) :   0.9681
B( 34-C , 91-H ) :   0.9654 B( 34-C , 92-H ) :   0.9638 B( 35-C , 36-O ) :   2.1052
B( 35-C , 37-C ) :   0.9853 B( 37-C , 38-C ) :   1.2070 B( 37-C , 44-C ) :   1.4044
B( 38-C , 39-C ) :   0.9468 B( 39-C , 40-O ) :   2.1572 B( 39-C , 41-N ) :   1.0374
B( 41-N , 42-C ) :   0.9486 B( 41-N , 44-C ) :   1.1486 B( 42-C , 43-C ) :   1.1187
B( 42-C , 93-H ) :   0.9279 B( 42-C , 94-H ) :   0.9473 B( 43-C , 95-H ) :   0.9648
B( 43-C , 96-H ) :   0.9676 B( 43-C , 97-H ) :   0.9674 B( 44-C , 45-C ) :   1.1315
B( 45-C , 46-C ) :   1.6497 B( 45-C , 98-H ) :   0.9467 B( 46-C , 47-C ) :   1.1115
B( 46-C , 99-H ) :   0.9503 B( 47-C , 48-C ) :   1.4778 B( 47-C , 55-S ) :   1.1027
B( 48-C , 49-C ) :   1.1285 B( 48-C , 58-C ) :   1.0967 B( 49-C , 50-C ) :   1.3104
B( 49-C , 54-C ) :   1.3225 B( 50-C , 51-C ) :   1.4367 B( 50-C ,100-H ) :   0.9753
B( 51-C , 52-C ) :   1.3232 B( 51-C , 56-C ) :   1.0590 B( 52-C , 53-C ) :   1.4340
B( 52-C ,101-H ) :   0.9921 B( 53-C , 54-C ) :   1.3386 B( 53-C ,102-H ) :   0.9930
B( 54-C , 55-S ) :   1.0590 B( 56-C , 57-N ) :   3.0526 B( 58-C , 59-C ) :   1.6366
B( 58-C ,103-H ) :   0.9222 B( 59-C , 60-C ) :   1.0422 B( 59-C , 68-C ) :   0.9235
B( 60-C , 61-C ) :   1.6284 B( 60-C , 66-C ) :   1.0022 B( 61-C , 62-C ) :   1.1366
B( 61-C , 64-C ) :   1.1665 B( 62-C , 63-N ) :   2.9421 B( 64-C , 65-N ) :   2.8647
B( 66-C , 67-C ) :   1.2061 B( 66-C , 73-C ) :   1.4435 B( 67-C , 68-C ) :   0.9301
B( 67-C , 70-C ) :   1.4725 B( 68-C , 69-O ) :   2.2447 B( 70-C , 71-C ) :   1.1815
B( 70-C ,104-H ) :   1.0161 B( 71-C , 72-C ) :   1.2536 B( 71-C , 77-C ) :   1.2468
B( 72-C , 73-C ) :   1.2076 B( 72-C , 74-C ) :   1.2392 B( 73-C ,105-H ) :   0.9903
B( 74-C , 75-C ) :   1.4894 B( 74-C ,106-H ) :   0.9979 B( 75-C , 76-C ) :   1.2590
B( 75-C ,107-H ) :   0.9885 B( 76-C , 77-C ) :   1.4884 B( 76-C ,108-H ) :   0.9888
B( 77-C ,109-H ) :   0.9978

-----------------------------------------------------------------------------
         ABSORPTION SPECTRUM VIA TRANSITION ELECTRIC DIPOLE MOMENTS
-----------------------------------------------------------------------------
State   Energy  Wavelength   fosc         T2         TX        TY        TZ
        (cm-1)    (nm)                  (au**2)     (au)      (au)      (au)
-----------------------------------------------------------------------------
   0   13465.4    742.6   0.379932681   9.28889  -0.08549  -3.04542   0.08362
   1   16853.1    593.4   0.063919396   1.24861   0.28417   1.04052   0.29184
   2   21876.6    457.1   0.291341948   4.38429  -0.45474   1.99180  -0.45850
   3   23218.7    430.7   0.373292077   5.29280   1.23859   1.74378   0.84730
   4   24293.1    411.6   0.259685538   3.51917   1.42612   0.62169   1.04826
   5   24846.1    402.5   0.144436197   1.91379   1.23654   0.30680   0.53910
   6   25221.8    396.5   0.044172546   0.57657  -0.58785  -0.31315  -0.36461
   7   25485.6    392.4   0.013625648   0.17601   0.25800   0.29730   0.14511
   8   26485.0    377.6   0.350505594   4.35683  -0.92710  -1.83852  -0.34228
   9   26601.8    375.9   0.001499370   0.01856   0.12058   0.00554  -0.06313
  10   26929.6    371.3   0.181375274   2.21730   1.10500   0.87456   0.48106
  11   27634.5    361.9   0.096790117   1.15307  -0.56849   0.84845   0.33170
  12   27697.3    361.0   0.028395699   0.33751  -0.45861  -0.35566  -0.02633
  13   27999.4    357.2   0.004736705   0.05569  -0.20166  -0.03595  -0.11719
  14   28156.7    355.2   0.016226756   0.18973  -0.23983   0.35319   0.08638
  15   28464.8    351.3   0.125605654   1.45270   1.00909   0.53496   0.38505
  16   28809.7    347.1   0.035964125   0.41097   0.55447  -0.24536   0.20816
  17   29222.8    342.2   0.110129802   1.24068   0.76583  -0.80715   0.05182
  18   29954.5    333.8   0.034073860   0.37448   0.56370  -0.12773  -0.20102
  19   30169.2    331.5   0.046645820   0.50901  -0.46805   0.53843  -0.00603
  20   31070.8    321.8   0.023424279   0.24819   0.39769   0.26566   0.13952
  21   31171.3    320.8   0.005532048   0.05843   0.12716  -0.19263   0.07176
  22   31411.6    318.4   0.000795362   0.00834   0.06905  -0.04303  -0.04144
  23   31716.2    315.3   0.318175858   3.30264  -0.64498   1.69872  -0.03122
  24   32185.0    310.7   0.313996216   3.21179   0.47609   1.72627   0.07165
  25   32297.7    309.6   0.172582974   1.75915  -0.47289  -1.13500   0.49728
  26   32463.6    308.0   0.045133328   0.45769   0.23958  -0.50804   0.37708
  27   32650.4    306.3   0.459828878   4.63643   0.00647  -2.14897   0.13537
  28   32964.3    303.4   0.094142650   0.94020   0.34646   0.71604  -0.55448
  29   33187.1    301.3   0.072503513   0.71923  -0.48989  -0.68759  -0.08033
  30   33423.7    299.2   0.031557088   0.31083  -0.26125   0.45564   0.18699
  31   33471.9    298.8   0.396541424   3.90017   0.71475  -1.82525  -0.24037
  32   33902.8    295.0   0.038248983   0.37141  -0.03551   0.60537   0.06071
  33   34115.2    293.1   0.068341374   0.65950   0.48627  -0.64038  -0.11379
  34   34131.5    293.0   0.005671878   0.05471  -0.13580   0.11846  -0.14911
  35   34570.4    289.3   0.185389976   1.76546  -0.89422   0.58253   0.79151
  36   34821.8    287.2   0.040186256   0.37993  -0.42683  -0.44223  -0.04660
  37   35117.0    284.8   0.117059553   1.09740   0.70504   0.74857  -0.19988
  38   35216.2    284.0   0.174941979   1.63541   0.63883   1.00811  -0.45937
  39   35323.5    283.1   0.037073628   0.34552   0.41405   0.41442  -0.04844
  40   35857.9    278.9   0.072871391   0.66903   0.41782   0.69973   0.06958
  41   36094.5    277.1   0.042058244   0.38361  -0.60297   0.14014  -0.01984
  42   36525.1    273.8   0.059193142   0.53353   0.65648   0.20643   0.24485
  43   36671.2    272.7   0.108854435   0.97723  -0.02033   0.97363   0.16991
  44   37173.9    269.0   0.029126004   0.25794   0.33857  -0.37558   0.04745
  45   37495.0    266.7   0.166585511   1.46265  -0.62280   1.00080  -0.27049
  46   37604.4    265.9   0.027512521   0.24086  -0.00596   0.48565   0.07051
  47   37658.8    265.5   0.074658853   0.65267   0.60618  -0.53048  -0.06173
  48   38103.2    262.4   0.010934960   0.09448  -0.27064   0.13482   0.05529
  49   38279.0    261.2   0.004891780   0.04207   0.12872   0.15904  -0.01441
  50   38353.5    260.7   0.109686869   0.94151   0.81711  -0.40079   0.33648
  51   38607.6    259.0   0.012486419   0.10647   0.12021   0.09679  -0.28750
  52   38945.8    256.8   0.118942152   1.00543  -0.77805   0.35771  -0.52165
  53   39204.3    255.1   0.136977059   1.15024  -0.73854  -0.43491  -0.64472
  54   39589.1    252.6   0.008887731   0.07391   0.25843  -0.06545   0.05326
  55   39756.2    251.5   0.033396659   0.27655  -0.29703  -0.33637  -0.27418
  56   39826.0    251.1   0.208029846   1.71963  -1.06464   0.76560   0.00627
  57   40166.0    249.0   0.142915898   1.17138   0.55945  -0.91289  -0.15822
  58   40299.9    248.1   0.277977468   2.27081   1.44317   0.11503   0.41815

FINAL SINGLE POINT ENERGY     -3989.038721285716

DIPOLE MOMENT
-------------
                                X             Y             Z
Electronic contribution:     -5.93658      -2.50699       0.83399
Nuclear contribution   :      6.13272       0.59484      -0.98131
                        -----------------------------------------
Total Dipole Moment    :      0.19614      -1.91215      -0.14732
                        -----------------------------------------
Magnitude (a.u.)       :      1.92782
Magnitude (Debye)      :      4.90013

Rotational constants in cm-1:     0.001668     0.000386     0.000332
Rotational constants in MHz :    50.002124    11.564082     9.960919

                             ****ORCA TERMINATED NORMALLY****
TOTAL RUN TIME: 0 days 0 hours 12 minutes 4 seconds 492 msec
