                         Program Version 4.2.0 -  RELEASE  -
|  1> # ORCA input file
|  2> # SCF done       -211.235879694948          0.000888749160
|  3> ! CAM-B3LYP def2-SVP def2/J RIJCOSX Grid4 TightSCF
|  4> %maxcore 5000
|  5> %tddft
|  6>     Mode sTDDFT
|  7>     Ethresh 5.0
|  8>     maxcore 5000
|  9> end
| 10>
| 11> %pal
| 12>   nprocs 6
| 13>   end
| 14> * xyz 0 1
| 15>    C        4.92386         4.32548        -1.27198
| 16>    C        4.61295         5.65479        -1.19562
| 17>    F        3.92594         6.23297        -2.19718
| 18>    C        4.98399         6.45204        -0.10431
| 19>    C        5.68221         5.88198         0.92361
| 20>    C        6.02940         4.51549         0.89718
| 21>    C        5.64174         3.72134        -0.22186
| 22>    C        5.97322         2.34658        -0.26804
| 23>    C        6.67144         1.79230         0.76878
| 24>    C        7.06799         2.59241         1.88073
| 25>    C        6.75529         3.91967         1.95296
| 26>    C        7.82896         1.76413         2.83524
| 27>    O        8.26965         2.07686         3.91791
| 28>    C        7.99998         0.45426         2.14871
| 29>    C        7.12607         0.42602         1.00032
| 30>    C        6.61562        -0.71064         0.43260
| 31>    C        6.94526        -1.99502         0.91274
| 32>    N        7.16717        -3.03516         1.34458
| 33>    C        5.68004        -0.71006        -0.61964
| 34>    N        4.91084        -0.74308        -1.47050
| 35>    C        8.93893        -0.43996         2.57163
| 36>    C        9.58209        -1.40312         1.77684
| 37>    C       10.29240        -2.51768         2.11668
| 38>    C       10.20665        -3.08090         3.50467
| 39>    C       11.21845        -2.41438         4.44348
| 40>    C       11.06743        -3.13250         1.06736
| 41>    C       11.68021        -4.49794         1.21738
| 42>    C       12.86444        -4.58070         2.18891
| 43>    C       11.07559        -2.44452        -0.11396
| 44>    S        9.86996        -1.09748         0.02120
| 45>    O        8.76795        -1.40268        -0.85394
| 46>    O       10.47890         0.19056        -0.15035
| 47>    C       11.63967        -2.59360        -1.38628
| 48>    S       10.70605        -2.00209        -2.72555
| 49>    C       11.91950        -2.46076        -3.88372
| 50>    C       13.05031        -3.01164        -3.23438
| 51>    C       12.89919        -3.07466        -1.82174
| 52>    C       13.97462        -3.50591        -1.03157
| 53>    C       15.14288        -3.93010        -1.62014
| 54>    C       16.30093        -4.39706        -0.79703
| 55>    C       15.25815        -3.91680        -3.02424
| 56>    C       14.24477        -3.45634        -3.82154
| 57>    C       11.74824        -2.27995        -5.26043
| 58>    C       10.61322        -1.77113        -5.83625
| 59>    C       10.44690        -1.56750        -7.21722
| 60>    C       11.36224        -1.75183        -8.24497
| 61>    C       10.76536        -1.40219        -9.47492
| 62>    C        9.37988        -0.98918        -9.15921
| 63>    C        9.20902        -1.08524        -7.81710
| 64>    C        8.40294        -0.56218       -10.06527
| 65>    N        7.57802        -0.20642       -10.78147
| 66>    C       11.35092        -1.40753       -10.72829
| 67>    C       10.75873        -1.04569       -11.96452
| 68>    C       11.70605        -1.13378       -12.97119
| 69>    C       12.94861        -1.58949       -12.36945
| 70>    C       12.74671        -1.76503       -11.03552
| 71>    C       13.71455        -2.20327       -10.12630
| 72>    N       14.52509        -2.55799        -9.39209
| 73>    C       11.48542        -0.82910       -14.33286
| 74>    C       12.45561        -0.76988       -15.29021
| 75>    C       12.15545        -0.46315       -16.63064
| 76>    C       13.00451        -0.37790       -17.69850
| 77>    C       12.53539         0.32756       -18.92313
| 78>    O       11.39350         0.62637       -19.19038
| 79>    C       13.75622         0.62711       -19.69318
| 80>    C       13.89194         1.36502       -20.83323
| 81>    C       15.18068         1.56159       -21.37732
| 82>    C       16.30877         0.99044       -20.71966
| 83>    C       17.59249         1.19971       -21.25992
| 84>    C       17.72786         1.94114       -22.40055
| 85>    C       16.63106         2.50927       -23.06278
| 86>    C       15.37785         2.31673       -22.55151
| 87>    F       18.95354         2.14237       -22.91793
| 88>    C       16.13631         0.22364       -19.54324
| 89>    C       14.87695         0.03735       -19.04087
| 90>    C       14.39861        -0.71247       -17.87837
| 91>    C       15.11436        -1.68906       -17.23375
| 92>    C       14.59145        -2.58756       -16.28107
| 93>    N       14.22796        -3.37610       -15.52958
| 94>    C       16.46307        -1.98876       -17.51984
| 95>    N       17.56316        -2.26699       -17.69356
| 96>    H        4.61971         3.74175        -2.12663
| 97>    H        4.71140         7.49545        -0.09954
| 98>    H        5.97939         6.47593         1.77477
| 99>    H        5.67885         1.76521        -1.12763
|100>    H        7.05875         4.51004         2.80458
|101>    H        9.31209        -0.28344         3.57925
|102>    H       10.37661        -4.15579         3.48503
|103>    H        9.19912        -2.90947         3.88575
|104>    H       12.23225        -2.52688         4.07013
|105>    H       11.15732        -2.86819         5.42937
|106>    H       11.01476        -1.35218         4.54359
|107>    H       12.00089        -4.82853         0.22889
|108>    H       10.89747        -5.18348         1.55159
|109>    H       13.49939        -3.70079         2.11136
|110>    H       13.46259        -5.45900         1.95782
|111>    H       12.53395        -4.66505         3.21896
|112>    H       13.88922        -3.47864         0.04000
|113>    H       16.57322        -5.41474        -1.07331
|114>    H       16.06559        -4.37303         0.26349
|115>    H       17.16900        -3.76416        -0.97650
|116>    H       16.17925        -4.25901        -3.47159
|117>    H       14.36641        -3.42460        -4.89244
|118>    H       12.57107        -2.57033        -5.89801
|119>    H        9.78224        -1.50908        -5.19305
|120>    H       12.37197        -2.09318        -8.13933
|121>    H        8.31579        -0.85465        -7.26621
|122>    H        9.74030        -0.73452       -12.09204
|123>    H       13.86053        -1.78812       -12.90028
|124>    H       10.45937        -0.62924       -14.61731
|125>    H       13.48494        -0.92681       -15.00887
|126>    H       11.13025        -0.17946       -16.84968
|127>    H       13.02621         1.79683       -21.31261
|128>    H       18.45944         0.77462       -20.77873
|129>    H       16.79940         3.08497       -23.95904
|130>    H       14.51717         2.74448       -23.04324
|131>    H       17.01050        -0.18719       -19.06387
|132> *
|133>
|134>                          ****END OF INPUT****

CARTESIAN COORDINATES (ANGSTROEM)
---------------------------------
  C      4.923860    4.325480   -1.271980
  C      4.612950    5.654790   -1.195620
  F      3.925940    6.232970   -2.197180
  C      4.983990    6.452040   -0.104310
  C      5.682210    5.881980    0.923610
  C      6.029400    4.515490    0.897180
  C      5.641740    3.721340   -0.221860
  C      5.973220    2.346580   -0.268040
  C      6.671440    1.792300    0.768780
  C      7.067990    2.592410    1.880730
  C      6.755290    3.919670    1.952960
  C      7.828960    1.764130    2.835240
  O      8.269650    2.076860    3.917910
  C      7.999980    0.454260    2.148710
  C      7.126070    0.426020    1.000320
  C      6.615620   -0.710640    0.432600
  C      6.945260   -1.995020    0.912740
  N      7.167170   -3.035160    1.344580
  C      5.680040   -0.710060   -0.619640
  N      4.910840   -0.743080   -1.470500
  C      8.938930   -0.439960    2.571630
  C      9.582090   -1.403120    1.776840
  C     10.292400   -2.517680    2.116680
  C     10.206650   -3.080900    3.504670
  C     11.218450   -2.414380    4.443480
  C     11.067430   -3.132500    1.067360
  C     11.680210   -4.497940    1.217380
  C     12.864440   -4.580700    2.188910
  C     11.075590   -2.444520   -0.113960
  S      9.869960   -1.097480    0.021200
  O      8.767950   -1.402680   -0.853940
  O     10.478900    0.190560   -0.150350
  C     11.639670   -2.593600   -1.386280
  S     10.706050   -2.002090   -2.725550
  C     11.919500   -2.460760   -3.883720
  C     13.050310   -3.011640   -3.234380
  C     12.899190   -3.074660   -1.821740
  C     13.974620   -3.505910   -1.031570
  C     15.142880   -3.930100   -1.620140
  C     16.300930   -4.397060   -0.797030
  C     15.258150   -3.916800   -3.024240
  C     14.244770   -3.456340   -3.821540
  C     11.748240   -2.279950   -5.260430
  C     10.613220   -1.771130   -5.836250
  C     10.446900   -1.567500   -7.217220
  C     11.362240   -1.751830   -8.244970
  C     10.765360   -1.402190   -9.474920
  C      9.379880   -0.989180   -9.159210
  C      9.209020   -1.085240   -7.817100
  C      8.402940   -0.562180  -10.065270
  N      7.578020   -0.206420  -10.781470
  C     11.350920   -1.407530  -10.728290
  C     10.758730   -1.045690  -11.964520
  C     11.706050   -1.133780  -12.971190
  C     12.948610   -1.589490  -12.369450
  C     12.746710   -1.765030  -11.035520
  C     13.714550   -2.203270  -10.126300
  N     14.525090   -2.557990   -9.392090
  C     11.485420   -0.829100  -14.332860
  C     12.455610   -0.769880  -15.290210
  C     12.155450   -0.463150  -16.630640
  C     13.004510   -0.377900  -17.698500
  C     12.535390    0.327560  -18.923130
  O     11.393500    0.626370  -19.190380
  C     13.756220    0.627110  -19.693180
  C     13.891940    1.365020  -20.833230
  C     15.180680    1.561590  -21.377320
  C     16.308770    0.990440  -20.719660
  C     17.592490    1.199710  -21.259920
  C     17.727860    1.941140  -22.400550
  C     16.631060    2.509270  -23.062780
  C     15.377850    2.316730  -22.551510
  F     18.953540    2.142370  -22.917930
  C     16.136310    0.223640  -19.543240
  C     14.876950    0.037350  -19.040870
  C     14.398610   -0.712470  -17.878370
  C     15.114360   -1.689060  -17.233750
  C     14.591450   -2.587560  -16.281070
  N     14.227960   -3.376100  -15.529580
  C     16.463070   -1.988760  -17.519840
  N     17.563160   -2.266990  -17.693560
  H      4.619710    3.741750   -2.126630
  H      4.711400    7.495450   -0.099540
  H      5.979390    6.475930    1.774770
  H      5.678850    1.765210   -1.127630
  H      7.058750    4.510040    2.804580
  H      9.312090   -0.283440    3.579250
  H     10.376610   -4.155790    3.485030
  H      9.199120   -2.909470    3.885750
  H     12.232250   -2.526880    4.070130
  H     11.157320   -2.868190    5.429370
  H     11.014760   -1.352180    4.543590
  H     12.000890   -4.828530    0.228890
  H     10.897470   -5.183480    1.551590
  H     13.499390   -3.700790    2.111360
  H     13.462590   -5.459000    1.957820
  H     12.533950   -4.665050    3.218960
  H     13.889220   -3.478640    0.040000
  H     16.573220   -5.414740   -1.073310
  H     16.065590   -4.373030    0.263490
  H     17.169000   -3.764160   -0.976500
  H     16.179250   -4.259010   -3.471590
  H     14.366410   -3.424600   -4.892440
  H     12.571070   -2.570330   -5.898010
  H      9.782240   -1.509080   -5.193050
  H     12.371970   -2.093180   -8.139330
  H      8.315790   -0.854650   -7.266210
  H      9.740300   -0.734520  -12.092040
  H     13.860530   -1.788120  -12.900280
  H     10.459370   -0.629240  -14.617310
  H     13.484940   -0.926810  -15.008870
  H     11.130250   -0.179460  -16.849680
  H     13.026210    1.796830  -21.312610
  H     18.459440    0.774620  -20.778730
  H     16.799400    3.084970  -23.959040
  H     14.517170    2.744480  -23.043240
  H     17.010500   -0.187190  -19.063870

 Total Charge           Charge          ....    0
 Multiplicity           Mult            ....    1
 Number of Electrons    NEL             ....  562
 Basis Dimension        Dim             .... 1322

ORBITAL ENERGIES
----------------

  NO   OCC          E(Eh)            E(eV)
   0   2.0000     -89.154848     -2426.0268
   1   2.0000     -88.983700     -2421.3696
   2   2.0000     -24.784692      -674.4257
   3   2.0000     -24.783584      -674.3956
   4   2.0000     -19.218647      -522.9660
   5   2.0000     -19.215587      -522.8827
   6   2.0000     -19.211653      -522.7757
   7   2.0000     -19.211436      -522.7698
   8   2.0000     -14.416313      -392.2878
   9   2.0000     -14.415441      -392.2641
  10   2.0000     -14.414188      -392.2300
  11   2.0000     -14.413762      -392.2184
  12   2.0000     -14.410208      -392.1217
  13   2.0000     -14.406785      -392.0286
  14   2.0000     -10.368385      -282.1381
  15   2.0000     -10.367250      -282.1072
  16   2.0000     -10.366873      -282.0970
  17   2.0000     -10.362611      -281.9810
  18   2.0000     -10.344508      -281.4884
  19   2.0000     -10.344481      -281.4876
  20   2.0000     -10.342270      -281.4275
  21   2.0000     -10.336076      -281.2589
  22   2.0000     -10.334278      -281.2100
  23   2.0000     -10.330931      -281.1189
  24   2.0000     -10.330318      -281.1022
  25   2.0000     -10.326041      -280.9859
  26   2.0000     -10.324686      -280.9490
  27   2.0000     -10.323564      -280.9185
  28   2.0000     -10.322989      -280.9028
  29   2.0000     -10.318995      -280.7941
  30   2.0000     -10.318719      -280.7866
  31   2.0000     -10.318241      -280.7736
  32   2.0000     -10.317995      -280.7669
  33   2.0000     -10.317549      -280.7548
  34   2.0000     -10.316410      -280.7238
  35   2.0000     -10.315732      -280.7053
  36   2.0000     -10.313990      -280.6579
  37   2.0000     -10.312064      -280.6055
  38   2.0000     -10.311082      -280.5788
  39   2.0000     -10.310984      -280.5761
  40   2.0000     -10.310411      -280.5605
  41   2.0000     -10.309519      -280.5363
  42   2.0000     -10.308953      -280.5209
  43   2.0000     -10.307127      -280.4712
  44   2.0000     -10.307097      -280.4704
  45   2.0000     -10.305163      -280.4177
  46   2.0000     -10.304961      -280.4123
  47   2.0000     -10.303702      -280.3780
  48   2.0000     -10.303184      -280.3639
  49   2.0000     -10.303078      -280.3610
  50   2.0000     -10.302916      -280.3566
  51   2.0000     -10.302681      -280.3502
  52   2.0000     -10.300006      -280.2774
  53   2.0000     -10.299604      -280.2665
  54   2.0000     -10.298721      -280.2425
  55   2.0000     -10.298582      -280.2387
  56   2.0000     -10.298445      -280.2349
  57   2.0000     -10.298264      -280.2300
  58   2.0000     -10.297868      -280.2192
  59   2.0000     -10.297721      -280.2152
  60   2.0000     -10.297146      -280.1996
  61   2.0000     -10.296807      -280.1904
  62   2.0000     -10.296608      -280.1849
  63   2.0000     -10.296114      -280.1715
  64   2.0000     -10.295548      -280.1561
  65   2.0000     -10.294607      -280.1305
  66   2.0000     -10.294386      -280.1245
  67   2.0000     -10.294021      -280.1145
  68   2.0000     -10.293493      -280.1002
  69   2.0000     -10.291861      -280.0558
  70   2.0000     -10.289537      -279.9925
  71   2.0000     -10.288510      -279.9646
  72   2.0000     -10.288265      -279.9579
  73   2.0000     -10.288093      -279.9532
  74   2.0000     -10.288073      -279.9527
  75   2.0000     -10.287986      -279.9503
  76   2.0000     -10.286328      -279.9052
  77   2.0000     -10.284752      -279.8623
  78   2.0000     -10.282187      -279.7925
  79   2.0000     -10.279126      -279.7093
  80   2.0000     -10.278543      -279.6934
  81   2.0000      -8.221312      -223.7133
  82   2.0000      -8.078262      -219.8207
  83   2.0000      -6.190214      -168.4443
  84   2.0000      -6.189852      -168.4344
  85   2.0000      -6.189250      -168.4181
  86   2.0000      -6.047281      -164.5549
  87   2.0000      -6.042980      -164.4379
  88   2.0000      -6.040977      -164.3833
  89   2.0000      -1.299511       -35.3615
  90   2.0000      -1.298590       -35.3364
  91   2.0000      -1.221911       -33.2499
  92   2.0000      -1.130050       -30.7502
  93   2.0000      -1.126729       -30.6599
  94   2.0000      -1.098666       -29.8962
  95   2.0000      -1.020059       -27.7572
  96   2.0000      -1.018603       -27.7176
  97   2.0000      -1.017860       -27.6974
  98   2.0000      -1.015353       -27.6292
  99   2.0000      -1.000118       -27.2146
 100   2.0000      -0.999836       -27.2069
 101   2.0000      -0.998369       -27.1670
 102   2.0000      -0.998215       -27.1628
 103   2.0000      -0.994187       -27.0532
 104   2.0000      -0.991729       -26.9863
 105   2.0000      -0.985767       -26.8241
 106   2.0000      -0.981147       -26.6984
 107   2.0000      -0.975379       -26.5414
 108   2.0000      -0.975035       -26.5321
 109   2.0000      -0.955437       -25.9988
 110   2.0000      -0.936906       -25.4945
 111   2.0000      -0.932843       -25.3840
 112   2.0000      -0.925671       -25.1888
 113   2.0000      -0.919884       -25.0313
 114   2.0000      -0.912924       -24.8419
 115   2.0000      -0.900035       -24.4912
 116   2.0000      -0.895161       -24.3586
 117   2.0000      -0.891386       -24.2558
 118   2.0000      -0.885184       -24.0871
 119   2.0000      -0.883470       -24.0404
 120   2.0000      -0.882346       -24.0098
 121   2.0000      -0.872751       -23.7488
 122   2.0000      -0.871582       -23.7170
 123   2.0000      -0.865783       -23.5592
 124   2.0000      -0.853556       -23.2264
 125   2.0000      -0.847495       -23.0615
 126   2.0000      -0.839964       -22.8566
 127   2.0000      -0.834660       -22.7123
 128   2.0000      -0.832310       -22.6483
 129   2.0000      -0.830048       -22.5868
 130   2.0000      -0.815901       -22.2018
 131   2.0000      -0.803578       -21.8665
 132   2.0000      -0.796151       -21.6644
 133   2.0000      -0.789560       -21.4850
 134   2.0000      -0.781334       -21.2612
 135   2.0000      -0.769939       -20.9511
 136   2.0000      -0.761185       -20.7129
 137   2.0000      -0.759788       -20.6749
 138   2.0000      -0.747328       -20.3358
 139   2.0000      -0.737525       -20.0691
 140   2.0000      -0.735577       -20.0161
 141   2.0000      -0.726624       -19.7724
 142   2.0000      -0.720706       -19.6114
 143   2.0000      -0.718876       -19.5616
 144   2.0000      -0.712917       -19.3994
 145   2.0000      -0.712526       -19.3888
 146   2.0000      -0.708204       -19.2712
 147   2.0000      -0.706920       -19.2363
 148   2.0000      -0.700411       -19.0592
 149   2.0000      -0.683939       -18.6109
 150   2.0000      -0.682197       -18.5635
 151   2.0000      -0.680935       -18.5292
 152   2.0000      -0.678730       -18.4692
 153   2.0000      -0.671517       -18.2729
 154   2.0000      -0.670060       -18.2333
 155   2.0000      -0.659010       -17.9326
 156   2.0000      -0.648131       -17.6366
 157   2.0000      -0.646823       -17.6009
 158   2.0000      -0.640241       -17.4218
 159   2.0000      -0.636932       -17.3318
 160   2.0000      -0.634741       -17.2722
 161   2.0000      -0.630953       -17.1691
 162   2.0000      -0.628578       -17.1045
 163   2.0000      -0.627412       -17.0728
 164   2.0000      -0.621225       -16.9044
 165   2.0000      -0.619593       -16.8600
 166   2.0000      -0.614716       -16.7273
 167   2.0000      -0.597863       -16.2687
 168   2.0000      -0.596143       -16.2219
 169   2.0000      -0.590979       -16.0814
 170   2.0000      -0.586525       -15.9602
 171   2.0000      -0.582919       -15.8620
 172   2.0000      -0.577180       -15.7059
 173   2.0000      -0.572634       -15.5822
 174   2.0000      -0.568744       -15.4763
 175   2.0000      -0.565621       -15.3913
 176   2.0000      -0.562554       -15.3079
 177   2.0000      -0.560795       -15.2600
 178   2.0000      -0.558816       -15.2062
 179   2.0000      -0.557150       -15.1608
 180   2.0000      -0.556075       -15.1316
 181   2.0000      -0.554698       -15.0941
 182   2.0000      -0.551111       -14.9965
 183   2.0000      -0.546896       -14.8818
 184   2.0000      -0.546628       -14.8745
 185   2.0000      -0.542203       -14.7541
 186   2.0000      -0.541457       -14.7338
 187   2.0000      -0.538662       -14.6577
 188   2.0000      -0.537697       -14.6315
 189   2.0000      -0.535896       -14.5825
 190   2.0000      -0.534086       -14.5332
 191   2.0000      -0.533369       -14.5137
 192   2.0000      -0.528397       -14.3784
 193   2.0000      -0.527450       -14.3526
 194   2.0000      -0.525688       -14.3047
 195   2.0000      -0.523720       -14.2512
 196   2.0000      -0.522535       -14.2189
 197   2.0000      -0.520940       -14.1755
 198   2.0000      -0.520563       -14.1652
 199   2.0000      -0.519095       -14.1253
 200   2.0000      -0.518751       -14.1159
 201   2.0000      -0.513435       -13.9713
 202   2.0000      -0.511793       -13.9266
 203   2.0000      -0.510367       -13.8878
 204   2.0000      -0.509081       -13.8528
 205   2.0000      -0.507878       -13.8201
 206   2.0000      -0.504550       -13.7295
 207   2.0000      -0.500947       -13.6314
 208   2.0000      -0.498290       -13.5592
 209   2.0000      -0.496724       -13.5165
 210   2.0000      -0.495232       -13.4759
 211   2.0000      -0.493559       -13.4304
 212   2.0000      -0.489215       -13.3122
 213   2.0000      -0.487092       -13.2545
 214   2.0000      -0.485690       -13.2163
 215   2.0000      -0.484604       -13.1867
 216   2.0000      -0.481645       -13.1062
 217   2.0000      -0.481109       -13.0916
 218   2.0000      -0.480001       -13.0615
 219   2.0000      -0.477713       -12.9992
 220   2.0000      -0.475766       -12.9463
 221   2.0000      -0.468244       -12.7416
 222   2.0000      -0.466886       -12.7046
 223   2.0000      -0.465223       -12.6594
 224   2.0000      -0.462198       -12.5771
 225   2.0000      -0.457916       -12.4605
 226   2.0000      -0.456027       -12.4091
 227   2.0000      -0.455581       -12.3970
 228   2.0000      -0.453506       -12.3405
 229   2.0000      -0.452145       -12.3035
 230   2.0000      -0.451328       -12.2813
 231   2.0000      -0.449316       -12.2265
 232   2.0000      -0.449049       -12.2192
 233   2.0000      -0.448221       -12.1967
 234   2.0000      -0.446969       -12.1627
 235   2.0000      -0.444649       -12.0995
 236   2.0000      -0.443004       -12.0548
 237   2.0000      -0.442075       -12.0295
 238   2.0000      -0.441608       -12.0168
 239   2.0000      -0.440226       -11.9792
 240   2.0000      -0.439230       -11.9520
 241   2.0000      -0.437856       -11.9147
 242   2.0000      -0.437175       -11.8961
 243   2.0000      -0.435163       -11.8414
 244   2.0000      -0.433909       -11.8073
 245   2.0000      -0.429726       -11.6934
 246   2.0000      -0.428765       -11.6673
 247   2.0000      -0.427046       -11.6205
 248   2.0000      -0.425984       -11.5916
 249   2.0000      -0.424835       -11.5603
 250   2.0000      -0.424444       -11.5497
 251   2.0000      -0.421820       -11.4783
 252   2.0000      -0.417086       -11.3495
 253   2.0000      -0.415993       -11.3197
 254   2.0000      -0.415907       -11.3174
 255   2.0000      -0.412785       -11.2325
 256   2.0000      -0.405935       -11.0461
 257   2.0000      -0.404499       -11.0070
 258   2.0000      -0.399802       -10.8792
 259   2.0000      -0.396178       -10.7806
 260   2.0000      -0.388298       -10.5661
 261   2.0000      -0.384633       -10.4664
 262   2.0000      -0.378758       -10.3065
 263   2.0000      -0.378151       -10.2900
 264   2.0000      -0.375890       -10.2285
 265   2.0000      -0.370788       -10.0897
 266   2.0000      -0.362777        -9.8717
 267   2.0000      -0.353213        -9.6114
 268   2.0000      -0.341879        -9.3030
 269   2.0000      -0.335799        -9.1375
 270   2.0000      -0.334084        -9.0909
 271   2.0000      -0.327795        -8.9198
 272   2.0000      -0.322209        -8.7678
 273   2.0000      -0.317280        -8.6336
 274   2.0000      -0.312720        -8.5095
 275   2.0000      -0.309041        -8.4094
 276   2.0000      -0.300766        -8.1843
 277   2.0000      -0.297879        -8.1057
 278   2.0000      -0.293124        -7.9763
 279   2.0000      -0.278225        -7.5709
 280   2.0000      -0.240662        -6.5487
 281   0.0000      -0.138559        -3.7704
 282   0.0000      -0.104984        -2.8568
 283   0.0000      -0.086177        -2.3450
 284   0.0000      -0.069980        -1.9043
 285   0.0000      -0.053763        -1.4630

MULLIKEN ATOMIC CHARGES
-----------------------
   0 C :   -0.097409
   1 C :    0.304209
   2 F :   -0.190674
   3 C :   -0.031441
   4 C :   -0.009310
   5 C :    0.099302
   6 C :    0.103382
   7 C :   -0.089857
   8 C :    0.058202
   9 C :    0.004833
  10 C :   -0.080183
  11 C :    0.146274
  12 O :   -0.140605
  13 C :   -0.125015
  14 C :    0.227279
  15 C :   -0.269816
  16 C :   -0.193556
  17 N :    0.150682
  18 C :   -0.172542
  19 N :    0.161808
  20 C :    0.049692
  21 C :   -0.145658
  22 C :    0.005065
  23 C :    0.066371
  24 C :    0.012433
  25 C :   -0.024221
  26 C :    0.035509
  27 C :   -0.010589
  28 C :   -0.104499
  29 S :    0.754921
  30 O :   -0.434604
  31 O :   -0.432188
  32 C :   -0.138567
  33 S :    0.208064
  34 C :   -0.055773
  35 C :    0.088098
  36 C :    0.180331
  37 C :   -0.070570
  38 C :   -0.030843
  39 C :    0.093377
  40 C :    0.000632
  41 C :   -0.031484
  42 C :    0.010084
  43 C :   -0.019979
  44 C :    0.124795
  45 C :   -0.133428
  46 C :    0.133199
  47 C :   -0.092377
  48 C :   -0.002462
  49 C :   -0.172930
  50 N :    0.133998
  51 C :    0.105505
  52 C :   -0.090971
  53 C :    0.103658
  54 C :    0.010460
  55 C :   -0.109197
  56 C :   -0.157777
  57 N :    0.115210
  58 C :    0.012014
  59 C :    0.014222
  60 C :    0.024048
  61 C :   -0.112005
  62 C :    0.141709
  63 O :   -0.142826
  64 C :    0.004589
  65 C :   -0.077483
  66 C :    0.099980
  67 C :    0.101035
  68 C :   -0.097812
  69 C :    0.303246
  70 C :   -0.030202
  71 C :   -0.008307
  72 F :   -0.190661
  73 C :   -0.083124
  74 C :    0.038663
  75 C :    0.294741
  76 C :   -0.333850
  77 C :   -0.211543
  78 N :    0.163330
  79 C :   -0.179786
  80 N :    0.152718
  81 H :   -0.002727
  82 H :    0.003195
  83 H :   -0.009851
  84 H :   -0.003563
  85 H :   -0.012314
  86 H :    0.017301
  87 H :    0.014877
  88 H :    0.035242
  89 H :    0.014887
  90 H :    0.030823
  91 H :    0.027380
  92 H :    0.023666
  93 H :    0.043051
  94 H :    0.046350
  95 H :    0.028985
  96 H :    0.022962
  97 H :   -0.082401
  98 H :    0.032437
  99 H :    0.010240
 100 H :    0.035730
 101 H :   -0.016958
 102 H :   -0.007180
 103 H :    0.010063
 104 H :   -0.000585
 105 H :   -0.006132
 106 H :    0.004795
 107 H :    0.003859
 108 H :    0.003366
 109 H :    0.009183
 110 H :    0.016338
 111 H :    0.019353
 112 H :   -0.011838
 113 H :   -0.002022
 114 H :    0.004226
 115 H :   -0.009014
 116 H :   -0.005266
Sum of atomic charges:   -0.0000000

LOEWDIN ATOMIC CHARGES
----------------------
   0 C :   -0.042742
   1 C :    0.093851
   2 F :   -0.064774
   3 C :   -0.038414
   4 C :    0.005007
   5 C :   -0.019743
   6 C :    0.005350
   7 C :    0.010328
   8 C :   -0.011396
   9 C :   -0.060195
  10 C :    0.036418
  11 C :    0.084730
  12 O :   -0.143131
  13 C :   -0.071564
  14 C :    0.046569
  15 C :   -0.113535
  16 C :   -0.019265
  17 N :   -0.062062
  18 C :   -0.011528
  19 N :   -0.046317
  20 C :    0.033491
  21 C :   -0.183984
  22 C :    0.030555
  23 C :   -0.023585
  24 C :   -0.043541
  25 C :   -0.029647
  26 C :   -0.028439
  27 C :   -0.053566
  28 C :   -0.158306
  29 S :    1.170041
  30 O :   -0.472581
  31 O :   -0.484711
  32 C :   -0.187179
  33 S :    0.522472
  34 C :   -0.163151
  35 C :   -0.036625
  36 C :   -0.029432
  37 C :   -0.031189
  38 C :   -0.011708
  39 C :   -0.043046
  40 C :   -0.012794
  41 C :   -0.003504
  42 C :    0.004607
  43 C :   -0.027035
  44 C :   -0.003251
  45 C :   -0.046533
  46 C :    0.048305
  47 C :   -0.074751
  48 C :    0.056740
  49 C :   -0.030367
  50 N :   -0.060415
  51 C :    0.018761
  52 C :    0.000547
  53 C :   -0.032189
  54 C :    0.056102
  55 C :   -0.084027
  56 C :   -0.023701
  57 N :   -0.074478
  58 C :    0.042238
  59 C :   -0.026358
  60 C :    0.068266
  61 C :   -0.091626
  62 C :    0.081442
  63 O :   -0.144588
  64 C :   -0.058998
  65 C :    0.034606
  66 C :   -0.018439
  67 C :    0.003090
  68 C :   -0.041559
  69 C :    0.093080
  70 C :   -0.036643
  71 C :    0.004842
  72 F :   -0.065062
  73 C :    0.011470
  74 C :   -0.017573
  75 C :    0.071612
  76 C :   -0.138518
  77 C :   -0.023093
  78 N :   -0.051283
  79 C :   -0.018701
  80 N :   -0.050535
  81 H :    0.042980
  82 H :    0.041686
  83 H :    0.035427
  84 H :    0.039574
  85 H :    0.039453
  86 H :    0.047103
  87 H :    0.034036
  88 H :    0.042471
  89 H :    0.024436
  90 H :    0.033335
  91 H :    0.028013
  92 H :    0.036422
  93 H :    0.043003
  94 H :    0.023184
  95 H :    0.033488
  96 H :    0.025687
  97 H :    0.026214
  98 H :    0.038687
  99 H :    0.029401
 100 H :    0.040128
 101 H :    0.032353
 102 H :    0.035420
 103 H :    0.042259
 104 H :    0.028467
 105 H :    0.029732
 106 H :    0.039676
 107 H :    0.036160
 108 H :    0.038187
 109 H :    0.042114
 110 H :    0.031663
 111 H :    0.046077
 112 H :    0.039847
 113 H :    0.043268
 114 H :    0.042059
 115 H :    0.035844
 116 H :    0.039005

  Mayer bond orders larger than 0.100000
B(  0-C ,  1-C ) :   1.4401 B(  0-C ,  6-C ) :   1.2044 B(  0-C , 81-H ) :   1.0062
B(  1-C ,  2-F ) :   1.0878 B(  1-C ,  3-C ) :   1.2550 B(  3-C ,  4-C ) :   1.4622
B(  3-C , 82-H ) :   0.9927 B(  4-C ,  5-C ) :   1.2340 B(  4-C , 83-H ) :   0.9964
B(  5-C ,  6-C ) :   1.2548 B(  5-C , 10-C ) :   1.1956 B(  6-C ,  7-C ) :   1.1984
B(  7-C ,  8-C ) :   1.4719 B(  7-C , 84-H ) :   0.9957 B(  8-C ,  9-C ) :   1.2120
B(  8-C , 14-C ) :   1.0007 B(  9-C , 10-C ) :   1.4668 B(  9-C , 11-C ) :   0.9278
B( 10-C , 85-H ) :   1.0144 B( 11-C , 12-O ) :   2.2700 B( 11-C , 13-C ) :   0.9322
B( 13-C , 14-C ) :   1.0425 B( 13-C , 20-C ) :   1.6653 B( 14-C , 15-C ) :   1.6861
B( 15-C , 16-C ) :   1.1307 B( 15-C , 18-C ) :   1.1482 B( 16-C , 17-N ) :   3.0052
B( 18-C , 19-N ) :   2.9940 B( 20-C , 21-C ) :   1.1435 B( 20-C , 86-H ) :   0.9367
B( 21-C , 22-C ) :   1.5998 B( 21-C , 29-S ) :   0.7963 B( 22-C , 23-C ) :   1.0863
B( 22-C , 25-C ) :   1.1210 B( 23-C , 24-C ) :   1.0920 B( 23-C , 87-H ) :   0.9170
B( 23-C , 88-H ) :   0.9174 B( 24-C , 89-H ) :   0.9622 B( 24-C , 90-H ) :   0.9637
B( 24-C , 91-H ) :   0.9687 B( 25-C , 26-C ) :   1.0812 B( 25-C , 28-C ) :   1.6231
B( 26-C , 27-C ) :   1.0824 B( 26-C , 92-H ) :   0.9219 B( 26-C , 93-H ) :   0.9226
B( 27-C , 94-H ) :   0.9605 B( 27-C , 95-H ) :   0.9644 B( 27-C , 96-H ) :   0.9604
B( 28-C , 29-S ) :   0.8091 B( 28-C , 32-C ) :   1.1948 B( 29-S , 30-O ) :   1.6327
B( 29-S , 31-O ) :   1.7407 B( 32-C , 33-S ) :   1.1737 B( 32-C , 34-C ) :   0.1066
B( 32-C , 36-C ) :   1.2852 B( 33-S , 34-C ) :   1.1272 B( 34-C , 35-C ) :   1.2524
B( 34-C , 42-C ) :   1.2469 B( 35-C , 36-C ) :   1.2337 B( 35-C , 41-C ) :   1.2249
B( 36-C , 37-C ) :   1.2159 B( 37-C , 38-C ) :   1.5152 B( 37-C , 97-H ) :   0.9890
B( 38-C , 39-C ) :   1.0512 B( 38-C , 40-C ) :   1.2353 B( 39-C , 98-H ) :   0.9536
B( 39-C , 99-H ) :   0.9616 B( 39-C ,100-H ) :   0.9521 B( 40-C , 41-C ) :   1.5269
B( 40-C ,101-H ) :   0.9912 B( 41-C ,102-H ) :   0.9945 B( 42-C , 43-C ) :   1.5410
B( 42-C ,103-H ) :   0.9739 B( 43-C , 44-C ) :   1.1667 B( 43-C ,104-H ) :   0.9750
B( 44-C , 45-C ) :   1.4793 B( 44-C , 48-C ) :   1.0206 B( 45-C , 46-C ) :   1.1882
B( 45-C ,105-H ) :   0.9929 B( 46-C , 47-C ) :   1.0891 B( 46-C , 51-C ) :   1.3544
B( 47-C , 48-C ) :   1.6847 B( 47-C , 49-C ) :   1.0884 B( 48-C ,106-H ) :   1.0250
B( 49-C , 50-N ) :   2.9637 B( 51-C , 52-C ) :   1.1403 B( 51-C , 55-C ) :   1.1206
B( 52-C , 53-C ) :   1.4738 B( 52-C ,107-H ) :   1.0072 B( 53-C , 54-C ) :   1.0685
B( 53-C , 58-C ) :   1.1082 B( 54-C , 55-C ) :   1.6559 B( 54-C ,108-H ) :   1.0113
B( 55-C , 56-C ) :   1.0952 B( 56-C , 57-N ) :   2.9520 B( 58-C , 59-C ) :   1.5961
B( 58-C ,109-H ) :   0.9878 B( 59-C , 60-C ) :   1.1537 B( 59-C ,110-H ) :   0.9632
B( 60-C , 61-C ) :   1.5833 B( 60-C ,111-H ) :   0.9550 B( 61-C , 62-C ) :   0.9421
B( 61-C , 75-C ) :   1.0417 B( 62-C , 63-O ) :   2.2631 B( 62-C , 64-C ) :   0.9239
B( 64-C , 65-C ) :   1.4719 B( 64-C , 74-C ) :   1.2166 B( 65-C , 66-C ) :   1.1907
B( 65-C ,112-H ) :   1.0158 B( 66-C , 67-C ) :   1.2569 B( 66-C , 71-C ) :   1.2326
B( 67-C , 68-C ) :   1.2025 B( 67-C , 73-C ) :   1.2037 B( 68-C , 69-C ) :   1.4403
B( 68-C ,113-H ) :   1.0072 B( 69-C , 70-C ) :   1.2540 B( 69-C , 72-F ) :   1.0880
B( 70-C , 71-C ) :   1.4611 B( 70-C ,114-H ) :   0.9930 B( 71-C ,115-H ) :   0.9975
B( 73-C , 74-C ) :   1.4603 B( 73-C ,116-H ) :   0.9931 B( 74-C , 75-C ) :   0.9939
B( 75-C , 76-C ) :   1.6393 B( 76-C , 77-C ) :   1.1624 B( 76-C , 79-C ) :   1.1307
B( 77-C , 78-N ) :   2.9915 B( 79-C , 80-N ) :   2.9812

-----------------------------------------------------------------------------
         ABSORPTION SPECTRUM VIA TRANSITION ELECTRIC DIPOLE MOMENTS
-----------------------------------------------------------------------------
State   Energy  Wavelength   fosc         T2         TX        TY        TZ
        (cm-1)    (nm)                  (au**2)     (au)      (au)      (au)
-----------------------------------------------------------------------------
   0    8623.2   1159.7   1.076759509  41.10773   1.52523   0.07089  -6.22707
   1   15182.3    658.7   0.195335145   4.23564  -1.52746   1.18372   0.70804
   2   15676.8    637.9   0.095139749   1.99793   0.88345   0.05588  -1.10196
   3   18814.5    531.5   0.080745668   1.41287  -0.06738  -0.03195   1.18630
   4   21572.7    463.5   0.240185360   3.66537   0.69255   0.10182  -1.78196
   5   21954.1    455.5   0.342852612   5.14123  -1.05572  -0.19331   1.99733
   6   22403.9    446.4   0.212960703   3.12933   0.64912  -0.39439   1.59763
   7   23193.6    431.2   0.124499563   1.76716  -0.70988   0.36805  -1.06197
   8   24348.7    410.7   0.087973420   1.18946  -0.16219   0.57721  -0.91104
   9   24890.0    401.8   0.054204991   0.71695  -0.84575  -0.00375  -0.04055
  10   25150.9    397.6   0.131995827   1.72776  -0.91072   0.93097   0.17791
  11   26008.0    384.5   0.177482026   2.24659  -0.49514   0.82177  -1.15157
  12   26470.0    377.8   0.232627751   2.89323  -1.61147   0.35074   0.41641
  13   26855.3    372.4   0.034841236   0.42711  -0.29548   0.26476  -0.51933
  14   26929.6    371.3   0.020182280   0.24673  -0.19144   0.45272  -0.07154
  15   27244.3    367.0   0.157141958   1.89886   1.19549  -0.67597   0.11286
  16   27540.5    363.1   0.039893832   0.47688   0.61241  -0.17599  -0.26621
  17   27660.1    361.5   0.102111584   1.21534  -0.64095   0.88101   0.16833
  18   27965.7    357.6   0.027312543   0.32152  -0.31009   0.21764  -0.42190
  19   29094.3    343.7   0.101789821   1.15179  -0.22907  -0.04722   1.04742
  20   29608.8    337.7   0.035174107   0.39109  -0.16975   0.01689   0.60166
  21   29930.9    334.1   0.047943307   0.52733   0.51334  -0.25815   0.44404
  22   30121.4    332.0   0.028559300   0.31214  -0.00592   0.50479  -0.23936
  23   30238.2    330.7   0.106572553   1.16029  -0.21857  -0.36817   0.98841
  24   30412.5    328.8   0.213228473   2.30818   0.68074   0.73270  -1.14364
  25   31176.4    320.8   0.030595849   0.32308   0.01073  -0.47218   0.31624
  26   31548.3    317.0   0.007736028   0.08073   0.12006  -0.25721   0.01247
  27   32288.5    309.7   0.186582254   1.90238   0.22771  -0.71963   1.15441
  28   32757.7    305.3   0.086111094   0.86541   0.08684  -0.92525  -0.04217
  29   32986.9    303.2   0.394186256   3.93402  -0.66031   1.78356  -0.56297
  30   33192.7    301.3   0.094129549   0.93360   0.02733   0.96564  -0.01947
  31   33584.4    297.8   0.089192193   0.87431   0.07841  -0.53938   0.75975
  32   33995.3    294.2   0.091971910   0.89066   0.49394  -0.51165   0.62040
  33   34462.6    290.2   0.014227779   0.13591  -0.18798  -0.12976   0.28938
  34   34624.9    288.8   0.004325860   0.04113   0.04705  -0.19529   0.02791
  35   34969.4    286.0   0.134285477   1.26420   0.05365  -1.07919   0.31092
  36   35111.0    284.8   0.172486281   1.61729   0.28918  -0.12001   1.23258
  37   35375.1    282.7   0.286872479   2.66973  -0.13269   1.09168  -1.20846
  38   35392.6    282.5   0.034645436   0.32226   0.17672  -0.05538  -0.53663
  39   35481.9    281.8   0.189023968   1.75382   0.58657   0.63364  -1.00412
  40   35687.6    280.2   0.073310010   0.67627   0.64495  -0.48075   0.17084
  41   35832.7    279.1   0.003476091   0.03194  -0.11305  -0.02823   0.13550
  42   35916.7    278.4   0.128409626   1.17700   0.26620   0.62773  -0.84386
  43   36020.5    277.6   0.049458183   0.45203   0.19018  -0.34746   0.54326
  44   36253.0    275.8   0.100781859   0.91520   0.72582   0.54652  -0.29949
  45   36458.8    274.3   0.008937137   0.08070  -0.27731   0.03743  -0.04898
  46   36842.7    271.4   0.108634316   0.97071   0.04615  -0.12838   0.97576
  47   37168.3    269.0   0.173817494   1.53956  -0.03550  -1.23074  -0.15353
  48   37258.3    268.4   0.155473597   1.37376   0.12466  -1.15040   0.18653
  49   37474.8    266.8   0.040193807   0.35310   0.29206  -0.51441   0.05635
  50   37654.8    265.6   0.011657176   0.10192  -0.07666   0.30888   0.02521
  51   37818.9    264.4   0.016079271   0.13997   0.34467   0.06806   0.12860
  52   37884.1    264.0   0.011485576   0.09981   0.13768   0.20570  -0.19633
  53   38021.8    263.0   0.083032201   0.71894   0.07805  -0.54582  -0.64415
  54   38848.2    257.4   0.031398261   0.26608   0.13130  -0.40115  -0.29651
  55   39084.8    255.9   0.041884839   0.35280  -0.50718  -0.21551  -0.22163
  56   39238.4    254.9   0.173511496   1.45577   0.24534  -1.04758   0.54602
  57   39353.4    254.1   0.084779373   0.70922   0.49973  -0.58910   0.33534
  58   39421.1    253.7   0.031832120   0.26584   0.21235  -0.36770  -0.29246
  59   40034.5    249.8   0.017842697   0.14672  -0.09673   0.04597  -0.36777
  60   40315.6    248.0   0.121086308   0.98878   0.64062  -0.68863   0.32276

FINAL SINGLE POINT ENERGY     -4195.472384676263

DIPOLE MOMENT
-------------
                                X             Y             Z
Electronic contribution:    -24.20231      32.79289     -72.49197
Nuclear contribution   :     25.90012     -32.07378      75.54962
                        -----------------------------------------
Total Dipole Moment    :      1.69781       0.71912       3.05765
                        -----------------------------------------
Magnitude (a.u.)       :      3.57057
Magnitude (Debye)      :      9.07566

Rotational constants in cm-1:     0.001174     0.000188     0.000169
Rotational constants in MHz :    35.206017     5.625825     5.081336

                             ****ORCA TERMINATED NORMALLY****
TOTAL RUN TIME: 0 days 0 hours 14 minutes 16 seconds 919 msec
