                         Program Version 4.2.0 -  RELEASE  -
|  1> # ORCA input file
|  2> # SCF done       -176.897111426361          0.000402499914
|  3> ! CAM-B3LYP def2-SVP def2/J RIJCOSX Grid4 TightSCF
|  4> %maxcore 5000
|  5> %tddft
|  6>     Mode sTDDFT
|  7>     Ethresh 5.0
|  8>     maxcore 5000
|  9> end
| 10>
| 11> %pal
| 12>   nprocs 6
| 13>   end
| 14> * xyz 0 1
| 15>    N        1.06263        -2.06296         3.42830
| 16>    C        1.14721        -0.72691         2.85017
| 17>    C       -0.03376         0.17065         3.21266
| 18>    C        0.00579         1.49017         2.44553
| 19>    N       -1.20768         2.23122         2.74867
| 20>    S       -2.32451         1.84967         1.49792
| 21>    N       -1.11545         1.81504         0.27774
| 22>    C        0.07316         1.24394         0.89014
| 23>    C        0.11527        -0.24755         0.56511
| 24>    C        1.24196        -0.95236         1.31118
| 25>    N        1.15484        -2.38422         1.02951
| 26>    S        0.16562        -3.03071         2.28443
| 27>    N        2.41448        -2.96723         0.90789
| 28>    C        2.45060        -4.14318         0.15648
| 29>    C        1.39081        -4.66546        -0.51822
| 30>    S        1.78976        -6.11811        -1.34635
| 31>    C        3.41230        -6.02830        -0.78842
| 32>    C        3.64024        -4.93013        -0.00951
| 33>    N        4.87003        -4.65449         0.56534
| 34>    C        5.36562        -3.41145         0.84642
| 35>    C        6.60479        -3.19443         1.31895
| 36>    C        7.15336        -1.90803         1.67891
| 37>    C        8.53346        -1.80608         1.91463
| 38>    C        9.08524        -0.59787         2.25968
| 39>    C        8.27723         0.54184         2.40309
| 40>    C        6.90900         0.45445         2.18553
| 41>    C        6.36259        -0.75964         1.82552
| 42>    C        9.11865         1.66123         2.75413
| 43>    C       10.45461         1.22071         2.81767
| 44>    C       10.53057        -0.27061         2.57350
| 45>    C       11.46711        -0.62095         1.40823
| 46>    C       11.03257         0.03365         0.10181
| 47>    C       10.90101        -1.04725         3.85824
| 48>    C       12.26400        -0.73112         4.45958
| 49>    C       11.46585         2.11968         3.04172
| 50>    C       11.17032         3.47834         3.26845
| 51>    C        9.82704         3.88772         3.24096
| 52>    C        8.81011         2.99756         2.97426
| 53>    C       12.25560         4.38415         3.50775
| 54>    C       12.16350         5.69828         3.84680
| 55>    C       13.28006         6.52458         4.05945
| 56>    C       13.20990         7.84289         4.43516
| 57>    C       14.29228         8.72666         4.65769
| 58>    C       13.92434         9.98188         5.04014
| 59>    C       12.52919        10.16453         5.14580
| 60>    S       11.69274         8.68423         4.72883
| 61>    C       11.85383        11.30772         5.53329
| 62>    C       12.41045        12.55216         5.90103
| 63>    C       11.49371        13.49131         6.26641
| 64>    C       10.14982        13.05314         6.21097
| 65>    S       10.11251        11.37778         5.64853
| 66>    C        8.96675        13.68290         6.50313
| 67>    C        8.73449        14.97858         7.01709
| 68>    C        7.38906        15.46711         7.20699
| 69>    C        7.43563        16.73845         7.73189
| 70>    C        6.41167        17.64291         8.09970
| 71>    C        6.78680        18.85232         8.61180
| 72>    C        6.02454        19.97309         9.07544
| 73>    C        6.89307        20.95821         9.49731
| 74>    C        8.23351        20.48059         9.30999
| 75>    C        8.18775        19.20606         8.77455
| 76>    C        9.20838        18.30888         8.40885
| 77>    C        8.83629        17.08987         7.89361
| 78>    C        9.60206        15.98316         7.44255
| 79>    C        6.50182        22.24002        10.03112
| 80>    C        7.33210        23.19829        10.43433
| 81>    H        0.60849        -2.07616         4.33332
| 82>    H        2.07598        -0.27707         3.22535
| 83>    H       -0.01662         0.38897         4.28255
| 84>    H       -0.97366        -0.33881         2.99224
| 85>    H        0.87412         2.07178         2.77271
| 86>    H       -1.05202         3.23362         2.79927
| 87>    H       -0.95581         2.74407        -0.09945
| 88>    H        0.96174         1.72968         0.47317
| 89>    H        0.26138        -0.37597        -0.50713
| 90>    H       -0.84270        -0.70090         0.81906
| 91>    H        2.20569        -0.60080         0.93068
| 92>    H        2.91406        -3.05441         1.79614
| 93>    H        0.39540        -4.27603        -0.56409
| 94>    H        4.11438        -6.78912        -1.06448
| 95>    H        5.53370        -5.41674         0.56465
| 96>    H        4.68321        -2.60181         0.64743
| 97>    H        7.26930        -4.04157         1.43995
| 98>    H        9.15206        -2.68627         1.80703
| 99>    H        6.27896         1.32497         2.29883
|100>    H        5.29658        -0.82675         1.66729
|101>    H       11.48500        -1.70595         1.28322
|102>    H       12.47930        -0.29361         1.64989
|103>    H       10.03234        -0.29124        -0.17608
|104>    H       11.71776        -0.23364        -0.69974
|105>    H       11.02430         1.11689         0.20219
|106>    H       10.85260        -2.11377         3.62559
|107>    H       10.13181        -0.83912         4.60691
|108>    H       13.06447        -0.91620         3.74793
|109>    H       12.43131        -1.36678         5.32690
|110>    H       12.31197         0.30390         4.78634
|111>    H       12.50017         1.80720         3.03981
|112>    H        9.58543         4.92560         3.40968
|113>    H        7.78548         3.33694         2.93042
|114>    H       13.24854         3.95855         3.41599
|115>    H       11.19542         6.16299         3.97627
|116>    H       14.26711         6.10167         3.92169
|117>    H       15.31085         8.40474         4.52841
|118>    H       14.61813        10.77596         5.25119
|119>    H       13.47223        12.72332         5.88717
|120>    H       11.75660        14.48920         6.56045
|121>    H        8.07139        13.09945         6.32374
|122>    H        6.50320        14.90625         6.96584
|123>    H        5.37266        17.37029         7.97550
|124>    H        4.95095        20.02476         9.08704
|125>    H        9.12597        21.02911         9.54959
|126>    H       10.24753        18.57949         8.53404
|127>    H       10.67371        15.95474         7.46090
|128>    H        5.43206        22.39966        10.09310
|129>    H        8.40199        23.08707        10.39178
|130>    H        6.96733        24.13327        10.82331
|131> *
|132>
|133>                          ****END OF INPUT****

CARTESIAN COORDINATES (ANGSTROEM)
---------------------------------
  N      1.062630   -2.062960    3.428300
  C      1.147210   -0.726910    2.850170
  C     -0.033760    0.170650    3.212660
  C      0.005790    1.490170    2.445530
  N     -1.207680    2.231220    2.748670
  S     -2.324510    1.849670    1.497920
  N     -1.115450    1.815040    0.277740
  C      0.073160    1.243940    0.890140
  C      0.115270   -0.247550    0.565110
  C      1.241960   -0.952360    1.311180
  N      1.154840   -2.384220    1.029510
  S      0.165620   -3.030710    2.284430
  N      2.414480   -2.967230    0.907890
  C      2.450600   -4.143180    0.156480
  C      1.390810   -4.665460   -0.518220
  S      1.789760   -6.118110   -1.346350
  C      3.412300   -6.028300   -0.788420
  C      3.640240   -4.930130   -0.009510
  N      4.870030   -4.654490    0.565340
  C      5.365620   -3.411450    0.846420
  C      6.604790   -3.194430    1.318950
  C      7.153360   -1.908030    1.678910
  C      8.533460   -1.806080    1.914630
  C      9.085240   -0.597870    2.259680
  C      8.277230    0.541840    2.403090
  C      6.909000    0.454450    2.185530
  C      6.362590   -0.759640    1.825520
  C      9.118650    1.661230    2.754130
  C     10.454610    1.220710    2.817670
  C     10.530570   -0.270610    2.573500
  C     11.467110   -0.620950    1.408230
  C     11.032570    0.033650    0.101810
  C     10.901010   -1.047250    3.858240
  C     12.264000   -0.731120    4.459580
  C     11.465850    2.119680    3.041720
  C     11.170320    3.478340    3.268450
  C      9.827040    3.887720    3.240960
  C      8.810110    2.997560    2.974260
  C     12.255600    4.384150    3.507750
  C     12.163500    5.698280    3.846800
  C     13.280060    6.524580    4.059450
  C     13.209900    7.842890    4.435160
  C     14.292280    8.726660    4.657690
  C     13.924340    9.981880    5.040140
  C     12.529190   10.164530    5.145800
  S     11.692740    8.684230    4.728830
  C     11.853830   11.307720    5.533290
  C     12.410450   12.552160    5.901030
  C     11.493710   13.491310    6.266410
  C     10.149820   13.053140    6.210970
  S     10.112510   11.377780    5.648530
  C      8.966750   13.682900    6.503130
  C      8.734490   14.978580    7.017090
  C      7.389060   15.467110    7.206990
  C      7.435630   16.738450    7.731890
  C      6.411670   17.642910    8.099700
  C      6.786800   18.852320    8.611800
  C      6.024540   19.973090    9.075440
  C      6.893070   20.958210    9.497310
  C      8.233510   20.480590    9.309990
  C      8.187750   19.206060    8.774550
  C      9.208380   18.308880    8.408850
  C      8.836290   17.089870    7.893610
  C      9.602060   15.983160    7.442550
  C      6.501820   22.240020   10.031120
  C      7.332100   23.198290   10.434330
  H      0.608490   -2.076160    4.333320
  H      2.075980   -0.277070    3.225350
  H     -0.016620    0.388970    4.282550
  H     -0.973660   -0.338810    2.992240
  H      0.874120    2.071780    2.772710
  H     -1.052020    3.233620    2.799270
  H     -0.955810    2.744070   -0.099450
  H      0.961740    1.729680    0.473170
  H      0.261380   -0.375970   -0.507130
  H     -0.842700   -0.700900    0.819060
  H      2.205690   -0.600800    0.930680
  H      2.914060   -3.054410    1.796140
  H      0.395400   -4.276030   -0.564090
  H      4.114380   -6.789120   -1.064480
  H      5.533700   -5.416740    0.564650
  H      4.683210   -2.601810    0.647430
  H      7.269300   -4.041570    1.439950
  H      9.152060   -2.686270    1.807030
  H      6.278960    1.324970    2.298830
  H      5.296580   -0.826750    1.667290
  H     11.485000   -1.705950    1.283220
  H     12.479300   -0.293610    1.649890
  H     10.032340   -0.291240   -0.176080
  H     11.717760   -0.233640   -0.699740
  H     11.024300    1.116890    0.202190
  H     10.852600   -2.113770    3.625590
  H     10.131810   -0.839120    4.606910
  H     13.064470   -0.916200    3.747930
  H     12.431310   -1.366780    5.326900
  H     12.311970    0.303900    4.786340
  H     12.500170    1.807200    3.039810
  H      9.585430    4.925600    3.409680
  H      7.785480    3.336940    2.930420
  H     13.248540    3.958550    3.415990
  H     11.195420    6.162990    3.976270
  H     14.267110    6.101670    3.921690
  H     15.310850    8.404740    4.528410
  H     14.618130   10.775960    5.251190
  H     13.472230   12.723320    5.887170
  H     11.756600   14.489200    6.560450
  H      8.071390   13.099450    6.323740
  H      6.503200   14.906250    6.965840
  H      5.372660   17.370290    7.975500
  H      4.950950   20.024760    9.087040
  H      9.125970   21.029110    9.549590
  H     10.247530   18.579490    8.534040
  H     10.673710   15.954740    7.460900
  H      5.432060   22.399660   10.093100
  H      8.401990   23.087070   10.391780
  H      6.967330   24.133270   10.823310

 Total Charge           Charge          ....    0
 Multiplicity           Mult            ....    1
 Number of Electrons    NEL             ....  502
 Basis Dimension        Dim             .... 1194

ORBITAL ENERGIES
----------------

  NO   OCC          E(Eh)            E(eV)
   0   2.0000     -88.951582     -2420.4956
   1   2.0000     -88.949926     -2420.4505
   2   2.0000     -88.934350     -2420.0267
   3   2.0000     -88.933715     -2420.0094
   4   2.0000     -88.930285     -2419.9161
   5   2.0000     -14.452301      -393.2671
   6   2.0000     -14.440785      -392.9537
   7   2.0000     -14.436209      -392.8292
   8   2.0000     -14.412468      -392.1832
   9   2.0000     -14.412301      -392.1787
  10   2.0000     -14.411063      -392.1450
  11   2.0000     -10.304848      -280.4092
  12   2.0000     -10.302438      -280.3436
  13   2.0000     -10.301203      -280.3100
  14   2.0000     -10.300614      -280.2940
  15   2.0000     -10.300391      -280.2879
  16   2.0000     -10.299553      -280.2651
  17   2.0000     -10.299105      -280.2529
  18   2.0000     -10.298576      -280.2385
  19   2.0000     -10.297107      -280.1985
  20   2.0000     -10.294794      -280.1356
  21   2.0000     -10.294680      -280.1325
  22   2.0000     -10.291529      -280.0467
  23   2.0000     -10.289116      -279.9811
  24   2.0000     -10.280001      -279.7331
  25   2.0000     -10.277599      -279.6677
  26   2.0000     -10.276681      -279.6427
  27   2.0000     -10.276374      -279.6343
  28   2.0000     -10.274973      -279.5962
  29   2.0000     -10.273575      -279.5582
  30   2.0000     -10.271898      -279.5126
  31   2.0000     -10.269098      -279.4364
  32   2.0000     -10.268348      -279.4160
  33   2.0000     -10.267913      -279.4041
  34   2.0000     -10.267728      -279.3991
  35   2.0000     -10.265697      -279.3438
  36   2.0000     -10.265681      -279.3434
  37   2.0000     -10.265522      -279.3391
  38   2.0000     -10.265297      -279.3329
  39   2.0000     -10.265025      -279.3255
  40   2.0000     -10.264430      -279.3094
  41   2.0000     -10.263403      -279.2814
  42   2.0000     -10.262114      -279.2463
  43   2.0000     -10.260441      -279.2008
  44   2.0000     -10.259687      -279.1803
  45   2.0000     -10.259476      -279.1745
  46   2.0000     -10.259143      -279.1655
  47   2.0000     -10.259010      -279.1619
  48   2.0000     -10.258943      -279.1600
  49   2.0000     -10.258934      -279.1598
  50   2.0000     -10.258771      -279.1554
  51   2.0000     -10.258593      -279.1505
  52   2.0000     -10.258140      -279.1382
  53   2.0000     -10.257631      -279.1243
  54   2.0000     -10.256189      -279.0851
  55   2.0000     -10.254662      -279.0435
  56   2.0000     -10.254095      -279.0281
  57   2.0000     -10.254035      -279.0265
  58   2.0000     -10.253530      -279.0127
  59   2.0000     -10.253378      -279.0086
  60   2.0000     -10.252851      -278.9943
  61   2.0000     -10.252194      -278.9764
  62   2.0000     -10.251437      -278.9558
  63   2.0000     -10.244930      -278.7787
  64   2.0000     -10.244375      -278.7636
  65   2.0000     -10.237822      -278.5853
  66   2.0000      -8.043905      -218.8858
  67   2.0000      -8.041717      -218.8262
  68   2.0000      -8.030346      -218.5168
  69   2.0000      -8.029867      -218.5038
  70   2.0000      -8.026817      -218.4208
  71   2.0000      -6.016231      -163.7100
  72   2.0000      -6.014820      -163.6716
  73   2.0000      -6.011323      -163.5764
  74   2.0000      -6.008494      -163.4994
  75   2.0000      -6.000902      -163.2928
  76   2.0000      -5.999816      -163.2633
  77   2.0000      -5.999595      -163.2573
  78   2.0000      -5.998792      -163.2354
  79   2.0000      -5.996581      -163.1753
  80   2.0000      -5.995683      -163.1508
  81   2.0000      -5.995637      -163.1496
  82   2.0000      -5.992645      -163.0682
  83   2.0000      -5.992172      -163.0553
  84   2.0000      -5.990728      -163.0160
  85   2.0000      -5.987566      -162.9300
  86   2.0000      -1.105839       -30.0914
  87   2.0000      -1.051806       -28.6211
  88   2.0000      -1.041100       -28.3298
  89   2.0000      -1.009065       -27.4581
  90   2.0000      -0.983687       -26.7675
  91   2.0000      -0.979005       -26.6401
  92   2.0000      -0.974039       -26.5050
  93   2.0000      -0.961907       -26.1748
  94   2.0000      -0.956886       -26.0382
  95   2.0000      -0.952175       -25.9100
  96   2.0000      -0.950520       -25.8650
  97   2.0000      -0.932734       -25.3810
  98   2.0000      -0.913139       -24.8478
  99   2.0000      -0.908969       -24.7343
 100   2.0000      -0.894673       -24.3453
 101   2.0000      -0.894177       -24.3318
 102   2.0000      -0.888907       -24.1884
 103   2.0000      -0.873782       -23.7768
 104   2.0000      -0.863805       -23.5053
 105   2.0000      -0.855801       -23.2875
 106   2.0000      -0.849817       -23.1247
 107   2.0000      -0.840465       -22.8702
 108   2.0000      -0.834044       -22.6955
 109   2.0000      -0.828029       -22.5318
 110   2.0000      -0.825608       -22.4659
 111   2.0000      -0.822804       -22.3896
 112   2.0000      -0.819955       -22.3121
 113   2.0000      -0.819584       -22.3020
 114   2.0000      -0.809901       -22.0385
 115   2.0000      -0.808830       -22.0094
 116   2.0000      -0.800074       -21.7711
 117   2.0000      -0.790674       -21.5153
 118   2.0000      -0.786962       -21.4143
 119   2.0000      -0.781116       -21.2552
 120   2.0000      -0.763779       -20.7835
 121   2.0000      -0.753932       -20.5155
 122   2.0000      -0.749310       -20.3898
 123   2.0000      -0.747784       -20.3482
 124   2.0000      -0.738664       -20.1001
 125   2.0000      -0.724125       -19.7045
 126   2.0000      -0.715343       -19.4655
 127   2.0000      -0.705162       -19.1884
 128   2.0000      -0.699830       -19.0433
 129   2.0000      -0.694305       -18.8930
 130   2.0000      -0.693081       -18.8597
 131   2.0000      -0.685583       -18.6557
 132   2.0000      -0.683250       -18.5922
 133   2.0000      -0.679142       -18.4804
 134   2.0000      -0.670122       -18.2349
 135   2.0000      -0.664696       -18.0873
 136   2.0000      -0.661947       -18.0125
 137   2.0000      -0.653928       -17.7943
 138   2.0000      -0.644837       -17.5469
 139   2.0000      -0.640515       -17.4293
 140   2.0000      -0.636635       -17.3237
 141   2.0000      -0.628830       -17.1113
 142   2.0000      -0.627117       -17.0647
 143   2.0000      -0.624784       -17.0012
 144   2.0000      -0.621832       -16.9209
 145   2.0000      -0.620978       -16.8977
 146   2.0000      -0.615973       -16.7615
 147   2.0000      -0.613812       -16.7027
 148   2.0000      -0.611323       -16.6349
 149   2.0000      -0.605210       -16.4686
 150   2.0000      -0.593485       -16.1495
 151   2.0000      -0.588562       -16.0156
 152   2.0000      -0.587800       -15.9949
 153   2.0000      -0.579994       -15.7824
 154   2.0000      -0.573029       -15.5929
 155   2.0000      -0.572576       -15.5806
 156   2.0000      -0.570234       -15.5169
 157   2.0000      -0.563534       -15.3345
 158   2.0000      -0.559252       -15.2180
 159   2.0000      -0.557417       -15.1681
 160   2.0000      -0.550555       -14.9814
 161   2.0000      -0.548419       -14.9232
 162   2.0000      -0.543419       -14.7872
 163   2.0000      -0.535980       -14.5847
 164   2.0000      -0.533010       -14.5040
 165   2.0000      -0.529300       -14.4030
 166   2.0000      -0.527403       -14.3514
 167   2.0000      -0.522944       -14.2300
 168   2.0000      -0.521846       -14.2002
 169   2.0000      -0.517217       -14.0742
 170   2.0000      -0.515673       -14.0322
 171   2.0000      -0.511625       -13.9220
 172   2.0000      -0.508336       -13.8325
 173   2.0000      -0.505800       -13.7635
 174   2.0000      -0.504767       -13.7354
 175   2.0000      -0.501495       -13.6464
 176   2.0000      -0.497929       -13.5493
 177   2.0000      -0.491698       -13.3798
 178   2.0000      -0.490867       -13.3572
 179   2.0000      -0.489634       -13.3236
 180   2.0000      -0.488559       -13.2944
 181   2.0000      -0.485982       -13.2242
 182   2.0000      -0.484479       -13.1833
 183   2.0000      -0.483217       -13.1490
 184   2.0000      -0.481370       -13.0987
 185   2.0000      -0.477568       -12.9953
 186   2.0000      -0.476000       -12.9526
 187   2.0000      -0.473348       -12.8805
 188   2.0000      -0.469562       -12.7774
 189   2.0000      -0.464846       -12.6491
 190   2.0000      -0.463925       -12.6240
 191   2.0000      -0.462497       -12.5852
 192   2.0000      -0.459879       -12.5139
 193   2.0000      -0.459720       -12.5096
 194   2.0000      -0.457791       -12.4571
 195   2.0000      -0.454548       -12.3689
 196   2.0000      -0.453248       -12.3335
 197   2.0000      -0.450612       -12.2618
 198   2.0000      -0.449702       -12.2370
 199   2.0000      -0.448022       -12.1913
 200   2.0000      -0.445248       -12.1158
 201   2.0000      -0.444141       -12.0857
 202   2.0000      -0.441174       -12.0050
 203   2.0000      -0.440737       -11.9931
 204   2.0000      -0.436616       -11.8809
 205   2.0000      -0.436258       -11.8712
 206   2.0000      -0.430059       -11.7025
 207   2.0000      -0.427311       -11.6277
 208   2.0000      -0.425717       -11.5843
 209   2.0000      -0.424841       -11.5605
 210   2.0000      -0.423312       -11.5189
 211   2.0000      -0.418540       -11.3891
 212   2.0000      -0.414113       -11.2686
 213   2.0000      -0.411475       -11.1968
 214   2.0000      -0.411179       -11.1887
 215   2.0000      -0.409340       -11.1387
 216   2.0000      -0.408398       -11.1131
 217   2.0000      -0.407172       -11.0797
 218   2.0000      -0.402554       -10.9540
 219   2.0000      -0.401679       -10.9302
 220   2.0000      -0.397246       -10.8096
 221   2.0000      -0.396670       -10.7939
 222   2.0000      -0.392703       -10.6860
 223   2.0000      -0.387731       -10.5507
 224   2.0000      -0.387204       -10.5364
 225   2.0000      -0.381701       -10.3866
 226   2.0000      -0.374425       -10.1886
 227   2.0000      -0.373542       -10.1646
 228   2.0000      -0.369070       -10.0429
 229   2.0000      -0.366545        -9.9742
 230   2.0000      -0.364015        -9.9053
 231   2.0000      -0.359390        -9.7795
 232   2.0000      -0.356542        -9.7020
 233   2.0000      -0.350583        -9.5399
 234   2.0000      -0.332813        -9.0563
 235   2.0000      -0.329837        -8.9753
 236   2.0000      -0.326413        -8.8821
 237   2.0000      -0.314511        -8.5583
 238   2.0000      -0.313373        -8.5273
 239   2.0000      -0.309620        -8.4252
 240   2.0000      -0.307138        -8.3577
 241   2.0000      -0.302021        -8.2184
 242   2.0000      -0.287521        -7.8238
 243   2.0000      -0.282941        -7.6992
 244   2.0000      -0.268378        -7.3029
 245   2.0000      -0.266158        -7.2425
 246   2.0000      -0.262454        -7.1417
 247   2.0000      -0.259510        -7.0616
 248   2.0000      -0.241311        -6.5664
 249   2.0000      -0.221756        -6.0343
 250   2.0000      -0.190286        -5.1779
 251   0.0000      -0.091336        -2.4854
 252   0.0000      -0.063688        -1.7330
 253   0.0000      -0.016936        -0.4608
 254   0.0000       0.006047         0.1645
 255   0.0000       0.021674         0.5898

MULLIKEN ATOMIC CHARGES
-----------------------
   0 N :   -0.328652
   1 C :   -0.002030
   2 C :    0.256627
   3 C :   -0.048210
   4 N :   -0.306719
   5 S :    0.210209
   6 N :   -0.305738
   7 C :   -0.040321
   8 C :    0.285054
   9 C :    0.015379
  10 N :   -0.345268
  11 S :    0.238261
  12 N :   -0.056597
  13 C :    0.120990
  14 C :   -0.178569
  15 S :    0.099968
  16 C :   -0.192858
  17 C :    0.112278
  18 N :   -0.050455
  19 C :    0.049008
  20 C :   -0.047206
  21 C :    0.139465
  22 C :   -0.120509
  23 C :    0.023749
  24 C :    0.095118
  25 C :   -0.042361
  26 C :   -0.029493
  27 C :    0.106439
  28 C :    0.028055
  29 C :   -0.133064
  30 C :    0.050977
  31 C :    0.025935
  32 C :    0.078976
  33 C :    0.029782
  34 C :   -0.118582
  35 C :    0.127369
  36 C :   -0.006788
  37 C :   -0.052013
  38 C :   -0.011791
  39 C :    0.016328
  40 C :   -0.015703
  41 C :   -0.018361
  42 C :    0.032336
  43 C :    0.022149
  44 C :   -0.041040
  45 S :    0.063913
  46 C :   -0.048360
  47 C :    0.015498
  48 C :    0.031993
  49 C :   -0.053505
  50 S :    0.075026
  51 C :    0.026176
  52 C :    0.084789
  53 C :   -0.043318
  54 C :    0.066939
  55 C :   -0.013771
  56 C :    0.065845
  57 C :   -0.035122
  58 C :    0.066828
  59 C :   -0.030711
  60 C :    0.058639
  61 C :   -0.017522
  62 C :    0.064671
  63 C :   -0.057891
  64 C :    0.008671
  65 C :   -0.026965
  66 H :    0.126737
  67 H :    0.000890
  68 H :    0.001032
  69 H :   -0.026398
  70 H :   -0.001939
  71 H :    0.123136
  72 H :    0.123763
  73 H :   -0.002899
  74 H :    0.009482
  75 H :   -0.025115
  76 H :    0.009770
  77 H :    0.132524
  78 H :    0.006421
  79 H :   -0.005199
  80 H :    0.115770
  81 H :    0.025622
  82 H :   -0.045377
  83 H :   -0.051452
  84 H :   -0.048578
  85 H :   -0.052346
  86 H :   -0.004781
  87 H :    0.002896
  88 H :    0.022113
  89 H :    0.004988
  90 H :    0.020772
  91 H :   -0.006439
  92 H :    0.004559
  93 H :    0.000752
  94 H :    0.009740
  95 H :    0.020005
  96 H :   -0.041119
  97 H :   -0.034799
  98 H :   -0.043394
  99 H :   -0.030576
 100 H :   -0.001505
 101 H :   -0.021082
 102 H :   -0.016746
 103 H :   -0.016879
 104 H :   -0.018542
 105 H :   -0.027669
 106 H :   -0.029407
 107 H :   -0.025637
 108 H :   -0.028848
 109 H :   -0.030925
 110 H :   -0.027557
 111 H :   -0.030416
 112 H :   -0.044949
 113 H :   -0.020046
 114 H :    0.007895
 115 H :    0.017810
Sum of atomic charges:   -0.0000000

LOEWDIN ATOMIC CHARGES
----------------------
   0 N :   -0.237845
   1 C :   -0.017215
   2 C :   -0.044768
   3 C :   -0.012039
   4 N :   -0.228406
   5 S :    0.353893
   6 N :   -0.226882
   7 C :   -0.012305
   8 C :   -0.030487
   9 C :   -0.001599
  10 N :   -0.166701
  11 S :    0.348836
  12 N :   -0.010553
  13 C :   -0.044246
  14 C :   -0.228548
  15 S :    0.419242
  16 C :   -0.237276
  17 C :   -0.029697
  18 N :    0.019544
  19 C :    0.032561
  20 C :   -0.111299
  21 C :   -0.007135
  22 C :   -0.036395
  23 C :    0.007967
  24 C :   -0.035283
  25 C :   -0.018438
  26 C :   -0.036322
  27 C :   -0.011309
  28 C :   -0.001579
  29 C :   -0.033940
  30 C :   -0.015750
  31 C :   -0.056904
  32 C :   -0.009629
  33 C :   -0.060315
  34 C :   -0.021478
  35 C :   -0.032878
  36 C :   -0.012264
  37 C :   -0.024197
  38 C :   -0.012748
  39 C :   -0.036816
  40 C :   -0.051615
  41 C :   -0.150107
  42 C :   -0.036219
  43 C :   -0.037159
  44 C :   -0.178021
  45 S :    0.363170
  46 C :   -0.185693
  47 C :   -0.025664
  48 C :   -0.043671
  49 C :   -0.142383
  50 S :    0.362157
  51 C :   -0.059943
  52 C :   -0.054111
  53 C :    0.038941
  54 C :   -0.062943
  55 C :    0.063242
  56 C :   -0.055268
  57 C :    0.005129
  58 C :   -0.056845
  59 C :    0.037423
  60 C :   -0.057534
  61 C :    0.055770
  62 C :   -0.048705
  63 C :   -0.017079
  64 C :   -0.020429
  65 C :   -0.057429
  66 H :    0.050934
  67 H :    0.018991
  68 H :    0.023856
  69 H :    0.020688
  70 H :    0.018636
  71 H :    0.044571
  72 H :    0.044836
  73 H :    0.018397
  74 H :    0.030318
  75 H :    0.020736
  76 H :    0.022438
  77 H :    0.058886
  78 H :    0.017689
  79 H :    0.016211
  80 H :    0.086491
  81 H :    0.024116
  82 H :    0.017344
  83 H :    0.019522
  84 H :    0.022077
  85 H :    0.018360
  86 H :    0.018997
  87 H :    0.018108
  88 H :    0.025892
  89 H :    0.021916
  90 H :    0.025643
  91 H :    0.018802
  92 H :    0.026665
  93 H :    0.018791
  94 H :    0.026226
  95 H :    0.024141
  96 H :    0.021831
  97 H :    0.024872
  98 H :    0.024139
  99 H :    0.025095
 100 H :    0.019506
 101 H :    0.030912
 102 H :    0.031753
 103 H :    0.030070
 104 H :    0.030334
 105 H :    0.028858
 106 H :    0.026529
 107 H :    0.024026
 108 H :    0.033254
 109 H :    0.022607
 110 H :    0.023444
 111 H :    0.032185
 112 H :    0.016796
 113 H :    0.028836
 114 H :    0.017464
 115 H :    0.023401

  Mayer bond orders larger than 0.100000
B(  0-N ,  1-C ) :   1.0247 B(  0-N , 11-S ) :   0.9376 B(  0-N , 66-H ) :   0.9427
B(  1-C ,  2-C ) :   1.0911 B(  1-C ,  9-C ) :   0.9761 B(  1-C , 67-H ) :   0.9048
B(  2-C ,  3-C ) :   1.0810 B(  2-C ,  8-C ) :   0.1288 B(  2-C , 68-H ) :   0.9304
B(  2-C , 69-H ) :   0.8412 B(  3-C ,  4-N ) :   1.0502 B(  3-C ,  7-C ) :   0.9567
B(  3-C , 70-H ) :   0.9173 B(  4-N ,  5-S ) :   0.9778 B(  4-N , 71-H ) :   0.9453
B(  5-S ,  6-N ) :   0.9810 B(  6-N ,  7-C ) :   1.0499 B(  6-N , 72-H ) :   0.9445
B(  7-C ,  8-C ) :   1.0758 B(  7-C , 73-H ) :   0.9156 B(  8-C ,  9-C ) :   1.0822
B(  8-C , 74-H ) :   0.9364 B(  8-C , 75-H ) :   0.8432 B(  9-C , 10-N ) :   0.9483
B(  9-C , 76-H ) :   0.9074 B( 10-N , 11-S ) :   0.9809 B( 10-N , 12-N ) :   0.9641
B( 12-N , 13-C ) :   1.0819 B( 12-N , 77-H ) :   0.8994 B( 13-C , 14-C ) :   1.5493
B( 13-C , 17-C ) :   1.2631 B( 14-C , 15-S ) :   1.1364 B( 14-C , 78-H ) :   0.9658
B( 15-S , 16-C ) :   1.1461 B( 16-C , 17-C ) :   1.5199 B( 16-C , 79-H ) :   0.9749
B( 17-C , 18-N ) :   1.0959 B( 18-N , 19-C ) :   1.1512 B( 18-N , 80-H ) :   0.9233
B( 19-C , 20-C ) :   1.6675 B( 19-C , 81-H ) :   0.9475 B( 20-C , 21-C ) :   1.0936
B( 20-C , 82-H ) :   0.9733 B( 21-C , 22-C ) :   1.2917 B( 21-C , 26-C ) :   1.3434
B( 22-C , 23-C ) :   1.3803 B( 22-C , 83-H ) :   1.0100 B( 23-C , 24-C ) :   1.3763
B( 23-C , 29-C ) :   0.9257 B( 24-C , 25-C ) :   1.3252 B( 24-C , 27-C ) :   1.0052
B( 25-C , 26-C ) :   1.4014 B( 25-C , 84-H ) :   0.9874 B( 26-C , 85-H ) :   0.9797
B( 27-C , 28-C ) :   1.3793 B( 27-C , 37-C ) :   1.3215 B( 28-C , 29-C ) :   0.9169
B( 28-C , 34-C ) :   1.3875 B( 29-C , 30-C ) :   1.0316 B( 29-C , 32-C ) :   1.0168
B( 30-C , 31-C ) :   1.1062 B( 30-C , 86-H ) :   0.9391 B( 30-C , 87-H ) :   0.9382
B( 31-C , 88-H ) :   0.9627 B( 31-C , 89-H ) :   0.9644 B( 31-C , 90-H ) :   0.9646
B( 32-C , 33-C ) :   1.1134 B( 32-C , 91-H ) :   0.9366 B( 32-C , 92-H ) :   0.9389
B( 33-C , 93-H ) :   0.9632 B( 33-C , 94-H ) :   0.9596 B( 33-C , 95-H ) :   0.9609
B( 34-C , 35-C ) :   1.2693 B( 34-C , 96-H ) :   1.0063 B( 35-C , 36-C ) :   1.3384
B( 35-C , 38-C ) :   1.0761 B( 36-C , 37-C ) :   1.4034 B( 36-C , 97-H ) :   0.9846
B( 37-C , 98-H ) :   0.9893 B( 38-C , 39-C ) :   1.6374 B( 38-C , 99-H ) :   0.9893
B( 39-C , 40-C ) :   1.1546 B( 39-C ,100-H ) :   0.9636 B( 40-C , 41-C ) :   1.5569
B( 40-C ,101-H ) :   0.9856 B( 41-C , 42-C ) :   1.1460 B( 41-C , 45-S ) :   1.0246
B( 42-C , 43-C ) :   1.5800 B( 42-C ,102-H ) :   0.9997 B( 43-C , 44-C ) :   1.1981
B( 43-C ,103-H ) :   0.9932 B( 44-C , 45-S ) :   1.0461 B( 44-C , 46-C ) :   1.4879
B( 46-C , 47-C ) :   1.1987 B( 46-C , 50-S ) :   1.0513 B( 47-C , 48-C ) :   1.5921
B( 47-C ,104-H ) :   0.9926 B( 48-C , 49-C ) :   1.1548 B( 48-C ,105-H ) :   0.9950
B( 49-C , 50-S ) :   1.0305 B( 49-C , 51-C ) :   1.5634 B( 51-C , 52-C ) :   1.1660
B( 51-C ,106-H ) :   0.9482 B( 52-C , 53-C ) :   1.1108 B( 52-C , 63-C ) :   1.4542
B( 53-C , 54-C ) :   1.4534 B( 53-C ,107-H ) :   1.0157 B( 54-C , 55-C ) :   1.1059
B( 54-C , 62-C ) :   1.1205 B( 55-C , 56-C ) :   1.4846 B( 55-C ,108-H ) :   1.0065
B( 56-C , 57-C ) :   1.0737 B( 56-C , 60-C ) :   1.1215 B( 57-C , 58-C ) :   1.5229
B( 57-C ,109-H ) :   1.0180 B( 58-C , 59-C ) :   1.1303 B( 58-C , 64-C ) :   1.0858
B( 59-C , 60-C ) :   1.4558 B( 59-C ,110-H ) :   1.0076 B( 60-C , 61-C ) :   1.1208
B( 61-C , 62-C ) :   1.4496 B( 61-C ,111-H ) :   1.0047 B( 62-C , 63-C ) :   1.1192
B( 63-C ,112-H ) :   1.0134 B( 64-C , 65-C ) :   1.9316 B( 64-C ,113-H ) :   0.9666
B( 65-C ,114-H ) :   0.9528 B( 65-C ,115-H ) :   0.9488

-----------------------------------------------------------------------------
         ABSORPTION SPECTRUM VIA TRANSITION ELECTRIC DIPOLE MOMENTS
-----------------------------------------------------------------------------
State   Energy  Wavelength   fosc         T2         TX        TY        TZ
        (cm-1)    (nm)                  (au**2)     (au)      (au)      (au)
-----------------------------------------------------------------------------
   0    6699.2   1492.7   0.112314650   5.51936   0.50972  -2.15267  -0.79093
   1   13977.2    715.5   2.073889865  48.84739  -0.93224   6.54663   2.26272
   2   15276.8    654.6   0.138292073   2.98017  -0.54825   1.55448   0.51303
   3   21539.9    464.3   0.118171892   1.80612  -1.26320  -0.45103  -0.08382
   4   22553.5    443.4   0.183587950   2.67982  -0.25606   1.50744   0.58470
   5   23803.5    420.1   0.071107364   0.98344  -0.98971   0.01819   0.05987
   6   24604.7    406.4   0.569293246   7.61716   2.70723   0.53653  -0.01454
   7   26842.8    372.5   0.029659584   0.36376  -0.55092   0.06974   0.23532
   8   27583.3    362.5   0.085876959   1.02496  -0.39536  -0.83918  -0.40550
   9   29080.2    343.9   0.063369082   0.71739  -0.01509  -0.76271  -0.36803
  10   29770.9    335.9   0.126947901   1.40381  -0.08034   1.05698   0.52929
  11   31471.2    317.8   0.143411560   1.50019   0.61850   0.97135   0.41729
  12   31860.2    313.9   0.633829001   6.54935  -1.59871  -1.84381  -0.77060
  13   32186.5    310.7   0.084331335   0.86256   0.12814   0.84521   0.36300
  14   32354.1    309.1   0.070892416   0.72135  -0.33955  -0.71121  -0.31661
  15   32908.5    303.9   0.027617813   0.27628   0.43873  -0.26707  -0.11171
  16   33185.2    301.3   0.069260562   0.68709   0.66724   0.44625   0.20676
  17   33368.0    299.7   0.005372252   0.05300  -0.11087  -0.06009  -0.19261
  18   33884.5    295.1   0.516654560   5.01966  -0.59381  -2.00534  -0.80354
  19   34320.8    291.4   0.005588103   0.05360  -0.16443  -0.15904  -0.03565
  20   35624.6    280.7   0.025659422   0.23712   0.37658   0.29087   0.10346
  21   36085.9    277.1   0.001079302   0.00985  -0.06262   0.00376  -0.07688
  22   36138.5    276.7   0.000064901   0.00059  -0.00385  -0.02322  -0.00609
  23   36684.1    272.6   0.033594845   0.30149   0.00518   0.54410   0.07357
  24   36739.5    272.2   0.028456106   0.25499  -0.48770  -0.10765  -0.07450
  25   36990.6    270.3   0.079547807   0.70797  -0.05553   0.80466   0.23959
  26   37501.3    266.7   0.022920793   0.20121  -0.04425   0.41284   0.16976
  27   37703.9    265.2   0.073073858   0.63805  -0.19402   0.71769   0.29210
  28   38040.3    262.9   0.011051983   0.09565  -0.24324   0.14004   0.12989
  29   38191.1    261.8   0.064496039   0.55596   0.33633  -0.63401  -0.20219
  30   39077.5    255.9   0.012790542   0.10776   0.18252  -0.27115   0.03032
  31   39613.0    252.4   0.128966877   1.07181   0.13157  -0.95665  -0.37326
  32   39726.2    251.7   0.230125533   1.90706   0.91443   0.87999   0.54450
  33   39946.7    250.3   0.037463553   0.30875  -0.32166  -0.37750  -0.25055

FINAL SINGLE POINT ENERGY     -4441.451171859399

DIPOLE MOMENT
-------------
                                X             Y             Z
Electronic contribution:    -22.82863      19.94417       1.15546
Nuclear contribution   :     23.60517     -19.50963      -0.74714
                        -----------------------------------------
Total Dipole Moment    :      0.77654       0.43454       0.40832
                        -----------------------------------------
Magnitude (a.u.)       :      0.97906
Magnitude (Debye)      :      2.48857

Rotational constants in cm-1:     0.001005     0.000214     0.000179
Rotational constants in MHz :    30.128212     6.412319     5.358111

                             ****ORCA TERMINATED NORMALLY****
TOTAL RUN TIME: 0 days 0 hours 12 minutes 43 seconds 291 msec
