                         Program Version 4.2.0 -  RELEASE  -
|  1> # ORCA input file
|  2> # SCF done       -186.650626698288          0.000941492142
|  3> ! CAM-B3LYP def2-SVP def2/J RIJCOSX Grid4 TightSCF
|  4> %maxcore 5000
|  5> %tddft
|  6>     Mode sTDDFT
|  7>     Ethresh 5.0
|  8>     maxcore 5000
|  9> end
| 10>
| 11> %pal
| 12>   nprocs 6
| 13>   end
| 14> * xyz 0 1
| 15>    C       -7.80656        -9.70146        -7.63933
| 16>    C       -7.50469        -9.94154        -6.31654
| 17>    C       -6.75570       -11.04442        -5.86467
| 18>    N       -6.15260       -11.91988        -5.42745
| 19>    C       -7.89264        -9.14283        -5.22373
| 20>    N       -8.15832        -8.55394        -4.27229
| 21>    C       -7.39821       -10.55275        -8.75714
| 22>    C       -7.90187        -9.99498        -9.95646
| 23>    C       -7.68741       -10.56326       -11.18688
| 24>    C       -6.93730       -11.74390       -11.23874
| 25>    C       -6.43843       -12.29392       -10.03658
| 26>    C       -6.65606       -11.71707        -8.79016
| 27>    S       -5.53946       -13.75390       -10.32646
| 28>    C       -5.84194       -13.60355       -12.03702
| 29>    C       -6.57857       -12.51987       -12.37566
| 30>   Br       -5.16007       -14.89587       -13.21476
| 31>    C       -8.65357        -8.76039        -9.63916
| 32>    O       -9.21430        -8.03992       -10.44416
| 33>    C       -8.56550        -8.60578        -8.17746
| 34>    C       -9.12570        -7.55923        -7.46477
| 35>    C       -9.86234        -6.52405        -8.02163
| 36>    C      -10.39411        -5.48424        -7.27748
| 37>    C      -11.15153        -4.40181        -7.77196
| 38>    C      -11.53990        -3.50793        -6.81412
| 39>    C      -11.10431        -3.84470        -5.51826
| 40>    S      -10.19279        -5.33803        -5.54730
| 41>    C      -11.30629        -3.13695        -4.34258
| 42>    C      -11.98639        -1.91247        -4.17579
| 43>    C      -11.97936        -1.45101        -2.89300
| 44>    C      -11.29653        -2.28458        -1.97513
| 45>    S      -10.67629        -3.69518        -2.81479
| 46>    C      -11.11577        -2.00198        -0.64143
| 47>    C      -10.45043        -2.76222         0.32815
| 48>    S      -10.23372        -2.03698         1.92718
| 49>    C       -9.39434        -3.43348         2.47836
| 50>    C       -9.31464        -4.41014         1.46804
| 51>    C       -9.89622        -4.03646         0.26670
| 52>    S       -8.48308        -5.84990         1.99527
| 53>    C       -8.23076        -5.12687         3.56005
| 54>    C       -7.58528        -5.55492         4.71711
| 55>    C       -7.61365        -4.59327         5.71265
| 56>    S       -8.47014        -3.14473         5.21020
| 57>    C       -8.77392        -3.83742         3.65664
| 58>    C       -7.03203        -4.65788         6.99712
| 59>    S       -6.92205        -3.23860         8.02622
| 60>    C       -6.07118        -4.06381         9.30721
| 61>    C       -5.90634        -5.39503         8.94480
| 62>    C       -6.43665        -5.71526         7.66367
| 63>    N       -6.17718        -7.04845         7.49478
| 64>    C       -5.53001        -7.45560         8.63342
| 65>    N       -5.35004        -6.51557         9.50559
| 66>    C       -5.63191        -3.36670        10.45727
| 67>    C       -4.95360        -3.97532        11.45820
| 68>    C       -4.40681        -3.34375        12.62881
| 69>    C       -4.44480        -1.95373        12.83287
| 70>    C       -3.85074        -1.41447        13.94549
| 71>    C       -3.21835        -2.23654        14.89414
| 72>    C       -3.19269        -3.61341        14.71898
| 73>    C       -3.77977        -4.15000        13.59239
| 74>    C       -2.64103        -1.39370        15.91862
| 75>    C       -2.91420        -0.05114        15.60450
| 76>    C       -3.77398         0.03947        14.36366
| 77>    C       -3.14005         0.92165        13.27847
| 78>    C       -1.77371         0.40754        12.83923
| 79>    C       -5.21591         0.49005        14.69671
| 80>    C       -5.35297         1.87718        15.31025
| 81>    C       -2.38462         0.95739        16.37484
| 82>    C       -1.60852         0.64884        17.50027
| 83>    C       -1.37840        -0.69317        17.81715
| 84>    C       -1.87858        -1.71313        17.03262
| 85>    C       -1.06629         1.74843        18.28624
| 86>    C       -0.35412         1.65838        19.40407
| 87>    H       -8.08530       -10.11276       -12.08275
| 88>    H       -6.25266       -12.17729        -7.90393
| 89>    H       -6.85881       -12.27518       -13.38402
| 90>    H       -8.98415        -7.53673        -6.39110
| 91>    H      -10.03344        -6.51675        -9.08835
| 92>    H      -11.38459        -4.31427        -8.81815
| 93>    H      -12.12037        -2.62475        -7.01185
| 94>    H      -12.45292        -1.40278        -4.99905
| 95>    H      -12.44045        -0.53230        -2.57584
| 96>    H      -11.52142        -1.05743        -0.30071
| 97>    H       -9.92577        -4.66135        -0.60544
| 98>    H       -7.09493        -6.50510         4.81254
| 99>    H       -6.42836        -7.62628         6.71169
|100>    H       -5.20777        -8.46953         8.77023
|101>    H       -5.85786        -2.31028        10.48175
|102>    H       -4.78781        -5.04069        11.36607
|103>    H       -4.91922        -1.31324        12.10564
|104>    H       -2.71282        -4.25234        15.44533
|105>    H       -3.75786        -5.21864        13.43445
|106>    H       -3.03048         1.93712        13.66131
|107>    H       -3.80959         0.95846        12.41633
|108>    H       -1.09003         0.37005        13.68464
|109>    H       -1.35060         1.06437        12.08246
|110>    H       -1.85481        -0.59322        12.42068
|111>    H       -5.64323        -0.24173        15.38759
|112>    H       -5.79809         0.44891        13.77308
|113>    H       -4.85874         1.92366        16.27668
|114>    H       -6.40707         2.10201        15.45953
|115>    H       -4.93521         2.64191        14.66067
|116>    H       -2.54349         1.99463        16.11717
|117>    H       -0.78245        -0.94050        18.68175
|118>    H       -1.67051        -2.74403        17.27842
|119>    H       -1.28932         2.73292        17.89137
|120>    H       -0.09824         0.71814        19.86122
|121>    H       -0.00060         2.53873        19.91292
|122> *
|123>
|124>                          ****END OF INPUT****

CARTESIAN COORDINATES (ANGSTROEM)
---------------------------------
  C     -7.806560   -9.701460   -7.639330
  C     -7.504690   -9.941540   -6.316540
  C     -6.755700  -11.044420   -5.864670
  N     -6.152600  -11.919880   -5.427450
  C     -7.892640   -9.142830   -5.223730
  N     -8.158320   -8.553940   -4.272290
  C     -7.398210  -10.552750   -8.757140
  C     -7.901870   -9.994980   -9.956460
  C     -7.687410  -10.563260  -11.186880
  C     -6.937300  -11.743900  -11.238740
  C     -6.438430  -12.293920  -10.036580
  C     -6.656060  -11.717070   -8.790160
  S     -5.539460  -13.753900  -10.326460
  C     -5.841940  -13.603550  -12.037020
  C     -6.578570  -12.519870  -12.375660
  Br    -5.160070  -14.895870  -13.214760
  C     -8.653570   -8.760390   -9.639160
  O     -9.214300   -8.039920  -10.444160
  C     -8.565500   -8.605780   -8.177460
  C     -9.125700   -7.559230   -7.464770
  C     -9.862340   -6.524050   -8.021630
  C    -10.394110   -5.484240   -7.277480
  C    -11.151530   -4.401810   -7.771960
  C    -11.539900   -3.507930   -6.814120
  C    -11.104310   -3.844700   -5.518260
  S    -10.192790   -5.338030   -5.547300
  C    -11.306290   -3.136950   -4.342580
  C    -11.986390   -1.912470   -4.175790
  C    -11.979360   -1.451010   -2.893000
  C    -11.296530   -2.284580   -1.975130
  S    -10.676290   -3.695180   -2.814790
  C    -11.115770   -2.001980   -0.641430
  C    -10.450430   -2.762220    0.328150
  S    -10.233720   -2.036980    1.927180
  C     -9.394340   -3.433480    2.478360
  C     -9.314640   -4.410140    1.468040
  C     -9.896220   -4.036460    0.266700
  S     -8.483080   -5.849900    1.995270
  C     -8.230760   -5.126870    3.560050
  C     -7.585280   -5.554920    4.717110
  C     -7.613650   -4.593270    5.712650
  S     -8.470140   -3.144730    5.210200
  C     -8.773920   -3.837420    3.656640
  C     -7.032030   -4.657880    6.997120
  S     -6.922050   -3.238600    8.026220
  C     -6.071180   -4.063810    9.307210
  C     -5.906340   -5.395030    8.944800
  C     -6.436650   -5.715260    7.663670
  N     -6.177180   -7.048450    7.494780
  C     -5.530010   -7.455600    8.633420
  N     -5.350040   -6.515570    9.505590
  C     -5.631910   -3.366700   10.457270
  C     -4.953600   -3.975320   11.458200
  C     -4.406810   -3.343750   12.628810
  C     -4.444800   -1.953730   12.832870
  C     -3.850740   -1.414470   13.945490
  C     -3.218350   -2.236540   14.894140
  C     -3.192690   -3.613410   14.718980
  C     -3.779770   -4.150000   13.592390
  C     -2.641030   -1.393700   15.918620
  C     -2.914200   -0.051140   15.604500
  C     -3.773980    0.039470   14.363660
  C     -3.140050    0.921650   13.278470
  C     -1.773710    0.407540   12.839230
  C     -5.215910    0.490050   14.696710
  C     -5.352970    1.877180   15.310250
  C     -2.384620    0.957390   16.374840
  C     -1.608520    0.648840   17.500270
  C     -1.378400   -0.693170   17.817150
  C     -1.878580   -1.713130   17.032620
  C     -1.066290    1.748430   18.286240
  C     -0.354120    1.658380   19.404070
  H     -8.085300  -10.112760  -12.082750
  H     -6.252660  -12.177290   -7.903930
  H     -6.858810  -12.275180  -13.384020
  H     -8.984150   -7.536730   -6.391100
  H    -10.033440   -6.516750   -9.088350
  H    -11.384590   -4.314270   -8.818150
  H    -12.120370   -2.624750   -7.011850
  H    -12.452920   -1.402780   -4.999050
  H    -12.440450   -0.532300   -2.575840
  H    -11.521420   -1.057430   -0.300710
  H     -9.925770   -4.661350   -0.605440
  H     -7.094930   -6.505100    4.812540
  H     -6.428360   -7.626280    6.711690
  H     -5.207770   -8.469530    8.770230
  H     -5.857860   -2.310280   10.481750
  H     -4.787810   -5.040690   11.366070
  H     -4.919220   -1.313240   12.105640
  H     -2.712820   -4.252340   15.445330
  H     -3.757860   -5.218640   13.434450
  H     -3.030480    1.937120   13.661310
  H     -3.809590    0.958460   12.416330
  H     -1.090030    0.370050   13.684640
  H     -1.350600    1.064370   12.082460
  H     -1.854810   -0.593220   12.420680
  H     -5.643230   -0.241730   15.387590
  H     -5.798090    0.448910   13.773080
  H     -4.858740    1.923660   16.276680
  H     -6.407070    2.102010   15.459530
  H     -4.935210    2.641910   14.660670
  H     -2.543490    1.994630   16.117170
  H     -0.782450   -0.940500   18.681750
  H     -1.670510   -2.744030   17.278420
  H     -1.289320    2.732920   17.891370
  H     -0.098240    0.718140   19.861220
  H     -0.000600    2.538730   19.912920

 Total Charge           Charge          ....    0
 Multiplicity           Mult            ....    1
 Number of Electrons    NEL             ....  572
 Basis Dimension        Dim             .... 1229

ORBITAL ENERGIES
----------------

  NO   OCC          E(Eh)            E(eV)
   0   2.0000    -482.873791    -13139.6639
   1   2.0000     -88.969367     -2420.9796
   2   2.0000     -88.967960     -2420.9413
   3   2.0000     -88.964194     -2420.8388
   4   2.0000     -88.963992     -2420.8333
   5   2.0000     -88.962678     -2420.7975
   6   2.0000     -88.960669     -2420.7429
   7   2.0000     -88.954687     -2420.5801
   8   2.0000     -62.551513     -1702.1132
   9   2.0000     -56.385447     -1534.3260
  10   2.0000     -56.382764     -1534.2530
  11   2.0000     -56.382720     -1534.2518
  12   2.0000     -19.193781      -522.2893
  13   2.0000     -14.479928      -394.0189
  14   2.0000     -14.402238      -391.9048
  15   2.0000     -14.395664      -391.7259
  16   2.0000     -14.393033      -391.6543
  17   2.0000     -10.348214      -281.5892
  18   2.0000     -10.344455      -281.4869
  19   2.0000     -10.344045      -281.4758
  20   2.0000     -10.333365      -281.1852
  21   2.0000     -10.326054      -280.9862
  22   2.0000     -10.321408      -280.8598
  23   2.0000     -10.320296      -280.8295
  24   2.0000     -10.319965      -280.8205
  25   2.0000     -10.319562      -280.8096
  26   2.0000     -10.317992      -280.7668
  27   2.0000     -10.317302      -280.7481
  28   2.0000     -10.316443      -280.7247
  29   2.0000     -10.315285      -280.6932
  30   2.0000     -10.313382      -280.6414
  31   2.0000     -10.311364      -280.5865
  32   2.0000     -10.311067      -280.5784
  33   2.0000     -10.310621      -280.5663
  34   2.0000     -10.310592      -280.5655
  35   2.0000     -10.308464      -280.5076
  36   2.0000     -10.308176      -280.4997
  37   2.0000     -10.304058      -280.3877
  38   2.0000     -10.300666      -280.2954
  39   2.0000     -10.300043      -280.2784
  40   2.0000     -10.297834      -280.2183
  41   2.0000     -10.297447      -280.2078
  42   2.0000     -10.297212      -280.2014
  43   2.0000     -10.296434      -280.1802
  44   2.0000     -10.291357      -280.0421
  45   2.0000     -10.290544      -280.0199
  46   2.0000     -10.290417      -280.0165
  47   2.0000     -10.288625      -279.9677
  48   2.0000     -10.286838      -279.9191
  49   2.0000     -10.286576      -279.9120
  50   2.0000     -10.282977      -279.8140
  51   2.0000     -10.282935      -279.8129
  52   2.0000     -10.275661      -279.6150
  53   2.0000     -10.274004      -279.5699
  54   2.0000     -10.272334      -279.5244
  55   2.0000     -10.271321      -279.4968
  56   2.0000     -10.269726      -279.4534
  57   2.0000     -10.269166      -279.4382
  58   2.0000     -10.268480      -279.4195
  59   2.0000     -10.266499      -279.3656
  60   2.0000     -10.265920      -279.3499
  61   2.0000     -10.265450      -279.3371
  62   2.0000     -10.265230      -279.3311
  63   2.0000     -10.264769      -279.3186
  64   2.0000     -10.264234      -279.3040
  65   2.0000     -10.264072      -279.2996
  66   2.0000     -10.263301      -279.2786
  67   2.0000     -10.263245      -279.2771
  68   2.0000     -10.262730      -279.2631
  69   2.0000     -10.262513      -279.2572
  70   2.0000     -10.262428      -279.2549
  71   2.0000     -10.259938      -279.1871
  72   2.0000     -10.259235      -279.1680
  73   2.0000     -10.256648      -279.0976
  74   2.0000     -10.248542      -278.8770
  75   2.0000     -10.242568      -278.7144
  76   2.0000      -8.780936      -238.9414
  77   2.0000      -8.064657      -219.4505
  78   2.0000      -8.063221      -219.4114
  79   2.0000      -8.059825      -219.3190
  80   2.0000      -8.059392      -219.3072
  81   2.0000      -8.057550      -219.2571
  82   2.0000      -8.056688      -219.2336
  83   2.0000      -8.050712      -219.0710
  84   2.0000      -6.617178      -180.0626
  85   2.0000      -6.602676      -179.6679
  86   2.0000      -6.602543      -179.6643
  87   2.0000      -6.034204      -164.1991
  88   2.0000      -6.032932      -164.1644
  89   2.0000      -6.030245      -164.0913
  90   2.0000      -6.029514      -164.0714
  91   2.0000      -6.029147      -164.0614
  92   2.0000      -6.028780      -164.0514
  93   2.0000      -6.027063      -164.0047
  94   2.0000      -6.026380      -163.9861
  95   2.0000      -6.026100      -163.9785
  96   2.0000      -6.025359      -163.9584
  97   2.0000      -6.025301      -163.9568
  98   2.0000      -6.024526      -163.9357
  99   2.0000      -6.022914      -163.8918
 100   2.0000      -6.022123      -163.8703
 101   2.0000      -6.020984      -163.8393
 102   2.0000      -6.020287      -163.8204
 103   2.0000      -6.020287      -163.8203
 104   2.0000      -6.019372      -163.7954
 105   2.0000      -6.017895      -163.7552
 106   2.0000      -6.016251      -163.7105
 107   2.0000      -6.011936      -163.5931
 108   2.0000      -2.733037       -74.3697
 109   2.0000      -2.728998       -74.2598
 110   2.0000      -2.728871       -74.2564
 111   2.0000      -2.717368       -73.9433
 112   2.0000      -2.717345       -73.9427
 113   2.0000      -1.123604       -30.5748
 114   2.0000      -1.106900       -30.1203
 115   2.0000      -1.026259       -27.9259
 116   2.0000      -1.009190       -27.4615
 117   2.0000      -1.004772       -27.3412
 118   2.0000      -0.994072       -27.0501
 119   2.0000      -0.992766       -27.0145
 120   2.0000      -0.984978       -26.8026
 121   2.0000      -0.982465       -26.7342
 122   2.0000      -0.981124       -26.6977
 123   2.0000      -0.973563       -26.4920
 124   2.0000      -0.970691       -26.4138
 125   2.0000      -0.969226       -26.3740
 126   2.0000      -0.939877       -25.5754
 127   2.0000      -0.934195       -25.4207
 128   2.0000      -0.925751       -25.1910
 129   2.0000      -0.914438       -24.8831
 130   2.0000      -0.906359       -24.6633
 131   2.0000      -0.892003       -24.2726
 132   2.0000      -0.890636       -24.2354
 133   2.0000      -0.889015       -24.1913
 134   2.0000      -0.877372       -23.8745
 135   2.0000      -0.870672       -23.6922
 136   2.0000      -0.868259       -23.6265
 137   2.0000      -0.861163       -23.4334
 138   2.0000      -0.858039       -23.3484
 139   2.0000      -0.847300       -23.0562
 140   2.0000      -0.845204       -22.9992
 141   2.0000      -0.834394       -22.7050
 142   2.0000      -0.833780       -22.6883
 143   2.0000      -0.832642       -22.6573
 144   2.0000      -0.830006       -22.5856
 145   2.0000      -0.827962       -22.5300
 146   2.0000      -0.825820       -22.4717
 147   2.0000      -0.816806       -22.2264
 148   2.0000      -0.812225       -22.1018
 149   2.0000      -0.803466       -21.8634
 150   2.0000      -0.791698       -21.5432
 151   2.0000      -0.784334       -21.3428
 152   2.0000      -0.768322       -20.9071
 153   2.0000      -0.759216       -20.6593
 154   2.0000      -0.751364       -20.4456
 155   2.0000      -0.739191       -20.1144
 156   2.0000      -0.732167       -19.9233
 157   2.0000      -0.723694       -19.6927
 158   2.0000      -0.713459       -19.4142
 159   2.0000      -0.711840       -19.3702
 160   2.0000      -0.703974       -19.1561
 161   2.0000      -0.698715       -19.0130
 162   2.0000      -0.689974       -18.7752
 163   2.0000      -0.684427       -18.6242
 164   2.0000      -0.682679       -18.5766
 165   2.0000      -0.679007       -18.4767
 166   2.0000      -0.671633       -18.2761
 167   2.0000      -0.666720       -18.1424
 168   2.0000      -0.664625       -18.0854
 169   2.0000      -0.659927       -17.9575
 170   2.0000      -0.652142       -17.7457
 171   2.0000      -0.650303       -17.6956
 172   2.0000      -0.644558       -17.5393
 173   2.0000      -0.640278       -17.4229
 174   2.0000      -0.638669       -17.3791
 175   2.0000      -0.633342       -17.2341
 176   2.0000      -0.627601       -17.0779
 177   2.0000      -0.621410       -16.9094
 178   2.0000      -0.614182       -16.7127
 179   2.0000      -0.606963       -16.5163
 180   2.0000      -0.605097       -16.4655
 181   2.0000      -0.603913       -16.4333
 182   2.0000      -0.588223       -16.0064
 183   2.0000      -0.585501       -15.9323
 184   2.0000      -0.581988       -15.8367
 185   2.0000      -0.577980       -15.7276
 186   2.0000      -0.575196       -15.6519
 187   2.0000      -0.572991       -15.5919
 188   2.0000      -0.565035       -15.3754
 189   2.0000      -0.558893       -15.2083
 190   2.0000      -0.553459       -15.0604
 191   2.0000      -0.549412       -14.9503
 192   2.0000      -0.543030       -14.7766
 193   2.0000      -0.540467       -14.7069
 194   2.0000      -0.538148       -14.6438
 195   2.0000      -0.536390       -14.5959
 196   2.0000      -0.535467       -14.5708
 197   2.0000      -0.528459       -14.3801
 198   2.0000      -0.526535       -14.3278
 199   2.0000      -0.525095       -14.2886
 200   2.0000      -0.524379       -14.2691
 201   2.0000      -0.519878       -14.1466
 202   2.0000      -0.519545       -14.1375
 203   2.0000      -0.516706       -14.0603
 204   2.0000      -0.515000       -14.0139
 205   2.0000      -0.513206       -13.9650
 206   2.0000      -0.511852       -13.9282
 207   2.0000      -0.510119       -13.8810
 208   2.0000      -0.509681       -13.8691
 209   2.0000      -0.505949       -13.7676
 210   2.0000      -0.502944       -13.6858
 211   2.0000      -0.497686       -13.5427
 212   2.0000      -0.495253       -13.4765
 213   2.0000      -0.492174       -13.3927
 214   2.0000      -0.491778       -13.3820
 215   2.0000      -0.490113       -13.3367
 216   2.0000      -0.487538       -13.2666
 217   2.0000      -0.484109       -13.1733
 218   2.0000      -0.483116       -13.1463
 219   2.0000      -0.477893       -13.0041
 220   2.0000      -0.475458       -12.9379
 221   2.0000      -0.474131       -12.9018
 222   2.0000      -0.473027       -12.8717
 223   2.0000      -0.471315       -12.8251
 224   2.0000      -0.469472       -12.7750
 225   2.0000      -0.466956       -12.7065
 226   2.0000      -0.466629       -12.6976
 227   2.0000      -0.461430       -12.5561
 228   2.0000      -0.456899       -12.4329
 229   2.0000      -0.454431       -12.3657
 230   2.0000      -0.454003       -12.3541
 231   2.0000      -0.452474       -12.3124
 232   2.0000      -0.445427       -12.1207
 233   2.0000      -0.445010       -12.1094
 234   2.0000      -0.444020       -12.0824
 235   2.0000      -0.441841       -12.0231
 236   2.0000      -0.438579       -11.9344
 237   2.0000      -0.436476       -11.8771
 238   2.0000      -0.435275       -11.8444
 239   2.0000      -0.433801       -11.8043
 240   2.0000      -0.432844       -11.7783
 241   2.0000      -0.431371       -11.7382
 242   2.0000      -0.429858       -11.6970
 243   2.0000      -0.427152       -11.6234
 244   2.0000      -0.425415       -11.5761
 245   2.0000      -0.424681       -11.5561
 246   2.0000      -0.422358       -11.4929
 247   2.0000      -0.421285       -11.4637
 248   2.0000      -0.416739       -11.3400
 249   2.0000      -0.411714       -11.2033
 250   2.0000      -0.411139       -11.1877
 251   2.0000      -0.409175       -11.1342
 252   2.0000      -0.408468       -11.1150
 253   2.0000      -0.407313       -11.0836
 254   2.0000      -0.406831       -11.0704
 255   2.0000      -0.403767       -10.9871
 256   2.0000      -0.398866       -10.8537
 257   2.0000      -0.393944       -10.7198
 258   2.0000      -0.393499       -10.7076
 259   2.0000      -0.387601       -10.5471
 260   2.0000      -0.383756       -10.4425
 261   2.0000      -0.379973       -10.3396
 262   2.0000      -0.379677       -10.3315
 263   2.0000      -0.374355       -10.1867
 264   2.0000      -0.370703       -10.0874
 265   2.0000      -0.363542        -9.8925
 266   2.0000      -0.362874        -9.8743
 267   2.0000      -0.356851        -9.7104
 268   2.0000      -0.355272        -9.6674
 269   2.0000      -0.348652        -9.4873
 270   2.0000      -0.342744        -9.3265
 271   2.0000      -0.341731        -9.2990
 272   2.0000      -0.331943        -9.0326
 273   2.0000      -0.322373        -8.7722
 274   2.0000      -0.314499        -8.5580
 275   2.0000      -0.314373        -8.5545
 276   2.0000      -0.310895        -8.4599
 277   2.0000      -0.308379        -8.3914
 278   2.0000      -0.304737        -8.2923
 279   2.0000      -0.298847        -8.1320
 280   2.0000      -0.291817        -7.9407
 281   2.0000      -0.282714        -7.6930
 282   2.0000      -0.276312        -7.5188
 283   2.0000      -0.261367        -7.1122
 284   2.0000      -0.231527        -6.3002
 285   2.0000      -0.211812        -5.7637
 286   0.0000      -0.107307        -2.9200
 287   0.0000      -0.062778        -1.7083
 288   0.0000      -0.050277        -1.3681
 289   0.0000      -0.035275        -0.9599
 290   0.0000      -0.012979        -0.3532

MULLIKEN ATOMIC CHARGES
-----------------------
   0 C :    0.333794
   1 C :   -0.369164
   2 C :   -0.189693
   3 N :    0.130542
   4 C :   -0.188533
   5 N :    0.123162
   6 C :    0.013407
   7 C :   -0.011692
   8 C :   -0.079426
   9 C :    0.121266
  10 C :   -0.092254
  11 C :   -0.027075
  12 S :    0.176487
  13 C :   -0.123696
  14 C :    0.034996
  15 Br:    0.011009
  16 C :    0.136486
  17 O :   -0.168323
  18 C :   -0.094311
  19 C :   -0.036793
  20 C :   -0.028366
  21 C :    0.005076
  22 C :    0.023308
  23 C :    0.043036
  24 C :   -0.055375
  25 S :    0.110647
  26 C :   -0.019282
  27 C :    0.018876
  28 C :    0.049315
  29 C :   -0.050976
  30 S :    0.091580
  31 C :    0.059851
  32 C :   -0.107779
  33 S :    0.145713
  34 C :   -0.064269
  35 C :   -0.044574
  36 C :   -0.020880
  37 S :    0.167840
  38 C :   -0.023187
  39 C :   -0.076474
  40 C :   -0.022026
  41 S :    0.146096
  42 C :   -0.080024
  43 C :   -0.198882
  44 S :    0.136226
  45 C :   -0.181846
  46 C :    0.046202
  47 C :    0.134641
  48 N :   -0.067443
  49 C :    0.126895
  50 N :   -0.088884
  51 C :    0.059888
  52 C :   -0.028368
  53 C :    0.125551
  54 C :   -0.084580
  55 C :    0.017338
  56 C :    0.098537
  57 C :   -0.044943
  58 C :   -0.021379
  59 C :    0.100153
  60 C :    0.028779
  61 C :   -0.132337
  62 C :    0.049327
  63 C :    0.025288
  64 C :    0.080209
  65 C :    0.030103
  66 C :   -0.114259
  67 C :    0.115828
  68 C :   -0.011222
  69 C :   -0.052309
  70 C :   -0.002538
  71 C :   -0.015842
  72 H :   -0.017825
  73 H :   -0.012384
  74 H :   -0.007891
  75 H :    0.009881
  76 H :    0.014592
  77 H :   -0.002323
  78 H :   -0.008073
  79 H :   -0.008764
  80 H :   -0.004763
  81 H :   -0.005379
  82 H :    0.011329
  83 H :   -0.051595
  84 H :    0.134628
  85 H :    0.019726
  86 H :   -0.037641
  87 H :   -0.003567
  88 H :   -0.045033
  89 H :   -0.037179
  90 H :   -0.023077
  91 H :    0.004940
  92 H :   -0.004430
  93 H :    0.021686
  94 H :    0.007869
  95 H :    0.021439
  96 H :    0.004957
  97 H :   -0.006847
  98 H :    0.020353
  99 H :    0.011218
 100 H :    0.001568
 101 H :   -0.040059
 102 H :   -0.036697
 103 H :   -0.038337
 104 H :   -0.020869
 105 H :    0.010914
 106 H :    0.019187
Sum of atomic charges:   -0.0000000

LOEWDIN ATOMIC CHARGES
----------------------
   0 C :    0.073261
   1 C :   -0.161952
   2 C :   -0.018905
   3 N :   -0.074514
   4 C :   -0.020123
   5 N :   -0.073995
   6 C :   -0.017470
   7 C :   -0.048062
   8 C :    0.015940
   9 C :   -0.036954
  10 C :   -0.146494
  11 C :   -0.014604
  12 S :    0.424728
  13 C :   -0.275955
  14 C :   -0.071001
  15 Br:    0.126961
  16 C :    0.081168
  17 O :   -0.162102
  18 C :   -0.113802
  19 C :    0.048113
  20 C :   -0.077563
  21 C :   -0.103365
  22 C :   -0.046714
  23 C :   -0.008340
  24 C :   -0.198697
  25 S :    0.411226
  26 C :   -0.144168
  27 C :   -0.049791
  28 C :   -0.008312
  29 C :   -0.165400
  30 S :    0.408957
  31 C :   -0.038422
  32 C :   -0.175268
  33 S :    0.424013
  34 C :   -0.201384
  35 C :   -0.192438
  36 C :   -0.051704
  37 S :    0.413101
  38 C :   -0.175794
  39 C :   -0.095776
  40 C :   -0.153960
  41 S :    0.418888
  42 C :   -0.229797
  43 C :   -0.239705
  44 S :    0.435610
  45 C :   -0.162683
  46 C :   -0.061396
  47 C :   -0.018343
  48 N :    0.051326
  49 C :    0.062478
  50 N :   -0.115302
  51 C :   -0.054748
  52 C :    0.005829
  53 C :   -0.027871
  54 C :   -0.016048
  55 C :    0.005958
  56 C :   -0.015302
  57 C :   -0.021302
  58 C :   -0.013880
  59 C :   -0.017764
  60 C :    0.002050
  61 C :   -0.034497
  62 C :   -0.016067
  63 C :   -0.056884
  64 C :   -0.009386
  65 C :   -0.059709
  66 C :   -0.023150
  67 C :   -0.026577
  68 C :   -0.012871
  69 C :   -0.018408
  70 C :   -0.020109
  71 C :   -0.046989
  72 H :    0.037960
  73 H :    0.039407
  74 H :    0.036921
  75 H :    0.030910
  76 H :    0.037797
  77 H :    0.037880
  78 H :    0.034313
  79 H :    0.033685
  80 H :    0.036949
  81 H :    0.038299
  82 H :    0.027326
  83 H :    0.022038
  84 H :    0.090899
  85 H :    0.022908
  86 H :    0.022613
  87 H :    0.033983
  88 H :    0.021067
  89 H :    0.026220
  90 H :    0.028464
  91 H :    0.019222
  92 H :    0.018924
  93 H :    0.026056
  94 H :    0.023117
  95 H :    0.025470
  96 H :    0.026845
  97 H :    0.018758
  98 H :    0.024464
  99 H :    0.026894
 100 H :    0.019250
 101 H :    0.022483
 102 H :    0.024976
 103 H :    0.025814
 104 H :    0.026639
 105 H :    0.018842
 106 H :    0.024818

  Mayer bond orders larger than 0.100000
B(  0-C ,  1-C ) :   1.5679 B(  0-C ,  6-C ) :   0.9849 B(  0-C , 18-C ) :   1.1272
B(  1-C ,  2-C ) :   1.1522 B(  1-C ,  4-C ) :   1.1569 B(  2-C ,  3-N ) :   2.9588
B(  4-C ,  5-N ) :   2.9523 B(  6-C ,  7-C ) :   1.2809 B(  6-C , 11-C ) :   1.4195
B(  7-C ,  8-C ) :   1.4328 B(  7-C , 16-C ) :   0.9337 B(  8-C ,  9-C ) :   1.2350
B(  8-C , 72-H ) :   1.0171 B(  9-C , 10-C ) :   1.3198 B(  9-C , 14-C ) :   1.1578
B( 10-C , 11-C ) :   1.3177 B( 10-C , 12-S ) :   1.0815 B( 11-C , 73-H ) :   0.9804
B( 12-S , 13-C ) :   1.0849 B( 13-C , 14-C ) :   1.6220 B( 13-C , 15-Br) :   1.0109
B( 14-C , 74-H ) :   1.0009 B( 16-C , 17-O ) :   2.1810 B( 16-C , 18-C ) :   0.9726
B( 18-C , 19-C ) :   1.4491 B( 19-C , 20-C ) :   1.2862 B( 19-C , 75-H ) :   0.9446
B( 20-C , 21-C ) :   1.3877 B( 20-C , 76-H ) :   0.9778 B( 21-C , 22-C ) :   1.1975
B( 21-C , 25-S ) :   1.0932 B( 22-C , 23-C ) :   1.5205 B( 22-C , 77-H ) :   1.0020
B( 23-C , 24-C ) :   1.2333 B( 23-C , 78-H ) :   0.9945 B( 24-C , 25-S ) :   1.0450
B( 24-C , 26-C ) :   1.4422 B( 26-C , 27-C ) :   1.2116 B( 26-C , 30-S ) :   1.0844
B( 27-C , 28-C ) :   1.5582 B( 27-C , 79-H ) :   0.9940 B( 28-C , 29-C ) :   1.1688
B( 28-C , 80-H ) :   0.9992 B( 29-C , 30-S ) :   1.0303 B( 29-C , 31-C ) :   1.5678
B( 31-C , 32-C ) :   1.2078 B( 31-C , 81-H ) :   0.9503 B( 32-C , 33-S ) :   1.0600
B( 32-C , 36-C ) :   1.4337 B( 33-S , 34-C ) :   1.0866 B( 34-C , 35-C ) :   1.4148
B( 34-C , 42-C ) :   1.3338 B( 35-C , 36-C ) :   1.3439 B( 35-C , 37-S ) :   1.0453
B( 36-C , 82-H ) :   0.9795 B( 37-S , 38-C ) :   1.0553 B( 38-C , 39-C ) :   1.2814
B( 38-C , 42-C ) :   1.4547 B( 39-C , 40-C ) :   1.4986 B( 39-C , 83-H ) :   0.9958
B( 40-C , 41-S ) :   1.0944 B( 40-C , 43-C ) :   1.1758 B( 41-S , 42-C ) :   1.0485
B( 43-C , 44-S ) :   1.0803 B( 43-C , 45-C ) :   0.1372 B( 43-C , 47-C ) :   1.4571
B( 44-S , 45-C ) :   1.1309 B( 45-C , 46-C ) :   1.3921 B( 45-C , 51-C ) :   1.1457
B( 46-C , 47-C ) :   1.2655 B( 46-C , 50-N ) :   1.3152 B( 47-C , 48-N ) :   1.1795
B( 48-N , 49-C ) :   1.1522 B( 48-N , 84-H ) :   0.9309 B( 49-C , 50-N ) :   1.7225
B( 49-C , 85-H ) :   0.9787 B( 51-C , 52-C ) :   1.6581 B( 51-C , 86-H ) :   0.9494
B( 52-C , 53-C ) :   1.0629 B( 52-C , 87-H ) :   0.9780 B( 53-C , 54-C ) :   1.2927
B( 53-C , 58-C ) :   1.3341 B( 54-C , 55-C ) :   1.4145 B( 54-C , 88-H ) :   0.9958
B( 55-C , 56-C ) :   1.3629 B( 55-C , 61-C ) :   0.9268 B( 56-C , 57-C ) :   1.3432
B( 56-C , 59-C ) :   0.9957 B( 57-C , 58-C ) :   1.3724 B( 57-C , 89-H ) :   0.9904
B( 58-C , 90-H ) :   0.9954 B( 59-C , 60-C ) :   1.3892 B( 59-C , 69-C ) :   1.3320
B( 60-C , 61-C ) :   0.9178 B( 60-C , 66-C ) :   1.3784 B( 61-C , 62-C ) :   1.0328
B( 61-C , 64-C ) :   1.0139 B( 62-C , 63-C ) :   1.1064 B( 62-C , 91-H ) :   0.9377
B( 62-C , 92-H ) :   0.9387 B( 63-C , 93-H ) :   0.9648 B( 63-C , 94-H ) :   0.9644
B( 63-C , 95-H ) :   0.9625 B( 64-C , 65-C ) :   1.1152 B( 64-C , 96-H ) :   0.9386
B( 64-C , 97-H ) :   0.9367 B( 65-C , 98-H ) :   0.9606 B( 65-C , 99-H ) :   0.9597
B( 65-C ,100-H ) :   0.9630 B( 66-C , 67-C ) :   1.3002 B( 66-C ,101-H ) :   1.0041
B( 67-C , 68-C ) :   1.3558 B( 67-C , 70-C ) :   1.0623 B( 68-C , 69-C ) :   1.3961
B( 68-C ,102-H ) :   0.9868 B( 69-C ,103-H ) :   0.9910 B( 70-C , 71-C ) :   1.9493
B( 70-C ,104-H ) :   0.9692 B( 71-C ,105-H ) :   0.9488 B( 71-C ,106-H ) :   0.9483

-----------------------------------------------------------------------------
         ABSORPTION SPECTRUM VIA TRANSITION ELECTRIC DIPOLE MOMENTS
-----------------------------------------------------------------------------
State   Energy  Wavelength   fosc         T2         TX        TY        TZ
        (cm-1)    (nm)                  (au**2)     (au)      (au)      (au)
-----------------------------------------------------------------------------
   0    9956.2   1004.4   1.578575031  52.19705   0.07017   2.91539   6.61004
   1   16772.0    596.2   0.737914044  14.48429   2.51046  -2.00112   2.04387
   2   19740.7    506.6   0.992132696  16.54564   2.01324  -0.44203   3.50672
   3   22132.6    451.8   0.260639375   3.87689   0.93335   0.85107   1.51044
   4   23138.4    432.2   0.349792484   4.97682  -0.96719   0.59111  -1.92144
   5   24449.9    409.0   0.217355417   2.92663   0.07430   1.66801   0.37263
   6   25216.4    396.6   0.459720041   6.00186   0.62525  -2.01844  -1.23969
   7   26046.6    383.9   0.022848826   0.28879  -0.29481   0.17961  -0.41185
   8   26639.6    375.4   0.019709081   0.24356  -0.35456   0.32374  -0.11422
   9   27311.6    366.1   0.000010939   0.00013  -0.00289   0.01111  -0.00002
  10   28263.2    353.8   0.102094797   1.18921   0.42848  -0.99890  -0.08843
  11   28753.2    347.8   0.002703274   0.03095   0.16480  -0.02200   0.05752
  12   29331.7    340.9   0.279498537   3.13702   0.47945   1.00001   1.38099
  13   30146.6    331.7   0.030415499   0.33215  -0.18196   0.42681   0.34187
  14   30809.3    324.6   0.057403490   0.61338  -0.24673   0.74320  -0.01294
  15   31556.6    316.9   0.033703766   0.35161  -0.41121   0.42549   0.03848
  16   32207.3    310.5   0.104447021   1.06762   0.16913   0.90301   0.47285
  17   32299.2    309.6   0.346111576   3.52776  -0.78916   0.84478   1.48032
  18   33416.3    299.3   0.142670119   1.40556  -0.08432  -0.41188  -1.10852
  19   33725.6    296.5   0.173257799   1.69125   0.05095  -1.00387  -0.82516
  20   33851.6    295.4   0.020403532   0.19843  -0.12441  -0.42370   0.05858
  21   34145.0    292.9   0.004224043   0.04073  -0.12903   0.12447   0.09265
  22   34585.8    289.1   0.004997592   0.04757  -0.01003  -0.01847  -0.21709
  23   34776.5    287.6   0.005719851   0.05415   0.08771  -0.10121   0.19029
  24   34986.1    285.8   0.080713645   0.75950   0.17387   0.60119   0.60650
  25   35650.0    280.5   0.043603979   0.40266  -0.00256  -0.47658  -0.41896
  26   36133.0    276.8   0.055518420   0.50583  -0.57345   0.39288   0.15046
  27   36266.7    275.7   0.138175312   1.25429  -0.31000   0.20399  -1.05668
  28   36615.7    273.1   0.012491280   0.11231   0.06449   0.29491   0.14553
  29   37088.4    269.6   0.081068956   0.71960   0.51460  -0.21197   0.64020
  30   37309.9    268.0   0.027201302   0.24002  -0.23701   0.25055  -0.34795
  31   37470.8    266.9   0.008977479   0.07887  -0.07284   0.05740  -0.26509
  32   38336.3    260.8   0.002895174   0.02486  -0.00281  -0.14643  -0.05842
  33   38484.9    259.8   0.039435764   0.33735   0.13077  -0.33441   0.45653
  34   38587.0    259.2   0.033373082   0.28473  -0.07822   0.33196  -0.41038
  35   39104.1    255.7   0.181558257   1.52851  -0.28702  -0.46673  -1.10829
  36   39393.7    253.8   0.056407433   0.47139   0.09214  -0.49706  -0.46458
  37   39564.7    252.8   0.017906532   0.14900   0.00981   0.03955  -0.38384
  38   39747.1    251.6   0.018255929   0.15121  -0.12534   0.36003  -0.07668
  39   40096.5    249.4   0.153597888   1.26112   0.61959  -0.43429   0.82983

FINAL SINGLE POINT ENERGY     -7920.695525706826

DIPOLE MOMENT
-------------
                                X             Y             Z
Electronic contribution:    -29.18636    -185.26289    -335.18239
Nuclear contribution   :     27.82972     188.01958     336.79520
                        -----------------------------------------
Total Dipole Moment    :     -1.35663       2.75669       1.61281
                        -----------------------------------------
Magnitude (a.u.)       :      3.47001
Magnitude (Debye)      :      8.82007

Rotational constants in cm-1:     0.001211     0.000127     0.000117
Rotational constants in MHz :    36.318395     3.805074     3.517352

                             ****ORCA TERMINATED NORMALLY****
TOTAL RUN TIME: 0 days 0 hours 12 minutes 4 seconds 466 msec
