                         Program Version 4.2.0 -  RELEASE  -
|  1> # ORCA input file
|  2> # SCF done       -191.366325076181          0.000927754759
|  3> ! CAM-B3LYP def2-SVP def2/J RIJCOSX Grid4 TightSCF
|  4> %maxcore 5000
|  5> %tddft
|  6>     Mode sTDDFT
|  7>     Ethresh 5.0
|  8>     maxcore 5000
|  9> end
| 10>
| 11> %pal
| 12>   nprocs 6
| 13>   end
| 14> * xyz 0 1
| 15>    C      -10.81980        -1.41922        -9.13268
| 16>    C      -11.61090        -2.49191        -8.81416
| 17>    C      -12.32576        -3.25856        -9.75718
| 18>    N      -12.92839        -3.91506       -10.48043
| 19>    C      -11.81519        -2.95841        -7.49927
| 20>    N      -12.01031        -3.36639        -6.44430
| 21>    C      -10.59313        -0.89187       -10.47620
| 22>    C       -9.74271         0.24109       -10.39000
| 23>    C       -9.34294         0.95378       -11.49477
| 24>    C       -9.80007         0.52811       -12.74612
| 25>    C      -10.64762        -0.60315       -12.82326
| 26>    C      -11.05439        -1.32228       -11.70499
| 27>    S      -11.09027        -0.95913       -14.46374
| 28>    C      -10.14376         0.39610       -15.01834
| 29>    C       -9.52764         1.08258       -14.02610
| 30>   Br      -10.05685         0.77718       -16.85210
| 31>    C       -9.39310         0.46630        -8.98271
| 32>    O       -8.67875         1.35210        -8.52410
| 33>    C      -10.06384        -0.59183        -8.21980
| 34>    C       -9.91010        -0.70780        -6.86010
| 35>    N       -9.14905         0.16580        -6.19103
| 36>    C       -8.86781         0.15935        -4.86441
| 37>    S       -9.49509        -1.05654        -3.79904
| 38>    C       -8.64502        -0.30719        -2.48503
| 39>    N       -8.77817        -0.89379        -1.21474
| 40>    O       -8.19052        -0.37380        -0.28853
| 41>    O       -9.47965        -1.88628        -1.14766
| 42>    C       -7.92771         0.79886        -2.84478
| 43>    C       -8.04172         1.09469        -4.22007
| 44>    C       -7.43267         2.19074        -4.91056
| 45>    C       -6.54434         3.05956        -4.37897
| 46>    C       -5.96656         4.14585        -5.10735
| 47>    C       -4.98901         4.96295        -4.49175
| 48>    C       -4.37878         6.07626        -5.17367
| 49>    N       -3.54684         6.89871        -4.50745
| 50>    C       -3.22706         6.61667        -3.27415
| 51>    C       -3.74732         5.44122        -2.62869
| 52>    N       -4.62055         4.67636        -3.23047
| 53>    C       -3.33007         5.11717        -1.31335
| 54>    N       -2.96932         4.88549        -0.25131
| 55>    C       -2.37267         7.49560        -2.56121
| 56>    N       -1.68924         8.18607        -1.95534
| 57>    C       -4.67931         6.37680        -6.51303
| 58>    C       -5.63787         5.56836        -7.13797
| 59>    C       -6.28507         4.47636        -6.44231
| 60>    N       -7.15710         3.84979        -7.23788
| 61>    S       -7.14065         4.52944        -8.68638
| 62>    N       -6.04465         5.65845        -8.40885
| 63>    C       -4.04596         7.49008        -7.19543
| 64>    C       -2.68259         7.70921        -7.18229
| 65>    F       -1.86724         6.81664        -6.59913
| 66>    C       -2.07472         8.79872        -7.82464
| 67>    F       -0.73308         8.85095        -7.73238
| 68>    C       -2.77289         9.78126        -8.51720
| 69>    C       -4.18549         9.58011        -8.54621
| 70>    C       -4.80620         8.44835        -7.90511
| 71>    N       -6.13077         8.46179        -8.02658
| 72>    S       -6.55833         9.74667        -8.88728
| 73>    N       -5.09232        10.35961        -9.13100
| 74>    C       -2.15063        10.91554        -9.14936
| 75>    C       -0.76767        11.14145        -9.33073
| 76>    C       -0.59181        12.37603        -9.97549
| 77>    C        0.55975        13.05237       -10.37191
| 78>    C        0.39832        14.28415       -10.98685
| 79>    C        1.33228        15.21114       -11.49467
| 80>    C        0.64384        16.31811       -12.01815
| 81>    C       -0.73279        16.09376       -11.84301
| 82>    C       -0.91676        14.84729       -11.20969
| 83>    C       -2.06416        14.17365       -10.81831
| 84>    C       -1.90435        12.93573       -10.20097
| 85>    C       -2.84005        12.02174        -9.69093
| 86>    C        1.28352        17.46428       -12.62058
| 87>    C        0.65644        18.52457       -13.12213
| 88>    H       -8.69478         1.81073       -11.39816
| 89>    H      -11.69916        -2.17784       -11.81633
| 90>    H       -8.90533         1.94326       -14.18980
| 91>    H      -10.38027        -1.49759        -6.28834
| 92>    H       -8.72503         0.89828        -6.78912
| 93>    H       -7.35421         1.36840        -2.13690
| 94>    H       -7.70813         2.33553        -5.94506
| 95>    H       -6.20439         2.96653        -3.35813
| 96>    H        0.03180        10.48785        -9.04015
| 97>    H        1.54087        12.63199       -10.20184
| 98>    H        2.40087        15.09131       -11.48296
| 99>    H       -1.52353        16.75804       -12.13888
|100>    H       -3.04697        14.59200       -10.98400
|101>    H       -3.90656        12.13634        -9.69967
|102>    H        2.36516        17.42048       -12.64771
|103>    H       -0.41640        18.61284       -13.11753
|104>    H        1.19944        19.34524       -13.55727
|105> *
|106>
|107>                          ****END OF INPUT****

CARTESIAN COORDINATES (ANGSTROEM)
---------------------------------
  C    -10.819800   -1.419220   -9.132680
  C    -11.610900   -2.491910   -8.814160
  C    -12.325760   -3.258560   -9.757180
  N    -12.928390   -3.915060  -10.480430
  C    -11.815190   -2.958410   -7.499270
  N    -12.010310   -3.366390   -6.444300
  C    -10.593130   -0.891870  -10.476200
  C     -9.742710    0.241090  -10.390000
  C     -9.342940    0.953780  -11.494770
  C     -9.800070    0.528110  -12.746120
  C    -10.647620   -0.603150  -12.823260
  C    -11.054390   -1.322280  -11.704990
  S    -11.090270   -0.959130  -14.463740
  C    -10.143760    0.396100  -15.018340
  C     -9.527640    1.082580  -14.026100
  Br   -10.056850    0.777180  -16.852100
  C     -9.393100    0.466300   -8.982710
  O     -8.678750    1.352100   -8.524100
  C    -10.063840   -0.591830   -8.219800
  C     -9.910100   -0.707800   -6.860100
  N     -9.149050    0.165800   -6.191030
  C     -8.867810    0.159350   -4.864410
  S     -9.495090   -1.056540   -3.799040
  C     -8.645020   -0.307190   -2.485030
  N     -8.778170   -0.893790   -1.214740
  O     -8.190520   -0.373800   -0.288530
  O     -9.479650   -1.886280   -1.147660
  C     -7.927710    0.798860   -2.844780
  C     -8.041720    1.094690   -4.220070
  C     -7.432670    2.190740   -4.910560
  C     -6.544340    3.059560   -4.378970
  C     -5.966560    4.145850   -5.107350
  C     -4.989010    4.962950   -4.491750
  C     -4.378780    6.076260   -5.173670
  N     -3.546840    6.898710   -4.507450
  C     -3.227060    6.616670   -3.274150
  C     -3.747320    5.441220   -2.628690
  N     -4.620550    4.676360   -3.230470
  C     -3.330070    5.117170   -1.313350
  N     -2.969320    4.885490   -0.251310
  C     -2.372670    7.495600   -2.561210
  N     -1.689240    8.186070   -1.955340
  C     -4.679310    6.376800   -6.513030
  C     -5.637870    5.568360   -7.137970
  C     -6.285070    4.476360   -6.442310
  N     -7.157100    3.849790   -7.237880
  S     -7.140650    4.529440   -8.686380
  N     -6.044650    5.658450   -8.408850
  C     -4.045960    7.490080   -7.195430
  C     -2.682590    7.709210   -7.182290
  F     -1.867240    6.816640   -6.599130
  C     -2.074720    8.798720   -7.824640
  F     -0.733080    8.850950   -7.732380
  C     -2.772890    9.781260   -8.517200
  C     -4.185490    9.580110   -8.546210
  C     -4.806200    8.448350   -7.905110
  N     -6.130770    8.461790   -8.026580
  S     -6.558330    9.746670   -8.887280
  N     -5.092320   10.359610   -9.131000
  C     -2.150630   10.915540   -9.149360
  C     -0.767670   11.141450   -9.330730
  C     -0.591810   12.376030   -9.975490
  C      0.559750   13.052370  -10.371910
  C      0.398320   14.284150  -10.986850
  C      1.332280   15.211140  -11.494670
  C      0.643840   16.318110  -12.018150
  C     -0.732790   16.093760  -11.843010
  C     -0.916760   14.847290  -11.209690
  C     -2.064160   14.173650  -10.818310
  C     -1.904350   12.935730  -10.200970
  C     -2.840050   12.021740   -9.690930
  C      1.283520   17.464280  -12.620580
  C      0.656440   18.524570  -13.122130
  H     -8.694780    1.810730  -11.398160
  H    -11.699160   -2.177840  -11.816330
  H     -8.905330    1.943260  -14.189800
  H    -10.380270   -1.497590   -6.288340
  H     -8.725030    0.898280   -6.789120
  H     -7.354210    1.368400   -2.136900
  H     -7.708130    2.335530   -5.945060
  H     -6.204390    2.966530   -3.358130
  H      0.031800   10.487850   -9.040150
  H      1.540870   12.631990  -10.201840
  H      2.400870   15.091310  -11.482960
  H     -1.523530   16.758040  -12.138880
  H     -3.046970   14.592000  -10.984000
  H     -3.906560   12.136340   -9.699670
  H      2.365160   17.420480  -12.647710
  H     -0.416400   18.612840  -13.117530
  H      1.199440   19.345240  -13.557270

 Total Charge           Charge          ....    0
 Multiplicity           Mult            ....    1
 Number of Electrons    NEL             ....  548
 Basis Dimension        Dim             .... 1141

ORBITAL ENERGIES
----------------

  NO   OCC          E(Eh)            E(eV)
   0   2.0000    -482.895441    -13140.2530
   1   2.0000     -89.052139     -2423.2319
   2   2.0000     -89.028592     -2422.5912
   3   2.0000     -88.998234     -2421.7651
   4   2.0000     -88.987591     -2421.4754
   5   2.0000     -62.573138     -1702.7017
   6   2.0000     -56.407104     -1534.9153
   7   2.0000     -56.404361     -1534.8407
   8   2.0000     -56.404334     -1534.8400
   9   2.0000     -24.801455      -674.8819
  10   2.0000     -24.799002      -674.8152
  11   2.0000     -19.245217      -523.6890
  12   2.0000     -19.244907      -523.6805
  13   2.0000     -19.244519      -523.6700
  14   2.0000     -14.656813      -398.8322
  15   2.0000     -14.506550      -394.7433
  16   2.0000     -14.466173      -393.6446
  17   2.0000     -14.462845      -393.5540
  18   2.0000     -14.457298      -393.4031
  19   2.0000     -14.456545      -393.3826
  20   2.0000     -14.444447      -393.0534
  21   2.0000     -14.441920      -392.9846
  22   2.0000     -14.430284      -392.6680
  23   2.0000     -14.429836      -392.6558
  24   2.0000     -14.428271      -392.6132
  25   2.0000     -14.423833      -392.4924
  26   2.0000     -10.390729      -282.7461
  27   2.0000     -10.385507      -282.6040
  28   2.0000     -10.383686      -282.5545
  29   2.0000     -10.383357      -282.5455
  30   2.0000     -10.381937      -282.5069
  31   2.0000     -10.379894      -282.4513
  32   2.0000     -10.376470      -282.3581
  33   2.0000     -10.370212      -282.1878
  34   2.0000     -10.356199      -281.8065
  35   2.0000     -10.355429      -281.7855
  36   2.0000     -10.352315      -281.7008
  37   2.0000     -10.351089      -281.6674
  38   2.0000     -10.350311      -281.6463
  39   2.0000     -10.347386      -281.5667
  40   2.0000     -10.346184      -281.5340
  41   2.0000     -10.338346      -281.3207
  42   2.0000     -10.334490      -281.2158
  43   2.0000     -10.333742      -281.1954
  44   2.0000     -10.330365      -281.1035
  45   2.0000     -10.326805      -281.0066
  46   2.0000     -10.323979      -280.9298
  47   2.0000     -10.323427      -280.9147
  48   2.0000     -10.322896      -280.9003
  49   2.0000     -10.322488      -280.8892
  50   2.0000     -10.322099      -280.8786
  51   2.0000     -10.320480      -280.8345
  52   2.0000     -10.319186      -280.7993
  53   2.0000     -10.318570      -280.7826
  54   2.0000     -10.317308      -280.7482
  55   2.0000     -10.314792      -280.6798
  56   2.0000     -10.314660      -280.6762
  57   2.0000     -10.309999      -280.5493
  58   2.0000     -10.309412      -280.5334
  59   2.0000     -10.308842      -280.5179
  60   2.0000     -10.308835      -280.5177
  61   2.0000     -10.308361      -280.5048
  62   2.0000     -10.308014      -280.4953
  63   2.0000     -10.301157      -280.3087
  64   2.0000     -10.295652      -280.1589
  65   2.0000     -10.287875      -279.9473
  66   2.0000     -10.286851      -279.9195
  67   2.0000     -10.284962      -279.8681
  68   2.0000     -10.283253      -279.8216
  69   2.0000     -10.279224      -279.7119
  70   2.0000     -10.270304      -279.4692
  71   2.0000     -10.269347      -279.4431
  72   2.0000     -10.266202      -279.3575
  73   2.0000     -10.264936      -279.3231
  74   2.0000     -10.263077      -279.2725
  75   2.0000     -10.262842      -279.2661
  76   2.0000     -10.258223      -279.1404
  77   2.0000      -8.802562      -239.5299
  78   2.0000      -8.143168      -221.5869
  79   2.0000      -8.120465      -220.9691
  80   2.0000      -8.093468      -220.2345
  81   2.0000      -8.083532      -219.9641
  82   2.0000      -6.638929      -180.6544
  83   2.0000      -6.624275      -180.2557
  84   2.0000      -6.624040      -180.2493
  85   2.0000      -6.114111      -166.3734
  86   2.0000      -6.106358      -166.1624
  87   2.0000      -6.106231      -166.1590
  88   2.0000      -6.091778      -165.7657
  89   2.0000      -6.083979      -165.5535
  90   2.0000      -6.082697      -165.5186
  91   2.0000      -6.063089      -164.9850
  92   2.0000      -6.058733      -164.8665
  93   2.0000      -6.054948      -164.7635
  94   2.0000      -6.053190      -164.7157
  95   2.0000      -6.048923      -164.5996
  96   2.0000      -6.044807      -164.4876
  97   2.0000      -2.754776       -74.9613
  98   2.0000      -2.750685       -74.8500
  99   2.0000      -2.750518       -74.8454
 100   2.0000      -2.738860       -74.5282
 101   2.0000      -2.738858       -74.5281
 102   2.0000      -1.327527       -36.1238
 103   2.0000      -1.323770       -36.0216
 104   2.0000      -1.305102       -35.5136
 105   2.0000      -1.158869       -31.5344
 106   2.0000      -1.147488       -31.2247
 107   2.0000      -1.147025       -31.2121
 108   2.0000      -1.130853       -30.7721
 109   2.0000      -1.123133       -30.5620
 110   2.0000      -1.113926       -30.3115
 111   2.0000      -1.050003       -28.5720
 112   2.0000      -1.035912       -28.1886
 113   2.0000      -1.025092       -27.8942
 114   2.0000      -1.018554       -27.7163
 115   2.0000      -1.015055       -27.6211
 116   2.0000      -1.005616       -27.3642
 117   2.0000      -1.005562       -27.3627
 118   2.0000      -1.001944       -27.2643
 119   2.0000      -1.001662       -27.2566
 120   2.0000      -0.993243       -27.0275
 121   2.0000      -0.990057       -26.9408
 122   2.0000      -0.982845       -26.7446
 123   2.0000      -0.971491       -26.4356
 124   2.0000      -0.960033       -26.1238
 125   2.0000      -0.954547       -25.9745
 126   2.0000      -0.932718       -25.3805
 127   2.0000      -0.921254       -25.0686
 128   2.0000      -0.916005       -24.9258
 129   2.0000      -0.910186       -24.7674
 130   2.0000      -0.904024       -24.5997
 131   2.0000      -0.899066       -24.4648
 132   2.0000      -0.896349       -24.3909
 133   2.0000      -0.887025       -24.1372
 134   2.0000      -0.869505       -23.6604
 135   2.0000      -0.867777       -23.6134
 136   2.0000      -0.864382       -23.5210
 137   2.0000      -0.861072       -23.4310
 138   2.0000      -0.851066       -23.1587
 139   2.0000      -0.842524       -22.9262
 140   2.0000      -0.838582       -22.8190
 141   2.0000      -0.834782       -22.7156
 142   2.0000      -0.807254       -21.9665
 143   2.0000      -0.802861       -21.8470
 144   2.0000      -0.800097       -21.7718
 145   2.0000      -0.787157       -21.4196
 146   2.0000      -0.775701       -21.1079
 147   2.0000      -0.767465       -20.8838
 148   2.0000      -0.758236       -20.6327
 149   2.0000      -0.750927       -20.4338
 150   2.0000      -0.746963       -20.3259
 151   2.0000      -0.741016       -20.1641
 152   2.0000      -0.732607       -19.9353
 153   2.0000      -0.724476       -19.7140
 154   2.0000      -0.719279       -19.5726
 155   2.0000      -0.713276       -19.4092
 156   2.0000      -0.707538       -19.2531
 157   2.0000      -0.703170       -19.1342
 158   2.0000      -0.694485       -18.8979
 159   2.0000      -0.687966       -18.7205
 160   2.0000      -0.678823       -18.4717
 161   2.0000      -0.672432       -18.2978
 162   2.0000      -0.671073       -18.2608
 163   2.0000      -0.668834       -18.1999
 164   2.0000      -0.658178       -17.9099
 165   2.0000      -0.653839       -17.7919
 166   2.0000      -0.650070       -17.6893
 167   2.0000      -0.643762       -17.5177
 168   2.0000      -0.641834       -17.4652
 169   2.0000      -0.638410       -17.3720
 170   2.0000      -0.636158       -17.3107
 171   2.0000      -0.635224       -17.2853
 172   2.0000      -0.633302       -17.2330
 173   2.0000      -0.631201       -17.1759
 174   2.0000      -0.629116       -17.1191
 175   2.0000      -0.623835       -16.9754
 176   2.0000      -0.615291       -16.7429
 177   2.0000      -0.613169       -16.6852
 178   2.0000      -0.606586       -16.5060
 179   2.0000      -0.601784       -16.3754
 180   2.0000      -0.591757       -16.1025
 181   2.0000      -0.588513       -16.0142
 182   2.0000      -0.583847       -15.8873
 183   2.0000      -0.582376       -15.8473
 184   2.0000      -0.581737       -15.8299
 185   2.0000      -0.578230       -15.7344
 186   2.0000      -0.572652       -15.5827
 187   2.0000      -0.569070       -15.4852
 188   2.0000      -0.564754       -15.3677
 189   2.0000      -0.561789       -15.2871
 190   2.0000      -0.560736       -15.2584
 191   2.0000      -0.558904       -15.2086
 192   2.0000      -0.551200       -14.9989
 193   2.0000      -0.550571       -14.9818
 194   2.0000      -0.549349       -14.9485
 195   2.0000      -0.547285       -14.8924
 196   2.0000      -0.546130       -14.8609
 197   2.0000      -0.545323       -14.8390
 198   2.0000      -0.541398       -14.7322
 199   2.0000      -0.536347       -14.5947
 200   2.0000      -0.535559       -14.5733
 201   2.0000      -0.531394       -14.4600
 202   2.0000      -0.523621       -14.2484
 203   2.0000      -0.520728       -14.1697
 204   2.0000      -0.517819       -14.0906
 205   2.0000      -0.510248       -13.8846
 206   2.0000      -0.509613       -13.8673
 207   2.0000      -0.503841       -13.7102
 208   2.0000      -0.502461       -13.6727
 209   2.0000      -0.499985       -13.6053
 210   2.0000      -0.497475       -13.5370
 211   2.0000      -0.493448       -13.4274
 212   2.0000      -0.490829       -13.3561
 213   2.0000      -0.488979       -13.3058
 214   2.0000      -0.488699       -13.2982
 215   2.0000      -0.483907       -13.1678
 216   2.0000      -0.481833       -13.1113
 217   2.0000      -0.478681       -13.0256
 218   2.0000      -0.477685       -12.9985
 219   2.0000      -0.475571       -12.9409
 220   2.0000      -0.471610       -12.8332
 221   2.0000      -0.468729       -12.7548
 222   2.0000      -0.465099       -12.6560
 223   2.0000      -0.462752       -12.5921
 224   2.0000      -0.462066       -12.5735
 225   2.0000      -0.461501       -12.5581
 226   2.0000      -0.458870       -12.4865
 227   2.0000      -0.455872       -12.4049
 228   2.0000      -0.453917       -12.3517
 229   2.0000      -0.453664       -12.3448
 230   2.0000      -0.451815       -12.2945
 231   2.0000      -0.451315       -12.2809
 232   2.0000      -0.446758       -12.1569
 233   2.0000      -0.444487       -12.0951
 234   2.0000      -0.443809       -12.0766
 235   2.0000      -0.439170       -11.9504
 236   2.0000      -0.438014       -11.9190
 237   2.0000      -0.437889       -11.9156
 238   2.0000      -0.432479       -11.7684
 239   2.0000      -0.427187       -11.6244
 240   2.0000      -0.424100       -11.5403
 241   2.0000      -0.423403       -11.5214
 242   2.0000      -0.420800       -11.4505
 243   2.0000      -0.419909       -11.4263
 244   2.0000      -0.417338       -11.3563
 245   2.0000      -0.416886       -11.3441
 246   2.0000      -0.412858       -11.2344
 247   2.0000      -0.409211       -11.1352
 248   2.0000      -0.404587       -11.0094
 249   2.0000      -0.401099       -10.9145
 250   2.0000      -0.400805       -10.9065
 251   2.0000      -0.392033       -10.6678
 252   2.0000      -0.384984       -10.4759
 253   2.0000      -0.384778       -10.4703
 254   2.0000      -0.384249       -10.4559
 255   2.0000      -0.382596       -10.4110
 256   2.0000      -0.382132       -10.3984
 257   2.0000      -0.374055       -10.1786
 258   2.0000      -0.369329       -10.0499
 259   2.0000      -0.367527       -10.0009
 260   2.0000      -0.366980        -9.9860
 261   2.0000      -0.363059        -9.8793
 262   2.0000      -0.352431        -9.5901
 263   2.0000      -0.350075        -9.5260
 264   2.0000      -0.346582        -9.4310
 265   2.0000      -0.340110        -9.2549
 266   2.0000      -0.330171        -8.9844
 267   2.0000      -0.329542        -8.9673
 268   2.0000      -0.310722        -8.4552
 269   2.0000      -0.305308        -8.3079
 270   2.0000      -0.295378        -8.0376
 271   2.0000      -0.268326        -7.3015
 272   2.0000      -0.267343        -7.2748
 273   2.0000      -0.238782        -6.4976
 274   0.0000      -0.125329        -3.4104
 275   0.0000      -0.103028        -2.8035
 276   0.0000      -0.096068        -2.6141
 277   0.0000      -0.078806        -2.1444
 278   0.0000      -0.069317        -1.8862

MULLIKEN ATOMIC CHARGES
-----------------------
   0 C :    0.324939
   1 C :   -0.341371
   2 C :   -0.187182
   3 N :    0.157278
   4 C :   -0.196870
   5 N :    0.149702
   6 C :    0.009671
   7 C :   -0.003465
   8 C :   -0.067388
   9 C :    0.115931
  10 C :   -0.092744
  11 C :   -0.017099
  12 S :    0.195676
  13 C :   -0.123843
  14 C :    0.039114
  15 Br:    0.030922
  16 C :    0.164908
  17 O :   -0.222672
  18 C :   -0.123374
  19 C :    0.023148
  20 N :   -0.006326
  21 C :   -0.113645
  22 S :    0.180933
  23 C :    0.010759
  24 N :    0.272345
  25 O :   -0.237471
  26 O :   -0.253046
  27 C :    0.010434
  28 C :    0.140330
  29 C :   -0.024118
  30 C :   -0.072399
  31 C :    0.088289
  32 C :   -0.050185
  33 C :   -0.061918
  34 N :    0.069261
  35 C :   -0.140346
  36 C :   -0.139331
  37 N :    0.051074
  38 C :   -0.205111
  39 N :    0.238563
  40 C :   -0.200659
  41 N :    0.239848
  42 C :    0.072252
  43 C :    0.012701
  44 C :    0.024800
  45 N :   -0.301560
  46 S :    0.560870
  47 N :   -0.258406
  48 C :   -0.092767
  49 C :    0.192105
  50 F :   -0.165735
  51 C :    0.108888
  52 F :   -0.177889
  53 C :    0.170033
  54 C :   -0.026423
  55 C :    0.042104
  56 N :   -0.268467
  57 S :    0.503973
  58 N :   -0.292333
  59 C :   -0.053400
  60 C :   -0.025111
  61 C :    0.050791
  62 C :    0.004777
  63 C :    0.051807
  64 C :   -0.019391
  65 C :    0.053644
  66 C :   -0.010470
  67 C :    0.038166
  68 C :    0.008015
  69 C :    0.058373
  70 C :   -0.020157
  71 C :    0.009703
  72 C :   -0.023815
  73 H :   -0.019291
  74 H :   -0.003381
  75 H :   -0.002805
  76 H :    0.048421
  77 H :    0.188963
  78 H :    0.022572
  79 H :    0.016495
  80 H :   -0.007634
  81 H :   -0.011003
  82 H :   -0.021788
  83 H :   -0.021897
  84 H :   -0.024342
  85 H :   -0.022347
  86 H :   -0.009711
  87 H :   -0.019281
  88 H :    0.007331
  89 H :    0.020057
Sum of atomic charges:   -0.0000000

LOEWDIN ATOMIC CHARGES
----------------------
   0 C :    0.077921
   1 C :   -0.145282
   2 C :   -0.020211
   3 N :   -0.049965
   4 C :   -0.020975
   5 N :   -0.049265
   6 C :   -0.017875
   7 C :   -0.052426
   8 C :    0.021915
   9 C :   -0.033522
  10 C :   -0.143123
  11 C :   -0.005977
  12 S :    0.441038
  13 C :   -0.270187
  14 C :   -0.071027
  15 Br:    0.142443
  16 C :    0.095254
  17 O :   -0.180052
  18 C :   -0.144175
  19 C :    0.112183
  20 N :    0.081779
  21 C :   -0.107112
  22 S :    0.477155
  23 C :   -0.196090
  24 N :    0.272181
  25 O :   -0.204229
  26 O :   -0.220099
  27 C :    0.008435
  28 C :   -0.087060
  29 C :   -0.001640
  30 C :   -0.018796
  31 C :   -0.009883
  32 C :   -0.009259
  33 C :   -0.005891
  34 N :    0.007468
  35 C :   -0.025449
  36 C :   -0.028707
  37 N :    0.002142
  38 C :   -0.037973
  39 N :   -0.002504
  40 C :   -0.035019
  41 N :   -0.002284
  42 C :   -0.009612
  43 C :   -0.035729
  44 C :   -0.037419
  45 N :   -0.281456
  46 S :    0.694861
  47 N :   -0.268764
  48 C :   -0.068873
  49 C :    0.089427
  50 F :   -0.043404
  51 C :    0.057320
  52 F :   -0.047374
  53 C :   -0.028141
  54 C :   -0.041599
  55 C :   -0.038268
  56 N :   -0.282906
  57 S :    0.634925
  58 N :   -0.281356
  59 C :   -0.081201
  60 C :    0.051579
  61 C :   -0.081104
  62 C :    0.092895
  63 C :   -0.076903
  64 C :    0.040715
  65 C :   -0.070269
  66 C :    0.049730
  67 C :   -0.074170
  68 C :    0.095751
  69 C :   -0.080692
  70 C :    0.057306
  71 C :   -0.022957
  72 C :   -0.054343
  73 H :    0.037800
  74 H :    0.042683
  75 H :    0.038875
  76 H :    0.036823
  77 H :    0.090444
  78 H :    0.049705
  79 H :    0.027379
  80 H :    0.031010
  81 H :    0.024902
  82 H :    0.036521
  83 H :    0.025892
  84 H :    0.025211
  85 H :    0.036332
  86 H :    0.024204
  87 H :    0.028435
  88 H :    0.017744
  89 H :    0.024216

  Mayer bond orders larger than 0.100000
B(  0-C ,  1-C ) :   1.6316 B(  0-C ,  6-C ) :   1.0045 B(  0-C , 18-C ) :   1.0953
B(  1-C ,  2-C ) :   1.1430 B(  1-C ,  4-C ) :   1.1486 B(  2-C ,  3-N ) :   2.9704
B(  4-C ,  5-N ) :   2.9544 B(  6-C ,  7-C ) :   1.2745 B(  6-C , 11-C ) :   1.4238
B(  7-C ,  8-C ) :   1.4207 B(  7-C , 16-C ) :   0.9802 B(  8-C ,  9-C ) :   1.2451
B(  8-C , 73-H ) :   1.0167 B(  9-C , 10-C ) :   1.3074 B(  9-C , 14-C ) :   1.1651
B( 10-C , 11-C ) :   1.3205 B( 10-C , 12-S ) :   1.0923 B( 11-C , 74-H ) :   0.9802
B( 12-S , 13-C ) :   1.0895 B( 13-C , 14-C ) :   1.6144 B( 13-C , 15-Br) :   1.0227
B( 14-C , 75-H ) :   1.0001 B( 16-C , 17-O ) :   2.0372 B( 16-C , 18-C ) :   1.0019
B( 17-O , 77-H ) :   0.1381 B( 18-C , 19-C ) :   1.4614 B( 19-C , 20-N ) :   1.3358
B( 19-C , 76-H ) :   0.9301 B( 20-N , 21-C ) :   1.1982 B( 20-N , 77-H ) :   0.8248
B( 21-C , 22-S ) :   1.1407 B( 21-C , 28-C ) :   1.3629 B( 22-S , 23-C ) :   1.0803
B( 23-C , 24-N ) :   0.9555 B( 23-C , 27-C ) :   1.5137 B( 24-N , 25-O ) :   1.5439
B( 24-N , 26-O ) :   1.5176 B( 25-O , 26-O ) :   0.2658 B( 27-C , 28-C ) :   1.2057
B( 27-C , 78-H ) :   1.0031 B( 28-C , 29-C ) :   1.0706 B( 29-C , 30-C ) :   1.6417
B( 29-C , 79-H ) :   0.9456 B( 30-C , 31-C ) :   1.1895 B( 30-C , 80-H ) :   0.9636
B( 31-C , 32-C ) :   1.2433 B( 31-C , 42-C ) :   0.1399 B( 31-C , 44-C ) :   1.1730
B( 32-C , 33-C ) :   1.1028 B( 32-C , 37-N ) :   1.4326 B( 33-C , 34-N ) :   1.4219
B( 33-C , 42-C ) :   1.3537 B( 34-N , 35-C ) :   1.7610 B( 35-C , 36-C ) :   1.1851
B( 35-C , 40-C ) :   1.1490 B( 36-C , 37-N ) :   1.7599 B( 36-C , 38-C ) :   1.1451
B( 38-C , 39-N ) :   3.0508 B( 40-C , 41-N ) :   3.0524 B( 42-C , 43-C ) :   1.2997
B( 42-C , 48-C ) :   0.9282 B( 43-C , 44-C ) :   1.1056 B( 43-C , 47-N ) :   1.4881
B( 44-C , 45-N ) :   1.4725 B( 45-N , 46-S ) :   1.2855 B( 45-N , 47-N ) :   0.1562
B( 46-S , 47-N ) :   1.3095 B( 48-C , 49-C ) :   1.4420 B( 48-C , 53-C ) :   0.1339
B( 48-C , 55-C ) :   1.2405 B( 49-C , 50-F ) :   1.1737 B( 49-C , 51-C ) :   1.1334
B( 51-C , 52-F ) :   1.1189 B( 51-C , 53-C ) :   1.3756 B( 53-C , 54-C ) :   1.1636
B( 53-C , 59-C ) :   1.0621 B( 54-C , 55-C ) :   1.1371 B( 54-C , 58-N ) :   1.5429
B( 55-C , 56-N ) :   1.5449 B( 56-N , 57-S ) :   1.2600 B( 56-N , 58-N ) :   0.1459
B( 57-S , 58-N ) :   1.2561 B( 59-C , 60-C ) :   1.2925 B( 59-C , 70-C ) :   1.3415
B( 60-C , 61-C ) :   1.2505 B( 60-C , 81-H ) :   1.0109 B( 61-C , 62-C ) :   1.2377
B( 61-C , 69-C ) :   1.1651 B( 62-C , 63-C ) :   1.3064 B( 62-C , 82-H ) :   1.0063
B( 63-C , 64-C ) :   1.2052 B( 63-C , 67-C ) :   1.1523 B( 64-C , 65-C ) :   1.3395
B( 64-C , 83-H ) :   1.0154 B( 65-C , 66-C ) :   1.3098 B( 65-C , 71-C ) :   1.0762
B( 66-C , 67-C ) :   1.2506 B( 66-C , 84-H ) :   1.0090 B( 67-C , 68-C ) :   1.2714
B( 68-C , 69-C ) :   1.2690 B( 68-C , 85-H ) :   1.0060 B( 69-C , 70-C ) :   1.2037
B( 70-C , 86-H ) :   1.0012 B( 71-C , 72-C ) :   1.9460 B( 71-C , 87-H ) :   0.9662
B( 72-C , 88-H ) :   0.9528 B( 72-C , 89-H ) :   0.9485

-----------------------------------------------------------------------------
         ABSORPTION SPECTRUM VIA TRANSITION ELECTRIC DIPOLE MOMENTS
-----------------------------------------------------------------------------
State   Energy  Wavelength   fosc         T2         TX        TY        TZ
        (cm-1)    (nm)                  (au**2)     (au)      (au)      (au)
-----------------------------------------------------------------------------
   0    6854.8   1458.8   0.000327437   0.01573   0.11247   0.04879  -0.02637
   1   11617.2    860.8   0.573567603  16.25388  -1.96588  -3.31292   1.18901
   2   16144.7    619.4   0.133704497   2.72641  -0.99311  -1.09848  -0.73040
   3   20256.9    493.7   0.001452773   0.02361  -0.10258  -0.07570  -0.08578
   4   20934.6    477.7   0.385404196   6.06076  -1.37033  -2.03558   0.19848
   5   21444.1    466.3   0.464108394   7.12505  -0.80482  -0.43472  -2.50765
   6   22105.6    452.4   0.655662394   9.76456   1.12488   2.36579  -1.70359
   7   23066.5    433.5   0.111119140   1.58593  -0.63680  -1.08278   0.08948
   8   24259.4    412.2   0.035786360   0.48564   0.69683   0.00032   0.00775
   9   24386.4    410.1   0.035933301   0.48509   0.01170   0.18466  -0.67146
  10   24850.6    402.4   0.203703890   2.69860  -0.35910  -0.04471  -1.60239
  11   25410.0    393.5   0.008264635   0.10708   0.07704   0.20366   0.24426
  12   26835.0    372.6   0.008551008   0.10490   0.31453  -0.07693  -0.00758
  13   26960.0    370.9   0.000339200   0.00414  -0.03076   0.00549   0.05627
  14   27013.3    370.2   0.011349062   0.13831  -0.13527  -0.23121   0.25798
  15   27256.6    366.9   0.006307373   0.07618  -0.20578  -0.07840  -0.16640
  16   27692.4    361.1   0.011400380   0.13553  -0.10265  -0.14770  -0.32121
  17   28244.3    354.1   0.122030208   1.42237  -0.19233  -0.41913   1.09987
  18   28310.1    353.2   0.073205769   0.85129   0.50094   0.53948  -0.55615
  19   28485.3    351.1   0.102439243   1.18392   0.33299   0.89092  -0.52849
  20   28851.0    346.6   0.028468378   0.32485  -0.52526   0.20351  -0.08679
  21   29551.3    338.4   0.059828408   0.66651   0.53823   0.60243  -0.11786
  22   30018.7    333.1   0.429736966   4.71288   0.20780   0.62105  -2.06978
  23   30234.9    330.7   0.213629965   2.32610  -0.33681   0.31207  -1.45440
  24   30620.7    326.6   0.172222568   1.85162  -0.83830  -1.02311  -0.31955
  25   30977.6    322.8   0.041568963   0.44177   0.18144  -0.02706   0.63884
  26   31013.6    322.4   0.041436902   0.43986   0.16145  -0.02513   0.64277
  27   31125.5    321.3   0.151871533   1.60634  -0.00175   0.24677  -1.24316
  28   32129.4    311.2   0.009512856   0.09747  -0.18518  -0.12457  -0.21832
  29   32674.3    306.1   0.348368349   3.51001  -0.72705  -1.07339   1.35249
  30   32885.9    304.1   0.003847895   0.03852   0.01140  -0.02413  -0.19444
  31   33087.1    302.2   0.331519373   3.29857  -0.63580  -1.33766   1.05118
  32   33171.0    301.5   0.015587883   0.15470   0.30880   0.17140  -0.17312
  33   33722.3    296.5   0.589091110   5.75097   1.28799   1.93569  -0.58751
  34   33889.7    295.1   0.627278415   6.09352   1.26580   2.07385  -0.43636
  35   34178.1    292.6   0.893242675   8.60395  -1.52071  -0.85551  -2.35786
  36   34424.8    290.5   0.001295905   0.01239   0.04234   0.09188  -0.04647
  37   34478.1    290.0   0.499476998   4.76923  -0.55260  -1.59552   1.38499
  38   34779.0    287.5   0.238312659   2.25582   0.65213   1.01702  -0.89231
  39   34961.6    286.0   0.003584010   0.03375  -0.00025   0.08673  -0.16195
  40   35108.9    284.8   0.079973089   0.74990   0.24557   0.76158  -0.33105
  41   35213.4    284.0   0.092938969   0.86889  -0.12952   0.37053  -0.84547
  42   35550.7    281.3   0.016816232   0.15572  -0.15499  -0.33156   0.14754
  43   35789.3    279.4   0.036176054   0.33277   0.31519   0.47382  -0.09443
  44   35904.3    278.5   0.034125614   0.31290   0.04155  -0.09382   0.54989
  45   36202.3    276.2   0.047470618   0.43168  -0.21763  -0.13154  -0.60582
  46   36664.8    272.7   0.025062959   0.22504   0.08409   0.23671  -0.40242
  47   36696.9    272.5   0.000498609   0.00447  -0.06086  -0.02740  -0.00429
  48   37131.9    269.3   0.000126598   0.00112  -0.00544   0.03288  -0.00343
  49   37557.5    266.3   0.000354741   0.00311   0.02645   0.01064   0.04792
  50   38049.5    262.8   0.001366054   0.01182   0.08406   0.01573   0.06712
  51   38221.9    261.6   0.040482009   0.34868   0.53739  -0.01137   0.24447
  52   38400.7    260.4   0.158848897   1.36182  -0.30322  -0.21589  -1.10602
  53   38624.9    258.9   0.053750147   0.45813   0.18345   0.11144   0.64191
  54   38928.9    256.9   0.095741595   0.80966   0.86042  -0.13840   0.22401
  55   39104.8    255.7   0.011814438   0.09946   0.20734  -0.23751   0.00778
  56   39160.6    255.4   0.051865558   0.43602   0.17506   0.63392  -0.05932
  57   39188.8    255.2   0.092864653   0.78013  -0.78362   0.33365  -0.23396
  58   39309.2    254.4   0.064135841   0.53713  -0.45559  -0.37801  -0.43206
  59   39630.5    252.3   0.081298231   0.67535   0.60477   0.15152   0.53538
  60   39713.7    251.8   0.139543527   1.15676   0.01260   0.84225  -0.66874
  61   40172.2    248.9   0.012590013   0.10318   0.23654   0.21090   0.05239

FINAL SINGLE POINT ENERGY     -7198.254607469838

DIPOLE MOMENT
-------------
                                X             Y             Z
Electronic contribution:    -59.72424     -88.63218     -61.16295
Nuclear contribution   :     59.63133      91.19677      55.95011
                        -----------------------------------------
Total Dipole Moment    :     -0.09291       2.56460      -5.21284
                        -----------------------------------------
Magnitude (a.u.)       :      5.81029
Magnitude (Debye)      :     14.76859

Rotational constants in cm-1:     0.000793     0.000333     0.000241
Rotational constants in MHz :    23.763554     9.992365     7.213877

                             ****ORCA TERMINATED NORMALLY****
TOTAL RUN TIME: 0 days 0 hours 21 minutes 8 seconds 335 msec
