                         Program Version 4.2.0 -  RELEASE  -
|  1> # ORCA input file
|  2> # SCF done       -155.685331732501          0.000843421870
|  3> ! CAM-B3LYP def2-SVP def2/J RIJCOSX Grid4 TightSCF
|  4> %maxcore 5000
|  5> %tddft
|  6>     Mode sTDDFT
|  7>     Ethresh 5.0
|  8>     maxcore 5000
|  9> end
| 10>
| 11> %pal
| 12>   nprocs 6
| 13>   end
| 14> * xyz 0 1
| 15>    C        0.24940         3.72336         1.27339
| 16>    N        1.03497         3.31924         2.20530
| 17>    C        1.77738         2.28855         1.76791
| 18>    C        1.55468         1.88419         0.44760
| 19>    S        0.33591         2.87489        -0.25803
| 20>    N        2.28929         0.85977         0.00292
| 21>    C        3.09452         0.42992         0.92247
| 22>    S        2.99117         1.30265         2.47668
| 23>    C        4.01295        -0.66273         0.74816
| 24>    C        4.86104        -1.05616         1.79135
| 25>    C        5.72521        -2.10559         1.59476
| 26>    C        5.78777        -2.74425         0.34191
| 27>    C        4.94553        -2.36067        -0.69394
| 28>    C        4.05548        -1.32903        -0.48317
| 29>    C        6.84984        -3.72358         0.37771
| 30>    C        7.44117        -3.69923         1.65350
| 31>    C        6.72095        -2.71677         2.55388
| 32>    C        6.01425        -3.53345         3.66139
| 33>    C        5.04488        -2.75043         4.53614
| 34>    C        7.67406        -1.66880         3.14731
| 35>    C        8.46877        -0.93237         2.07504
| 36>    C        8.51691        -4.49960         1.94462
| 37>    C        9.05078        -5.33474         0.94696
| 38>    C        8.43966        -5.35078        -0.31875
| 39>    C        7.34596        -4.56509        -0.60908
| 40>    C       10.22243        -6.13892         1.14930
| 41>    C       10.88659        -6.34795         2.31560
| 42>    C       12.08237        -7.08878         2.38724
| 43>    C       12.78504        -7.33852         3.53521
| 44>    C       14.03419        -8.00240         3.63928
| 45>    C       14.51992        -8.09305         4.90555
| 46>    C       13.67168        -7.52699         5.88732
| 47>    S       12.24196        -6.85036         5.13640
| 48>    C       13.87161        -7.49698         7.25046
| 49>    C       14.99984        -7.94432         7.97657
| 50>    C       14.89886        -7.79285         9.32365
| 51>    C       13.66797        -7.23037         9.75207
| 52>    S       12.65837        -6.86653         8.34983
| 53>    C       13.26485        -7.01157        11.03458
| 54>    N       12.02922        -6.53296        11.34660
| 55>    C       11.54042        -6.30919        12.58059
| 56>    S       12.53181        -6.50998        13.99122
| 57>    C       11.17454        -6.06556        14.98746
| 58>    N       11.37874        -6.04672        16.36374
| 59>    O       10.43978        -5.73878        17.07926
| 60>    O       12.49942        -6.34521        16.75417
| 61>    C       10.04075        -5.78751        14.27238
| 62>    C       10.21913        -5.91852        12.88341
| 63>    C        9.21339        -5.71803        11.88637
| 64>    C        7.90899        -5.45879        12.12488
| 65>    C        6.97228        -5.30246        11.06758
| 66>    N        7.25497        -5.35001         9.79788
| 67>    C        6.15279        -5.18849         9.06300
| 68>    C        4.95013        -5.00911         9.75991
| 69>    S        5.25031        -5.04511        11.45021
| 70>    N        3.84828        -4.85692         9.00785
| 71>    C        4.15060        -4.91173         7.76157
| 72>    S        5.84383        -5.15405         7.36950
| 73>    H       -0.43605         4.53712         1.39765
| 74>    H        4.83215        -0.51536         2.72538
| 75>    H        4.99119        -2.85626        -1.65179
| 76>    H        3.38603        -1.00319        -1.26311
| 77>    H        6.78553        -3.97854         4.29377
| 78>    H        5.47006        -4.35122         3.18174
| 79>    H        5.53393        -1.90764         5.01620
| 80>    H        4.66203        -3.40279         5.31664
| 81>    H        4.20167        -2.38667         3.95577
| 82>    H        8.36250        -2.16680         3.83314
| 83>    H        7.09560        -0.94345         3.72029
| 84>    H        9.08275        -1.62624         1.50516
| 85>    H        9.12078        -0.19241         2.53300
| 86>    H        7.79984        -0.42201         1.38566
| 87>    H        8.97263        -4.46828         2.92191
| 88>    H        8.84727        -5.99869        -1.08161
| 89>    H        6.89373        -4.59267        -1.58898
| 90>    H       10.61488        -6.61652         0.25899
| 91>    H       10.51692        -5.93499         3.24435
| 92>    H       12.49803        -7.47145         1.46364
| 93>    H       14.53505        -8.38323         2.76655
| 94>    H       15.45324        -8.55970         5.16465
| 95>    H       15.85810        -8.35966         7.47999
| 96>    H       15.65820        -8.07493        10.03038
| 97>    H       13.92066        -7.23471        11.86234
| 98>    H       11.40620        -6.35947        10.56389
| 99>    H        9.12489        -5.49709        14.75227
|100>    H        9.50638        -5.79072        10.84790
|101>    H        7.51389        -5.37854        13.12534
|102>    H        3.42315        -4.82160         6.98001
|103> *
|104>
|105>                          ****END OF INPUT****

CARTESIAN COORDINATES (ANGSTROEM)
---------------------------------
  C      0.249400    3.723360    1.273390
  N      1.034970    3.319240    2.205300
  C      1.777380    2.288550    1.767910
  C      1.554680    1.884190    0.447600
  S      0.335910    2.874890   -0.258030
  N      2.289290    0.859770    0.002920
  C      3.094520    0.429920    0.922470
  S      2.991170    1.302650    2.476680
  C      4.012950   -0.662730    0.748160
  C      4.861040   -1.056160    1.791350
  C      5.725210   -2.105590    1.594760
  C      5.787770   -2.744250    0.341910
  C      4.945530   -2.360670   -0.693940
  C      4.055480   -1.329030   -0.483170
  C      6.849840   -3.723580    0.377710
  C      7.441170   -3.699230    1.653500
  C      6.720950   -2.716770    2.553880
  C      6.014250   -3.533450    3.661390
  C      5.044880   -2.750430    4.536140
  C      7.674060   -1.668800    3.147310
  C      8.468770   -0.932370    2.075040
  C      8.516910   -4.499600    1.944620
  C      9.050780   -5.334740    0.946960
  C      8.439660   -5.350780   -0.318750
  C      7.345960   -4.565090   -0.609080
  C     10.222430   -6.138920    1.149300
  C     10.886590   -6.347950    2.315600
  C     12.082370   -7.088780    2.387240
  C     12.785040   -7.338520    3.535210
  C     14.034190   -8.002400    3.639280
  C     14.519920   -8.093050    4.905550
  C     13.671680   -7.526990    5.887320
  S     12.241960   -6.850360    5.136400
  C     13.871610   -7.496980    7.250460
  C     14.999840   -7.944320    7.976570
  C     14.898860   -7.792850    9.323650
  C     13.667970   -7.230370    9.752070
  S     12.658370   -6.866530    8.349830
  C     13.264850   -7.011570   11.034580
  N     12.029220   -6.532960   11.346600
  C     11.540420   -6.309190   12.580590
  S     12.531810   -6.509980   13.991220
  C     11.174540   -6.065560   14.987460
  N     11.378740   -6.046720   16.363740
  O     10.439780   -5.738780   17.079260
  O     12.499420   -6.345210   16.754170
  C     10.040750   -5.787510   14.272380
  C     10.219130   -5.918520   12.883410
  C      9.213390   -5.718030   11.886370
  C      7.908990   -5.458790   12.124880
  C      6.972280   -5.302460   11.067580
  N      7.254970   -5.350010    9.797880
  C      6.152790   -5.188490    9.063000
  C      4.950130   -5.009110    9.759910
  S      5.250310   -5.045110   11.450210
  N      3.848280   -4.856920    9.007850
  C      4.150600   -4.911730    7.761570
  S      5.843830   -5.154050    7.369500
  H     -0.436050    4.537120    1.397650
  H      4.832150   -0.515360    2.725380
  H      4.991190   -2.856260   -1.651790
  H      3.386030   -1.003190   -1.263110
  H      6.785530   -3.978540    4.293770
  H      5.470060   -4.351220    3.181740
  H      5.533930   -1.907640    5.016200
  H      4.662030   -3.402790    5.316640
  H      4.201670   -2.386670    3.955770
  H      8.362500   -2.166800    3.833140
  H      7.095600   -0.943450    3.720290
  H      9.082750   -1.626240    1.505160
  H      9.120780   -0.192410    2.533000
  H      7.799840   -0.422010    1.385660
  H      8.972630   -4.468280    2.921910
  H      8.847270   -5.998690   -1.081610
  H      6.893730   -4.592670   -1.588980
  H     10.614880   -6.616520    0.258990
  H     10.516920   -5.934990    3.244350
  H     12.498030   -7.471450    1.463640
  H     14.535050   -8.383230    2.766550
  H     15.453240   -8.559700    5.164650
  H     15.858100   -8.359660    7.479990
  H     15.658200   -8.074930   10.030380
  H     13.920660   -7.234710   11.862340
  H     11.406200   -6.359470   10.563890
  H      9.124890   -5.497090   14.752270
  H      9.506380   -5.790720   10.847900
  H      7.513890   -5.378540   13.125340
  H      3.423150   -4.821600    6.980010

 Total Charge           Charge          ....    0
 Multiplicity           Mult            ....    1
 Number of Electrons    NEL             ....  458
 Basis Dimension        Dim             ....  990

ORBITAL ENERGIES
----------------

  NO   OCC          E(Eh)            E(eV)
   0   2.0000     -88.983025     -2421.3512
   1   2.0000     -88.968629     -2420.9595
   2   2.0000     -88.966332     -2420.8970
   3   2.0000     -88.963103     -2420.8091
   4   2.0000     -88.961272     -2420.7593
   5   2.0000     -88.952840     -2420.5298
   6   2.0000     -88.944880     -2420.3132
   7   2.0000     -19.229694      -523.2666
   8   2.0000     -19.229091      -523.2502
   9   2.0000     -14.641274      -398.4093
  10   2.0000     -14.491344      -394.3295
  11   2.0000     -14.421089      -392.4178
  12   2.0000     -14.418520      -392.3479
  13   2.0000     -14.416823      -392.3017
  14   2.0000     -14.414165      -392.2294
  15   2.0000     -10.372109      -282.2394
  16   2.0000     -10.345016      -281.5022
  17   2.0000     -10.339939      -281.3640
  18   2.0000     -10.337168      -281.2887
  19   2.0000     -10.335707      -281.2489
  20   2.0000     -10.335526      -281.2440
  21   2.0000     -10.331181      -281.1257
  22   2.0000     -10.328002      -281.0392
  23   2.0000     -10.324074      -280.9323
  24   2.0000     -10.322143      -280.8798
  25   2.0000     -10.319473      -280.8071
  26   2.0000     -10.314841      -280.6811
  27   2.0000     -10.314756      -280.6788
  28   2.0000     -10.311970      -280.6030
  29   2.0000     -10.308073      -280.4969
  30   2.0000     -10.305916      -280.4382
  31   2.0000     -10.299687      -280.2687
  32   2.0000     -10.297921      -280.2207
  33   2.0000     -10.292317      -280.0682
  34   2.0000     -10.291284      -280.0401
  35   2.0000     -10.288892      -279.9750
  36   2.0000     -10.288609      -279.9673
  37   2.0000     -10.285815      -279.8913
  38   2.0000     -10.283949      -279.8405
  39   2.0000     -10.280404      -279.7440
  40   2.0000     -10.279104      -279.7086
  41   2.0000     -10.278341      -279.6879
  42   2.0000     -10.276755      -279.6447
  43   2.0000     -10.275603      -279.6134
  44   2.0000     -10.274883      -279.5938
  45   2.0000     -10.274499      -279.5833
  46   2.0000     -10.272281      -279.5230
  47   2.0000     -10.271915      -279.5130
  48   2.0000     -10.271609      -279.5047
  49   2.0000     -10.270941      -279.4865
  50   2.0000     -10.270755      -279.4815
  51   2.0000     -10.269695      -279.4526
  52   2.0000     -10.269663      -279.4517
  53   2.0000     -10.269087      -279.4361
  54   2.0000     -10.265602      -279.3412
  55   2.0000     -10.263708      -279.2897
  56   2.0000     -10.254258      -279.0326
  57   2.0000     -10.246700      -278.8269
  58   2.0000      -8.078440      -219.8255
  59   2.0000      -8.064640      -219.4500
  60   2.0000      -8.062363      -219.3880
  61   2.0000      -8.059597      -219.3128
  62   2.0000      -8.056982      -219.2416
  63   2.0000      -8.049247      -219.0312
  64   2.0000      -8.041050      -218.8081
  65   2.0000      -6.048200      -164.5799
  66   2.0000      -6.043815      -164.4606
  67   2.0000      -6.039676      -164.3479
  68   2.0000      -6.033645      -164.1838
  69   2.0000      -6.031396      -164.1226
  70   2.0000      -6.029947      -164.0832
  71   2.0000      -6.028619      -164.0471
  72   2.0000      -6.027852      -164.0262
  73   2.0000      -6.026707      -163.9950
  74   2.0000      -6.026048      -163.9771
  75   2.0000      -6.024875      -163.9452
  76   2.0000      -6.024224      -163.9275
  77   2.0000      -6.022493      -163.8804
  78   2.0000      -6.021600      -163.8561
  79   2.0000      -6.019117      -163.7885
  80   2.0000      -6.018844      -163.7811
  81   2.0000      -6.015199      -163.6819
  82   2.0000      -6.010782      -163.5617
  83   2.0000      -6.009815      -163.5354
  84   2.0000      -6.006917      -163.4565
  85   2.0000      -6.001863      -163.3190
  86   2.0000      -1.308760       -35.6132
  87   2.0000      -1.127827       -30.6897
  88   2.0000      -1.098257       -29.8851
  89   2.0000      -1.090959       -29.6865
  90   2.0000      -1.086701       -29.5706
  91   2.0000      -1.048989       -28.5444
  92   2.0000      -1.045111       -28.4389
  93   2.0000      -1.004836       -27.3430
  94   2.0000      -0.994995       -27.0752
  95   2.0000      -0.988727       -26.9046
  96   2.0000      -0.973940       -26.5023
  97   2.0000      -0.947412       -25.7804
  98   2.0000      -0.924964       -25.1695
  99   2.0000      -0.922556       -25.1040
 100   2.0000      -0.911790       -24.8111
 101   2.0000      -0.906447       -24.6657
 102   2.0000      -0.904675       -24.6175
 103   2.0000      -0.894001       -24.3270
 104   2.0000      -0.882572       -24.0160
 105   2.0000      -0.876945       -23.8629
 106   2.0000      -0.873954       -23.7815
 107   2.0000      -0.868814       -23.6416
 108   2.0000      -0.857725       -23.3399
 109   2.0000      -0.850425       -23.1412
 110   2.0000      -0.847605       -23.0645
 111   2.0000      -0.839223       -22.8364
 112   2.0000      -0.835280       -22.7291
 113   2.0000      -0.832086       -22.6422
 114   2.0000      -0.825785       -22.4708
 115   2.0000      -0.821822       -22.3629
 116   2.0000      -0.807735       -21.9796
 117   2.0000      -0.799572       -21.7574
 118   2.0000      -0.784277       -21.3413
 119   2.0000      -0.766633       -20.8611
 120   2.0000      -0.764191       -20.7947
 121   2.0000      -0.748068       -20.3560
 122   2.0000      -0.735270       -20.0077
 123   2.0000      -0.724781       -19.7223
 124   2.0000      -0.710052       -19.3215
 125   2.0000      -0.707936       -19.2639
 126   2.0000      -0.697406       -18.9774
 127   2.0000      -0.692692       -18.8491
 128   2.0000      -0.684881       -18.6366
 129   2.0000      -0.683887       -18.6095
 130   2.0000      -0.672840       -18.3089
 131   2.0000      -0.665818       -18.1178
 132   2.0000      -0.661006       -17.9869
 133   2.0000      -0.658320       -17.9138
 134   2.0000      -0.653331       -17.7780
 135   2.0000      -0.648417       -17.6443
 136   2.0000      -0.644133       -17.5278
 137   2.0000      -0.636099       -17.3091
 138   2.0000      -0.633130       -17.2283
 139   2.0000      -0.623132       -16.9563
 140   2.0000      -0.622491       -16.9388
 141   2.0000      -0.621396       -16.9090
 142   2.0000      -0.619554       -16.8589
 143   2.0000      -0.616492       -16.7756
 144   2.0000      -0.608238       -16.5510
 145   2.0000      -0.592969       -16.1355
 146   2.0000      -0.591637       -16.0992
 147   2.0000      -0.582917       -15.8620
 148   2.0000      -0.574918       -15.6443
 149   2.0000      -0.572800       -15.5867
 150   2.0000      -0.570769       -15.5314
 151   2.0000      -0.565821       -15.3968
 152   2.0000      -0.550082       -14.9685
 153   2.0000      -0.546531       -14.8719
 154   2.0000      -0.545647       -14.8478
 155   2.0000      -0.543008       -14.7760
 156   2.0000      -0.542084       -14.7509
 157   2.0000      -0.538791       -14.6613
 158   2.0000      -0.536665       -14.6034
 159   2.0000      -0.535497       -14.5716
 160   2.0000      -0.531233       -14.4556
 161   2.0000      -0.526905       -14.3378
 162   2.0000      -0.525055       -14.2875
 163   2.0000      -0.523283       -14.2392
 164   2.0000      -0.519770       -14.1437
 165   2.0000      -0.516864       -14.0646
 166   2.0000      -0.515927       -14.0391
 167   2.0000      -0.511521       -13.9192
 168   2.0000      -0.509139       -13.8544
 169   2.0000      -0.501596       -13.6491
 170   2.0000      -0.499624       -13.5955
 171   2.0000      -0.499440       -13.5905
 172   2.0000      -0.496004       -13.4970
 173   2.0000      -0.494985       -13.4692
 174   2.0000      -0.490008       -13.3338
 175   2.0000      -0.481275       -13.0962
 176   2.0000      -0.480697       -13.0804
 177   2.0000      -0.478206       -13.0127
 178   2.0000      -0.476870       -12.9763
 179   2.0000      -0.474450       -12.9104
 180   2.0000      -0.470488       -12.8026
 181   2.0000      -0.469557       -12.7773
 182   2.0000      -0.467958       -12.7338
 183   2.0000      -0.465669       -12.6715
 184   2.0000      -0.459085       -12.4923
 185   2.0000      -0.452691       -12.3183
 186   2.0000      -0.450290       -12.2530
 187   2.0000      -0.448475       -12.2036
 188   2.0000      -0.447484       -12.1767
 189   2.0000      -0.441501       -12.0138
 190   2.0000      -0.438682       -11.9371
 191   2.0000      -0.438463       -11.9312
 192   2.0000      -0.435520       -11.8511
 193   2.0000      -0.429228       -11.6799
 194   2.0000      -0.427143       -11.6231
 195   2.0000      -0.423700       -11.5295
 196   2.0000      -0.422787       -11.5046
 197   2.0000      -0.414901       -11.2900
 198   2.0000      -0.413130       -11.2418
 199   2.0000      -0.407694       -11.0939
 200   2.0000      -0.402629       -10.9561
 201   2.0000      -0.402461       -10.9515
 202   2.0000      -0.395520       -10.7627
 203   2.0000      -0.390666       -10.6306
 204   2.0000      -0.388528       -10.5724
 205   2.0000      -0.386931       -10.5289
 206   2.0000      -0.380995       -10.3674
 207   2.0000      -0.378277       -10.2935
 208   2.0000      -0.378187       -10.2910
 209   2.0000      -0.374242       -10.1836
 210   2.0000      -0.370085       -10.0705
 211   2.0000      -0.367782       -10.0079
 212   2.0000      -0.358403        -9.7526
 213   2.0000      -0.355895        -9.6844
 214   2.0000      -0.343773        -9.3545
 215   2.0000      -0.343474        -9.3464
 216   2.0000      -0.341881        -9.3031
 217   2.0000      -0.338630        -9.2146
 218   2.0000      -0.331794        -9.0286
 219   2.0000      -0.326359        -8.8807
 220   2.0000      -0.325165        -8.8482
 221   2.0000      -0.324289        -8.8244
 222   2.0000      -0.318048        -8.6545
 223   2.0000      -0.314967        -8.5707
 224   2.0000      -0.305389        -8.3100
 225   2.0000      -0.285756        -7.7758
 226   2.0000      -0.265186        -7.2161
 227   2.0000      -0.252050        -6.8586
 228   2.0000      -0.208250        -5.6668
 229   0.0000      -0.079349        -2.1592
 230   0.0000      -0.051500        -1.4014
 231   0.0000      -0.046779        -1.2729
 232   0.0000      -0.032709        -0.8901
 233   0.0000      -0.004416        -0.1202

MULLIKEN ATOMIC CHARGES
-----------------------
   0 C :   -0.007965
   1 N :   -0.055526
   2 C :   -0.060430
   3 C :   -0.086153
   4 S :    0.113094
   5 N :   -0.032027
   6 C :   -0.116633
   7 S :    0.093061
   8 C :    0.125956
   9 C :   -0.116478
  10 C :    0.020364
  11 C :    0.101820
  12 C :   -0.045196
  13 C :   -0.006122
  14 C :    0.094437
  15 C :    0.016365
  16 C :   -0.125869
  17 C :    0.078056
  18 C :    0.043744
  19 C :    0.046395
  20 C :    0.025733
  21 C :   -0.084980
  22 C :    0.129548
  23 C :   -0.019661
  24 C :   -0.042359
  25 C :   -0.018080
  26 C :    0.017810
  27 C :   -0.014675
  28 C :   -0.020908
  29 C :    0.042107
  30 C :    0.022289
  31 C :   -0.044002
  32 S :    0.063251
  33 C :   -0.051724
  34 C :    0.028775
  35 C :    0.037967
  36 C :   -0.038293
  37 S :    0.037607
  38 C :    0.016796
  39 N :   -0.022567
  40 C :   -0.108251
  41 S :    0.149261
  42 C :   -0.010229
  43 N :    0.282308
  44 O :   -0.258858
  45 O :   -0.274930
  46 C :    0.013364
  47 C :    0.125885
  48 C :   -0.022788
  49 C :    0.044553
  50 C :   -0.112881
  51 N :   -0.050032
  52 C :   -0.080915
  53 C :   -0.078807
  54 S :    0.127205
  55 N :   -0.050928
  56 C :   -0.015000
  57 S :    0.108736
  58 H :    0.043071
  59 H :   -0.019483
  60 H :   -0.032598
  61 H :   -0.009020
  62 H :   -0.005388
  63 H :    0.003463
  64 H :    0.006920
  65 H :   -0.014668
  66 H :    0.021928
  67 H :    0.000876
  68 H :    0.007369
  69 H :    0.022252
  70 H :    0.010444
  71 H :    0.020467
  72 H :   -0.045334
  73 H :   -0.029046
  74 H :   -0.035787
  75 H :   -0.025363
  76 H :    0.000638
  77 H :   -0.018155
  78 H :   -0.013839
  79 H :   -0.014898
  80 H :   -0.012346
  81 H :   -0.010108
  82 H :    0.025212
  83 H :    0.152895
  84 H :    0.009948
  85 H :   -0.008174
  86 H :   -0.015733
  87 H :    0.051236
Sum of atomic charges:   -0.0000000

LOEWDIN ATOMIC CHARGES
----------------------
   0 C :   -0.119909
   1 N :   -0.093881
   2 C :   -0.222096
   3 C :   -0.214255
   4 S :    0.406367
   5 N :   -0.101017
   6 C :   -0.100514
   7 S :    0.403022
   8 C :   -0.056394
   9 C :   -0.023306
  10 C :    0.003030
  11 C :   -0.008674
  12 C :   -0.018667
  13 C :    0.006531
  14 C :   -0.019522
  15 C :    0.008105
  16 C :   -0.034339
  17 C :   -0.009948
  18 C :   -0.059996
  19 C :   -0.015692
  20 C :   -0.056465
  21 C :   -0.016095
  22 C :   -0.025079
  23 C :   -0.017383
  24 C :   -0.017997
  25 C :   -0.012248
  26 C :   -0.032936
  27 C :   -0.050716
  28 C :   -0.148437
  29 C :   -0.031170
  30 C :   -0.034839
  31 C :   -0.179142
  32 S :    0.359192
  33 C :   -0.178470
  34 C :   -0.035910
  35 C :   -0.033784
  36 C :   -0.178183
  37 S :    0.338712
  38 C :   -0.020945
  39 N :    0.054119
  40 C :   -0.091909
  41 S :    0.449536
  42 C :   -0.213654
  43 N :    0.274315
  44 O :   -0.224684
  45 O :   -0.241245
  46 C :    0.010679
  47 C :   -0.114700
  48 C :    0.010326
  49 C :   -0.067411
  50 C :   -0.111756
  51 N :   -0.113023
  52 C :   -0.211371
  53 C :   -0.224264
  54 S :    0.409892
  55 N :   -0.090860
  56 C :   -0.119541
  57 S :    0.409706
  58 H :    0.018842
  59 H :    0.017358
  60 H :    0.028016
  61 H :    0.033324
  62 H :    0.017455
  63 H :    0.026051
  64 H :    0.022077
  65 H :    0.016224
  66 H :    0.024941
  67 H :    0.021005
  68 H :    0.020030
  69 H :    0.025587
  70 H :    0.024522
  71 H :    0.025403
  72 H :    0.023100
  73 H :    0.025818
  74 H :    0.027019
  75 H :    0.026819
  76 H :    0.020485
  77 H :    0.032423
  78 H :    0.033410
  79 H :    0.031202
  80 H :    0.033064
  81 H :    0.034233
  82 H :    0.030036
  83 H :    0.089455
  84 H :    0.044588
  85 H :    0.029225
  86 H :    0.028382
  87 H :    0.018805

  Mayer bond orders larger than 0.100000
B(  0-C ,  1-N ) :   1.7197 B(  0-C ,  4-S ) :   1.1378 B(  0-C , 58-H ) :   0.9674
B(  1-N ,  2-C ) :   1.3806 B(  1-N ,  4-S ) :   0.1019 B(  2-C ,  3-C ) :   1.3450
B(  2-C ,  7-S ) :   1.0899 B(  3-C ,  4-S ) :   1.1080 B(  3-C ,  5-N ) :   1.3656
B(  5-N ,  6-C ) :   1.7563 B(  6-C ,  7-S ) :   1.0828 B(  6-C ,  8-C ) :   1.0340
B(  8-C ,  9-C ) :   1.2798 B(  8-C , 13-C ) :   1.3811 B(  9-C , 10-C ) :   1.4266
B(  9-C , 59-H ) :   0.9815 B( 10-C , 11-C ) :   1.3785 B( 10-C , 16-C ) :   0.9163
B( 11-C , 12-C ) :   1.3315 B( 11-C , 14-C ) :   0.9981 B( 12-C , 13-C ) :   1.3644
B( 12-C , 60-H ) :   0.9937 B( 13-C , 61-H ) :   0.9896 B( 14-C , 15-C ) :   1.3601
B( 14-C , 24-C ) :   1.3400 B( 15-C , 16-C ) :   0.9246 B( 15-C , 21-C ) :   1.4186
B( 16-C , 17-C ) :   1.0148 B( 16-C , 19-C ) :   1.0317 B( 17-C , 18-C ) :   1.1170
B( 17-C , 62-H ) :   0.9345 B( 17-C , 63-H ) :   0.9373 B( 18-C , 64-H ) :   0.9597
B( 18-C , 65-H ) :   0.9554 B( 18-C , 66-H ) :   0.9564 B( 19-C , 20-C ) :   1.1046
B( 19-C , 67-H ) :   0.9395 B( 19-C , 68-H ) :   0.9384 B( 20-C , 69-H ) :   0.9632
B( 20-C , 70-H ) :   0.9647 B( 20-C , 71-H ) :   0.9648 B( 21-C , 22-C ) :   1.2929
B( 21-C , 72-H ) :   0.9964 B( 22-C , 23-C ) :   1.3258 B( 22-C , 25-C ) :   1.0672
B( 23-C , 24-C ) :   1.3803 B( 23-C , 73-H ) :   0.9937 B( 24-C , 74-H ) :   0.9904
B( 25-C , 26-C ) :   1.6543 B( 25-C , 75-H ) :   0.9875 B( 26-C , 27-C ) :   1.1448
B( 26-C , 76-H ) :   0.9636 B( 27-C , 28-C ) :   1.5740 B( 27-C , 77-H ) :   0.9840
B( 28-C , 29-C ) :   1.1346 B( 28-C , 32-S ) :   1.0233 B( 29-C , 30-C ) :   1.5999
B( 29-C , 78-H ) :   0.9993 B( 30-C , 31-C ) :   1.1812 B( 30-C , 79-H ) :   0.9931
B( 31-C , 32-S ) :   1.0409 B( 31-C , 33-C ) :   1.5300 B( 33-C , 34-C ) :   1.1836
B( 33-C , 37-S ) :   1.0348 B( 34-C , 35-C ) :   1.6173 B( 34-C , 80-H ) :   0.9910
B( 35-C , 36-C ) :   1.1469 B( 35-C , 81-H ) :   0.9945 B( 36-C , 37-S ) :   1.0119
B( 36-C , 38-C ) :   1.6203 B( 38-C , 39-N ) :   1.1221 B( 38-C , 82-H ) :   0.9585
B( 39-N , 40-C ) :   1.2734 B( 39-N , 83-H ) :   0.9011 B( 40-C , 41-S ) :   1.1333
B( 40-C , 47-C ) :   1.3135 B( 41-S , 42-C ) :   1.0539 B( 42-C , 43-N ) :   0.9896
B( 42-C , 46-C ) :   1.4904 B( 43-N , 44-O ) :   1.5214 B( 43-N , 45-O ) :   1.4971
B( 44-O , 45-O ) :   0.2513 B( 46-C , 47-C ) :   1.2353 B( 46-C , 84-H ) :   0.9994
B( 47-C , 48-C ) :   1.0707 B( 48-C , 49-C ) :   1.7509 B( 48-C , 85-H ) :   0.9664
B( 49-C , 50-C ) :   1.1026 B( 49-C , 86-H ) :   0.9496 B( 50-C , 51-N ) :   1.6904
B( 50-C , 54-S ) :   1.0836 B( 51-N , 52-C ) :   1.3830 B( 52-C , 53-C ) :   1.3365
B( 52-C , 57-S ) :   1.1077 B( 53-C , 54-S ) :   1.0933 B( 53-C , 55-N ) :   1.3781
B( 55-N , 56-C ) :   1.7304 B( 55-N , 57-S ) :   0.1022 B( 56-C , 57-S ) :   1.1242
B( 56-C , 87-H ) :   0.9652

-----------------------------------------------------------------------------
         ABSORPTION SPECTRUM VIA TRANSITION ELECTRIC DIPOLE MOMENTS
-----------------------------------------------------------------------------
State   Energy  Wavelength   fosc         T2         TX        TY        TZ
        (cm-1)    (nm)                  (au**2)     (au)      (au)      (au)
-----------------------------------------------------------------------------
   0   14451.2    692.0   1.330964897  30.32065  -0.94215   0.74697  -5.37355
   1   21065.8    474.7   0.342095938   5.34621  -1.70069   0.48664  -1.48897
   2   21990.3    454.7   0.272470080   4.07910   1.63563  -1.08455  -0.47702
   3   24564.9    407.1   1.433498283  19.21138  -3.77681   2.21470   0.20541
   4   26576.6    376.3   0.110844131   1.37306   0.67875  -0.75689  -0.58264
   5   28219.7    354.4   0.363701180   4.24295  -1.44516   1.46121   0.13905
   6   29276.7    341.6   0.743072991   8.35575   1.78592   0.29605   2.25357
   7   30068.2    332.6   0.004427328   0.04847   0.02964   0.03823   0.21479
   8   30824.2    324.4   0.046208710   0.49352   0.39506  -0.53899  -0.21666
   9   31936.1    313.1   0.093008403   0.95877   0.31138  -0.83213   0.41156
  10   32993.6    303.1   0.117282130   1.17025  -0.56433   0.21241  -0.89815
  11   34032.5    293.8   0.397363079   3.84387   1.39113  -1.32910  -0.37699
  12   34952.4    286.1   0.025109816   0.23651   0.00691  -0.25977  -0.41107
  13   35052.7    285.3   0.151703661   1.42479  -1.02949   0.29132  -0.52921
  14   35641.3    280.6   0.024450755   0.22585  -0.06425   0.29508   0.36694
  15   35777.6    279.5   0.080951863   0.74489   0.69749  -0.25476   0.43988
  16   36828.2    271.5   0.071785134   0.64170  -0.43450   0.01918  -0.67271
  17   37104.8    269.5   0.035070697   0.31116   0.23041  -0.13005   0.49108
  18   37542.9    266.4   0.021711316   0.19039   0.34178  -0.25796  -0.08384
  19   37951.5    263.5   0.040508974   0.35140  -0.36752   0.03921  -0.46345
  20   38395.2    260.4   0.040113691   0.34395  -0.31076   0.47069   0.16069
  21   38867.3    257.3   0.055545882   0.47048   0.56015   0.07945   0.38781
  22   39182.1    255.2   0.001802828   0.01515  -0.01456   0.08052   0.09193
  23   39730.2    251.7   0.007115427   0.05896   0.13801  -0.16655  -0.11034
  24   40156.4    249.0   0.040383014   0.33107  -0.01965   0.22779   0.52801

FINAL SINGLE POINT ENERGY     -4919.263446413721

DIPOLE MOMENT
-------------
                                X             Y             Z
Electronic contribution:    -12.64950       0.93024      44.36670
Nuclear contribution   :     13.88647      -1.79048     -47.08630
                        -----------------------------------------
Total Dipole Moment    :      1.23697      -0.86024      -2.71961
                        -----------------------------------------
Magnitude (a.u.)       :      3.10908
Magnitude (Debye)      :      7.90264

Rotational constants in cm-1:     0.001377     0.000442     0.000352
Rotational constants in MHz :    41.280612    13.262597    10.562458

                             ****ORCA TERMINATED NORMALLY****
TOTAL RUN TIME: 0 days 0 hours 16 minutes 14 seconds 844 msec
