                         Program Version 4.2.0 -  RELEASE  -
|  1> # ORCA input file
|  2> # SCF done       -193.868311629071          0.000901034254
|  3> ! CAM-B3LYP def2-SVP def2/J RIJCOSX Grid4 TightSCF
|  4> %maxcore 5000
|  5> %tddft
|  6>     Mode sTDDFT
|  7>     Ethresh 5.0
|  8>     maxcore 5000
|  9> end
| 10>
| 11> %pal
| 12>   nprocs 6
| 13>   end
| 14> * xyz 0 1
| 15>    C       -3.94843        -1.96882         1.46875
| 16>    C       -3.50556        -0.84877         2.15053
| 17>    C       -4.03312         0.39679         1.79898
| 18>    C       -3.60691         1.55456         2.49472
| 19>    N       -3.26300         2.48751         3.06262
| 20>    C       -4.98529         0.52274         0.77086
| 21>    C       -5.50162         1.79371         0.42599
| 22>    N       -5.94250         2.80682         0.12397
| 23>    C       -5.43031        -0.61155         0.08879
| 24>    C       -4.91170        -1.83404         0.45450
| 25>    C       -5.25176        -3.16835        -0.08996
| 26>    O       -6.01327        -3.34493        -1.02878
| 27>    C       -4.49043        -4.13369         0.70935
| 28>    C       -3.61080        -3.38830         1.58993
| 29>    C       -2.58390        -3.87015         2.36358
| 30>    C       -1.76841        -3.05945         3.18116
| 31>    N       -1.07249        -2.45728         3.86744
| 32>    C       -2.14313        -5.20891         2.43478
| 33>    N       -1.69592        -6.26180         2.54215
| 34>    C       -4.57910        -5.51488         0.76941
| 35>    C       -5.36092        -6.45870         0.09305
| 36>    C       -6.25704        -6.22375        -0.93920
| 37>    C       -7.04326        -7.18425        -1.53727
| 38>    C       -7.00904        -8.59333        -1.12857
| 39>    C       -6.19119        -9.07566        -0.16600
| 40>    S       -5.09651        -8.10480         0.72180
| 41>    C       -7.97410        -9.23730        -1.94347
| 42>    C       -8.58201        -8.30767        -2.80334
| 43>    C       -9.53312        -8.93148        -3.64807
| 44>    C       -9.62483       -10.26343        -3.40885
| 45>    S       -8.56734       -10.83128        -2.15789
| 46>    C       -8.01100        -7.01786        -2.56503
| 47>    C       -8.29392        -5.78208        -3.19186
| 48>    C       -9.33853        -5.53567        -4.01732
| 49>    N       -9.50918        -4.34854        -4.65638
| 50>    C      -10.68281        -3.94393        -5.27459
| 51>    C      -11.93784        -4.39384        -4.98166
| 52>    S      -13.13867        -3.64206        -5.94803
| 53>    C      -11.95496        -2.71105        -6.77492
| 54>    C      -10.69022        -2.97032        -6.33164
| 55>    N       -9.51205        -2.43867        -6.82334
| 56>    C       -9.41433        -1.46784        -7.77032
| 57>    C       -8.27916        -1.21852        -8.45737
| 58>    C       -8.12263        -0.20992        -9.45603
| 59>    C       -7.00789        -0.17400       -10.26460
| 60>    C       -6.81095         0.71842       -11.31445
| 61>    C       -7.77666         1.77670       -11.60611
| 62>    C       -8.92328         1.96134       -10.91409
| 63>    S       -9.41947         0.95754        -9.61579
| 64>    C       -7.24432         2.48047       -12.72151
| 65>    C       -6.03037         1.91308       -13.11086
| 66>    C       -5.54495         2.49611       -14.30216
| 67>    C       -6.36167         3.48757       -14.74715
| 68>    S       -7.75218         3.74903       -13.76055
| 69>    C       -5.72230         0.81803       -12.21509
| 70>    C       -4.62384        -0.05824       -12.22359
| 71>    C       -3.37431         0.14545       -12.76301
| 72>    C       -2.86772         1.39905       -13.11062
| 73>    C       -1.63555         1.62498       -13.69241
| 74>    C       -0.69467         0.56966       -14.09669
| 75>    O       -0.81955        -0.63621       -14.01443
| 76>    C        0.48554         1.28194       -14.64892
| 77>    C        1.64618         0.74372       -15.15847
| 78>    C        2.62591         1.61925       -15.63204
| 79>    C        2.41213         3.00915       -15.57920
| 80>    C        1.22958         3.54200       -15.05944
| 81>    C        0.26129         2.66992       -14.59283
| 82>    C       -1.06053         2.90755       -14.00377
| 83>    C       -1.62364         4.14892       -13.81709
| 84>    C       -2.89725         4.40115       -13.27092
| 85>    N       -3.92441         4.69557       -12.84690
| 86>    C       -0.99779         5.36245       -14.16622
| 87>    N       -0.54328         6.38376       -14.42963
| 88>    C        3.41446         3.88467       -16.06338
| 89>    N        4.22034         4.59712       -16.45621
| 90>    C        3.83212         1.10685       -16.16449
| 91>    N        4.79877         0.66759       -16.59444
| 92>    H       -2.77884        -0.90285         2.94482
| 93>    H       -6.16481        -0.53309        -0.69835
| 94>    H       -3.94633        -5.96714         1.52471
| 95>    H       -6.33982        -5.19897        -1.27046
| 96>    H       -6.17565       -10.11742         0.11411
| 97>    H      -10.11569        -8.44029        -4.40553
| 98>    H      -10.26009       -10.97476        -3.89945
| 99>    H       -7.62041        -4.96574        -2.96610
|100>    H      -10.08885        -6.27885        -4.23229
|101>    H       -8.80505        -3.63997        -4.49370
|102>    H      -12.22534        -5.10479        -4.23446
|103>    H      -12.26576        -2.04740        -7.55465
|104>    H       -8.67145        -2.96749        -6.63018
|105>    H      -10.30980        -0.88925        -7.93689
|106>    H       -7.41235        -1.84368        -8.28582
|107>    H       -6.25069        -0.92346       -10.07778
|108>    H       -9.61878         2.75415       -11.13804
|109>    H       -4.65650         2.19241       -14.82497
|110>    H       -6.22764         4.10299       -15.61496
|111>    H       -4.79178        -1.01847       -11.74928
|112>    H       -2.71175        -0.70390       -12.84760
|113>    H       -3.46445         2.25862       -12.84186
|114>    H        1.79307        -0.32525       -15.19086
|115>    H        1.10458         4.61264       -15.03568
|116> *
|117>
|118>                          ****END OF INPUT****

CARTESIAN COORDINATES (ANGSTROEM)
---------------------------------
  C     -3.948430   -1.968820    1.468750
  C     -3.505560   -0.848770    2.150530
  C     -4.033120    0.396790    1.798980
  C     -3.606910    1.554560    2.494720
  N     -3.263000    2.487510    3.062620
  C     -4.985290    0.522740    0.770860
  C     -5.501620    1.793710    0.425990
  N     -5.942500    2.806820    0.123970
  C     -5.430310   -0.611550    0.088790
  C     -4.911700   -1.834040    0.454500
  C     -5.251760   -3.168350   -0.089960
  O     -6.013270   -3.344930   -1.028780
  C     -4.490430   -4.133690    0.709350
  C     -3.610800   -3.388300    1.589930
  C     -2.583900   -3.870150    2.363580
  C     -1.768410   -3.059450    3.181160
  N     -1.072490   -2.457280    3.867440
  C     -2.143130   -5.208910    2.434780
  N     -1.695920   -6.261800    2.542150
  C     -4.579100   -5.514880    0.769410
  C     -5.360920   -6.458700    0.093050
  C     -6.257040   -6.223750   -0.939200
  C     -7.043260   -7.184250   -1.537270
  C     -7.009040   -8.593330   -1.128570
  C     -6.191190   -9.075660   -0.166000
  S     -5.096510   -8.104800    0.721800
  C     -7.974100   -9.237300   -1.943470
  C     -8.582010   -8.307670   -2.803340
  C     -9.533120   -8.931480   -3.648070
  C     -9.624830  -10.263430   -3.408850
  S     -8.567340  -10.831280   -2.157890
  C     -8.011000   -7.017860   -2.565030
  C     -8.293920   -5.782080   -3.191860
  C     -9.338530   -5.535670   -4.017320
  N     -9.509180   -4.348540   -4.656380
  C    -10.682810   -3.943930   -5.274590
  C    -11.937840   -4.393840   -4.981660
  S    -13.138670   -3.642060   -5.948030
  C    -11.954960   -2.711050   -6.774920
  C    -10.690220   -2.970320   -6.331640
  N     -9.512050   -2.438670   -6.823340
  C     -9.414330   -1.467840   -7.770320
  C     -8.279160   -1.218520   -8.457370
  C     -8.122630   -0.209920   -9.456030
  C     -7.007890   -0.174000  -10.264600
  C     -6.810950    0.718420  -11.314450
  C     -7.776660    1.776700  -11.606110
  C     -8.923280    1.961340  -10.914090
  S     -9.419470    0.957540   -9.615790
  C     -7.244320    2.480470  -12.721510
  C     -6.030370    1.913080  -13.110860
  C     -5.544950    2.496110  -14.302160
  C     -6.361670    3.487570  -14.747150
  S     -7.752180    3.749030  -13.760550
  C     -5.722300    0.818030  -12.215090
  C     -4.623840   -0.058240  -12.223590
  C     -3.374310    0.145450  -12.763010
  C     -2.867720    1.399050  -13.110620
  C     -1.635550    1.624980  -13.692410
  C     -0.694670    0.569660  -14.096690
  O     -0.819550   -0.636210  -14.014430
  C      0.485540    1.281940  -14.648920
  C      1.646180    0.743720  -15.158470
  C      2.625910    1.619250  -15.632040
  C      2.412130    3.009150  -15.579200
  C      1.229580    3.542000  -15.059440
  C      0.261290    2.669920  -14.592830
  C     -1.060530    2.907550  -14.003770
  C     -1.623640    4.148920  -13.817090
  C     -2.897250    4.401150  -13.270920
  N     -3.924410    4.695570  -12.846900
  C     -0.997790    5.362450  -14.166220
  N     -0.543280    6.383760  -14.429630
  C      3.414460    3.884670  -16.063380
  N      4.220340    4.597120  -16.456210
  C      3.832120    1.106850  -16.164490
  N      4.798770    0.667590  -16.594440
  H     -2.778840   -0.902850    2.944820
  H     -6.164810   -0.533090   -0.698350
  H     -3.946330   -5.967140    1.524710
  H     -6.339820   -5.198970   -1.270460
  H     -6.175650  -10.117420    0.114110
  H    -10.115690   -8.440290   -4.405530
  H    -10.260090  -10.974760   -3.899450
  H     -7.620410   -4.965740   -2.966100
  H    -10.088850   -6.278850   -4.232290
  H     -8.805050   -3.639970   -4.493700
  H    -12.225340   -5.104790   -4.234460
  H    -12.265760   -2.047400   -7.554650
  H     -8.671450   -2.967490   -6.630180
  H    -10.309800   -0.889250   -7.936890
  H     -7.412350   -1.843680   -8.285820
  H     -6.250690   -0.923460  -10.077780
  H     -9.618780    2.754150  -11.138040
  H     -4.656500    2.192410  -14.824970
  H     -6.227640    4.102990  -15.614960
  H     -4.791780   -1.018470  -11.749280
  H     -2.711750   -0.703900  -12.847600
  H     -3.464450    2.258620  -12.841860
  H      1.793070   -0.325250  -15.190860
  H      1.104580    4.612640  -15.035680

 Total Charge           Charge          ....    0
 Multiplicity           Mult            ....    1
 Number of Electrons    NEL             ....  550
 Basis Dimension        Dim             .... 1218

ORBITAL ENERGIES
----------------

  NO   OCC          E(Eh)            E(eV)
   0   2.0000     -88.998442     -2421.7707
   1   2.0000     -88.982048     -2421.3246
   2   2.0000     -88.981970     -2421.3225
   3   2.0000     -88.980977     -2421.2955
   4   2.0000     -88.961431     -2420.7636
   5   2.0000     -19.238199      -523.4980
   6   2.0000     -19.217401      -522.9321
   7   2.0000     -14.488747      -394.2588
   8   2.0000     -14.487546      -394.2262
   9   2.0000     -14.428199      -392.6113
  10   2.0000     -14.426859      -392.5748
  11   2.0000     -14.425169      -392.5288
  12   2.0000     -14.423737      -392.4898
  13   2.0000     -14.417084      -392.3088
  14   2.0000     -14.415423      -392.2636
  15   2.0000     -14.415285      -392.2598
  16   2.0000     -14.412886      -392.1946
  17   2.0000     -10.389205      -282.7046
  18   2.0000     -10.368165      -282.1321
  19   2.0000     -10.356942      -281.8267
  20   2.0000     -10.356889      -281.8253
  21   2.0000     -10.356524      -281.8154
  22   2.0000     -10.355067      -281.7757
  23   2.0000     -10.354451      -281.7589
  24   2.0000     -10.352315      -281.7008
  25   2.0000     -10.350560      -281.6531
  26   2.0000     -10.350495      -281.6513
  27   2.0000     -10.348813      -281.6055
  28   2.0000     -10.345199      -281.5072
  29   2.0000     -10.345180      -281.5066
  30   2.0000     -10.344930      -281.4999
  31   2.0000     -10.344814      -281.4967
  32   2.0000     -10.341278      -281.4005
  33   2.0000     -10.340688      -281.3844
  34   2.0000     -10.335372      -281.2398
  35   2.0000     -10.334187      -281.2075
  36   2.0000     -10.332970      -281.1744
  37   2.0000     -10.331697      -281.1398
  38   2.0000     -10.329901      -281.0909
  39   2.0000     -10.329127      -281.0698
  40   2.0000     -10.326417      -280.9961
  41   2.0000     -10.325180      -280.9624
  42   2.0000     -10.323192      -280.9083
  43   2.0000     -10.321651      -280.8664
  44   2.0000     -10.321425      -280.8603
  45   2.0000     -10.321347      -280.8581
  46   2.0000     -10.320038      -280.8225
  47   2.0000     -10.318974      -280.7936
  48   2.0000     -10.318668      -280.7852
  49   2.0000     -10.318228      -280.7733
  50   2.0000     -10.317426      -280.7514
  51   2.0000     -10.316677      -280.7311
  52   2.0000     -10.316196      -280.7180
  53   2.0000     -10.316126      -280.7160
  54   2.0000     -10.315750      -280.7058
  55   2.0000     -10.315512      -280.6993
  56   2.0000     -10.314127      -280.6617
  57   2.0000     -10.312688      -280.6225
  58   2.0000     -10.312422      -280.6153
  59   2.0000     -10.312095      -280.6064
  60   2.0000     -10.310930      -280.5747
  61   2.0000     -10.310056      -280.5509
  62   2.0000     -10.308613      -280.5116
  63   2.0000     -10.308406      -280.5060
  64   2.0000     -10.307864      -280.4912
  65   2.0000     -10.304810      -280.4081
  66   2.0000     -10.302480      -280.3447
  67   2.0000     -10.301044      -280.3056
  68   2.0000     -10.299950      -280.2759
  69   2.0000     -10.299487      -280.2633
  70   2.0000     -10.294150      -280.1181
  71   2.0000     -10.293499      -280.1004
  72   2.0000     -10.289437      -279.9898
  73   2.0000     -10.288868      -279.9743
  74   2.0000     -10.284837      -279.8646
  75   2.0000     -10.277419      -279.6628
  76   2.0000     -10.275258      -279.6040
  77   2.0000      -8.093844      -220.2447
  78   2.0000      -8.077714      -219.8058
  79   2.0000      -8.077444      -219.7984
  80   2.0000      -8.076758      -219.7798
  81   2.0000      -8.056960      -219.2410
  82   2.0000      -6.063220      -164.9886
  83   2.0000      -6.058785      -164.8679
  84   2.0000      -6.056024      -164.7928
  85   2.0000      -6.047129      -164.5508
  86   2.0000      -6.047026      -164.5479
  87   2.0000      -6.046291      -164.5279
  88   2.0000      -6.042814      -164.4333
  89   2.0000      -6.042639      -164.4286
  90   2.0000      -6.041826      -164.4065
  91   2.0000      -6.039749      -164.3499
  92   2.0000      -6.039061      -164.3312
  93   2.0000      -6.038728      -164.3221
  94   2.0000      -6.026408      -163.9869
  95   2.0000      -6.022095      -163.8695
  96   2.0000      -6.019005      -163.7854
  97   2.0000      -1.150546       -31.3079
  98   2.0000      -1.130962       -30.7750
  99   2.0000      -1.102821       -30.0093
 100   2.0000      -1.076536       -29.2940
 101   2.0000      -1.039528       -28.2870
 102   2.0000      -1.029295       -28.0085
 103   2.0000      -1.026588       -27.9349
 104   2.0000      -1.024411       -27.8756
 105   2.0000      -1.020911       -27.7804
 106   2.0000      -1.012840       -27.5608
 107   2.0000      -1.009050       -27.4576
 108   2.0000      -1.005680       -27.3659
 109   2.0000      -1.003528       -27.3074
 110   2.0000      -0.999100       -27.1869
 111   2.0000      -0.996894       -27.1269
 112   2.0000      -0.995247       -27.0821
 113   2.0000      -0.992600       -27.0100
 114   2.0000      -0.990805       -26.9612
 115   2.0000      -0.987943       -26.8833
 116   2.0000      -0.975250       -26.5379
 117   2.0000      -0.963534       -26.2191
 118   2.0000      -0.951011       -25.8783
 119   2.0000      -0.944756       -25.7081
 120   2.0000      -0.927093       -25.2275
 121   2.0000      -0.923822       -25.1385
 122   2.0000      -0.921572       -25.0772
 123   2.0000      -0.911271       -24.7970
 124   2.0000      -0.908504       -24.7216
 125   2.0000      -0.901914       -24.5423
 126   2.0000      -0.898741       -24.4560
 127   2.0000      -0.889235       -24.1973
 128   2.0000      -0.884587       -24.0708
 129   2.0000      -0.880545       -23.9608
 130   2.0000      -0.871400       -23.7120
 131   2.0000      -0.863867       -23.5070
 132   2.0000      -0.847356       -23.0577
 133   2.0000      -0.846100       -23.0235
 134   2.0000      -0.837831       -22.7986
 135   2.0000      -0.836481       -22.7618
 136   2.0000      -0.819255       -22.2931
 137   2.0000      -0.812438       -22.1076
 138   2.0000      -0.806907       -21.9571
 139   2.0000      -0.806196       -21.9377
 140   2.0000      -0.793418       -21.5900
 141   2.0000      -0.791879       -21.5481
 142   2.0000      -0.785798       -21.3827
 143   2.0000      -0.759587       -20.6694
 144   2.0000      -0.754165       -20.5219
 145   2.0000      -0.749909       -20.4061
 146   2.0000      -0.744849       -20.2684
 147   2.0000      -0.740185       -20.1415
 148   2.0000      -0.733582       -19.9618
 149   2.0000      -0.718943       -19.5634
 150   2.0000      -0.715285       -19.4639
 151   2.0000      -0.711866       -19.3709
 152   2.0000      -0.706419       -19.2227
 153   2.0000      -0.695936       -18.9374
 154   2.0000      -0.691683       -18.8217
 155   2.0000      -0.689096       -18.7513
 156   2.0000      -0.685028       -18.6406
 157   2.0000      -0.679295       -18.4845
 158   2.0000      -0.675178       -18.3725
 159   2.0000      -0.669429       -18.2161
 160   2.0000      -0.668164       -18.1817
 161   2.0000      -0.664834       -18.0911
 162   2.0000      -0.658747       -17.9254
 163   2.0000      -0.654897       -17.8207
 164   2.0000      -0.651127       -17.7181
 165   2.0000      -0.641323       -17.4513
 166   2.0000      -0.635815       -17.3014
 167   2.0000      -0.627596       -17.0778
 168   2.0000      -0.622708       -16.9448
 169   2.0000      -0.619045       -16.8451
 170   2.0000      -0.615789       -16.7565
 171   2.0000      -0.610889       -16.6231
 172   2.0000      -0.600700       -16.3459
 173   2.0000      -0.597203       -16.2507
 174   2.0000      -0.595494       -16.2042
 175   2.0000      -0.592046       -16.1104
 176   2.0000      -0.587150       -15.9772
 177   2.0000      -0.584557       -15.9066
 178   2.0000      -0.579249       -15.7622
 179   2.0000      -0.575719       -15.6661
 180   2.0000      -0.573718       -15.6117
 181   2.0000      -0.566599       -15.4179
 182   2.0000      -0.564998       -15.3744
 183   2.0000      -0.562250       -15.2996
 184   2.0000      -0.560855       -15.2616
 185   2.0000      -0.558507       -15.1977
 186   2.0000      -0.553741       -15.0681
 187   2.0000      -0.548802       -14.9337
 188   2.0000      -0.545618       -14.8470
 189   2.0000      -0.543659       -14.7937
 190   2.0000      -0.537737       -14.6326
 191   2.0000      -0.536965       -14.6116
 192   2.0000      -0.536156       -14.5896
 193   2.0000      -0.533268       -14.5110
 194   2.0000      -0.530884       -14.4461
 195   2.0000      -0.530399       -14.4329
 196   2.0000      -0.525049       -14.2873
 197   2.0000      -0.522907       -14.2290
 198   2.0000      -0.521889       -14.2013
 199   2.0000      -0.521195       -14.1824
 200   2.0000      -0.517887       -14.0924
 201   2.0000      -0.516849       -14.0642
 202   2.0000      -0.514151       -13.9908
 203   2.0000      -0.509596       -13.8668
 204   2.0000      -0.507704       -13.8153
 205   2.0000      -0.506963       -13.7952
 206   2.0000      -0.505250       -13.7486
 207   2.0000      -0.500217       -13.6116
 208   2.0000      -0.495777       -13.4908
 209   2.0000      -0.493630       -13.4324
 210   2.0000      -0.492331       -13.3970
 211   2.0000      -0.487968       -13.2783
 212   2.0000      -0.484682       -13.1889
 213   2.0000      -0.481893       -13.1130
 214   2.0000      -0.477846       -13.0028
 215   2.0000      -0.475046       -12.9266
 216   2.0000      -0.471251       -12.8234
 217   2.0000      -0.469993       -12.7892
 218   2.0000      -0.464180       -12.6310
 219   2.0000      -0.461868       -12.5681
 220   2.0000      -0.459727       -12.5098
 221   2.0000      -0.458140       -12.4666
 222   2.0000      -0.457702       -12.4547
 223   2.0000      -0.454433       -12.3658
 224   2.0000      -0.454364       -12.3639
 225   2.0000      -0.452578       -12.3153
 226   2.0000      -0.451673       -12.2906
 227   2.0000      -0.450312       -12.2536
 228   2.0000      -0.449826       -12.2404
 229   2.0000      -0.449162       -12.2223
 230   2.0000      -0.448665       -12.2088
 231   2.0000      -0.447516       -12.1775
 232   2.0000      -0.445155       -12.1133
 233   2.0000      -0.443467       -12.0674
 234   2.0000      -0.442519       -12.0416
 235   2.0000      -0.440569       -11.9885
 236   2.0000      -0.440449       -11.9852
 237   2.0000      -0.439003       -11.9459
 238   2.0000      -0.438557       -11.9338
 239   2.0000      -0.437904       -11.9160
 240   2.0000      -0.435472       -11.8498
 241   2.0000      -0.434003       -11.8098
 242   2.0000      -0.433664       -11.8006
 243   2.0000      -0.428343       -11.6558
 244   2.0000      -0.426657       -11.6099
 245   2.0000      -0.426474       -11.6049
 246   2.0000      -0.425748       -11.5852
 247   2.0000      -0.424884       -11.5617
 248   2.0000      -0.422154       -11.4874
 249   2.0000      -0.419834       -11.4243
 250   2.0000      -0.416296       -11.3280
 251   2.0000      -0.416107       -11.3229
 252   2.0000      -0.415423       -11.3042
 253   2.0000      -0.412641       -11.2285
 254   2.0000      -0.406183       -11.0528
 255   2.0000      -0.404787       -11.0148
 256   2.0000      -0.384270       -10.4565
 257   2.0000      -0.374524       -10.1913
 258   2.0000      -0.368313       -10.0223
 259   2.0000      -0.359571        -9.7844
 260   2.0000      -0.359047        -9.7702
 261   2.0000      -0.355331        -9.6690
 262   2.0000      -0.353517        -9.6197
 263   2.0000      -0.350160        -9.5283
 264   2.0000      -0.348222        -9.4756
 265   2.0000      -0.337213        -9.1760
 266   2.0000      -0.329514        -8.9665
 267   2.0000      -0.328780        -8.9466
 268   2.0000      -0.316406        -8.6098
 269   2.0000      -0.306065        -8.3284
 270   2.0000      -0.300922        -8.1885
 271   2.0000      -0.294838        -8.0229
 272   2.0000      -0.280614        -7.6359
 273   2.0000      -0.245238        -6.6733
 274   2.0000      -0.240838        -6.5535
 275   0.0000      -0.112995        -3.0748
 276   0.0000      -0.103916        -2.8277
 277   0.0000      -0.095706        -2.6043
 278   0.0000      -0.082600        -2.2477
 279   0.0000      -0.058162        -1.5827

MULLIKEN ATOMIC CHARGES
-----------------------
   0 C :    0.045446
   1 C :   -0.042070
   2 C :   -0.061980
   3 C :   -0.177258
   4 N :    0.201426
   5 C :   -0.067653
   6 C :   -0.176320
   7 N :    0.193100
   8 C :   -0.048484
   9 C :    0.019885
  10 C :    0.160493
  11 O :   -0.183986
  12 C :   -0.091441
  13 C :    0.300037
  14 C :   -0.349424
  15 C :   -0.188033
  16 N :    0.161180
  17 C :   -0.198061
  18 N :    0.162179
  19 C :    0.051923
  20 C :   -0.126798
  21 C :   -0.005610
  22 C :    0.025097
  23 C :    0.063088
  24 C :   -0.112039
  25 S :    0.137930
  26 C :   -0.096367
  27 C :    0.035720
  28 C :    0.000170
  29 C :   -0.066296
  30 S :    0.149070
  31 C :    0.099541
  32 C :   -0.043398
  33 C :    0.062945
  34 N :   -0.074835
  35 C :    0.123106
  36 C :   -0.191593
  37 S :    0.138123
  38 C :   -0.217337
  39 C :    0.133027
  40 N :   -0.050018
  41 C :    0.071273
  42 C :   -0.038009
  43 C :   -0.021658
  44 C :   -0.057005
  45 C :    0.082705
  46 C :    0.068432
  47 C :   -0.120233
  48 S :    0.123664
  49 C :   -0.112329
  50 C :    0.063861
  51 C :   -0.002577
  52 C :   -0.051791
  53 S :    0.139745
  54 C :    0.066801
  55 C :   -0.004262
  56 C :   -0.006798
  57 C :   -0.038363
  58 C :   -0.108015
  59 C :    0.145021
  60 O :   -0.149950
  61 C :   -0.001982
  62 C :   -0.044031
  63 C :   -0.071621
  64 C :   -0.060779
  65 C :   -0.050679
  66 C :    0.047342
  67 C :    0.329947
  68 C :   -0.360149
  69 C :   -0.199036
  70 N :    0.158247
  71 C :   -0.189507
  72 N :    0.153491
  73 C :   -0.174075
  74 N :    0.192918
  75 C :   -0.175027
  76 N :    0.192959
  77 H :    0.021636
  78 H :    0.005790
  79 H :    0.012179
  80 H :   -0.006332
  81 H :    0.041008
  82 H :   -0.013931
  83 H :    0.033877
  84 H :   -0.015770
  85 H :    0.004974
  86 H :    0.134454
  87 H :    0.022847
  88 H :    0.018986
  89 H :    0.117547
  90 H :    0.030612
  91 H :   -0.011335
  92 H :   -0.020445
  93 H :    0.044603
  94 H :   -0.006025
  95 H :    0.030189
  96 H :   -0.005793
  97 H :    0.012657
  98 H :    0.026317
  99 H :    0.011392
 100 H :    0.017548
Sum of atomic charges:   -0.0000000

LOEWDIN ATOMIC CHARGES
----------------------
   0 C :    0.004736
   1 C :    0.032541
   2 C :   -0.026289
   3 C :   -0.031594
   4 N :   -0.013837
   5 C :   -0.032457
   6 C :   -0.031588
   7 N :   -0.020100
   8 C :    0.040620
   9 C :   -0.026677
  10 C :    0.086191
  11 O :   -0.163847
  12 C :   -0.121264
  13 C :    0.069273
  14 C :   -0.137330
  15 C :   -0.022125
  16 N :   -0.044873
  17 C :   -0.027204
  18 N :   -0.042834
  19 C :    0.044879
  20 C :   -0.194940
  21 C :    0.042274
  22 C :   -0.050411
  23 C :   -0.069072
  24 C :   -0.127398
  25 S :    0.447312
  26 C :   -0.169080
  27 C :   -0.054429
  28 C :   -0.064764
  29 C :   -0.158482
  30 S :    0.439899
  31 C :    0.013726
  32 C :   -0.093512
  33 C :    0.057381
  34 N :    0.027682
  35 C :   -0.038805
  36 C :   -0.217893
  37 S :    0.455754
  38 C :   -0.230837
  39 C :   -0.029156
  40 N :    0.029101
  41 C :    0.047171
  42 C :   -0.116421
  43 C :   -0.136633
  44 C :   -0.041867
  45 C :    0.020171
  46 C :   -0.042963
  47 C :   -0.139733
  48 S :    0.467312
  49 C :   -0.205577
  50 C :   -0.034986
  51 C :   -0.062277
  52 C :   -0.150485
  53 S :    0.435894
  54 C :   -0.071481
  55 C :    0.047910
  56 C :   -0.067373
  57 C :    0.070907
  58 C :   -0.122798
  59 C :    0.079797
  60 O :   -0.145881
  61 C :   -0.026415
  62 C :    0.042393
  63 C :   -0.033158
  64 C :   -0.028956
  65 C :    0.030133
  66 C :    0.004072
  67 C :    0.066494
  68 C :   -0.144929
  69 C :   -0.022037
  70 N :   -0.047137
  71 C :   -0.022804
  72 N :   -0.053748
  73 C :   -0.030621
  74 N :   -0.019207
  75 C :   -0.031081
  76 N :   -0.022064
  77 H :    0.052256
  78 H :    0.048915
  79 H :    0.041086
  80 H :    0.034742
  81 H :    0.039038
  82 H :    0.028285
  83 H :    0.027161
  84 H :    0.032488
  85 H :    0.029590
  86 H :    0.087191
  87 H :    0.025633
  88 H :    0.022921
  89 H :    0.082461
  90 H :    0.025902
  91 H :    0.032194
  92 H :    0.036037
  93 H :    0.040016
  94 H :    0.031504
  95 H :    0.026283
  96 H :    0.033875
  97 H :    0.034898
  98 H :    0.042579
  99 H :    0.051600
 100 H :    0.051151

  Mayer bond orders larger than 0.100000
B(  0-C ,  1-C ) :   1.3652 B(  0-C ,  9-C ) :   1.3377 B(  0-C , 13-C ) :   0.9460
B(  1-C ,  2-C ) :   1.3804 B(  1-C , 77-H ) :   0.9871 B(  2-C ,  3-C ) :   1.0891
B(  2-C ,  5-C ) :   1.4111 B(  3-C ,  4-N ) :   3.0426 B(  5-C ,  6-C ) :   1.0847
B(  5-C ,  8-C ) :   1.3556 B(  6-C ,  7-N ) :   3.0464 B(  8-C ,  9-C ) :   1.3668
B(  8-C , 78-H ) :   1.0155 B(  9-C , 10-C ) :   0.9450 B( 10-C , 11-O ) :   2.0962
B( 10-C , 12-C ) :   0.9827 B( 11-O , 80-H ) :   0.1276 B( 12-C , 13-C ) :   1.1227
B( 12-C , 19-C ) :   1.4645 B( 13-C , 14-C ) :   1.6096 B( 14-C , 15-C ) :   1.1551
B( 14-C , 17-C ) :   1.1410 B( 15-C , 16-N ) :   2.9595 B( 17-C , 18-N ) :   2.9799
B( 19-C , 20-C ) :   1.3320 B( 19-C , 79-H ) :   0.9099 B( 20-C , 21-C ) :   1.3898
B( 20-C , 25-S ) :   1.0171 B( 21-C , 22-C ) :   1.3580 B( 21-C , 80-H ) :   0.9299
B( 22-C , 23-C ) :   1.0175 B( 22-C , 31-C ) :   1.2918 B( 23-C , 24-C ) :   1.5999
B( 23-C , 26-C ) :   1.2037 B( 24-C , 25-S ) :   1.1605 B( 24-C , 81-H ) :   0.9416
B( 26-C , 27-C ) :   1.4048 B( 26-C , 30-S ) :   1.1010 B( 27-C , 28-C ) :   1.1877
B( 27-C , 31-C ) :   1.1329 B( 28-C , 29-C ) :   1.6144 B( 28-C , 82-H ) :   0.9972
B( 29-C , 30-S ) :   1.1382 B( 29-C , 83-H ) :   0.9653 B( 31-C , 32-C ) :   1.2331
B( 32-C , 33-C ) :   1.5749 B( 32-C , 84-H ) :   0.9467 B( 33-C , 34-N ) :   1.1884
B( 33-C , 85-H ) :   0.9702 B( 34-N , 35-C ) :   1.0667 B( 34-N , 86-H ) :   0.9189
B( 35-C , 36-C ) :   1.5248 B( 35-C , 39-C ) :   1.2568 B( 36-C , 37-S ) :   1.1647
B( 36-C , 87-H ) :   0.9780 B( 37-S , 38-C ) :   1.1507 B( 38-C , 39-C ) :   1.5104
B( 38-C , 88-H ) :   0.9798 B( 39-C , 40-N ) :   1.1105 B( 40-N , 41-C ) :   1.1873
B( 40-N , 89-H ) :   0.9155 B( 41-C , 42-C ) :   1.6209 B( 41-C , 90-H ) :   0.9594
B( 42-C , 43-C ) :   1.1670 B( 42-C , 91-H ) :   0.9772 B( 43-C , 44-C ) :   1.4877
B( 43-C , 48-S ) :   1.0804 B( 44-C , 45-C ) :   1.2570 B( 44-C , 92-H ) :   0.9745
B( 45-C , 46-C ) :   1.0738 B( 45-C , 54-C ) :   1.3193 B( 46-C , 47-C ) :   1.5862
B( 46-C , 49-C ) :   1.1749 B( 47-C , 48-S ) :   1.1427 B( 47-C , 93-H ) :   0.9405
B( 49-C , 50-C ) :   1.4623 B( 49-C , 53-S ) :   1.0845 B( 50-C , 51-C ) :   1.2406
B( 50-C , 54-C ) :   1.0642 B( 51-C , 52-C ) :   1.5669 B( 51-C , 94-H ) :   0.9960
B( 52-C , 53-S ) :   1.1668 B( 52-C , 95-H ) :   0.9655 B( 54-C , 55-C ) :   1.2258
B( 55-C , 56-C ) :   1.4807 B( 55-C , 96-H ) :   0.9577 B( 56-C , 57-C ) :   1.2824
B( 56-C , 97-H ) :   0.9596 B( 57-C , 58-C ) :   1.4650 B( 57-C , 98-H ) :   0.9404
B( 58-C , 59-C ) :   0.9729 B( 58-C , 67-C ) :   1.1159 B( 59-C , 60-O ) :   2.2060
B( 59-C , 61-C ) :   0.9146 B( 61-C , 62-C ) :   1.3705 B( 61-C , 66-C ) :   1.3366
B( 62-C , 63-C ) :   1.3520 B( 62-C , 99-H ) :   1.0161 B( 63-C , 64-C ) :   1.4111
B( 63-C , 75-C ) :   1.0853 B( 64-C , 65-C ) :   1.3803 B( 64-C , 73-C ) :   1.0856
B( 65-C , 66-C ) :   1.3628 B( 65-C ,100-H ) :   0.9869 B( 66-C , 67-C ) :   0.9446
B( 67-C , 68-C ) :   1.6012 B( 68-C , 69-C ) :   1.1601 B( 68-C , 71-C ) :   1.1519
B( 69-C , 70-N ) :   2.9426 B( 71-C , 72-N ) :   2.9546 B( 73-C , 74-N ) :   3.0423
B( 75-C , 76-N ) :   3.0461

-----------------------------------------------------------------------------
         ABSORPTION SPECTRUM VIA TRANSITION ELECTRIC DIPOLE MOMENTS
-----------------------------------------------------------------------------
State   Energy  Wavelength   fosc         T2         TX        TY        TZ
        (cm-1)    (nm)                  (au**2)     (au)      (au)      (au)
-----------------------------------------------------------------------------
   0   13188.9    758.2   0.564194217  14.08306   1.27998   0.59488   3.47719
   1   14285.4    700.0   1.107331380  25.51886   4.34572   2.16349  -1.39745
   2   16714.2    598.3   0.014386450   0.28336  -0.20926  -0.44616  -0.20128
   3   19375.9    516.1   0.023138040   0.39313   0.29235   0.50701  -0.22496
   4   19622.8    509.6   0.089473858   1.50111   0.87545  -0.22487  -0.82712
   5   21449.9    466.2   0.087915760   1.34933  -1.09622   0.37732  -0.07248
   6   22021.8    454.1   0.066083417   0.98790  -0.49345   0.26583  -0.82082
   7   22127.0    451.9   0.111420326   1.65775  -1.27689   0.10310   0.12908
   8   23106.8    432.8   0.479379999   6.82993  -0.93444  -2.33850  -0.69870
   9   23134.1    432.3   0.138243065   1.96728  -1.38369  -0.22937  -0.00884
  10   23432.6    426.8   0.002129781   0.02992  -0.09701   0.08688  -0.11385
  11   26812.3    373.0   0.023193076   0.28477  -0.11361  -0.06791  -0.51697
  12   26953.5    371.0   0.156921709   1.91665   0.03177   1.21233  -0.66776
  13   27632.7    361.9   0.371055765   4.42070   0.83048   1.32446  -1.40599
  14   28325.4    353.0   0.071175036   0.82723   0.04255   0.65061  -0.63413
  15   28365.3    352.5   0.054761361   0.63557   0.71032  -0.33303   0.14178
  16   28474.0    351.2   0.035996195   0.41618   0.36578   0.10816  -0.52028
  17   28583.6    349.9   0.017316328   0.19944  -0.10735   0.43333   0.01210
  18   29170.5    342.8   0.051455087   0.58071   0.45054  -0.56348   0.24539
  19   29281.8    341.5   0.088283119   0.99256   0.43756  -0.81497   0.37002
  20   29458.3    339.5   0.107260232   1.19869  -0.40311   0.95405  -0.35492
  21   29782.2    335.8   0.090843847   1.00419  -0.80844   0.37671   0.45683
  22   29974.8    333.6   0.008064078   0.08857   0.11713  -0.24912  -0.11307
  23   30675.3    326.0   0.101712426   1.09159  -0.39085   0.92984  -0.27245
  24   31040.0    322.2   0.014745891   0.15640   0.07012  -0.38410   0.06280
  25   31445.5    318.0   0.007399458   0.07747   0.09356  -0.25393   0.06508
  26   31646.1    316.0   0.012258991   0.12753   0.24527  -0.16221   0.20264
  27   31844.7    314.0   0.002667571   0.02758   0.10852  -0.11974   0.03827
  28   32337.3    309.2   0.003711848   0.03779  -0.19128   0.02000  -0.02831
  29   32541.9    307.3   0.003501092   0.03542   0.14190   0.12362  -0.00050
  30   32921.3    303.8   0.403334504   4.03333   1.71100  -0.83581  -0.63815
  31   33421.5    299.2   0.327305413   3.22406   0.93535  -1.36055   0.70575
  32   33552.6    298.0   0.054896933   0.53864   0.55355  -0.30137  -0.37603
  33   34052.2    293.7   0.339492964   3.28217  -1.58864   0.07607   0.86752
  34   34226.7    292.2   0.238038418   2.28959  -0.69716  -0.63273  -1.18457
  35   34351.1    291.1   0.103986747   0.99658  -0.17777   0.82216  -0.53762
  36   34622.4    288.8   0.020182863   0.19191  -0.31841   0.30088   0.00149
  37   34690.8    288.3   0.037395324   0.35488   0.53054  -0.26774  -0.04151
  38   35019.4    285.6   0.064813473   0.60930   0.16592   0.05518  -0.76074
  39   35243.3    283.7   0.367859687   3.43622   0.50551   1.23497  -1.28668
  40   35478.4    281.9   0.075407522   0.69972   0.65616   0.37355   0.36005
  41   35683.1    280.2   0.120436718   1.11115   0.75574   0.44427  -0.58534
  42   35767.5    279.6   0.047933666   0.44119   0.44759  -0.02430  -0.49017
  43   35959.5    278.1   0.141613570   1.29648  -0.73236   0.05149   0.87033
  44   36296.4    275.5   0.262430506   2.38027  -1.14953   0.79712  -0.65073
  45   36689.5    272.6   0.028975858   0.26000   0.00186  -0.37453   0.34601
  46   36765.5    272.0   0.032182041   0.28817  -0.08131  -0.40302   0.34516
  47   36817.8    271.6   0.362085123   3.23764  -0.66388  -1.17394   1.19112
  48   36938.9    270.7   0.013255103   0.11813   0.06698  -0.33350   0.04923
  49   37131.2    269.3   0.447781666   3.97011   1.63407  -0.97584   0.58964
  50   37475.8    266.8   0.077356119   0.67955   0.00126  -0.71279   0.41410
  51   37525.7    266.5   0.212658267   1.86564  -0.21208   1.34637   0.08921
  52   38325.3    260.9   0.000711894   0.00612  -0.00369  -0.07572  -0.01917
  53   38531.0    259.5   0.149938430   1.28109  -0.88126   0.70817  -0.05447
  54   38799.0    257.7   0.244311095   2.07300   0.88387   0.67722   0.91277
  55   39320.6    254.3   0.069640014   0.58306   0.23007   0.70357   0.18742
  56   39467.7    253.4   0.328649135   2.74136  -0.53153   1.52651   0.35860
  57   39621.4    252.4   0.060815577   0.50531   0.69076  -0.10779   0.12861
  58   39801.4    251.2   0.202239727   1.67280   0.52394   1.16518   0.20158
  59   40058.7    249.6   0.059143743   0.48606  -0.28267   0.58937   0.24249
  60   40213.9    248.7   0.029699181   0.24313  -0.05810   0.43326  -0.22813

FINAL SINGLE POINT ENERGY     -4985.098950201867

DIPOLE MOMENT
-------------
                                X             Y             Z
Electronic contribution:     23.16329      12.68363      11.21519
Nuclear contribution   :    -31.90215     -18.94284     -10.69508
                        -----------------------------------------
Total Dipole Moment    :     -8.73886      -6.25921       0.52012
                        -----------------------------------------
Magnitude (a.u.)       :     10.76178
Magnitude (Debye)      :     27.35428

Rotational constants in cm-1:     0.000702     0.000242     0.000217
Rotational constants in MHz :    21.058711     7.264185     6.515253

                             ****ORCA TERMINATED NORMALLY****
TOTAL RUN TIME: 0 days 0 hours 10 minutes 32 seconds 57 msec
