                         Program Version 4.2.0 -  RELEASE  -
|  1> # ORCA input file
|  2> # SCF done       -187.951272665578          0.000566757213
|  3> ! CAM-B3LYP def2-SVP def2/J RIJCOSX Grid4 TightSCF
|  4> %maxcore 5000
|  5> %tddft
|  6>     Mode sTDDFT
|  7>     Ethresh 5.0
|  8>     maxcore 5000
|  9> end
| 10>
| 11> %pal
| 12>   nprocs 6
| 13>   end
| 14> * xyz 0 1
| 15>    C       -0.42730        -1.75829         1.61177
| 16>    C        0.29588        -0.89701         2.41899
| 17>    C        0.61314         0.36937         1.92271
| 18>    C        1.34170         1.27288         2.73615
| 19>    N        1.92835         1.99811         3.39951
| 20>    C        0.21618         0.76870         0.63198
| 21>    C        0.55052         2.06054         0.15794
| 22>    N        0.80808         3.10180        -0.24240
| 23>    C       -0.51524        -0.10167        -0.17770
| 24>    C       -0.82624        -1.34776         0.32407
| 25>    C       -1.61916        -2.41862        -0.31125
| 26>    O       -2.16932        -2.37058        -1.39619
| 27>    C       -1.69449        -3.50349         0.67920
| 28>    C       -0.90798        -3.12050         1.83858
| 29>    C       -0.58473        -3.92063         2.89882
| 30>    C        0.21785        -3.50712         3.98532
| 31>    N        0.86054        -3.21715         4.88966
| 32>    C       -0.96570        -5.27646         3.01770
| 33>    N       -1.21615        -6.38778         3.15186
| 34>    C       -2.53677        -4.58047         0.59823
| 35>    C       -3.22919        -5.06406        -0.52690
| 36>    S       -4.70777        -5.96668        -0.23592
| 37>    C       -4.94768        -6.26916        -1.93489
| 38>    C       -3.88795        -5.73890        -2.67333
| 39>    C       -2.94282        -5.04476        -1.88542
| 40>    S       -1.54824        -4.41313        -2.68745
| 41>    C       -1.97448        -5.02701        -4.26193
| 42>    S       -1.02472        -4.83193        -5.57665
| 43>    S       -3.52891        -5.83733        -4.36706
| 44>    C       -6.12642        -6.93647        -2.36044
| 45>    C       -7.07962        -7.35283        -1.39845
| 46>    C       -8.33355        -7.95392        -1.75532
| 47>    N       -9.19671        -8.28737        -0.79379
| 48>    C       -8.90103        -8.08306         0.46864
| 49>    C       -7.64450        -7.50312         0.82508
| 50>    N       -6.79003        -7.15904        -0.11018
| 51>    C       -7.30742        -7.28089         2.18412
| 52>    N       -7.06305        -7.09892         3.28746
| 53>    C       -9.84183        -8.44028         1.46732
| 54>    N      -10.58259        -8.71702         2.29474
| 55>    C       -8.71280        -8.19587        -3.09877
| 56>    C       -7.73939        -7.83861        -4.05706
| 57>    C       -6.48032        -7.21915        -3.69779
| 58>    N       -5.74304        -6.97113        -4.77646
| 59>    S       -6.51165        -7.45665        -6.09852
| 60>    N       -7.83375        -8.00405        -5.37332
| 61>    C       -9.99481        -8.73613        -3.37923
| 62>    S      -11.05964        -9.13516        -2.05892
| 63>    C      -12.31872        -9.69011        -3.14142
| 64>    C      -11.91514        -9.53437        -4.45933
| 65>    C      -10.61815        -8.99894        -4.60023
| 66>    S      -10.07909        -8.74387        -6.22991
| 67>    C      -11.57125        -9.24868        -7.00424
| 68>    S      -11.76072        -9.22671        -8.61962
| 69>    S      -12.82865        -9.79641        -5.91187
| 70>    C      -13.54136       -10.11893        -2.59019
| 71>    C      -14.53632       -10.88814        -3.11999
| 72>    C      -15.89513       -10.81520        -2.50560
| 73>    O      -16.19047       -10.29479        -1.45927
| 74>    C      -16.79330       -11.46748        -3.48567
| 75>    C      -18.16843       -11.56006        -3.46242
| 76>    C      -18.80200       -12.20237        -4.52825
| 77>    C      -18.04210       -12.73076        -5.58935
| 78>    C      -16.64838       -12.64012        -5.59792
| 79>    C      -16.02538       -12.00835        -4.53617
| 80>    C      -14.60803       -11.77589        -4.25302
| 81>    C      -13.56455       -12.46044        -4.82262
| 82>    C      -13.70920       -13.38390        -5.88044
| 83>    N      -13.77255       -14.13249        -6.74674
| 84>    C      -12.23948       -12.39177        -4.34701
| 85>    N      -11.15342       -12.36291        -3.97756
| 86>    C      -18.70507       -13.36437        -6.67035
| 87>    N      -19.23399       -13.87644        -7.54670
| 88>    C      -20.21354       -12.31624        -4.54563
| 89>    N      -21.35571       -12.39492        -4.54468
| 90>    H        0.61159        -1.16645         3.41439
| 91>    H       -0.83076         0.19252        -1.16716
| 92>    H       -2.76621        -5.11309         1.51383
| 93>    H      -13.75563        -9.72759        -1.59917
| 94>    H      -18.73890       -11.14608        -2.64489
| 95>    H      -16.09702       -13.04972        -6.42960
| 96> *
| 97>
| 98>                          ****END OF INPUT****

CARTESIAN COORDINATES (ANGSTROEM)
---------------------------------
  C     -0.427300   -1.758290    1.611770
  C      0.295880   -0.897010    2.418990
  C      0.613140    0.369370    1.922710
  C      1.341700    1.272880    2.736150
  N      1.928350    1.998110    3.399510
  C      0.216180    0.768700    0.631980
  C      0.550520    2.060540    0.157940
  N      0.808080    3.101800   -0.242400
  C     -0.515240   -0.101670   -0.177700
  C     -0.826240   -1.347760    0.324070
  C     -1.619160   -2.418620   -0.311250
  O     -2.169320   -2.370580   -1.396190
  C     -1.694490   -3.503490    0.679200
  C     -0.907980   -3.120500    1.838580
  C     -0.584730   -3.920630    2.898820
  C      0.217850   -3.507120    3.985320
  N      0.860540   -3.217150    4.889660
  C     -0.965700   -5.276460    3.017700
  N     -1.216150   -6.387780    3.151860
  C     -2.536770   -4.580470    0.598230
  C     -3.229190   -5.064060   -0.526900
  S     -4.707770   -5.966680   -0.235920
  C     -4.947680   -6.269160   -1.934890
  C     -3.887950   -5.738900   -2.673330
  C     -2.942820   -5.044760   -1.885420
  S     -1.548240   -4.413130   -2.687450
  C     -1.974480   -5.027010   -4.261930
  S     -1.024720   -4.831930   -5.576650
  S     -3.528910   -5.837330   -4.367060
  C     -6.126420   -6.936470   -2.360440
  C     -7.079620   -7.352830   -1.398450
  C     -8.333550   -7.953920   -1.755320
  N     -9.196710   -8.287370   -0.793790
  C     -8.901030   -8.083060    0.468640
  C     -7.644500   -7.503120    0.825080
  N     -6.790030   -7.159040   -0.110180
  C     -7.307420   -7.280890    2.184120
  N     -7.063050   -7.098920    3.287460
  C     -9.841830   -8.440280    1.467320
  N    -10.582590   -8.717020    2.294740
  C     -8.712800   -8.195870   -3.098770
  C     -7.739390   -7.838610   -4.057060
  C     -6.480320   -7.219150   -3.697790
  N     -5.743040   -6.971130   -4.776460
  S     -6.511650   -7.456650   -6.098520
  N     -7.833750   -8.004050   -5.373320
  C     -9.994810   -8.736130   -3.379230
  S    -11.059640   -9.135160   -2.058920
  C    -12.318720   -9.690110   -3.141420
  C    -11.915140   -9.534370   -4.459330
  C    -10.618150   -8.998940   -4.600230
  S    -10.079090   -8.743870   -6.229910
  C    -11.571250   -9.248680   -7.004240
  S    -11.760720   -9.226710   -8.619620
  S    -12.828650   -9.796410   -5.911870
  C    -13.541360  -10.118930   -2.590190
  C    -14.536320  -10.888140   -3.119990
  C    -15.895130  -10.815200   -2.505600
  O    -16.190470  -10.294790   -1.459270
  C    -16.793300  -11.467480   -3.485670
  C    -18.168430  -11.560060   -3.462420
  C    -18.802000  -12.202370   -4.528250
  C    -18.042100  -12.730760   -5.589350
  C    -16.648380  -12.640120   -5.597920
  C    -16.025380  -12.008350   -4.536170
  C    -14.608030  -11.775890   -4.253020
  C    -13.564550  -12.460440   -4.822620
  C    -13.709200  -13.383900   -5.880440
  N    -13.772550  -14.132490   -6.746740
  C    -12.239480  -12.391770   -4.347010
  N    -11.153420  -12.362910   -3.977560
  C    -18.705070  -13.364370   -6.670350
  N    -19.233990  -13.876440   -7.546700
  C    -20.213540  -12.316240   -4.545630
  N    -21.355710  -12.394920   -4.544680
  H      0.611590   -1.166450    3.414390
  H     -0.830760    0.192520   -1.167160
  H     -2.766210   -5.113090    1.513830
  H    -13.755630   -9.727590   -1.599170
  H    -18.738900  -11.146080   -2.644890
  H    -16.097020  -13.049720   -6.429600

 Total Charge           Charge          ....    0
 Multiplicity           Mult            ....    1
 Number of Electrons    NEL             ....  564
 Basis Dimension        Dim             .... 1116

ORBITAL ENERGIES
----------------

  NO   OCC          E(Eh)            E(eV)
   0   2.0000     -89.089779     -2424.2561
   1   2.0000     -89.004757     -2421.9426
   2   2.0000     -89.001562     -2421.8556
   3   2.0000     -89.001096     -2421.8429
   4   2.0000     -89.000574     -2421.8287
   5   2.0000     -88.996622     -2421.7212
   6   2.0000     -88.996097     -2421.7069
   7   2.0000     -88.922841     -2419.7135
   8   2.0000     -88.913633     -2419.4630
   9   2.0000     -19.252947      -523.8993
  10   2.0000     -19.250872      -523.8429
  11   2.0000     -14.506738      -394.7484
  12   2.0000     -14.506581      -394.7441
  13   2.0000     -14.497759      -394.5041
  14   2.0000     -14.497428      -394.4951
  15   2.0000     -14.463342      -393.5675
  16   2.0000     -14.463152      -393.5624
  17   2.0000     -14.444974      -393.0677
  18   2.0000     -14.443680      -393.0325
  19   2.0000     -14.443093      -393.0165
  20   2.0000     -14.443081      -393.0162
  21   2.0000     -14.435566      -392.8117
  22   2.0000     -14.434468      -392.7818
  23   2.0000     -14.434398      -392.7799
  24   2.0000     -14.434109      -392.7721
  25   2.0000     -10.425431      -283.6904
  26   2.0000     -10.425193      -283.6839
  27   2.0000     -10.400745      -283.0187
  28   2.0000     -10.399218      -282.9771
  29   2.0000     -10.394004      -282.8352
  30   2.0000     -10.392452      -282.7930
  31   2.0000     -10.392217      -282.7866
  32   2.0000     -10.392167      -282.7853
  33   2.0000     -10.391968      -282.7798
  34   2.0000     -10.385479      -282.6033
  35   2.0000     -10.379862      -282.4504
  36   2.0000     -10.378646      -282.4173
  37   2.0000     -10.372014      -282.2368
  38   2.0000     -10.370561      -282.1973
  39   2.0000     -10.369864      -282.1784
  40   2.0000     -10.369268      -282.1621
  41   2.0000     -10.368646      -282.1452
  42   2.0000     -10.368152      -282.1318
  43   2.0000     -10.367754      -282.1209
  44   2.0000     -10.367251      -282.1072
  45   2.0000     -10.366919      -282.0982
  46   2.0000     -10.366661      -282.0912
  47   2.0000     -10.365351      -282.0555
  48   2.0000     -10.363349      -282.0011
  49   2.0000     -10.361453      -281.9495
  50   2.0000     -10.357951      -281.8542
  51   2.0000     -10.355661      -281.7918
  52   2.0000     -10.355400      -281.7848
  53   2.0000     -10.353177      -281.7243
  54   2.0000     -10.350851      -281.6610
  55   2.0000     -10.349997      -281.6377
  56   2.0000     -10.349706      -281.6298
  57   2.0000     -10.349208      -281.6163
  58   2.0000     -10.346889      -281.5532
  59   2.0000     -10.345322      -281.5105
  60   2.0000     -10.344406      -281.4856
  61   2.0000     -10.343822      -281.4697
  62   2.0000     -10.343670      -281.4656
  63   2.0000     -10.342975      -281.4467
  64   2.0000     -10.342783      -281.4414
  65   2.0000     -10.342538      -281.4348
  66   2.0000     -10.342143      -281.4240
  67   2.0000     -10.335209      -281.2353
  68   2.0000     -10.334462      -281.2150
  69   2.0000     -10.333470      -281.1880
  70   2.0000     -10.333004      -281.1753
  71   2.0000     -10.331845      -281.1438
  72   2.0000     -10.330920      -281.1186
  73   2.0000     -10.330439      -281.1055
  74   2.0000     -10.330220      -281.0996
  75   2.0000      -8.180435      -222.6009
  76   2.0000      -8.099926      -220.4102
  77   2.0000      -8.095229      -220.2824
  78   2.0000      -8.094766      -220.2698
  79   2.0000      -8.093729      -220.2416
  80   2.0000      -8.091735      -220.1873
  81   2.0000      -8.090430      -220.1518
  82   2.0000      -8.019812      -218.2302
  83   2.0000      -8.010473      -217.9761
  84   2.0000      -6.151532      -167.3917
  85   2.0000      -6.143801      -167.1813
  86   2.0000      -6.143144      -167.1634
  87   2.0000      -6.069665      -165.1640
  88   2.0000      -6.065256      -165.0440
  89   2.0000      -6.065232      -165.0434
  90   2.0000      -6.064621      -165.0267
  91   2.0000      -6.063588      -164.9986
  92   2.0000      -6.061415      -164.9395
  93   2.0000      -6.061124      -164.9316
  94   2.0000      -6.060583      -164.9169
  95   2.0000      -6.060446      -164.9131
  96   2.0000      -6.059842      -164.8967
  97   2.0000      -6.058827      -164.8691
  98   2.0000      -6.056840      -164.8150
  99   2.0000      -6.056300      -164.8003
 100   2.0000      -6.055964      -164.7911
 101   2.0000      -6.055791      -164.7865
 102   2.0000      -6.055270      -164.7723
 103   2.0000      -6.053107      -164.7134
 104   2.0000      -6.051133      -164.6597
 105   2.0000      -5.989188      -162.9741
 106   2.0000      -5.987077      -162.9166
 107   2.0000      -5.979969      -162.7232
 108   2.0000      -5.979513      -162.7108
 109   2.0000      -5.977586      -162.6584
 110   2.0000      -5.970261      -162.4591
 111   2.0000      -1.188537       -32.3417
 112   2.0000      -1.168400       -31.7938
 113   2.0000      -1.167431       -31.7674
 114   2.0000      -1.166809       -31.7505
 115   2.0000      -1.096897       -29.8481
 116   2.0000      -1.062691       -28.9173
 117   2.0000      -1.058694       -28.8085
 118   2.0000      -1.053459       -28.6661
 119   2.0000      -1.052898       -28.6508
 120   2.0000      -1.047459       -28.5028
 121   2.0000      -1.040708       -28.3191
 122   2.0000      -1.038238       -28.2519
 123   2.0000      -1.037598       -28.2345
 124   2.0000      -1.037366       -28.2282
 125   2.0000      -1.022914       -27.8349
 126   2.0000      -1.021499       -27.7964
 127   2.0000      -1.021228       -27.7890
 128   2.0000      -1.020880       -27.7796
 129   2.0000      -1.020371       -27.7657
 130   2.0000      -1.014031       -27.5932
 131   2.0000      -1.013688       -27.5838
 132   2.0000      -0.998231       -27.1632
 133   2.0000      -0.993963       -27.0471
 134   2.0000      -0.989288       -26.9199
 135   2.0000      -0.987143       -26.8615
 136   2.0000      -0.957903       -26.0659
 137   2.0000      -0.953447       -25.9446
 138   2.0000      -0.942648       -25.6508
 139   2.0000      -0.938536       -25.5389
 140   2.0000      -0.938122       -25.5276
 141   2.0000      -0.923703       -25.1352
 142   2.0000      -0.914099       -24.8739
 143   2.0000      -0.913146       -24.8480
 144   2.0000      -0.909647       -24.7528
 145   2.0000      -0.905835       -24.6490
 146   2.0000      -0.897642       -24.4261
 147   2.0000      -0.891080       -24.2475
 148   2.0000      -0.882056       -24.0020
 149   2.0000      -0.866465       -23.5777
 150   2.0000      -0.861475       -23.4419
 151   2.0000      -0.848952       -23.1012
 152   2.0000      -0.835337       -22.7307
 153   2.0000      -0.820208       -22.3190
 154   2.0000      -0.819582       -22.3020
 155   2.0000      -0.818495       -22.2724
 156   2.0000      -0.813122       -22.1262
 157   2.0000      -0.805339       -21.9144
 158   2.0000      -0.785164       -21.3654
 159   2.0000      -0.773250       -21.0412
 160   2.0000      -0.765545       -20.8315
 161   2.0000      -0.761676       -20.7262
 162   2.0000      -0.749574       -20.3969
 163   2.0000      -0.748607       -20.3706
 164   2.0000      -0.746923       -20.3248
 165   2.0000      -0.729051       -19.8385
 166   2.0000      -0.722427       -19.6582
 167   2.0000      -0.721271       -19.6268
 168   2.0000      -0.708042       -19.2668
 169   2.0000      -0.704520       -19.1710
 170   2.0000      -0.699972       -19.0472
 171   2.0000      -0.694358       -18.8944
 172   2.0000      -0.675709       -18.3870
 173   2.0000      -0.674740       -18.3606
 174   2.0000      -0.671583       -18.2747
 175   2.0000      -0.670113       -18.2347
 176   2.0000      -0.669213       -18.2102
 177   2.0000      -0.667089       -18.1524
 178   2.0000      -0.660447       -17.9717
 179   2.0000      -0.655078       -17.8256
 180   2.0000      -0.650849       -17.7105
 181   2.0000      -0.638167       -17.3654
 182   2.0000      -0.629332       -17.1250
 183   2.0000      -0.628153       -17.0929
 184   2.0000      -0.626018       -17.0348
 185   2.0000      -0.615047       -16.7363
 186   2.0000      -0.610384       -16.6094
 187   2.0000      -0.607672       -16.5356
 188   2.0000      -0.601663       -16.3721
 189   2.0000      -0.592634       -16.1264
 190   2.0000      -0.592046       -16.1104
 191   2.0000      -0.580725       -15.8023
 192   2.0000      -0.579236       -15.7618
 193   2.0000      -0.577790       -15.7225
 194   2.0000      -0.576564       -15.6891
 195   2.0000      -0.574372       -15.6295
 196   2.0000      -0.572239       -15.5714
 197   2.0000      -0.571356       -15.5474
 198   2.0000      -0.566432       -15.4134
 199   2.0000      -0.564490       -15.3606
 200   2.0000      -0.561234       -15.2719
 201   2.0000      -0.557492       -15.1701
 202   2.0000      -0.546993       -14.8844
 203   2.0000      -0.545069       -14.8321
 204   2.0000      -0.539604       -14.6834
 205   2.0000      -0.535946       -14.5838
 206   2.0000      -0.534903       -14.5554
 207   2.0000      -0.533930       -14.5290
 208   2.0000      -0.530364       -14.4319
 209   2.0000      -0.528751       -14.3880
 210   2.0000      -0.526022       -14.3138
 211   2.0000      -0.524328       -14.2677
 212   2.0000      -0.522954       -14.2303
 213   2.0000      -0.521322       -14.1859
 214   2.0000      -0.516717       -14.0606
 215   2.0000      -0.514351       -13.9962
 216   2.0000      -0.510841       -13.9007
 217   2.0000      -0.502405       -13.6711
 218   2.0000      -0.500484       -13.6189
 219   2.0000      -0.492493       -13.4014
 220   2.0000      -0.491476       -13.3737
 221   2.0000      -0.488500       -13.2928
 222   2.0000      -0.486031       -13.2256
 223   2.0000      -0.484299       -13.1784
 224   2.0000      -0.483119       -13.1463
 225   2.0000      -0.481121       -13.0920
 226   2.0000      -0.479573       -13.0499
 227   2.0000      -0.476776       -12.9737
 228   2.0000      -0.475865       -12.9489
 229   2.0000      -0.474993       -12.9252
 230   2.0000      -0.473825       -12.8934
 231   2.0000      -0.473197       -12.8764
 232   2.0000      -0.468674       -12.7533
 233   2.0000      -0.468437       -12.7468
 234   2.0000      -0.467935       -12.7332
 235   2.0000      -0.467061       -12.7094
 236   2.0000      -0.464297       -12.6342
 237   2.0000      -0.463759       -12.6195
 238   2.0000      -0.461089       -12.5469
 239   2.0000      -0.460714       -12.5367
 240   2.0000      -0.459844       -12.5130
 241   2.0000      -0.459359       -12.4998
 242   2.0000      -0.458146       -12.4668
 243   2.0000      -0.458009       -12.4631
 244   2.0000      -0.457701       -12.4547
 245   2.0000      -0.455688       -12.3999
 246   2.0000      -0.454987       -12.3808
 247   2.0000      -0.454572       -12.3695
 248   2.0000      -0.452956       -12.3256
 249   2.0000      -0.452536       -12.3141
 250   2.0000      -0.444182       -12.0868
 251   2.0000      -0.442993       -12.0545
 252   2.0000      -0.440770       -11.9940
 253   2.0000      -0.439481       -11.9589
 254   2.0000      -0.435051       -11.8383
 255   2.0000      -0.434345       -11.8191
 256   2.0000      -0.434307       -11.8181
 257   2.0000      -0.433845       -11.8055
 258   2.0000      -0.419173       -11.4063
 259   2.0000      -0.414702       -11.2846
 260   2.0000      -0.411385       -11.1944
 261   2.0000      -0.406569       -11.0633
 262   2.0000      -0.394238       -10.7278
 263   2.0000      -0.392311       -10.6753
 264   2.0000      -0.390864       -10.6359
 265   2.0000      -0.389639       -10.6026
 266   2.0000      -0.387546       -10.5457
 267   2.0000      -0.381741       -10.3877
 268   2.0000      -0.379636       -10.3304
 269   2.0000      -0.378498       -10.2995
 270   2.0000      -0.376303       -10.2397
 271   2.0000      -0.371215       -10.1013
 272   2.0000      -0.364667        -9.9231
 273   2.0000      -0.363921        -9.9028
 274   2.0000      -0.345931        -9.4133
 275   2.0000      -0.342331        -9.3153
 276   2.0000      -0.327132        -8.9017
 277   2.0000      -0.315920        -8.5966
 278   2.0000      -0.308260        -8.3882
 279   2.0000      -0.307833        -8.3766
 280   2.0000      -0.300115        -8.1665
 281   2.0000      -0.278564        -7.5801
 282   0.0000      -0.174751        -4.7552
 283   0.0000      -0.122244        -3.3264
 284   0.0000      -0.118391        -3.2216
 285   0.0000      -0.107365        -2.9216
 286   0.0000      -0.104498        -2.8435

MULLIKEN ATOMIC CHARGES
-----------------------
   0 C :    0.045684
   1 C :   -0.036613
   2 C :   -0.061414
   3 C :   -0.176961
   4 N :    0.206445
   5 C :   -0.066002
   6 C :   -0.174542
   7 N :    0.204197
   8 C :   -0.031830
   9 C :    0.000642
  10 C :    0.140321
  11 O :   -0.150105
  12 C :   -0.081118
  13 C :    0.291599
  14 C :   -0.312763
  15 C :   -0.184009
  16 N :    0.175612
  17 C :   -0.203146
  18 N :    0.183429
  19 C :    0.011338
  20 C :   -0.124776
  21 S :    0.197612
  22 C :   -0.216556
  23 C :   -0.012273
  24 C :    0.009810
  25 S :    0.257351
  26 C :   -0.163389
  27 S :   -0.097462
  28 S :    0.228436
  29 C :    0.177751
  30 C :   -0.056078
  31 C :   -0.047410
  32 N :   -0.016062
  33 C :   -0.080149
  34 C :   -0.080689
  35 N :   -0.016835
  36 C :   -0.248321
  37 N :    0.274385
  38 C :   -0.246793
  39 N :    0.270015
  40 C :    0.179511
  41 C :    0.024130
  42 C :    0.035137
  43 N :   -0.329853
  44 S :    0.608187
  45 N :   -0.329318
  46 C :   -0.206479
  47 S :    0.210298
  48 C :   -0.131235
  49 C :   -0.026012
  50 C :    0.002685
  51 S :    0.234598
  52 C :   -0.150574
  53 S :   -0.073524
  54 S :    0.203378
  55 C :    0.064753
  56 C :   -0.136928
  57 C :    0.142967
  58 O :   -0.114336
  59 C :    0.011475
  60 C :   -0.030982
  61 C :   -0.065793
  62 C :   -0.061451
  63 C :   -0.040750
  64 C :    0.038583
  65 C :    0.265951
  66 C :   -0.317353
  67 C :   -0.181188
  68 N :    0.186300
  69 C :   -0.193854
  70 N :    0.177548
  71 C :   -0.174301
  72 N :    0.208239
  73 C :   -0.175176
  74 N :    0.197862
  75 H :    0.022165
  76 H :    0.017501
  77 H :    0.036895
  78 H :    0.036520
  79 H :    0.019851
  80 H :    0.025241
Sum of atomic charges:   -0.0000000

LOEWDIN ATOMIC CHARGES
----------------------
   0 C :    0.001005
   1 C :    0.035551
   2 C :   -0.022928
   3 C :   -0.032266
   4 N :   -0.007719
   5 C :   -0.026193
   6 C :   -0.032414
   7 N :   -0.010006
   8 C :    0.048571
   9 C :   -0.027482
  10 C :    0.066255
  11 O :   -0.146087
  12 C :   -0.092509
  13 C :    0.066333
  14 C :   -0.111693
  15 C :   -0.021813
  16 N :   -0.025280
  17 C :   -0.024883
  18 N :   -0.026148
  19 C :    0.044932
  20 C :   -0.196057
  21 S :    0.497718
  22 C :   -0.168624
  23 C :   -0.191064
  24 C :   -0.183837
  25 S :    0.486425
  26 C :   -0.461861
  27 S :   -0.001227
  28 S :    0.457267
  29 C :   -0.041187
  30 C :   -0.005212
  31 C :   -0.005525
  32 N :   -0.016318
  33 C :   -0.009224
  34 C :   -0.008607
  35 N :   -0.016798
  36 C :   -0.041161
  37 N :    0.019389
  38 C :   -0.041068
  39 N :    0.018593
  40 C :   -0.037880
  41 C :   -0.030468
  42 C :   -0.029673
  43 N :   -0.287135
  44 S :    0.713475
  45 N :   -0.287882
  46 C :   -0.166375
  47 S :    0.508768
  48 C :   -0.195238
  49 C :   -0.194045
  50 C :   -0.185517
  51 S :    0.463884
  52 C :   -0.457618
  53 S :    0.023055
  54 S :    0.448177
  55 C :    0.040635
  56 C :   -0.086900
  57 C :    0.086092
  58 O :   -0.115605
  59 C :   -0.034592
  60 C :    0.051845
  61 C :   -0.028932
  62 C :   -0.019730
  63 C :    0.030981
  64 C :    0.006668
  65 C :    0.037318
  66 C :   -0.127539
  67 C :   -0.023991
  68 N :   -0.024814
  69 C :   -0.024216
  70 N :   -0.034706
  71 C :   -0.031972
  72 N :   -0.006761
  73 C :   -0.032717
  74 N :   -0.010972
  75 H :    0.052956
  76 H :    0.054739
  77 H :    0.049054
  78 H :    0.051963
  79 H :    0.055603
  80 H :    0.053217

  Mayer bond orders larger than 0.100000
B(  0-C ,  1-C ) :   1.3611 B(  0-C ,  9-C ) :   1.3321 B(  0-C , 13-C ) :   0.9659
B(  1-C ,  2-C ) :   1.3887 B(  1-C , 75-H ) :   0.9875 B(  2-C ,  3-C ) :   1.0873
B(  2-C ,  5-C ) :   1.4065 B(  3-C ,  4-N ) :   3.0435 B(  5-C ,  6-C ) :   1.0870
B(  5-C ,  8-C ) :   1.3609 B(  6-C ,  7-N ) :   3.0453 B(  8-C ,  9-C ) :   1.3666
B(  8-C , 76-H ) :   1.0153 B(  9-C , 10-C ) :   0.9264 B( 10-C , 11-O ) :   2.1677
B( 10-C , 12-C ) :   0.9829 B( 12-C , 13-C ) :   1.0581 B( 12-C , 19-C ) :   1.5630
B( 13-C , 14-C ) :   1.6785 B( 14-C , 15-C ) :   1.1410 B( 14-C , 17-C ) :   1.1383
B( 15-C , 16-N ) :   2.9674 B( 17-C , 18-N ) :   2.9980 B( 19-C , 20-C ) :   1.2206
B( 19-C , 77-H ) :   0.9292 B( 20-C , 21-S ) :   1.0352 B( 20-C , 24-C ) :   1.4854
B( 21-S , 22-C ) :   1.1400 B( 22-C , 23-C ) :   1.4920 B( 22-C , 29-C ) :   1.2048
B( 23-C , 24-C ) :   1.2766 B( 23-C , 28-S ) :   1.0415 B( 24-C , 25-S ) :   1.0564
B( 25-S , 26-C ) :   1.0759 B( 25-S , 27-S ) :   0.1198 B( 26-C , 27-S ) :   1.6931
B( 26-C , 28-S ) :   1.0229 B( 27-S , 28-S ) :   0.1097 B( 29-C , 30-C ) :   1.2449
B( 29-C , 40-C ) :   0.1125 B( 29-C , 42-C ) :   1.1851 B( 30-C , 31-C ) :   1.1341
B( 30-C , 35-N ) :   1.3918 B( 31-C , 32-N ) :   1.3904 B( 31-C , 40-C ) :   1.2444
B( 32-N , 33-C ) :   1.6714 B( 33-C , 34-C ) :   1.2320 B( 33-C , 38-C ) :   1.1693
B( 34-C , 35-N ) :   1.6673 B( 34-C , 36-C ) :   1.1738 B( 36-C , 37-N ) :   3.0373
B( 38-C , 39-N ) :   3.0362 B( 40-C , 41-C ) :   1.1860 B( 40-C , 46-C ) :   1.2043
B( 41-C , 42-C ) :   1.1043 B( 41-C , 45-N ) :   1.4776 B( 42-C , 43-N ) :   1.4765
B( 43-N , 44-S ) :   1.2741 B( 43-N , 45-N ) :   0.1401 B( 44-S , 45-N ) :   1.2729
B( 46-C , 47-S ) :   1.1348 B( 46-C , 50-C ) :   1.5110 B( 47-S , 48-C ) :   1.0499
B( 48-C , 49-C ) :   1.4939 B( 48-C , 55-C ) :   1.1665 B( 49-C , 50-C ) :   1.2769
B( 49-C , 54-S ) :   1.0421 B( 50-C , 51-S ) :   1.0367 B( 51-S , 52-C ) :   1.0322
B( 51-S , 53-S ) :   0.1206 B( 52-C , 53-S ) :   1.7258 B( 52-C , 54-S ) :   1.0372
B( 53-S , 54-S ) :   0.1130 B( 55-C , 56-C ) :   1.6317 B( 55-C , 78-H ) :   0.9262
B( 56-C , 57-C ) :   0.9375 B( 56-C , 65-C ) :   1.0689 B( 57-C , 58-O ) :   2.2909
B( 57-C , 59-C ) :   0.8991 B( 59-C , 60-C ) :   1.3717 B( 59-C , 64-C ) :   1.3315
B( 60-C , 61-C ) :   1.3640 B( 60-C , 79-H ) :   1.0140 B( 61-C , 62-C ) :   1.4042
B( 61-C , 73-C ) :   1.0869 B( 62-C , 63-C ) :   1.3851 B( 62-C , 71-C ) :   1.0867
B( 63-C , 64-C ) :   1.3681 B( 63-C , 80-H ) :   0.9892 B( 64-C , 65-C ) :   0.9758
B( 65-C , 66-C ) :   1.6290 B( 66-C , 67-C ) :   1.1359 B( 66-C , 69-C ) :   1.1671
B( 67-C , 68-N ) :   2.9879 B( 69-C , 70-N ) :   3.0009 B( 71-C , 72-N ) :   3.0449
B( 73-C , 74-N ) :   3.0446

-----------------------------------------------------------------------------
         ABSORPTION SPECTRUM VIA TRANSITION ELECTRIC DIPOLE MOMENTS
-----------------------------------------------------------------------------
State   Energy  Wavelength   fosc         T2         TX        TY        TZ
        (cm-1)    (nm)                  (au**2)     (au)      (au)      (au)
-----------------------------------------------------------------------------
   0    7586.8   1318.1   0.616738713  26.76184  -4.36863  -2.38359  -1.41258
   1   12616.7    792.6   0.067800041   1.76913   0.03929  -0.27511  -1.30073
   2   14079.8    710.2   0.040312024   0.94257   0.39135   0.39449  -0.79611
   3   14156.3    706.4   0.013989872   0.32534   0.16227   0.12793  -0.53164
   4   15910.9    628.5   0.000218933   0.00453  -0.03871  -0.05063  -0.02164
   5   18243.9    548.1   0.001227065   0.02214  -0.11438   0.03037   0.09021
   6   20002.9    499.9   0.614422144  10.11228  -2.41223  -1.68463  -1.20643
   7   20094.5    497.6   0.032621713   0.53445   0.66138   0.29445   0.10162
   8   22167.3    451.1   0.013039250   0.19365  -0.30520  -0.23050  -0.21765
   9   22295.1    448.5   0.109851769   1.62208   0.42873   0.57338   1.05334
  10   23059.5    433.7   0.040999977   0.58534   0.59531   0.40429  -0.25980
  11   23384.9    427.6   0.099340727   1.39852   0.79611   0.72569   0.48796
  12   23639.2    423.0   0.045457672   0.63307  -0.15104  -0.54449   0.56016
  13   23728.8    421.4   0.161660427   2.24287   1.02834   1.04089  -0.31926
  14   24379.3    410.2   0.088454582   1.19447  -0.96008  -0.14181  -0.50259
  15   24432.7    409.3   0.050562999   0.68130   0.50308   0.52357  -0.39254
  16   24887.0    401.8   0.017965369   0.23765  -0.14511  -0.32205  -0.33597
  17   25259.2    395.9   0.182703763   2.38125   0.71631   0.73318   1.15351
  18   25365.5    394.2   0.006187219   0.08030  -0.01345   0.27893   0.04814
  19   25814.0    387.4   0.016403073   0.20919   0.42869  -0.15463  -0.03882
  20   25900.4    386.1   0.088359138   1.12310  -0.54355   0.00662   0.90973
  21   26906.5    371.7   0.013322239   0.16300   0.33090   0.20961  -0.09781
  22   27362.4    365.5   0.068645781   0.82591   0.54070   0.68062  -0.26515
  23   27639.5    361.8   0.001818930   0.02167  -0.14479   0.02220   0.01440
  24   27872.4    358.8   0.070629005   0.83423   0.42967   0.36056   0.72083
  25   28234.2    354.2   0.008793769   0.10254   0.09317  -0.02656  -0.30520
  26   28426.0    351.8   0.108877160   1.26095  -0.46900   0.19167   1.00212
  27   28960.9    345.3   0.034178715   0.38852   0.26301   0.21806  -0.52135
  28   29248.3    341.9   0.016292628   0.18339  -0.09846  -0.28666   0.30252
  29   29779.7    335.8   0.081103092   0.89659  -0.63370  -0.41497   0.56817
  30   29982.3    333.5   0.065923011   0.72385   0.22758   0.33302   0.74910
  31   30010.4    333.2   0.019926370   0.21859  -0.08231  -0.02321  -0.45965
  32   30453.3    328.4   0.031353294   0.33894   0.20199   0.01792   0.54573
  33   30700.4    325.7   0.094112762   1.00921  -0.33152  -0.17763  -0.93153
  34   30949.2    323.1   0.051773395   0.55072   0.19880   0.60895   0.37468
  35   31149.4    321.0   0.098778965   1.04398   0.65722  -0.62275   0.47352
  36   31312.3    319.4   0.138061484   1.45156  -0.72913  -0.28262   0.91654
  37   31451.8    317.9   0.013810946   0.14456  -0.14996  -0.20658  -0.28178
  38   31538.1    317.1   0.036035943   0.37616   0.19468  -0.22274   0.53726
  39   31809.6    314.4   0.100122984   1.03622  -0.35406   0.04119   0.95350
  40   31933.4    313.2   0.154605453   1.59388  -0.82549  -0.00706   0.95519
  41   32206.9    310.5   0.143748106   1.46936  -0.28729  -0.21615   1.15763
  42   32268.5    309.9   0.095803301   0.97741   0.31360  -0.16141  -0.92359
  43   32428.8    308.4   0.019009953   0.19299   0.29278  -0.28294  -0.16497
  44   32565.5    307.1   0.034925994   0.35307  -0.59203   0.02671   0.04315
  45   32697.5    305.8   0.014693042   0.14794   0.10731  -0.30669  -0.20582
  46   32861.0    304.3   0.120095690   1.20316   0.38268   0.20478   1.00736
  47   33087.5    302.2   0.018506334   0.18413   0.32533   0.21908  -0.17405
  48   33246.9    300.8   0.004793475   0.04747  -0.19744   0.04131  -0.08231
  49   33444.5    299.0   0.029990546   0.29521   0.29972  -0.38929  -0.23201
  50   33727.5    296.5   0.035086239   0.34247  -0.34000   0.02183   0.47581
  51   33817.1    295.7   0.026166375   0.25473   0.16170  -0.39624   0.26754
  52   33866.2    295.3   0.102013137   0.99166  -0.14147   0.73745  -0.65407
  53   34090.1    293.3   0.014344274   0.13852  -0.32806   0.08318  -0.15487
  54   34129.7    293.0   0.051381710   0.49562   0.43287  -0.52450   0.18205
  55   34393.0    290.8   0.322278753   3.08487   1.59225   0.23372  -0.70354
  56   34537.4    289.5   0.308377235   2.93947  -0.26311  -1.34063   1.03583
  57   34967.6    286.0   0.153020011   1.44065  -0.97725   0.65384   0.24109
  58   35283.8    283.4   0.004556167   0.04251   0.02229   0.01273  -0.20458
  59   35328.4    283.1   0.079809096   0.74371  -0.16643   0.61883  -0.57711
  60   35623.6    280.7   0.024740689   0.22864  -0.35606   0.31794   0.02787
  61   35698.4    280.1   0.017690800   0.16315  -0.27915   0.20360   0.20921
  62   35771.0    279.6   0.141560792   1.30283   1.12234  -0.10379  -0.18004
  63   36072.5    277.2   0.077923484   0.71116  -0.72490  -0.26492   0.33986
  64   36651.9    272.8   0.053713007   0.48246  -0.15582   0.41677  -0.53336
  65   36859.9    271.3   0.006783188   0.06058  -0.08033   0.22238   0.06840
  66   36985.9    270.4   0.003309887   0.02946  -0.02147   0.17030  -0.00032
  67   37044.2    269.9   0.010000110   0.08887   0.02594   0.03214  -0.29524
  68   37072.7    269.7   0.072555855   0.64431   0.27404  -0.14080   0.74121
  69   37303.6    268.1   0.006149405   0.05427   0.05831  -0.19519  -0.11302
  70   37442.0    267.1   0.028260425   0.24848   0.08521  -0.08729  -0.48332
  71   37565.7    266.2   0.003800639   0.03331   0.15576  -0.00605   0.09491
  72   37605.3    265.9   0.021986462   0.19248   0.32632   0.27137  -0.11113
  73   37780.8    264.7   0.025072471   0.21847  -0.32346   0.16593  -0.29380
  74   37955.4    263.5   0.099840963   0.86598   0.37940  -0.20099  -0.82562
  75   38027.0    263.0   0.034596775   0.29952   0.51260  -0.11538  -0.15312
  76   38210.9    261.7   0.120842440   1.04114  -0.57408  -0.77366  -0.33619
  77   38627.5    258.9   0.026887535   0.22916   0.26312   0.30280   0.26122
  78   38740.1    258.1   0.110806942   0.94163   0.18677   0.29006   0.90698
  79   39151.4    255.4   0.050989093   0.42875   0.39551  -0.27373  -0.44429
  80   39211.6    255.0   0.095300167   0.80012  -0.68539  -0.57198   0.05649
  81   39538.0    252.9   0.207115778   1.72454  -0.26712  -0.20835  -1.26877
  82   39897.0    250.6   0.330388564   2.72622  -0.27138  -0.43857   1.56851
  83   40036.1    249.8   0.239105841   1.96614  -1.17928  -0.75192  -0.10030

FINAL SINGLE POINT ENERGY     -6404.721380476392

DIPOLE MOMENT
-------------
                                X             Y             Z
Electronic contribution:      5.01589      -2.70153      -8.98046
Nuclear contribution   :     -4.95666       2.92967       7.74603
                        -----------------------------------------
Total Dipole Moment    :      0.05923       0.22814      -1.23443
                        -----------------------------------------
Magnitude (a.u.)       :      1.25673
Magnitude (Debye)      :      3.19436

Rotational constants in cm-1:     0.001905     0.000259     0.000241
Rotational constants in MHz :    57.102215     7.770304     7.212382

                             ****ORCA TERMINATED NORMALLY****
TOTAL RUN TIME: 0 days 0 hours 14 minutes 46 seconds 930 msec
