                         Program Version 4.2.0 -  RELEASE  -
|  1> # ORCA input file
|  2> # SCF done       -188.520951533476          0.000914372008
|  3> ! CAM-B3LYP def2-SVP def2/J RIJCOSX Grid4 TightSCF
|  4> %maxcore 5000
|  5> %tddft
|  6>     Mode sTDDFT
|  7>     Ethresh 5.0
|  8>     maxcore 5000
|  9> end
| 10>
| 11> %pal
| 12>   nprocs 6
| 13>   end
| 14> * xyz 0 1
| 15>    C       -5.19719        -3.60514         3.32170
| 16>    C       -4.86628        -4.42380         4.37463
| 17>    N       -4.18188        -5.56725         4.28548
| 18>    C       -3.75841        -6.00442         3.11301
| 19>    C       -4.03363        -5.25127         1.93728
| 20>    C       -4.77056        -4.02375         2.05243
| 21>    N       -4.94447        -3.43777         0.86520
| 22>    S       -4.24933        -4.34629        -0.26422
| 23>    N       -3.69362        -5.52425         0.68261
| 24>    C       -3.02682        -7.23093         3.05600
| 25>    S       -2.43695        -7.86950         1.55659
| 26>    C       -1.73917        -9.23601         2.37319
| 27>    C       -1.96898        -9.17342         3.73693
| 28>    C       -2.69152        -8.04810         4.11715
| 29>    C       -1.03333       -10.24309         1.66129
| 30>    C       -0.41220       -11.36753         2.16686
| 31>    C        0.19980       -12.15150         1.19075
| 32>    C        0.06078       -11.64737        -0.08547
| 33>    S       -0.85151       -10.16450        -0.06833
| 34>    C        0.55280       -12.18735        -1.30145
| 35>    S        1.49321       -13.65123        -1.32561
| 36>    C        1.65189       -13.58403        -3.06109
| 37>    C        1.00019       -12.47372        -3.55980
| 38>    C        0.38908       -11.69516        -2.57943
| 39>    C        2.38247       -14.60423        -3.73434
| 40>    C        2.52632       -14.68098        -5.07522
| 41>    C        3.24628       -15.68267        -5.81536
| 42>    C        3.19170       -15.65161        -7.19127
| 43>    C        3.87516       -16.61303        -7.96098
| 44>    C        3.96374       -16.79121        -9.33236
| 45>    C        3.29135       -15.96723       -10.38089
| 46>    C        4.30989       -15.26647       -11.29777
| 47>    N        3.69973       -14.08977       -11.88860
| 48>    C        2.28528       -16.81829       -11.17602
| 49>    N        1.45757       -15.98111       -12.03355
| 50>    C        4.80801       -17.94133        -9.54796
| 51>    C        5.24516       -18.53998       -10.67153
| 52>    C        6.06107       -19.78921       -10.63097
| 53>    C        6.50813       -20.19727        -9.26590
| 54>    C        6.09170       -19.57162        -8.15005
| 55>    C        5.22655       -18.45289        -8.23164
| 56>    C        4.65512       -17.63874        -7.27821
| 57>    C        4.70103       -17.64408        -5.86284
| 58>    C        4.01964       -16.70438        -5.16403
| 59>    C        5.14449       -20.84102       -11.21603
| 60>    C        5.12326       -21.16858       -12.51044
| 61>    C        4.22362       -22.11609       -13.10254
| 62>    S        4.12138       -22.22793       -14.83531
| 63>    C        2.89808       -23.45803       -14.73765
| 64>    C        2.61548       -23.75692       -13.42161
| 65>    C        3.35480       -23.00204       -12.50858
| 66>    C        2.30130       -24.00987       -15.90584
| 67>    C        1.38944       -25.04155       -15.98241
| 68>    C        0.97238       -25.31762       -17.28412
| 69>    C        1.55265       -24.50302       -18.23191
| 70>    S        2.65119       -23.37570       -17.48795
| 71>    C        1.32562       -24.49049       -19.63311
| 72>    S        0.20421       -25.59640       -20.36718
| 73>    C        0.48494       -24.91280       -21.94697
| 74>    C        1.40946       -23.89020       -21.87218
| 75>    C        1.87905       -23.65498       -20.58171
| 76>    C       -0.22697       -25.43319       -23.06359
| 77>    C       -0.13532       -24.95562       -24.32300
| 78>    C       -0.85447       -25.45142       -25.46298
| 79>    C       -1.71944       -26.53950       -25.47670
| 80>    N       -2.38965       -26.98821       -26.54062
| 81>    C       -2.26815       -26.40304       -27.70221
| 82>    C       -1.42554       -25.28792       -27.86215
| 83>    C       -0.70366       -24.80364       -26.71769
| 84>    N        0.05135       -23.74607       -27.01466
| 85>    S       -0.13503       -23.40613       -28.57473
| 86>    N       -1.17286       -24.56718       -28.95729
| 87>    H       -5.75189        -2.69128         3.44969
| 88>    H       -5.16147        -4.16528         5.38303
| 89>    H       -1.62188        -9.92179         4.42574
| 90>    H       -2.97608        -7.80783         5.12489
| 91>    H       -0.40370       -11.60958         3.21379
| 92>    H        0.73228       -13.06379         1.39442
| 93>    H        0.97153       -12.23104        -4.60632
| 94>    H       -0.16299       -10.79328        -2.77885
| 95>    H        2.82568       -15.35037        -3.09027
| 96>    H        2.04745       -13.92548        -5.68474
| 97>    H        2.61798       -14.88144        -7.68760
| 98>    H        2.73027       -15.16888        -9.88514
| 99>    H        4.68531       -15.98527       -12.04475
|100>    H        5.16277       -14.93744       -10.69406
|101>    H        2.87714       -14.38066       -12.41055
|102>    H        4.34510       -13.64123       -12.52998
|103>    H        1.69467       -17.41188       -10.45639
|104>    H        2.81801       -17.52173       -11.82123
|105>    H        0.89603       -15.35486       -11.46449
|106>    H        0.82307       -16.55649       -12.57763
|107>    H        4.98080       -18.18633       -11.65730
|108>    H        6.92812       -19.67834       -11.29449
|109>    H        7.16265       -21.05459        -9.21981
|110>    H        6.42129       -19.90526        -7.17633
|111>    H        5.28209       -18.39976        -5.35389
|112>    H        4.06193       -16.70836        -4.08622
|113>    H        4.44583       -21.27564       -10.51739
|114>    H        5.81016       -20.69069       -13.19785
|115>    H        1.88745       -24.49276       -13.13239
|116>    H        3.26139       -23.10787       -11.44306
|117>    H        1.03906       -25.57827       -15.11999
|118>    H        0.26368       -26.08506       -17.54102
|119>    H        1.73303       -23.32982       -22.73016
|120>    H        2.59963       -22.89711       -20.32835
|121>    H       -0.88744       -26.26091       -22.84524
|122>    H        0.51471       -24.11891       -24.53618
|123>    H       -1.89954       -27.10827       -24.57567
|124>    H       -2.83477       -26.80576       -28.52861
|125> *
|126>
|127>                          ****END OF INPUT****

CARTESIAN COORDINATES (ANGSTROEM)
---------------------------------
  C     -5.197190   -3.605140    3.321700
  C     -4.866280   -4.423800    4.374630
  N     -4.181880   -5.567250    4.285480
  C     -3.758410   -6.004420    3.113010
  C     -4.033630   -5.251270    1.937280
  C     -4.770560   -4.023750    2.052430
  N     -4.944470   -3.437770    0.865200
  S     -4.249330   -4.346290   -0.264220
  N     -3.693620   -5.524250    0.682610
  C     -3.026820   -7.230930    3.056000
  S     -2.436950   -7.869500    1.556590
  C     -1.739170   -9.236010    2.373190
  C     -1.968980   -9.173420    3.736930
  C     -2.691520   -8.048100    4.117150
  C     -1.033330  -10.243090    1.661290
  C     -0.412200  -11.367530    2.166860
  C      0.199800  -12.151500    1.190750
  C      0.060780  -11.647370   -0.085470
  S     -0.851510  -10.164500   -0.068330
  C      0.552800  -12.187350   -1.301450
  S      1.493210  -13.651230   -1.325610
  C      1.651890  -13.584030   -3.061090
  C      1.000190  -12.473720   -3.559800
  C      0.389080  -11.695160   -2.579430
  C      2.382470  -14.604230   -3.734340
  C      2.526320  -14.680980   -5.075220
  C      3.246280  -15.682670   -5.815360
  C      3.191700  -15.651610   -7.191270
  C      3.875160  -16.613030   -7.960980
  C      3.963740  -16.791210   -9.332360
  C      3.291350  -15.967230  -10.380890
  C      4.309890  -15.266470  -11.297770
  N      3.699730  -14.089770  -11.888600
  C      2.285280  -16.818290  -11.176020
  N      1.457570  -15.981110  -12.033550
  C      4.808010  -17.941330   -9.547960
  C      5.245160  -18.539980  -10.671530
  C      6.061070  -19.789210  -10.630970
  C      6.508130  -20.197270   -9.265900
  C      6.091700  -19.571620   -8.150050
  C      5.226550  -18.452890   -8.231640
  C      4.655120  -17.638740   -7.278210
  C      4.701030  -17.644080   -5.862840
  C      4.019640  -16.704380   -5.164030
  C      5.144490  -20.841020  -11.216030
  C      5.123260  -21.168580  -12.510440
  C      4.223620  -22.116090  -13.102540
  S      4.121380  -22.227930  -14.835310
  C      2.898080  -23.458030  -14.737650
  C      2.615480  -23.756920  -13.421610
  C      3.354800  -23.002040  -12.508580
  C      2.301300  -24.009870  -15.905840
  C      1.389440  -25.041550  -15.982410
  C      0.972380  -25.317620  -17.284120
  C      1.552650  -24.503020  -18.231910
  S      2.651190  -23.375700  -17.487950
  C      1.325620  -24.490490  -19.633110
  S      0.204210  -25.596400  -20.367180
  C      0.484940  -24.912800  -21.946970
  C      1.409460  -23.890200  -21.872180
  C      1.879050  -23.654980  -20.581710
  C     -0.226970  -25.433190  -23.063590
  C     -0.135320  -24.955620  -24.323000
  C     -0.854470  -25.451420  -25.462980
  C     -1.719440  -26.539500  -25.476700
  N     -2.389650  -26.988210  -26.540620
  C     -2.268150  -26.403040  -27.702210
  C     -1.425540  -25.287920  -27.862150
  C     -0.703660  -24.803640  -26.717690
  N      0.051350  -23.746070  -27.014660
  S     -0.135030  -23.406130  -28.574730
  N     -1.172860  -24.567180  -28.957290
  H     -5.751890   -2.691280    3.449690
  H     -5.161470   -4.165280    5.383030
  H     -1.621880   -9.921790    4.425740
  H     -2.976080   -7.807830    5.124890
  H     -0.403700  -11.609580    3.213790
  H      0.732280  -13.063790    1.394420
  H      0.971530  -12.231040   -4.606320
  H     -0.162990  -10.793280   -2.778850
  H      2.825680  -15.350370   -3.090270
  H      2.047450  -13.925480   -5.684740
  H      2.617980  -14.881440   -7.687600
  H      2.730270  -15.168880   -9.885140
  H      4.685310  -15.985270  -12.044750
  H      5.162770  -14.937440  -10.694060
  H      2.877140  -14.380660  -12.410550
  H      4.345100  -13.641230  -12.529980
  H      1.694670  -17.411880  -10.456390
  H      2.818010  -17.521730  -11.821230
  H      0.896030  -15.354860  -11.464490
  H      0.823070  -16.556490  -12.577630
  H      4.980800  -18.186330  -11.657300
  H      6.928120  -19.678340  -11.294490
  H      7.162650  -21.054590   -9.219810
  H      6.421290  -19.905260   -7.176330
  H      5.282090  -18.399760   -5.353890
  H      4.061930  -16.708360   -4.086220
  H      4.445830  -21.275640  -10.517390
  H      5.810160  -20.690690  -13.197850
  H      1.887450  -24.492760  -13.132390
  H      3.261390  -23.107870  -11.443060
  H      1.039060  -25.578270  -15.119990
  H      0.263680  -26.085060  -17.541020
  H      1.733030  -23.329820  -22.730160
  H      2.599630  -22.897110  -20.328350
  H     -0.887440  -26.260910  -22.845240
  H      0.514710  -24.118910  -24.536180
  H     -1.899540  -27.108270  -24.575670
  H     -2.834770  -26.805760  -28.528610

 Total Charge           Charge          ....    0
 Multiplicity           Mult            ....    1
 Number of Electrons    NEL             ....  558
 Basis Dimension        Dim             .... 1230

ORBITAL ENERGIES
----------------

  NO   OCC          E(Eh)            E(eV)
   0   2.0000     -89.028223     -2422.5811
   1   2.0000     -89.023852     -2422.4622
   2   2.0000     -88.958041     -2420.6714
   3   2.0000     -88.956578     -2420.6315
   4   2.0000     -88.956153     -2420.6200
   5   2.0000     -88.951031     -2420.4806
   6   2.0000     -88.948587     -2420.4141
   7   2.0000     -88.947957     -2420.3970
   8   2.0000     -14.442486      -393.0000
   9   2.0000     -14.442344      -392.9961
  10   2.0000     -14.439591      -392.9213
  11   2.0000     -14.433532      -392.7564
  12   2.0000     -14.408989      -392.0885
  13   2.0000     -14.400835      -391.8666
  14   2.0000     -14.386082      -391.4652
  15   2.0000     -14.352128      -390.5413
  16   2.0000     -10.327505      -281.0257
  17   2.0000     -10.324351      -280.9399
  18   2.0000     -10.320704      -280.8406
  19   2.0000     -10.320076      -280.8235
  20   2.0000     -10.318670      -280.7853
  21   2.0000     -10.312899      -280.6283
  22   2.0000     -10.307697      -280.4867
  23   2.0000     -10.307558      -280.4829
  24   2.0000     -10.306383      -280.4509
  25   2.0000     -10.306250      -280.4473
  26   2.0000     -10.304327      -280.3950
  27   2.0000     -10.303454      -280.3712
  28   2.0000     -10.301604      -280.3209
  29   2.0000     -10.300677      -280.2957
  30   2.0000     -10.300569      -280.2927
  31   2.0000     -10.300529      -280.2917
  32   2.0000     -10.299945      -280.2758
  33   2.0000     -10.297990      -280.2226
  34   2.0000     -10.295860      -280.1646
  35   2.0000     -10.293660      -280.1047
  36   2.0000     -10.293648      -280.1044
  37   2.0000     -10.290561      -280.0204
  38   2.0000     -10.288758      -279.9714
  39   2.0000     -10.287444      -279.9356
  40   2.0000     -10.284222      -279.8479
  41   2.0000     -10.283469      -279.8274
  42   2.0000     -10.281517      -279.7743
  43   2.0000     -10.277181      -279.6563
  44   2.0000     -10.275689      -279.6157
  45   2.0000     -10.275209      -279.6027
  46   2.0000     -10.274998      -279.5969
  47   2.0000     -10.274616      -279.5865
  48   2.0000     -10.274508      -279.5836
  49   2.0000     -10.274502      -279.5834
  50   2.0000     -10.272697      -279.5343
  51   2.0000     -10.272305      -279.5236
  52   2.0000     -10.271004      -279.4882
  53   2.0000     -10.270048      -279.4622
  54   2.0000     -10.268900      -279.4310
  55   2.0000     -10.268448      -279.4187
  56   2.0000     -10.268327      -279.4154
  57   2.0000     -10.268132      -279.4101
  58   2.0000     -10.268065      -279.4082
  59   2.0000     -10.267632      -279.3965
  60   2.0000     -10.267578      -279.3950
  61   2.0000     -10.265746      -279.3451
  62   2.0000     -10.265267      -279.3321
  63   2.0000     -10.264853      -279.3209
  64   2.0000     -10.263482      -279.2835
  65   2.0000     -10.260741      -279.2089
  66   2.0000     -10.260079      -279.1910
  67   2.0000     -10.257999      -279.1343
  68   2.0000     -10.256535      -279.0945
  69   2.0000     -10.255875      -279.0766
  70   2.0000     -10.255458      -279.0652
  71   2.0000     -10.253316      -279.0069
  72   2.0000      -8.120127      -220.9599
  73   2.0000      -8.115662      -220.8384
  74   2.0000      -8.053649      -219.1509
  75   2.0000      -8.052445      -219.1182
  76   2.0000      -8.051875      -219.1027
  77   2.0000      -8.046710      -218.9621
  78   2.0000      -8.043642      -218.8786
  79   2.0000      -8.043379      -218.8715
  80   2.0000      -6.091197      -165.7499
  81   2.0000      -6.086820      -165.6308
  82   2.0000      -6.083463      -165.5394
  83   2.0000      -6.082766      -165.5205
  84   2.0000      -6.079064      -165.4197
  85   2.0000      -6.078146      -165.3948
  86   2.0000      -6.023024      -163.8948
  87   2.0000      -6.021636      -163.8570
  88   2.0000      -6.021140      -163.8435
  89   2.0000      -6.018917      -163.7831
  90   2.0000      -6.017628      -163.7480
  91   2.0000      -6.017106      -163.7338
  92   2.0000      -6.016077      -163.7058
  93   2.0000      -6.015591      -163.6925
  94   2.0000      -6.014652      -163.6670
  95   2.0000      -6.013954      -163.6480
  96   2.0000      -6.012915      -163.6197
  97   2.0000      -6.012745      -163.6151
  98   2.0000      -6.011971      -163.5941
  99   2.0000      -6.008911      -163.5108
 100   2.0000      -6.008625      -163.5030
 101   2.0000      -6.008399      -163.4969
 102   2.0000      -6.005693      -163.4232
 103   2.0000      -6.005560      -163.4196
 104   2.0000      -1.127100       -30.6700
 105   2.0000      -1.123563       -30.5737
 106   2.0000      -1.037304       -28.2265
 107   2.0000      -1.036837       -28.2138
 108   2.0000      -0.998863       -27.1805
 109   2.0000      -0.991512       -26.9804
 110   2.0000      -0.985789       -26.8247
 111   2.0000      -0.980241       -26.6737
 112   2.0000      -0.979985       -26.6667
 113   2.0000      -0.977934       -26.6109
 114   2.0000      -0.973082       -26.4789
 115   2.0000      -0.968563       -26.3559
 116   2.0000      -0.966315       -26.2948
 117   2.0000      -0.958816       -26.0907
 118   2.0000      -0.940399       -25.5895
 119   2.0000      -0.933077       -25.3903
 120   2.0000      -0.915745       -24.9187
 121   2.0000      -0.912842       -24.8397
 122   2.0000      -0.890853       -24.2413
 123   2.0000      -0.890679       -24.2366
 124   2.0000      -0.884839       -24.0777
 125   2.0000      -0.880568       -23.9615
 126   2.0000      -0.872483       -23.7415
 127   2.0000      -0.867340       -23.6015
 128   2.0000      -0.858709       -23.3666
 129   2.0000      -0.848616       -23.0920
 130   2.0000      -0.843486       -22.9524
 131   2.0000      -0.837915       -22.8008
 132   2.0000      -0.834486       -22.7075
 133   2.0000      -0.831187       -22.6178
 134   2.0000      -0.830282       -22.5931
 135   2.0000      -0.824493       -22.4356
 136   2.0000      -0.823520       -22.4091
 137   2.0000      -0.821742       -22.3607
 138   2.0000      -0.815553       -22.1923
 139   2.0000      -0.811670       -22.0867
 140   2.0000      -0.800953       -21.7950
 141   2.0000      -0.789117       -21.4730
 142   2.0000      -0.772389       -21.0178
 143   2.0000      -0.764433       -20.8013
 144   2.0000      -0.753353       -20.4998
 145   2.0000      -0.748081       -20.3563
 146   2.0000      -0.745840       -20.2953
 147   2.0000      -0.728315       -19.8185
 148   2.0000      -0.725329       -19.7372
 149   2.0000      -0.716666       -19.5015
 150   2.0000      -0.713725       -19.4214
 151   2.0000      -0.708121       -19.2689
 152   2.0000      -0.701486       -19.0884
 153   2.0000      -0.695753       -18.9324
 154   2.0000      -0.688550       -18.7364
 155   2.0000      -0.683338       -18.5946
 156   2.0000      -0.673824       -18.3357
 157   2.0000      -0.672474       -18.2990
 158   2.0000      -0.665152       -18.0997
 159   2.0000      -0.662708       -18.0332
 160   2.0000      -0.659991       -17.9593
 161   2.0000      -0.654138       -17.8000
 162   2.0000      -0.641250       -17.4493
 163   2.0000      -0.633378       -17.2351
 164   2.0000      -0.629698       -17.1349
 165   2.0000      -0.626522       -17.0485
 166   2.0000      -0.625026       -17.0078
 167   2.0000      -0.616111       -16.7652
 168   2.0000      -0.615136       -16.7387
 169   2.0000      -0.612421       -16.6648
 170   2.0000      -0.610990       -16.6259
 171   2.0000      -0.605582       -16.4787
 172   2.0000      -0.604095       -16.4383
 173   2.0000      -0.601325       -16.3629
 174   2.0000      -0.592968       -16.1355
 175   2.0000      -0.592246       -16.1158
 176   2.0000      -0.588500       -16.0139
 177   2.0000      -0.585752       -15.9391
 178   2.0000      -0.577835       -15.7237
 179   2.0000      -0.574994       -15.6464
 180   2.0000      -0.569871       -15.5070
 181   2.0000      -0.564609       -15.3638
 182   2.0000      -0.560478       -15.2514
 183   2.0000      -0.556674       -15.1479
 184   2.0000      -0.555427       -15.1139
 185   2.0000      -0.551033       -14.9944
 186   2.0000      -0.549054       -14.9405
 187   2.0000      -0.546806       -14.8794
 188   2.0000      -0.545443       -14.8423
 189   2.0000      -0.540139       -14.6979
 190   2.0000      -0.539223       -14.6730
 191   2.0000      -0.534524       -14.5451
 192   2.0000      -0.529706       -14.4140
 193   2.0000      -0.526615       -14.3299
 194   2.0000      -0.518796       -14.1172
 195   2.0000      -0.510516       -13.8918
 196   2.0000      -0.508691       -13.8422
 197   2.0000      -0.505904       -13.7663
 198   2.0000      -0.503805       -13.7092
 199   2.0000      -0.502017       -13.6606
 200   2.0000      -0.500381       -13.6161
 201   2.0000      -0.496496       -13.5103
 202   2.0000      -0.494339       -13.4516
 203   2.0000      -0.493719       -13.4348
 204   2.0000      -0.493363       -13.4251
 205   2.0000      -0.492030       -13.3888
 206   2.0000      -0.489944       -13.3321
 207   2.0000      -0.489380       -13.3167
 208   2.0000      -0.485329       -13.2065
 209   2.0000      -0.483531       -13.1575
 210   2.0000      -0.482621       -13.1328
 211   2.0000      -0.480812       -13.0836
 212   2.0000      -0.480495       -13.0749
 213   2.0000      -0.475334       -12.9345
 214   2.0000      -0.472790       -12.8653
 215   2.0000      -0.472432       -12.8555
 216   2.0000      -0.471373       -12.8267
 217   2.0000      -0.466945       -12.7062
 218   2.0000      -0.466201       -12.6860
 219   2.0000      -0.465669       -12.6715
 220   2.0000      -0.463193       -12.6041
 221   2.0000      -0.461877       -12.5683
 222   2.0000      -0.461166       -12.5490
 223   2.0000      -0.457417       -12.4469
 224   2.0000      -0.456487       -12.4216
 225   2.0000      -0.452158       -12.3039
 226   2.0000      -0.449284       -12.2256
 227   2.0000      -0.448440       -12.2027
 228   2.0000      -0.443725       -12.0744
 229   2.0000      -0.442594       -12.0436
 230   2.0000      -0.438390       -11.9292
 231   2.0000      -0.435910       -11.8617
 232   2.0000      -0.432522       -11.7695
 233   2.0000      -0.430385       -11.7114
 234   2.0000      -0.428639       -11.6639
 235   2.0000      -0.427161       -11.6236
 236   2.0000      -0.426822       -11.6144
 237   2.0000      -0.422497       -11.4967
 238   2.0000      -0.419201       -11.4070
 239   2.0000      -0.416992       -11.3469
 240   2.0000      -0.412332       -11.2201
 241   2.0000      -0.410860       -11.1801
 242   2.0000      -0.406273       -11.0553
 243   2.0000      -0.405572       -11.0362
 244   2.0000      -0.402144       -10.9429
 245   2.0000      -0.401538       -10.9264
 246   2.0000      -0.401297       -10.9199
 247   2.0000      -0.399769       -10.8783
 248   2.0000      -0.389791       -10.6068
 249   2.0000      -0.388639       -10.5754
 250   2.0000      -0.383922       -10.4471
 251   2.0000      -0.380055       -10.3418
 252   2.0000      -0.375503       -10.2180
 253   2.0000      -0.372215       -10.1285
 254   2.0000      -0.362787        -9.8719
 255   2.0000      -0.362065        -9.8523
 256   2.0000      -0.352475        -9.5913
 257   2.0000      -0.351063        -9.5529
 258   2.0000      -0.347200        -9.4478
 259   2.0000      -0.340973        -9.2784
 260   2.0000      -0.331956        -9.0330
 261   2.0000      -0.330814        -9.0019
 262   2.0000      -0.330217        -8.9857
 263   2.0000      -0.328577        -8.9410
 264   2.0000      -0.325486        -8.8569
 265   2.0000      -0.324479        -8.8295
 266   2.0000      -0.320032        -8.7085
 267   2.0000      -0.319066        -8.6822
 268   2.0000      -0.317061        -8.6277
 269   2.0000      -0.311564        -8.4781
 270   2.0000      -0.307914        -8.3788
 271   2.0000      -0.307113        -8.3570
 272   2.0000      -0.296520        -8.0687
 273   2.0000      -0.280580        -7.6350
 274   2.0000      -0.269317        -7.3285
 275   2.0000      -0.263958        -7.1827
 276   2.0000      -0.232021        -6.3136
 277   2.0000      -0.229587        -6.2474
 278   2.0000      -0.210760        -5.7351
 279   0.0000      -0.073212        -1.9922
 280   0.0000      -0.071763        -1.9528
 281   0.0000      -0.063475        -1.7272
 282   0.0000      -0.043336        -1.1792
 283   0.0000      -0.031204        -0.8491

MULLIKEN ATOMIC CHARGES
-----------------------
   0 C :   -0.042641
   1 C :    0.031391
   2 N :   -0.067129
   3 C :    0.059677
   4 C :   -0.059240
   5 C :    0.095629
   6 N :   -0.273624
   7 S :    0.512723
   8 N :   -0.284933
   9 C :   -0.113444
  10 S :    0.159157
  11 C :   -0.015689
  12 C :   -0.004563
  13 C :    0.019843
  14 C :   -0.042621
  15 C :    0.001212
  16 C :   -0.015151
  17 C :   -0.025175
  18 S :    0.122784
  19 C :   -0.046968
  20 S :    0.114418
  21 C :   -0.072686
  22 C :    0.007824
  23 C :   -0.012144
  24 C :    0.077050
  25 C :   -0.018693
  26 C :    0.130030
  27 C :   -0.115820
  28 C :    0.059556
  29 C :   -0.023032
  30 C :   -0.056334
  31 C :    0.155974
  32 N :   -0.224274
  33 C :    0.136164
  34 N :   -0.217131
  35 C :    0.101158
  36 C :   -0.117183
  37 C :    0.117883
  38 C :   -0.051590
  39 C :    0.021289
  40 C :    0.002010
  41 C :    0.033336
  42 C :    0.002550
  43 C :   -0.009995
  44 C :   -0.053794
  45 C :    0.082388
  46 C :   -0.083509
  47 S :    0.118907
  48 C :   -0.046534
  49 C :   -0.007174
  50 C :    0.013257
  51 C :   -0.027133
  52 C :   -0.003439
  53 C :   -0.013461
  54 C :   -0.031501
  55 S :    0.120286
  56 C :   -0.041925
  57 S :    0.119867
  58 C :   -0.077399
  59 C :    0.016224
  60 C :   -0.016564
  61 C :    0.093085
  62 C :   -0.026281
  63 C :    0.056349
  64 C :   -0.039259
  65 N :   -0.044121
  66 C :   -0.007456
  67 C :    0.021953
  68 C :    0.011873
  69 N :   -0.284225
  70 S :    0.511513
  71 N :   -0.262676
  72 H :   -0.011448
  73 H :    0.004442
  74 H :   -0.022861
  75 H :   -0.007715
  76 H :   -0.020463
  77 H :   -0.014393
  78 H :   -0.019759
  79 H :   -0.013857
  80 H :   -0.024121
  81 H :   -0.025969
  82 H :   -0.042560
  83 H :   -0.029157
  84 H :   -0.034875
  85 H :   -0.001752
  86 H :    0.079005
  87 H :    0.079906
  88 H :   -0.001380
  89 H :   -0.015692
  90 H :    0.101295
  91 H :    0.096804
  92 H :   -0.006972
  93 H :    0.021584
  94 H :   -0.010662
  95 H :   -0.037185
  96 H :   -0.041123
  97 H :   -0.031804
  98 H :    0.011794
  99 H :   -0.017502
 100 H :   -0.021026
 101 H :   -0.017636
 102 H :   -0.019965
 103 H :   -0.011057
 104 H :   -0.012455
 105 H :   -0.010988
 106 H :   -0.016973
 107 H :   -0.004188
 108 H :   -0.001273
 109 H :    0.001132
Sum of atomic charges:   -0.0000000

LOEWDIN ATOMIC CHARGES
----------------------
   0 C :   -0.060647
   1 C :    0.020902
   2 N :   -0.084129
   3 C :    0.008066
   4 C :   -0.075927
   5 C :   -0.042434
   6 N :   -0.289825
   7 S :    0.649159
   8 N :   -0.287165
   9 C :   -0.195368
  10 S :    0.463422
  11 C :   -0.176565
  12 C :   -0.062366
  13 C :   -0.016084
  14 C :   -0.188031
  15 C :   -0.048191
  16 C :   -0.065058
  17 C :   -0.176694
  18 S :    0.429622
  19 C :   -0.189068
  20 S :    0.428727
  21 C :   -0.163684
  22 C :   -0.057135
  23 C :   -0.058834
  24 C :   -0.050913
  25 C :   -0.008857
  26 C :   -0.026800
  27 C :   -0.014802
  28 C :   -0.020653
  29 C :   -0.032377
  30 C :   -0.039330
  31 C :    0.030285
  32 N :   -0.131356
  33 C :    0.025401
  34 N :   -0.104100
  35 C :   -0.019367
  36 C :    0.063386
  37 C :   -0.028544
  38 C :   -0.037459
  39 C :   -0.016896
  40 C :   -0.037108
  41 C :   -0.030120
  42 C :   -0.009125
  43 C :   -0.024821
  44 C :    0.004593
  45 C :   -0.053356
  46 C :   -0.172490
  47 S :    0.425138
  48 C :   -0.188490
  49 C :   -0.053429
  50 C :   -0.054623
  51 C :   -0.182322
  52 C :   -0.054493
  53 C :   -0.059712
  54 C :   -0.184596
  55 S :    0.427528
  56 C :   -0.180682
  57 S :    0.434335
  58 C :   -0.172097
  59 C :   -0.045752
  60 C :   -0.062287
  61 C :   -0.022838
  62 C :   -0.020232
  63 C :   -0.044871
  64 C :    0.010959
  65 N :   -0.059035
  66 C :    0.024521
  67 C :   -0.078539
  68 C :   -0.041495
  69 N :   -0.293043
  70 S :    0.654099
  71 N :   -0.276622
  72 H :    0.037375
  73 H :    0.024405
  74 H :    0.027319
  75 H :    0.035651
  76 H :    0.029620
  77 H :    0.026455
  78 H :    0.028350
  79 H :    0.025988
  80 H :    0.023605
  81 H :    0.027070
  82 H :    0.023325
  83 H :    0.024070
  84 H :   -0.006957
  85 H :    0.017458
  86 H :    0.034191
  87 H :    0.048700
  88 H :    0.004579
  89 H :    0.013110
  90 H :    0.056240
  91 H :    0.057416
  92 H :    0.024274
  93 H :    0.049680
  94 H :    0.024393
  95 H :    0.028932
  96 H :    0.025928
  97 H :    0.023763
  98 H :    0.029088
  99 H :    0.025754
 100 H :    0.028853
 101 H :    0.029700
 102 H :    0.029560
 103 H :    0.027162
 104 H :    0.031689
 105 H :    0.027025
 106 H :    0.026716
 107 H :    0.032173
 108 H :    0.020475
 109 H :    0.027554

  Mayer bond orders larger than 0.100000
B(  0-C ,  1-C ) :   1.4958 B(  0-C ,  5-C ) :   1.2333 B(  0-C , 72-H ) :   0.9904
B(  1-C ,  2-N ) :   1.3977 B(  1-C , 73-H ) :   0.9731 B(  2-N ,  3-C ) :   1.7086
B(  3-C ,  4-C ) :   1.1152 B(  3-C ,  9-C ) :   1.1267 B(  4-C ,  5-C ) :   1.1854
B(  4-C ,  8-N ) :   1.5278 B(  5-C ,  6-N ) :   1.5037 B(  6-N ,  7-S ) :   1.2756
B(  6-N ,  8-N ) :   0.1519 B(  7-S ,  8-N ) :   1.2648 B(  9-C , 10-S ) :   1.1287
B(  9-C , 11-C ) :   0.1109 B(  9-C , 13-C ) :   1.4652 B( 10-S , 11-C ) :   1.1193
B( 11-C , 12-C ) :   1.4826 B( 11-C , 14-C ) :   1.1181 B( 12-C , 13-C ) :   1.2670
B( 12-C , 74-H ) :   0.9989 B( 13-C , 75-H ) :   1.0036 B( 14-C , 15-C ) :   1.5218
B( 14-C , 17-C ) :   0.1062 B( 14-C , 18-S ) :   1.1100 B( 15-C , 16-C ) :   1.2665
B( 15-C , 76-H ) :   0.9962 B( 16-C , 17-C ) :   1.4982 B( 16-C , 77-H ) :   0.9926
B( 17-C , 18-S ) :   1.1244 B( 17-C , 19-C ) :   1.1554 B( 19-C , 20-S ) :   1.1222
B( 19-C , 23-C ) :   1.4926 B( 20-S , 21-C ) :   1.1159 B( 21-C , 22-C ) :   1.5063
B( 21-C , 24-C ) :   1.1064 B( 22-C , 23-C ) :   1.2772 B( 22-C , 78-H ) :   0.9934
B( 23-C , 79-H ) :   0.9919 B( 24-C , 25-C ) :   1.6858 B( 24-C , 80-H ) :   0.9538
B( 25-C , 26-C ) :   1.0961 B( 25-C , 81-H ) :   0.9850 B( 26-C , 27-C ) :   1.4995
B( 26-C , 43-C ) :   1.1138 B( 27-C , 28-C ) :   1.1235 B( 27-C , 82-H ) :   1.0035
B( 28-C , 29-C ) :   1.4983 B( 28-C , 41-C ) :   1.1120 B( 29-C , 30-C ) :   1.0326
B( 29-C , 35-C ) :   1.0856 B( 30-C , 31-C ) :   1.0310 B( 30-C , 33-C ) :   1.0451
B( 30-C , 83-H ) :   0.8767 B( 31-C , 32-N ) :   1.1072 B( 31-C , 84-H ) :   0.9242
B( 31-C , 85-H ) :   0.9453 B( 32-N , 86-H ) :   0.9422 B( 32-N , 87-H ) :   0.9671
B( 33-C , 34-N ) :   1.0796 B( 33-C , 88-H ) :   0.9474 B( 33-C , 89-H ) :   0.9310
B( 34-N , 86-H ) :   0.1022 B( 34-N , 90-H ) :   0.9629 B( 34-N , 91-H ) :   0.9674
B( 35-C , 36-C ) :   1.6493 B( 35-C , 40-C ) :   1.0501 B( 36-C , 37-C ) :   0.9857
B( 36-C , 92-H ) :   0.9588 B( 37-C , 38-C ) :   0.9835 B( 37-C , 44-C ) :   0.9519
B( 37-C , 93-H ) :   0.8864 B( 38-C , 39-C ) :   1.7214 B( 38-C , 94-H ) :   0.9780
B( 39-C , 40-C ) :   1.1282 B( 39-C , 95-H ) :   0.9899 B( 40-C , 41-C ) :   1.4485
B( 41-C , 42-C ) :   1.1334 B( 42-C , 43-C ) :   1.6310 B( 42-C , 96-H ) :   0.9882
B( 43-C , 97-H ) :   0.9805 B( 44-C , 45-C ) :   1.8193 B( 44-C , 98-H ) :   0.9660
B( 45-C , 46-C ) :   1.0735 B( 45-C , 99-H ) :   0.9582 B( 46-C , 47-S ) :   1.1161
B( 46-C , 48-C ) :   0.1081 B( 46-C , 50-C ) :   1.5313 B( 47-S , 48-C ) :   1.1240
B( 48-C , 49-C ) :   1.5231 B( 48-C , 51-C ) :   1.1050 B( 49-C , 50-C ) :   1.2662
B( 49-C ,100-H ) :   0.9960 B( 50-C ,101-H ) :   0.9925 B( 51-C , 52-C ) :   1.5286
B( 51-C , 54-C ) :   0.1067 B( 51-C , 55-S ) :   1.1163 B( 52-C , 53-C ) :   1.2645
B( 52-C ,102-H ) :   0.9965 B( 53-C , 54-C ) :   1.5022 B( 53-C ,103-H ) :   0.9928
B( 54-C , 55-S ) :   1.1190 B( 54-C , 56-C ) :   1.1541 B( 56-C , 57-S ) :   1.1333
B( 56-C , 60-C ) :   1.4861 B( 57-S , 58-C ) :   1.1105 B( 58-C , 59-C ) :   1.5007
B( 58-C , 61-C ) :   1.1125 B( 59-C , 60-C ) :   1.2810 B( 59-C ,104-H ) :   0.9937
B( 60-C ,105-H ) :   0.9930 B( 61-C , 62-C ) :   1.6833 B( 61-C ,106-H ) :   0.9575
B( 62-C , 63-C ) :   1.1063 B( 62-C ,107-H ) :   0.9842 B( 63-C , 64-C ) :   1.4519
B( 63-C , 66-C ) :   0.1058 B( 63-C , 68-C ) :   1.1780 B( 64-C , 65-N ) :   1.4276
B( 64-C ,108-H ) :   0.9804 B( 65-N , 66-C ) :   1.6986 B( 66-C , 67-C ) :   1.1768
B( 66-C ,109-H ) :   0.9934 B( 67-C , 68-C ) :   1.1848 B( 67-C , 71-N ) :   1.4913
B( 68-C , 69-N ) :   1.5295 B( 69-N , 70-S ) :   1.2642 B( 69-N , 71-N ) :   0.1551
B( 70-S , 71-N ) :   1.2979

-----------------------------------------------------------------------------
         ABSORPTION SPECTRUM VIA TRANSITION ELECTRIC DIPOLE MOMENTS
-----------------------------------------------------------------------------
State   Energy  Wavelength   fosc         T2         TX        TY        TZ
        (cm-1)    (nm)                  (au**2)     (au)      (au)      (au)
-----------------------------------------------------------------------------
   0   14960.8    668.4   0.139476270   3.06917   0.15002   0.19164   1.73492
   1   18473.1    541.3   1.446175690  25.77258   2.25013  -3.72883  -2.60870
   2   20294.8    492.7   1.485673729  24.09983   1.59142   1.03938   4.52625
   3   22371.2    447.0   0.372099478   5.47577  -0.87699   1.24254   1.77842
   4   23583.0    424.0   0.032954027   0.46003   0.33240  -0.56721   0.16675
   5   23897.1    418.5   0.692090594   9.53439   0.40457  -1.28641  -2.77774
   6   24297.2    411.6   0.072342441   0.98019   0.84549   0.28186  -0.43115
   7   25716.8    388.9   0.518246134   6.63430   0.85857  -1.67431  -1.75893
   8   26274.3    380.6   0.230764135   2.89143  -1.03406  -0.07985  -1.34751
   9   27267.1    366.7   0.160974909   1.94355  -0.57593   0.18334  -1.25628
  10   28772.2    347.6   0.039703177   0.45428  -0.06651  -0.15053   0.65361
  11   29126.3    343.3   0.064987234   0.73455   0.00391  -0.16249   0.84150
  12   29658.6    337.2   0.023393056   0.25966  -0.25272   0.02466  -0.44180
  13   30049.7    332.8   0.040566596   0.44443  -0.31212  -0.10970  -0.57877
  14   30351.2    329.5   0.009536969   0.10345  -0.14199   0.10679  -0.26810
  15   30457.8    328.3   0.000451399   0.00488  -0.05071   0.04414  -0.01894
  16   30794.4    324.7   0.001641741   0.01755  -0.01472  -0.12252   0.04821
  17   30923.5    323.4   0.001723543   0.01835   0.06996   0.10267   0.05398
  18   30965.6    322.9   0.069690231   0.74091   0.27904  -0.66802  -0.46562
  19   32688.0    305.9   0.103734068   1.04474   0.32401  -0.96716  -0.06609
  20   33327.4    300.1   0.155685732   1.53788  -0.09735  -0.67485  -1.03585
  21   33509.0    298.4   0.128340402   1.26089  -0.21186   0.20235   1.08400
  22   33878.7    295.2   0.089547342   0.87017  -0.49772  -0.06313   0.78642
  23   34084.3    293.4   0.011623258   0.11227   0.15031  -0.13022  -0.26966
  24   34387.6    290.8   0.018535085   0.17745   0.15158  -0.37239  -0.12568
  25   34546.4    289.5   0.001117178   0.01065  -0.07658   0.06859  -0.00879
  26   35207.4    284.0   0.037444953   0.35013  -0.19842  -0.53664  -0.15093
  27   36254.4    275.8   0.045947010   0.41723   0.30355  -0.41798  -0.38778
  28   36506.4    273.9   0.006092395   0.05494  -0.17317   0.03160  -0.15478
  29   36778.3    271.9   0.127414512   1.14052   0.51860  -0.93247  -0.04554
  30   37115.1    269.4   0.007229676   0.06413  -0.05696   0.17796   0.17092
  31   37151.6    269.2   0.027101097   0.24015  -0.12030   0.30805   0.36164
  32   37436.7    267.1   0.024697004   0.21718   0.11122  -0.11552  -0.43757
  33   38023.1    263.0   0.015573504   0.13484   0.07027   0.05511   0.35618
  34   38461.1    260.0   0.000151120   0.00129   0.00640  -0.02314  -0.02678
  35   38622.4    258.9   0.024026101   0.20480  -0.00027  -0.20106   0.40543
  36   39118.7    255.6   0.001313583   0.01105  -0.00725  -0.10182  -0.02520
  37   39145.4    255.5   0.237874461   2.00052  -0.01830  -1.03045  -0.96869
  38   39225.2    254.9   0.008883299   0.07456  -0.05127  -0.18516  -0.19402
  39   39652.1    252.2   0.017988915   0.14935   0.18478   0.33833   0.02730
  40   39910.3    250.6   0.032942606   0.27174   0.20741  -0.47366  -0.06606
  41   40059.0    249.6   0.136929845   1.12531   0.72643  -0.53157  -0.56128

FINAL SINGLE POINT ENERGY     -5775.957432041534

DIPOLE MOMENT
-------------
                                X             Y             Z
Electronic contribution:    -37.81563      20.61514      -2.96601
Nuclear contribution   :     38.26488     -21.50515       2.29419
                        -----------------------------------------
Total Dipole Moment    :      0.44925      -0.89001      -0.67182
                        -----------------------------------------
Magnitude (a.u.)       :      1.20220
Magnitude (Debye)      :      3.05575

Rotational constants in cm-1:     0.001130     0.000103     0.000097
Rotational constants in MHz :    33.875070     3.075874     2.894956

                             ****ORCA TERMINATED NORMALLY****
TOTAL RUN TIME: 0 days 0 hours 9 minutes 55 seconds 993 msec
