                         Program Version 4.2.0 -  RELEASE  -
|  1> # ORCA input file
|  2> # SCF done       -191.135465341784          0.000840204825
|  3> ! CAM-B3LYP def2-SVP def2/J RIJCOSX Grid4 TightSCF
|  4> %maxcore 5000
|  5> %tddft
|  6>     Mode sTDDFT
|  7>     Ethresh 5.0
|  8>     maxcore 5000
|  9> end
| 10>
| 11> %pal
| 12>   nprocs 6
| 13>   end
| 14> * xyz 0 1
| 15>    C       -1.68418         0.38558        -5.62146
| 16>    C       -0.74897        -0.09545        -6.52727
| 17>    C       -0.78036        -1.41332        -6.95696
| 18>    C       -1.75753        -2.28738        -6.50269
| 19>    C       -2.69617        -1.81731        -5.60060
| 20>    C       -2.65730        -0.47914        -5.14884
| 21>    C       -3.73167        -0.27860        -4.18138
| 22>    C       -4.01904         0.90236        -3.54314
| 23>    C       -3.33621         2.11434        -3.77545
| 24>    N       -2.82944         3.13556        -3.91167
| 25>    C       -5.03181         1.09721        -2.58232
| 26>    N       -5.82631         1.33595        -1.78727
| 27>    C       -4.37609        -1.56518        -3.99282
| 28>    C       -3.84008        -2.47376        -4.98495
| 29>    C       -4.42442        -3.63504        -5.43471
| 30>    C       -5.70834        -4.07496        -5.06399
| 31>    N       -6.77027        -4.45579        -4.84588
| 32>    C       -3.84305        -4.49701        -6.38382
| 33>    N       -3.40765        -5.26745        -7.11562
| 34>    C       -5.30509        -1.83866        -3.00370
| 35>    C       -5.63747        -3.07307        -2.44630
| 36>    S       -7.18047        -3.24189        -1.66580
| 37>    C       -6.97340        -4.93659        -1.36005
| 38>    C       -5.69021        -5.35680        -1.80563
| 39>    C       -4.93382        -4.29832        -2.38174
| 40>    C       -3.60486        -4.52592        -2.75842
| 41>    C       -3.08679        -5.79502        -2.70257
| 42>    S       -1.40859        -6.05526        -3.23072
| 43>    C       -3.88926        -6.88630        -2.29148
| 44>    O       -3.43498        -8.15630        -2.32965
| 45>    C       -5.15645        -6.65053        -1.80293
| 46>    C       -7.96869        -5.68707        -0.72014
| 47>    S       -7.60131        -7.20190         0.04716
| 48>    C       -9.22644        -7.44567         0.61311
| 49>    C      -10.03720        -6.34504         0.25397
| 50>    C       -9.33622        -5.36933        -0.51551
| 51>    C      -10.04444        -4.26866        -1.01814
| 52>    C      -11.36582        -4.10041        -0.69539
| 53>    S      -12.24331        -2.68764        -1.33884
| 54>    C      -12.02580        -4.98727         0.19169
| 55>    O      -13.28857        -4.76680         0.60206
| 56>    C      -11.36479        -6.11126         0.63472
| 57>    C       -9.51017        -8.63744         1.29187
| 58>    C      -10.74974        -9.19907         1.46533
| 59>    C      -11.01600       -10.36901         2.18975
| 60>    S      -12.47115       -11.24168         1.83710
| 61>    C      -12.09030       -12.53509         2.94036
| 62>    C      -10.86649       -12.25947         3.60270
| 63>    C      -10.28045       -11.02448         3.20384
| 64>    C       -9.14500       -10.55791         3.88153
| 65>    C       -8.57716       -11.33374         4.85702
| 66>    S       -7.12709       -10.73645         5.71796
| 67>    C       -9.09247       -12.61395         5.18374
| 68>    O       -8.49306       -13.39547         6.09632
| 69>    C      -10.25301       -13.04951         4.57861
| 70>    C      -12.80796       -13.72438         3.03864
| 71>    C      -14.05874       -14.03642         2.54348
| 72>    C      -14.48823       -15.38077         2.20646
| 73>    C      -13.90093       -16.56531         2.57698
| 74>    C      -12.77369       -16.69173         3.41302
| 75>    N      -11.86073       -16.86849         4.08842
| 76>    C      -14.37696       -17.83712         2.19817
| 77>    N      -14.70691       -18.90393         1.93047
| 78>    C      -15.67484       -15.24550         1.36716
| 79>    C      -16.03748       -13.88121         1.30865
| 80>    C      -17.12178       -13.46822         0.55471
| 81>    C      -17.84460       -14.42526        -0.14310
| 82>    C      -17.49732       -15.76635        -0.07955
| 83>    C      -16.41291       -16.19130         0.67518
| 84>    C      -15.12450       -13.13220         2.15973
| 85>    C      -15.38788       -11.91028         2.72842
| 86>    C      -16.47732       -11.09371         2.37035
| 87>    N      -17.33389       -10.37738         2.10246
| 88>    C      -14.64991       -11.38631         3.80836
| 89>    N      -14.09786       -10.95393         4.71793
| 90>    H       -1.64089         1.41251        -5.29875
| 91>    H        0.01592         0.56969        -6.89789
| 92>    H       -0.03660        -1.76761        -7.65415
| 93>    H       -1.76978        -3.31118        -6.83965
| 94>    H       -5.83832        -0.99441        -2.58606
| 95>    H       -2.97080        -3.70961        -3.06475
| 96>    H       -1.08637        -6.91732        -2.25884
| 97>    H       -2.64182        -8.20853        -2.88543
| 98>    H       -5.72050        -7.50085        -1.46184
| 99>    H       -9.57679        -3.55753        -1.67707
|100>    H      -13.31968        -3.37101        -1.74684
|101>    H      -13.56451        -3.86964         0.35294
|102>    H      -11.88122        -6.76797         1.31262
|103>    H       -8.64436        -9.19906         1.61634
|104>    H      -11.58926        -8.78067         0.92865
|105>    H       -8.73984        -9.58043         3.68016
|106>    H       -7.64264       -10.84766         6.94677
|107>    H       -7.63029       -13.01831         6.33732
|108>    H      -10.65864       -14.00187         4.87763
|109>    H      -12.24962       -14.53601         3.48472
|110>    H      -17.39644       -12.42738         0.49556
|111>    H      -18.68780       -14.11878        -0.74312
|112>    H      -18.07568       -16.49466        -0.62728
|113>    H      -16.15822       -17.23766         0.71011
|114> *
|115>
|116>                          ****END OF INPUT****

CARTESIAN COORDINATES (ANGSTROEM)
---------------------------------
  C     -1.684180    0.385580   -5.621460
  C     -0.748970   -0.095450   -6.527270
  C     -0.780360   -1.413320   -6.956960
  C     -1.757530   -2.287380   -6.502690
  C     -2.696170   -1.817310   -5.600600
  C     -2.657300   -0.479140   -5.148840
  C     -3.731670   -0.278600   -4.181380
  C     -4.019040    0.902360   -3.543140
  C     -3.336210    2.114340   -3.775450
  N     -2.829440    3.135560   -3.911670
  C     -5.031810    1.097210   -2.582320
  N     -5.826310    1.335950   -1.787270
  C     -4.376090   -1.565180   -3.992820
  C     -3.840080   -2.473760   -4.984950
  C     -4.424420   -3.635040   -5.434710
  C     -5.708340   -4.074960   -5.063990
  N     -6.770270   -4.455790   -4.845880
  C     -3.843050   -4.497010   -6.383820
  N     -3.407650   -5.267450   -7.115620
  C     -5.305090   -1.838660   -3.003700
  C     -5.637470   -3.073070   -2.446300
  S     -7.180470   -3.241890   -1.665800
  C     -6.973400   -4.936590   -1.360050
  C     -5.690210   -5.356800   -1.805630
  C     -4.933820   -4.298320   -2.381740
  C     -3.604860   -4.525920   -2.758420
  C     -3.086790   -5.795020   -2.702570
  S     -1.408590   -6.055260   -3.230720
  C     -3.889260   -6.886300   -2.291480
  O     -3.434980   -8.156300   -2.329650
  C     -5.156450   -6.650530   -1.802930
  C     -7.968690   -5.687070   -0.720140
  S     -7.601310   -7.201900    0.047160
  C     -9.226440   -7.445670    0.613110
  C    -10.037200   -6.345040    0.253970
  C     -9.336220   -5.369330   -0.515510
  C    -10.044440   -4.268660   -1.018140
  C    -11.365820   -4.100410   -0.695390
  S    -12.243310   -2.687640   -1.338840
  C    -12.025800   -4.987270    0.191690
  O    -13.288570   -4.766800    0.602060
  C    -11.364790   -6.111260    0.634720
  C     -9.510170   -8.637440    1.291870
  C    -10.749740   -9.199070    1.465330
  C    -11.016000  -10.369010    2.189750
  S    -12.471150  -11.241680    1.837100
  C    -12.090300  -12.535090    2.940360
  C    -10.866490  -12.259470    3.602700
  C    -10.280450  -11.024480    3.203840
  C     -9.145000  -10.557910    3.881530
  C     -8.577160  -11.333740    4.857020
  S     -7.127090  -10.736450    5.717960
  C     -9.092470  -12.613950    5.183740
  O     -8.493060  -13.395470    6.096320
  C    -10.253010  -13.049510    4.578610
  C    -12.807960  -13.724380    3.038640
  C    -14.058740  -14.036420    2.543480
  C    -14.488230  -15.380770    2.206460
  C    -13.900930  -16.565310    2.576980
  C    -12.773690  -16.691730    3.413020
  N    -11.860730  -16.868490    4.088420
  C    -14.376960  -17.837120    2.198170
  N    -14.706910  -18.903930    1.930470
  C    -15.674840  -15.245500    1.367160
  C    -16.037480  -13.881210    1.308650
  C    -17.121780  -13.468220    0.554710
  C    -17.844600  -14.425260   -0.143100
  C    -17.497320  -15.766350   -0.079550
  C    -16.412910  -16.191300    0.675180
  C    -15.124500  -13.132200    2.159730
  C    -15.387880  -11.910280    2.728420
  C    -16.477320  -11.093710    2.370350
  N    -17.333890  -10.377380    2.102460
  C    -14.649910  -11.386310    3.808360
  N    -14.097860  -10.953930    4.717930
  H     -1.640890    1.412510   -5.298750
  H      0.015920    0.569690   -6.897890
  H     -0.036600   -1.767610   -7.654150
  H     -1.769780   -3.311180   -6.839650
  H     -5.838320   -0.994410   -2.586060
  H     -2.970800   -3.709610   -3.064750
  H     -1.086370   -6.917320   -2.258840
  H     -2.641820   -8.208530   -2.885430
  H     -5.720500   -7.500850   -1.461840
  H     -9.576790   -3.557530   -1.677070
  H    -13.319680   -3.371010   -1.746840
  H    -13.564510   -3.869640    0.352940
  H    -11.881220   -6.767970    1.312620
  H     -8.644360   -9.199060    1.616340
  H    -11.589260   -8.780670    0.928650
  H     -8.739840   -9.580430    3.680160
  H     -7.642640  -10.847660    6.946770
  H     -7.630290  -13.018310    6.337320
  H    -10.658640  -14.001870    4.877630
  H    -12.249620  -14.536010    3.484720
  H    -17.396440  -12.427380    0.495560
  H    -18.687800  -14.118780   -0.743120
  H    -18.075680  -16.494660   -0.627280
  H    -16.158220  -17.237660    0.710110

 Total Charge           Charge          ....    0
 Multiplicity           Mult            ....    1
 Number of Electrons    NEL             ....  548
 Basis Dimension        Dim             .... 1194

ORBITAL ENERGIES
----------------

  NO   OCC          E(Eh)            E(eV)
   0   2.0000     -88.998558     -2421.7739
   1   2.0000     -88.996759     -2421.7249
   2   2.0000     -88.985559     -2421.4202
   3   2.0000     -88.965723     -2420.8804
   4   2.0000     -88.962189     -2420.7842
   5   2.0000     -88.958171     -2420.6749
   6   2.0000     -19.271782      -524.4118
   7   2.0000     -19.270588      -524.3793
   8   2.0000     -19.265496      -524.2408
   9   2.0000     -14.422184      -392.4476
  10   2.0000     -14.419761      -392.3816
  11   2.0000     -14.419191      -392.3661
  12   2.0000     -14.417741      -392.3267
  13   2.0000     -14.413908      -392.2224
  14   2.0000     -14.412058      -392.1720
  15   2.0000     -14.410771      -392.1370
  16   2.0000     -14.408090      -392.0640
  17   2.0000     -10.367493      -282.1138
  18   2.0000     -10.367305      -282.1087
  19   2.0000     -10.363898      -282.0160
  20   2.0000     -10.355107      -281.7768
  21   2.0000     -10.348667      -281.6016
  22   2.0000     -10.347456      -281.5686
  23   2.0000     -10.346335      -281.5381
  24   2.0000     -10.346027      -281.5297
  25   2.0000     -10.345795      -281.5234
  26   2.0000     -10.342976      -281.4467
  27   2.0000     -10.338865      -281.3348
  28   2.0000     -10.337640      -281.3015
  29   2.0000     -10.337453      -281.2964
  30   2.0000     -10.336952      -281.2828
  31   2.0000     -10.336061      -281.2585
  32   2.0000     -10.335842      -281.2526
  33   2.0000     -10.333817      -281.1975
  34   2.0000     -10.332431      -281.1597
  35   2.0000     -10.329044      -281.0676
  36   2.0000     -10.325741      -280.9777
  37   2.0000     -10.324919      -280.9553
  38   2.0000     -10.324463      -280.9429
  39   2.0000     -10.322685      -280.8945
  40   2.0000     -10.322472      -280.8887
  41   2.0000     -10.320876      -280.8453
  42   2.0000     -10.319974      -280.8208
  43   2.0000     -10.318484      -280.7802
  44   2.0000     -10.318444      -280.7791
  45   2.0000     -10.318419      -280.7785
  46   2.0000     -10.317628      -280.7569
  47   2.0000     -10.317064      -280.7416
  48   2.0000     -10.315204      -280.6910
  49   2.0000     -10.315008      -280.6856
  50   2.0000     -10.314901      -280.6827
  51   2.0000     -10.314684      -280.6768
  52   2.0000     -10.313210      -280.6367
  53   2.0000     -10.312814      -280.6259
  54   2.0000     -10.311853      -280.5998
  55   2.0000     -10.311071      -280.5785
  56   2.0000     -10.310468      -280.5621
  57   2.0000     -10.310083      -280.5516
  58   2.0000     -10.309912      -280.5470
  59   2.0000     -10.309780      -280.5434
  60   2.0000     -10.306519      -280.4546
  61   2.0000     -10.302411      -280.3429
  62   2.0000     -10.302086      -280.3340
  63   2.0000     -10.301921      -280.3295
  64   2.0000     -10.299142      -280.2539
  65   2.0000     -10.298906      -280.2475
  66   2.0000     -10.298475      -280.2357
  67   2.0000     -10.298202      -280.2283
  68   2.0000     -10.297099      -280.1983
  69   2.0000     -10.295103      -280.1440
  70   2.0000     -10.291875      -280.0562
  71   2.0000     -10.291207      -280.0380
  72   2.0000     -10.290887      -280.0293
  73   2.0000     -10.289849      -280.0010
  74   2.0000     -10.285310      -279.8775
  75   2.0000      -8.093263      -220.2289
  76   2.0000      -8.091415      -220.1786
  77   2.0000      -8.080272      -219.8754
  78   2.0000      -8.060609      -219.3403
  79   2.0000      -8.057211      -219.2479
  80   2.0000      -8.053070      -219.1352
  81   2.0000      -6.062357      -164.9651
  82   2.0000      -6.060545      -164.9158
  83   2.0000      -6.058174      -164.8513
  84   2.0000      -6.056329      -164.8011
  85   2.0000      -6.055892      -164.7892
  86   2.0000      -6.053958      -164.7366
  87   2.0000      -6.049381      -164.6120
  88   2.0000      -6.045246      -164.4995
  89   2.0000      -6.042780      -164.4324
  90   2.0000      -6.030731      -164.1045
  91   2.0000      -6.027327      -164.0119
  92   2.0000      -6.027020      -164.0036
  93   2.0000      -6.023643      -163.9117
  94   2.0000      -6.023182      -163.8991
  95   2.0000      -6.020693      -163.8314
  96   2.0000      -6.019514      -163.7993
  97   2.0000      -6.017248      -163.7376
  98   2.0000      -6.013184      -163.6270
  99   2.0000      -1.171166       -31.8691
 100   2.0000      -1.170863       -31.8608
 101   2.0000      -1.166543       -31.7433
 102   2.0000      -1.040587       -28.3158
 103   2.0000      -1.033406       -28.1204
 104   2.0000      -1.028307       -27.9817
 105   2.0000      -1.020805       -27.7775
 106   2.0000      -1.018380       -27.7115
 107   2.0000      -1.015584       -27.6354
 108   2.0000      -1.008460       -27.4416
 109   2.0000      -1.006713       -27.3941
 110   2.0000      -0.998141       -27.1608
 111   2.0000      -0.998088       -27.1594
 112   2.0000      -0.997687       -27.1484
 113   2.0000      -0.990027       -26.9400
 114   2.0000      -0.989302       -26.9203
 115   2.0000      -0.969907       -26.3925
 116   2.0000      -0.968823       -26.3630
 117   2.0000      -0.961514       -26.1641
 118   2.0000      -0.958532       -26.0830
 119   2.0000      -0.950475       -25.8637
 120   2.0000      -0.939585       -25.5674
 121   2.0000      -0.937831       -25.5197
 122   2.0000      -0.929322       -25.2881
 123   2.0000      -0.922419       -25.1003
 124   2.0000      -0.909157       -24.7394
 125   2.0000      -0.902555       -24.5598
 126   2.0000      -0.895846       -24.3772
 127   2.0000      -0.894889       -24.3512
 128   2.0000      -0.892116       -24.2757
 129   2.0000      -0.883923       -24.0528
 130   2.0000      -0.871656       -23.7190
 131   2.0000      -0.867454       -23.6046
 132   2.0000      -0.864291       -23.5186
 133   2.0000      -0.857504       -23.3339
 134   2.0000      -0.856504       -23.3067
 135   2.0000      -0.850340       -23.1389
 136   2.0000      -0.835138       -22.7253
 137   2.0000      -0.829338       -22.5674
 138   2.0000      -0.824057       -22.4237
 139   2.0000      -0.816014       -22.2049
 140   2.0000      -0.806774       -21.9534
 141   2.0000      -0.790348       -21.5065
 142   2.0000      -0.789840       -21.4926
 143   2.0000      -0.780855       -21.2481
 144   2.0000      -0.764181       -20.7944
 145   2.0000      -0.744126       -20.2487
 146   2.0000      -0.737848       -20.0779
 147   2.0000      -0.731253       -19.8984
 148   2.0000      -0.727347       -19.7921
 149   2.0000      -0.725911       -19.7530
 150   2.0000      -0.722183       -19.6516
 151   2.0000      -0.715577       -19.4718
 152   2.0000      -0.712053       -19.3760
 153   2.0000      -0.710999       -19.3473
 154   2.0000      -0.706864       -19.2348
 155   2.0000      -0.702858       -19.1257
 156   2.0000      -0.697153       -18.9705
 157   2.0000      -0.685209       -18.6455
 158   2.0000      -0.678280       -18.4569
 159   2.0000      -0.670874       -18.2554
 160   2.0000      -0.667500       -18.1636
 161   2.0000      -0.664353       -18.0780
 162   2.0000      -0.659100       -17.9350
 163   2.0000      -0.658108       -17.9080
 164   2.0000      -0.654860       -17.8197
 165   2.0000      -0.645202       -17.5568
 166   2.0000      -0.639280       -17.3957
 167   2.0000      -0.635460       -17.2918
 168   2.0000      -0.630956       -17.1692
 169   2.0000      -0.613037       -16.6816
 170   2.0000      -0.610361       -16.6088
 171   2.0000      -0.603466       -16.4211
 172   2.0000      -0.598989       -16.2993
 173   2.0000      -0.596649       -16.2357
 174   2.0000      -0.587711       -15.9924
 175   2.0000      -0.583631       -15.8814
 176   2.0000      -0.582004       -15.8371
 177   2.0000      -0.575796       -15.6682
 178   2.0000      -0.575334       -15.6556
 179   2.0000      -0.574894       -15.6437
 180   2.0000      -0.570489       -15.5238
 181   2.0000      -0.564408       -15.3583
 182   2.0000      -0.561402       -15.2765
 183   2.0000      -0.553795       -15.0695
 184   2.0000      -0.552126       -15.0241
 185   2.0000      -0.547945       -14.9104
 186   2.0000      -0.543640       -14.7932
 187   2.0000      -0.542084       -14.7508
 188   2.0000      -0.541574       -14.7370
 189   2.0000      -0.539605       -14.6834
 190   2.0000      -0.538360       -14.6495
 191   2.0000      -0.536757       -14.6059
 192   2.0000      -0.534101       -14.5336
 193   2.0000      -0.532676       -14.4949
 194   2.0000      -0.530742       -14.4422
 195   2.0000      -0.528114       -14.3707
 196   2.0000      -0.524824       -14.2812
 197   2.0000      -0.522449       -14.2166
 198   2.0000      -0.518539       -14.1102
 199   2.0000      -0.515543       -14.0286
 200   2.0000      -0.511635       -13.9223
 201   2.0000      -0.510184       -13.8828
 202   2.0000      -0.507689       -13.8149
 203   2.0000      -0.502087       -13.6625
 204   2.0000      -0.499509       -13.5923
 205   2.0000      -0.498349       -13.5608
 206   2.0000      -0.497423       -13.5356
 207   2.0000      -0.496464       -13.5095
 208   2.0000      -0.491286       -13.3686
 209   2.0000      -0.487855       -13.2752
 210   2.0000      -0.483248       -13.1498
 211   2.0000      -0.481489       -13.1020
 212   2.0000      -0.477630       -12.9970
 213   2.0000      -0.475434       -12.9372
 214   2.0000      -0.472463       -12.8564
 215   2.0000      -0.467614       -12.7244
 216   2.0000      -0.465593       -12.6694
 217   2.0000      -0.464000       -12.6261
 218   2.0000      -0.462008       -12.5719
 219   2.0000      -0.459264       -12.4972
 220   2.0000      -0.458087       -12.4652
 221   2.0000      -0.457412       -12.4468
 222   2.0000      -0.455418       -12.3926
 223   2.0000      -0.453378       -12.3370
 224   2.0000      -0.450739       -12.2652
 225   2.0000      -0.449534       -12.2324
 226   2.0000      -0.448860       -12.2141
 227   2.0000      -0.448048       -12.1920
 228   2.0000      -0.446740       -12.1564
 229   2.0000      -0.446480       -12.1493
 230   2.0000      -0.445038       -12.1101
 231   2.0000      -0.443274       -12.0621
 232   2.0000      -0.441906       -12.0249
 233   2.0000      -0.439543       -11.9606
 234   2.0000      -0.439033       -11.9467
 235   2.0000      -0.437844       -11.9143
 236   2.0000      -0.436311       -11.8726
 237   2.0000      -0.434149       -11.8138
 238   2.0000      -0.432163       -11.7598
 239   2.0000      -0.431284       -11.7358
 240   2.0000      -0.430488       -11.7142
 241   2.0000      -0.428192       -11.6517
 242   2.0000      -0.425860       -11.5882
 243   2.0000      -0.425276       -11.5723
 244   2.0000      -0.424216       -11.5435
 245   2.0000      -0.423245       -11.5171
 246   2.0000      -0.421221       -11.4620
 247   2.0000      -0.416921       -11.3450
 248   2.0000      -0.414880       -11.2895
 249   2.0000      -0.413579       -11.2541
 250   2.0000      -0.410456       -11.1691
 251   2.0000      -0.406612       -11.0645
 252   2.0000      -0.402654       -10.9568
 253   2.0000      -0.402195       -10.9443
 254   2.0000      -0.395877       -10.7724
 255   2.0000      -0.385728       -10.4962
 256   2.0000      -0.382798       -10.4165
 257   2.0000      -0.376388       -10.2420
 258   2.0000      -0.375429       -10.2160
 259   2.0000      -0.367776       -10.0077
 260   2.0000      -0.363971        -9.9041
 261   2.0000      -0.346881        -9.4391
 262   2.0000      -0.343713        -9.3529
 263   2.0000      -0.337545        -9.1851
 264   2.0000      -0.332445        -9.0463
 265   2.0000      -0.324792        -8.8380
 266   2.0000      -0.320131        -8.7112
 267   2.0000      -0.315335        -8.5807
 268   2.0000      -0.313892        -8.5414
 269   2.0000      -0.306740        -8.3468
 270   2.0000      -0.304361        -8.2821
 271   2.0000      -0.296290        -8.0625
 272   2.0000      -0.266502        -7.2519
 273   2.0000      -0.235626        -6.4117
 274   0.0000      -0.135798        -3.6952
 275   0.0000      -0.098112        -2.6698
 276   0.0000      -0.088850        -2.4177
 277   0.0000      -0.078876        -2.1463
 278   0.0000      -0.063773        -1.7353

MULLIKEN ATOMIC CHARGES
-----------------------
   0 C :   -0.036624
   1 C :    0.045622
   2 C :    0.047611
   3 C :   -0.038932
   4 C :    0.012496
   5 C :    0.008617
   6 C :    0.312570
   7 C :   -0.356556
   8 C :   -0.189954
   9 N :    0.157516
  10 C :   -0.181483
  11 N :    0.148185
  12 C :   -0.090085
  13 C :    0.197112
  14 C :   -0.336818
  15 C :   -0.189179
  16 N :    0.170717
  17 C :   -0.197012
  18 N :    0.155304
  19 C :    0.067356
  20 C :   -0.162523
  21 S :    0.195410
  22 C :   -0.068607
  23 C :    0.144275
  24 C :    0.079040
  25 C :    0.006542
  26 C :   -0.135486
  27 S :    0.042309
  28 C :    0.153711
  29 O :   -0.174322
  30 C :   -0.118878
  31 C :   -0.100269
  32 S :    0.171046
  33 C :   -0.120912
  34 C :    0.140708
  35 C :    0.109958
  36 C :   -0.042059
  37 C :   -0.141581
  38 S :    0.030767
  39 C :    0.160636
  40 O :   -0.163869
  41 C :   -0.119445
  42 C :    0.040814
  43 C :    0.008253
  44 C :   -0.079850
  45 S :    0.187863
  46 C :   -0.140275
  47 C :    0.178346
  48 C :    0.104796
  49 C :   -0.029600
  50 C :   -0.145709
  51 S :    0.007783
  52 C :    0.162174
  53 O :   -0.155232
  54 C :   -0.101134
  55 C :    0.016370
  56 C :   -0.079756
  57 C :    0.301836
  58 C :   -0.356722
  59 C :   -0.181525
  60 N :    0.141308
  61 C :   -0.190799
  62 N :    0.153863
  63 C :    0.009023
  64 C :    0.005213
  65 C :   -0.035017
  66 C :    0.045430
  67 C :    0.045108
  68 C :   -0.036582
  69 C :    0.214006
  70 C :   -0.337616
  71 C :   -0.181080
  72 N :    0.151307
  73 C :   -0.212454
  74 N :    0.175097
  75 H :    0.004103
  76 H :    0.002238
  77 H :    0.001948
  78 H :    0.001809
  79 H :    0.015412
  80 H :   -0.006492
  81 H :    0.066085
  82 H :    0.171414
  83 H :   -0.008937
  84 H :   -0.000581
  85 H :    0.071281
  86 H :    0.168848
  87 H :   -0.012765
  88 H :    0.003166
  89 H :    0.008113
  90 H :   -0.021425
  91 H :    0.074141
  92 H :    0.167040
  93 H :    0.001555
  94 H :    0.007654
  95 H :    0.002537
  96 H :    0.000110
  97 H :    0.000437
  98 H :    0.004155
Sum of atomic charges:   -0.0000000

LOEWDIN ATOMIC CHARGES
----------------------
   0 C :    0.003796
   1 C :   -0.001424
   2 C :    0.001750
   3 C :   -0.002557
   4 C :   -0.012573
   5 C :   -0.014647
   6 C :    0.076670
   7 C :   -0.139192
   8 C :   -0.019399
   9 N :   -0.050942
  10 C :   -0.021402
  11 N :   -0.052108
  12 C :   -0.078067
  13 C :    0.055706
  14 C :   -0.141281
  15 C :   -0.013622
  16 N :   -0.058316
  17 C :   -0.022541
  18 N :   -0.055401
  19 C :    0.023384
  20 C :   -0.183742
  21 S :    0.532201
  22 C :   -0.147363
  23 C :   -0.033326
  24 C :   -0.036585
  25 C :   -0.021161
  26 C :   -0.173098
  27 S :    0.244751
  28 C :    0.040312
  29 O :   -0.043487
  30 C :   -0.051832
  31 C :   -0.178041
  32 S :    0.511062
  33 C :   -0.172603
  34 C :   -0.024159
  35 C :   -0.047296
  36 C :   -0.026368
  37 C :   -0.181346
  38 S :    0.238816
  39 C :    0.045691
  40 O :   -0.037597
  41 C :   -0.052886
  42 C :   -0.018880
  43 C :   -0.052878
  44 C :   -0.115177
  45 S :    0.511006
  46 C :   -0.195066
  47 C :    0.006734
  48 C :   -0.062894
  49 C :   -0.009947
  50 C :   -0.195479
  51 S :    0.223516
  52 C :    0.056595
  53 O :   -0.031121
  54 C :   -0.047212
  55 C :    0.035970
  56 C :   -0.086020
  57 C :    0.079563
  58 C :   -0.148387
  59 C :   -0.018835
  60 N :   -0.059371
  61 C :   -0.020036
  62 N :   -0.057717
  63 C :   -0.013054
  64 C :   -0.010335
  65 C :   -0.002138
  66 C :   -0.000347
  67 C :   -0.002696
  68 C :    0.002712
  69 C :    0.059183
  70 C :   -0.153668
  71 C :   -0.021047
  72 N :   -0.056800
  73 C :   -0.037906
  74 N :   -0.053394
  75 H :    0.041029
  76 H :    0.036847
  77 H :    0.036621
  78 H :    0.039876
  79 H :    0.044213
  80 H :    0.036390
  81 H :   -0.021617
  82 H :    0.074458
  83 H :    0.021692
  84 H :    0.020116
  85 H :   -0.018874
  86 H :    0.070565
  87 H :    0.038189
  88 H :    0.033703
  89 H :    0.036013
  90 H :    0.032100
  91 H :   -0.018259
  92 H :    0.067833
  93 H :    0.044098
  94 H :    0.048580
  95 H :    0.039475
  96 H :    0.035618
  97 H :    0.035900
  98 H :    0.040782

  Mayer bond orders larger than 0.100000
B(  0-C ,  1-C ) :   1.3610 B(  0-C ,  5-C ) :   1.3896 B(  0-C , 75-H ) :   0.9825
B(  1-C ,  2-C ) :   1.3843 B(  1-C , 76-H ) :   0.9860 B(  2-C ,  3-C ) :   1.3554
B(  2-C , 77-H ) :   0.9868 B(  3-C ,  4-C ) :   1.3888 B(  3-C , 78-H ) :   0.9866
B(  4-C ,  5-C ) :   1.3119 B(  4-C , 13-C ) :   1.0057 B(  5-C ,  6-C ) :   0.9854
B(  6-C ,  7-C ) :   1.6091 B(  6-C , 12-C ) :   1.0987 B(  7-C ,  8-C ) :   1.1532
B(  7-C , 10-C ) :   1.1393 B(  8-C ,  9-N ) :   2.9718 B( 10-C , 11-N ) :   2.9581
B( 12-C , 13-C ) :   1.0771 B( 12-C , 19-C ) :   1.4658 B( 13-C , 14-C ) :   1.5981
B( 14-C , 15-C ) :   1.1752 B( 14-C , 17-C ) :   1.1450 B( 15-C , 16-N ) :   2.9998
B( 17-C , 18-N ) :   2.9828 B( 19-C , 20-C ) :   1.3054 B( 19-C , 79-H ) :   0.9104
B( 20-C , 21-S ) :   1.1146 B( 20-C , 24-C ) :   1.2314 B( 21-S , 22-C ) :   1.1896
B( 22-C , 23-C ) :   1.2538 B( 22-C , 31-C ) :   1.2505 B( 23-C , 24-C ) :   1.2563
B( 23-C , 30-C ) :   1.2010 B( 24-C , 25-C ) :   1.2858 B( 25-C , 26-C ) :   1.4912
B( 25-C , 80-H ) :   0.9718 B( 26-C , 27-S ) :   1.0279 B( 26-C , 28-C ) :   1.2313
B( 27-S , 81-H ) :   0.9422 B( 28-C , 29-O ) :   1.2716 B( 28-C , 30-C ) :   1.4748
B( 29-O , 82-H ) :   0.9329 B( 30-C , 83-H ) :   0.9784 B( 31-C , 32-S ) :   1.1602
B( 31-C , 35-C ) :   1.2712 B( 32-S , 33-C ) :   1.1318 B( 33-C , 34-C ) :   1.2693
B( 33-C , 42-C ) :   1.2369 B( 34-C , 35-C ) :   1.2331 B( 34-C , 41-C ) :   1.2091
B( 35-C , 36-C ) :   1.2164 B( 36-C , 37-C ) :   1.5347 B( 36-C , 84-H ) :   0.9690
B( 37-C , 38-S ) :   1.0277 B( 37-C , 39-C ) :   1.2067 B( 38-S , 85-H ) :   0.9446
B( 39-C , 40-O ) :   1.2844 B( 39-C , 41-C ) :   1.4657 B( 40-O , 86-H ) :   0.9275
B( 41-C , 87-H ) :   1.0010 B( 42-C , 43-C ) :   1.5599 B( 42-C , 88-H ) :   0.9446
B( 43-C , 44-C ) :   1.2251 B( 43-C , 89-H ) :   0.9479 B( 44-C , 45-S ) :   1.1915
B( 44-C , 48-C ) :   1.2581 B( 45-S , 46-C ) :   1.0801 B( 46-C , 47-C ) :   1.2140
B( 46-C , 55-C ) :   1.3411 B( 47-C , 48-C ) :   1.2338 B( 47-C , 54-C ) :   1.2526
B( 48-C , 49-C ) :   1.2161 B( 49-C , 50-C ) :   1.5238 B( 49-C , 90-H ) :   0.9872
B( 50-C , 51-S ) :   1.0075 B( 50-C , 52-C ) :   1.2081 B( 51-S , 91-H ) :   0.9464
B( 52-C , 53-O ) :   1.3038 B( 52-C , 54-C ) :   1.4388 B( 53-O , 92-H ) :   0.9246
B( 54-C , 93-H ) :   0.9982 B( 55-C , 56-C ) :   1.4555 B( 55-C , 94-H ) :   0.9242
B( 56-C , 57-C ) :   1.1058 B( 56-C , 69-C ) :   1.0599 B( 57-C , 58-C ) :   1.6023
B( 57-C , 63-C ) :   0.9886 B( 58-C , 59-C ) :   1.1453 B( 58-C , 61-C ) :   1.1518
B( 59-C , 60-N ) :   2.9687 B( 61-C , 62-N ) :   2.9742 B( 63-C , 64-C ) :   1.3178
B( 63-C , 68-C ) :   1.3918 B( 64-C , 65-C ) :   1.3921 B( 64-C , 69-C ) :   1.0078
B( 65-C , 66-C ) :   1.3548 B( 65-C , 95-H ) :   0.9871 B( 66-C , 67-C ) :   1.3865
B( 66-C , 96-H ) :   0.9868 B( 67-C , 68-C ) :   1.3609 B( 67-C , 97-H ) :   0.9862
B( 68-C , 98-H ) :   0.9838 B( 69-C , 70-C ) :   1.6080 B( 70-C , 71-C ) :   1.1459
B( 70-C , 73-C ) :   1.1549 B( 71-C , 72-N ) :   2.9901 B( 73-C , 74-N ) :   3.0259

-----------------------------------------------------------------------------
         ABSORPTION SPECTRUM VIA TRANSITION ELECTRIC DIPOLE MOMENTS
-----------------------------------------------------------------------------
State   Energy  Wavelength   fosc         T2         TX        TY        TZ
        (cm-1)    (nm)                  (au**2)     (au)      (au)      (au)
-----------------------------------------------------------------------------
   0    8345.4   1198.3   1.376262880  54.29138  -4.36864  -5.09485   3.04120
   1   14713.3    679.7   0.082729622   1.85109  -0.31891  -0.26284  -1.29627
   2   15911.7    628.5   0.032488358   0.67218  -0.45371  -0.67651  -0.09310
   3   18442.8    542.2   0.090898607   1.62258  -0.08532  -1.24542  -0.25343
   4   19323.9    517.5   0.133909674   2.28135  -0.22218   1.49298   0.05475
   5   20080.3    498.0   0.012132697   0.19891   0.27334  -0.23631   0.26145
   6   21558.9    463.8   0.027428531   0.41884  -0.62227  -0.02094   0.17659
   7   22093.3    452.6   0.066173591   0.98605   0.72247   0.32705   0.59760
   8   23418.8    427.0   0.089154728   1.25330  -0.62098  -0.64910  -0.66809
   9   23865.9    419.0   0.187224160   2.58261   1.13209  -1.05593   0.43127
  10   24558.8    407.2   0.033605575   0.45048  -0.14845  -0.40445   0.51465
  11   24824.1    402.8   0.037647211   0.49927  -0.64349   0.00592  -0.29180
  12   25266.5    395.8   0.102081174   1.33007  -0.72550   0.87834  -0.17956
  13   27137.1    368.5   0.308132126   3.73809  -1.64310   0.34037  -0.96045
  14   27511.2    363.5   0.095636840   1.14443  -0.49109   0.94767  -0.07201
  15   28131.1    355.5   0.046933857   0.54926  -0.34268   0.65525  -0.04969
  16   28434.3    351.7   0.032208879   0.37291   0.26152   0.44994  -0.31949
  17   28723.0    348.2   0.042731480   0.48977   0.24227  -0.65585  -0.03061
  18   29007.6    344.7   0.216977434   2.46251   0.77249  -1.26186  -0.52297
  19   29147.5    343.1   0.056819474   0.64176   0.38692   0.51834  -0.47262
  20   29324.9    341.0   0.049353802   0.55406  -0.67690  -0.06004   0.30375
  21   29819.6    335.3   0.143429782   1.58348  -0.94719  -0.58995  -0.58161
  22   30704.8    325.7   0.121333516   1.30092   0.30580  -1.04672   0.33433
  23   30889.8    323.7   0.496997796   5.29682   0.64531   2.13541   0.56604
  24   31212.6    320.4   0.043916722   0.46321  -0.14901  -0.55680  -0.36191
  25   31618.3    316.3   0.132465240   1.37924   0.04543   1.11248   0.37358
  26   31811.9    314.3   0.059632813   0.61712   0.45294  -0.60893  -0.20290
  27   31995.1    312.5   0.427512956   4.39887  -0.70555   1.97495   0.02511
  28   32216.5    310.4   0.038074608   0.38907   0.11797   0.49751  -0.35727
  29   32801.7    304.9   0.078071249   0.78356   0.45404  -0.69429   0.30881
  30   33361.3    299.7   0.011747895   0.11593  -0.03540   0.32377   0.09924
  31   33561.5    298.0   0.146118722   1.43331  -1.03613  -0.05063   0.59764
  32   33778.6    296.0   0.015774267   0.15374   0.13103  -0.25519   0.26730
  33   34050.0    293.7   0.121416509   1.17391   0.99438   0.16201  -0.39859
  34   34144.3    292.9   0.173966966   1.67735   0.47968  -0.01209   1.20296
  35   34555.0    289.4   0.038596828   0.36772  -0.59639  -0.04779   0.09874
  36   34972.2    285.9   0.176350414   1.66008   1.00005   0.28208   0.76184
  37   35393.7    282.5   0.041688556   0.38776   0.61901  -0.06651  -0.01269
  38   35692.8    280.2   0.025526390   0.23544  -0.08985  -0.37320  -0.29680
  39   35889.7    278.6   0.033955166   0.31147  -0.36049  -0.34858   0.24497
  40   36108.3    276.9   0.067121584   0.61197   0.36965  -0.34541   0.59668
  41   36777.0    271.9   0.009594430   0.08589  -0.12826   0.24490  -0.09726
  42   36884.1    271.1   0.006091016   0.05437   0.15559  -0.11352  -0.13142
  43   37405.2    267.3   0.029525136   0.25986   0.14503  -0.48861  -0.00942
  44   37455.9    267.0   0.049189081   0.43234  -0.64046   0.09860   0.11148
  45   37707.8    265.2   0.060482833   0.52805   0.06891  -0.65763   0.30137
  46   37819.5    264.4   0.027150288   0.23634   0.36183  -0.30396  -0.11411
  47   38367.7    260.6   0.021239202   0.18224  -0.40973   0.09046  -0.07861
  48   38679.2    258.5   0.043491854   0.37017   0.55119   0.01950  -0.25687
  49   38722.1    258.3   0.074708831   0.63517   0.53657   0.00629   0.58925
  50   38818.2    257.6   0.000192327   0.00163   0.01409  -0.02473   0.02865
  51   38933.1    256.9   0.006581125   0.05565   0.02351  -0.00565   0.23466
  52   39075.6    255.9   0.007978883   0.06722   0.09755   0.19805   0.13594
  53   39139.3    255.5   0.012599371   0.10598  -0.21045   0.10921  -0.22307
  54   39542.4    252.9   0.209601069   1.74504   0.41462   1.20429   0.35045
  55   39596.7    252.5   0.035075459   0.29162   0.37743  -0.38111   0.06266
  56   39608.3    252.5   0.128916443   1.07151   0.40867  -0.90068   0.30544
  57   39955.7    250.3   0.032637692   0.26892  -0.38408  -0.22202  -0.26853
  58   40208.6    248.7   0.106904090   0.87529   0.31365   0.38885   0.79102
  59   40290.9    248.2   0.082124298   0.67103  -0.61638  -0.08148  -0.53335

FINAL SINGLE POINT ENERGY     -5272.871316968246

DIPOLE MOMENT
-------------
                                X             Y             Z
Electronic contribution:     -1.57114       6.08768       3.46943
Nuclear contribution   :      4.06108      -5.04626      -4.30603
                        -----------------------------------------
Total Dipole Moment    :      2.48995       1.04142      -0.83660
                        -----------------------------------------
Magnitude (a.u.)       :      2.82565
Magnitude (Debye)      :      7.18223

Rotational constants in cm-1:     0.001513     0.000278     0.000264
Rotational constants in MHz :    45.373575     8.340488     7.924648

                             ****ORCA TERMINATED NORMALLY****
TOTAL RUN TIME: 0 days 0 hours 11 minutes 33 seconds 755 msec
