                         Program Version 4.2.0 -  RELEASE  -
|  1> # ORCA input file
|  2> # SCF done       -186.759962176906          0.000865644320
|  3> ! CAM-B3LYP def2-SVP def2/J RIJCOSX Grid4 TightSCF
|  4> %maxcore 5000
|  5> %tddft
|  6>     Mode sTDDFT
|  7>     Ethresh 5.0
|  8>     maxcore 5000
|  9> end
| 10>
| 11> %pal
| 12>   nprocs 6
| 13>   end
| 14> * xyz 0 1
| 15>    C       -6.82426        -0.32250        -2.90130
| 16>    C       -5.94748        -0.23421        -3.94808
| 17>    C       -6.10425        -0.91831        -5.17164
| 18>    N       -6.17979        -1.45673        -6.18259
| 19>    C       -4.79146         0.57628        -3.95136
| 20>    N       -3.85104         1.22905        -4.03246
| 21>    C       -8.07865        -1.06363        -2.88721
| 22>    C       -8.75649        -0.79759        -1.67140
| 23>    C       -9.97492        -1.35419        -1.36611
| 24>    C      -10.55590        -2.20991        -2.30751
| 25>    C       -9.87047        -2.47230        -3.51821
| 26>    C       -8.63680        -1.91290        -3.82548
| 27>    S      -10.76319        -3.56317        -4.53416
| 28>    C      -12.02810        -3.64930        -3.33696
| 29>    C      -11.79631        -2.90089        -2.23244
| 30>   Br      -13.53414        -4.71911        -3.65782
| 31>    C       -7.94384         0.10911        -0.83861
| 32>    O       -8.17525         0.45211         0.30039
| 33>    C       -6.71638         0.37430        -1.63402
| 34>    C       -5.62698         0.99542        -1.11713
| 35>    N       -5.69525         1.73669         0.02689
| 36>    C       -4.68982         1.73937         1.03048
| 37>    O       -3.64735         1.14695         0.92968
| 38>    C       -5.23114         2.54639         2.10892
| 39>    C       -6.44354         3.05481         1.76641
| 40>    C       -6.73870         2.61503         0.36944
| 41>    O       -7.58250         2.98616        -0.40019
| 42>    C       -7.32989         3.87184         2.55194
| 43>    C       -8.36221         4.60981         1.94712
| 44>    C       -9.19151         5.37000         2.73123
| 45>    C       -9.03725         5.40044         4.13044
| 46>    C       -8.01982         4.67127         4.73791
| 47>    C       -7.17386         3.92540         3.94864
| 48>    C      -10.05643         6.25231         4.68849
| 49>    C      -10.83420         6.77367         3.63540
| 50>    C      -10.34215         6.25102         2.30553
| 51>    C       -9.85961         7.39493         1.39385
| 52>    C       -8.77548         8.24932         2.03996
| 53>    C      -11.43094         5.43836         1.58037
| 54>    C      -11.96086         4.28051         2.41750
| 55>    C      -11.87714         7.62638         3.88689
| 56>    C      -12.18931         7.97264         5.21544
| 57>    C      -11.41498         7.42247         6.25454
| 58>    C      -10.35443         6.58117         6.00621
| 59>    C      -13.26781         8.85086         5.55561
| 60>    C      -13.99899         9.61622         4.69916
| 61>    C      -15.05051        10.44703         5.11812
| 62>    C      -15.76606        11.28028         4.29333
| 63>    C      -16.84418        12.11948         4.66153
| 64>    C      -17.35977        12.85511         3.63658
| 65>    C      -16.71471        12.64629         2.39964
| 66>    S      -15.43493        11.46381         2.57743
| 67>    C      -16.98481        13.26067         1.19049
| 68>    C      -17.98359        14.21919         0.91239
| 69>    C      -17.98820        14.65093        -0.37865
| 70>    C      -16.99422        14.06617        -1.20373
| 71>    S      -16.05386        12.92537        -0.25006
| 72>    C      -16.80684        14.35858        -2.53014
| 73>    C      -15.85129        13.85359        -3.43565
| 74>    C      -15.76789        14.23440        -4.77898
| 75>    C      -14.69899        13.53467        -5.38880
| 76>    C      -14.20727        13.54473        -6.67539
| 77>    C      -13.11363        12.71234        -6.96311
| 78>    C      -12.40647        12.49461        -8.13660
| 79>    C      -11.37409        11.53515        -7.88882
| 80>    C      -11.44546        11.16314        -6.55896
| 81>    C      -12.52045        11.87216        -5.93689
| 82>    C      -13.00411        11.85883        -4.65710
| 83>    C      -14.10609        12.69249        -4.36411
| 84>    C      -14.80843        12.89334        -3.19278
| 85>    C      -10.41849        11.02704        -8.84337
| 86>    C      -10.35292        11.36560       -10.12844
| 87>    H      -10.46555        -1.13325        -0.43119
| 88>    H       -8.14987        -2.14873        -4.75709
| 89>    H      -12.47000        -2.83822        -1.39741
| 90>    H       -4.63349         0.89289        -1.53871
| 91>    H       -4.69181         2.68552         3.02646
| 92>    H       -8.48514         4.57617         0.87722
| 93>    H       -7.89665         4.68704         5.81046
| 94>    H       -6.39216         3.34298         4.41062
| 95>    H      -10.71516         8.02540         1.14261
| 96>    H       -9.47714         6.96323         0.46684
| 97>    H       -9.13905         8.70147         2.96033
| 98>    H       -8.47300         9.04446         1.36247
| 99>    H       -7.90053         7.64739         2.27562
|100>    H      -11.01233         5.04862         0.65050
|101>    H      -12.25466         6.10811         1.32402
|102>    H      -11.16291         3.57933         2.65130
|103>    H      -12.73497         3.74835         1.86956
|104>    H      -12.38684         4.64226         3.35110
|105>    H      -12.46997         8.01817         3.07491
|106>    H      -11.66168         7.68256         7.27425
|107>    H       -9.76927         6.17941         6.82007
|108>    H      -13.50040         8.92002         6.61181
|109>    H      -13.77510         9.62010         3.64074
|110>    H      -15.32383        10.43872         6.16552
|111>    H      -17.20492        12.15200         5.67456
|112>    H      -18.17955        13.54324         3.74022
|113>    H      -18.66837        14.56219         1.66691
|114>    H      -18.67662        15.37901        -0.77095
|115>    H      -17.49352        15.08900        -2.94284
|116>    H      -16.41070        14.94177        -5.27016
|117>    H      -14.64308        14.16800        -7.44357
|118>    H      -12.60034        12.96877        -9.08135
|119>    H      -10.80507        10.45641        -6.06335
|120>    H      -12.56967        11.23730        -3.88671
|121>    H      -14.61072        12.41341        -2.25259
|122>    H       -9.71429        10.30822        -8.44325
|123>    H      -11.03292        12.07236       -10.57287
|124>    H       -9.61114        10.94377       -10.78402
|125> *
|126>
|127>                          ****END OF INPUT****

CARTESIAN COORDINATES (ANGSTROEM)
---------------------------------
  C     -6.824260   -0.322500   -2.901300
  C     -5.947480   -0.234210   -3.948080
  C     -6.104250   -0.918310   -5.171640
  N     -6.179790   -1.456730   -6.182590
  C     -4.791460    0.576280   -3.951360
  N     -3.851040    1.229050   -4.032460
  C     -8.078650   -1.063630   -2.887210
  C     -8.756490   -0.797590   -1.671400
  C     -9.974920   -1.354190   -1.366110
  C    -10.555900   -2.209910   -2.307510
  C     -9.870470   -2.472300   -3.518210
  C     -8.636800   -1.912900   -3.825480
  S    -10.763190   -3.563170   -4.534160
  C    -12.028100   -3.649300   -3.336960
  C    -11.796310   -2.900890   -2.232440
  Br   -13.534140   -4.719110   -3.657820
  C     -7.943840    0.109110   -0.838610
  O     -8.175250    0.452110    0.300390
  C     -6.716380    0.374300   -1.634020
  C     -5.626980    0.995420   -1.117130
  N     -5.695250    1.736690    0.026890
  C     -4.689820    1.739370    1.030480
  O     -3.647350    1.146950    0.929680
  C     -5.231140    2.546390    2.108920
  C     -6.443540    3.054810    1.766410
  C     -6.738700    2.615030    0.369440
  O     -7.582500    2.986160   -0.400190
  C     -7.329890    3.871840    2.551940
  C     -8.362210    4.609810    1.947120
  C     -9.191510    5.370000    2.731230
  C     -9.037250    5.400440    4.130440
  C     -8.019820    4.671270    4.737910
  C     -7.173860    3.925400    3.948640
  C    -10.056430    6.252310    4.688490
  C    -10.834200    6.773670    3.635400
  C    -10.342150    6.251020    2.305530
  C     -9.859610    7.394930    1.393850
  C     -8.775480    8.249320    2.039960
  C    -11.430940    5.438360    1.580370
  C    -11.960860    4.280510    2.417500
  C    -11.877140    7.626380    3.886890
  C    -12.189310    7.972640    5.215440
  C    -11.414980    7.422470    6.254540
  C    -10.354430    6.581170    6.006210
  C    -13.267810    8.850860    5.555610
  C    -13.998990    9.616220    4.699160
  C    -15.050510   10.447030    5.118120
  C    -15.766060   11.280280    4.293330
  C    -16.844180   12.119480    4.661530
  C    -17.359770   12.855110    3.636580
  C    -16.714710   12.646290    2.399640
  S    -15.434930   11.463810    2.577430
  C    -16.984810   13.260670    1.190490
  C    -17.983590   14.219190    0.912390
  C    -17.988200   14.650930   -0.378650
  C    -16.994220   14.066170   -1.203730
  S    -16.053860   12.925370   -0.250060
  C    -16.806840   14.358580   -2.530140
  C    -15.851290   13.853590   -3.435650
  C    -15.767890   14.234400   -4.778980
  C    -14.698990   13.534670   -5.388800
  C    -14.207270   13.544730   -6.675390
  C    -13.113630   12.712340   -6.963110
  C    -12.406470   12.494610   -8.136600
  C    -11.374090   11.535150   -7.888820
  C    -11.445460   11.163140   -6.558960
  C    -12.520450   11.872160   -5.936890
  C    -13.004110   11.858830   -4.657100
  C    -14.106090   12.692490   -4.364110
  C    -14.808430   12.893340   -3.192780
  C    -10.418490   11.027040   -8.843370
  C    -10.352920   11.365600  -10.128440
  H    -10.465550   -1.133250   -0.431190
  H     -8.149870   -2.148730   -4.757090
  H    -12.470000   -2.838220   -1.397410
  H     -4.633490    0.892890   -1.538710
  H     -4.691810    2.685520    3.026460
  H     -8.485140    4.576170    0.877220
  H     -7.896650    4.687040    5.810460
  H     -6.392160    3.342980    4.410620
  H    -10.715160    8.025400    1.142610
  H     -9.477140    6.963230    0.466840
  H     -9.139050    8.701470    2.960330
  H     -8.473000    9.044460    1.362470
  H     -7.900530    7.647390    2.275620
  H    -11.012330    5.048620    0.650500
  H    -12.254660    6.108110    1.324020
  H    -11.162910    3.579330    2.651300
  H    -12.734970    3.748350    1.869560
  H    -12.386840    4.642260    3.351100
  H    -12.469970    8.018170    3.074910
  H    -11.661680    7.682560    7.274250
  H     -9.769270    6.179410    6.820070
  H    -13.500400    8.920020    6.611810
  H    -13.775100    9.620100    3.640740
  H    -15.323830   10.438720    6.165520
  H    -17.204920   12.152000    5.674560
  H    -18.179550   13.543240    3.740220
  H    -18.668370   14.562190    1.666910
  H    -18.676620   15.379010   -0.770950
  H    -17.493520   15.089000   -2.942840
  H    -16.410700   14.941770   -5.270160
  H    -14.643080   14.168000   -7.443570
  H    -12.600340   12.968770   -9.081350
  H    -10.805070   10.456410   -6.063350
  H    -12.569670   11.237300   -3.886710
  H    -14.610720   12.413410   -2.252590
  H     -9.714290   10.308220   -8.443250
  H    -11.032920   12.072360  -10.572870
  H     -9.611140   10.943770  -10.784020

 Total Charge           Charge          ....    0
 Multiplicity           Mult            ....    1
 Number of Electrons    NEL             ....  538
 Basis Dimension        Dim             .... 1228

ORBITAL ENERGIES
----------------

  NO   OCC          E(Eh)            E(eV)
   0   2.0000    -482.886048    -13139.9974
   1   2.0000     -88.976442     -2421.1721
   2   2.0000     -88.940022     -2420.1810
   3   2.0000     -88.937374     -2420.1090
   4   2.0000     -62.563788     -1702.4472
   5   2.0000     -56.397739     -1534.6605
   6   2.0000     -56.395019     -1534.5865
   7   2.0000     -56.394986     -1534.5856
   8   2.0000     -19.228934      -523.2459
   9   2.0000     -19.224352      -523.1212
  10   2.0000     -19.219340      -522.9848
  11   2.0000     -14.475691      -393.9036
  12   2.0000     -14.415826      -392.2746
  13   2.0000     -14.414503      -392.2386
  14   2.0000     -10.409414      -283.2546
  15   2.0000     -10.402641      -283.0703
  16   2.0000     -10.370214      -282.1879
  17   2.0000     -10.359783      -281.9040
  18   2.0000     -10.354948      -281.7724
  19   2.0000     -10.343652      -281.4651
  20   2.0000     -10.342995      -281.4472
  21   2.0000     -10.326525      -280.9990
  22   2.0000     -10.320397      -280.8323
  23   2.0000     -10.318333      -280.7761
  24   2.0000     -10.316616      -280.7294
  25   2.0000     -10.309381      -280.5325
  26   2.0000     -10.308597      -280.5112
  27   2.0000     -10.306724      -280.4602
  28   2.0000     -10.305394      -280.4240
  29   2.0000     -10.301950      -280.3303
  30   2.0000     -10.301780      -280.3257
  31   2.0000     -10.300433      -280.2890
  32   2.0000     -10.299988      -280.2769
  33   2.0000     -10.299811      -280.2721
  34   2.0000     -10.299336      -280.2592
  35   2.0000     -10.298987      -280.2497
  36   2.0000     -10.297395      -280.2064
  37   2.0000     -10.297328      -280.2045
  38   2.0000     -10.293811      -280.1088
  39   2.0000     -10.290465      -280.0178
  40   2.0000     -10.284345      -279.8513
  41   2.0000     -10.282296      -279.7955
  42   2.0000     -10.282284      -279.7952
  43   2.0000     -10.280733      -279.7530
  44   2.0000     -10.280166      -279.7375
  45   2.0000     -10.279573      -279.7214
  46   2.0000     -10.279503      -279.7195
  47   2.0000     -10.277667      -279.6696
  48   2.0000     -10.277293      -279.6594
  49   2.0000     -10.277202      -279.6569
  50   2.0000     -10.276877      -279.6480
  51   2.0000     -10.276760      -279.6448
  52   2.0000     -10.274224      -279.5758
  53   2.0000     -10.272241      -279.5219
  54   2.0000     -10.272111      -279.5183
  55   2.0000     -10.271968      -279.5145
  56   2.0000     -10.271045      -279.4893
  57   2.0000     -10.270248      -279.4677
  58   2.0000     -10.269831      -279.4563
  59   2.0000     -10.269564      -279.4490
  60   2.0000     -10.269483      -279.4468
  61   2.0000     -10.268612      -279.4231
  62   2.0000     -10.267804      -279.4012
  63   2.0000     -10.267772      -279.4003
  64   2.0000     -10.267102      -279.3821
  65   2.0000     -10.266807      -279.3740
  66   2.0000     -10.266587      -279.3680
  67   2.0000     -10.264526      -279.3119
  68   2.0000     -10.263811      -279.2925
  69   2.0000     -10.263548      -279.2853
  70   2.0000     -10.263167      -279.2750
  71   2.0000     -10.261532      -279.2305
  72   2.0000     -10.260418      -279.2002
  73   2.0000     -10.255911      -279.0775
  74   2.0000     -10.244990      -278.7804
  75   2.0000     -10.243658      -278.7441
  76   2.0000      -8.793240      -239.2762
  77   2.0000      -8.072306      -219.6586
  78   2.0000      -8.035964      -218.6697
  79   2.0000      -8.033606      -218.6055
  80   2.0000      -6.629562      -180.3996
  81   2.0000      -6.614955      -180.0021
  82   2.0000      -6.614772      -179.9971
  83   2.0000      -6.041998      -164.4111
  84   2.0000      -6.037721      -164.2947
  85   2.0000      -6.033576      -164.1820
  86   2.0000      -6.005746      -163.4247
  87   2.0000      -6.003329      -163.3589
  88   2.0000      -6.001718      -163.3151
  89   2.0000      -5.999423      -163.2526
  90   2.0000      -5.996852      -163.1826
  91   2.0000      -5.994462      -163.1176
  92   2.0000      -2.745413       -74.7065
  93   2.0000      -2.741370       -74.5965
  94   2.0000      -2.741159       -74.5907
  95   2.0000      -2.729586       -74.2758
  96   2.0000      -2.729569       -74.2754
  97   2.0000      -1.175375       -31.9836
  98   2.0000      -1.149568       -31.2813
  99   2.0000      -1.132979       -30.8299
 100   2.0000      -1.068489       -29.0751
 101   2.0000      -1.023500       -27.8509
 102   2.0000      -1.013304       -27.5734
 103   2.0000      -0.993667       -27.0391
 104   2.0000      -0.991027       -26.9672
 105   2.0000      -0.989604       -26.9285
 106   2.0000      -0.988979       -26.9115
 107   2.0000      -0.984747       -26.7963
 108   2.0000      -0.967327       -26.3223
 109   2.0000      -0.961896       -26.1745
 110   2.0000      -0.957843       -26.0642
 111   2.0000      -0.944453       -25.6999
 112   2.0000      -0.935672       -25.4609
 113   2.0000      -0.916781       -24.9469
 114   2.0000      -0.909254       -24.7420
 115   2.0000      -0.900997       -24.5174
 116   2.0000      -0.895486       -24.3674
 117   2.0000      -0.887758       -24.1571
 118   2.0000      -0.886488       -24.1226
 119   2.0000      -0.877479       -23.8774
 120   2.0000      -0.867334       -23.6014
 121   2.0000      -0.862110       -23.4592
 122   2.0000      -0.851857       -23.1802
 123   2.0000      -0.844344       -22.9758
 124   2.0000      -0.837490       -22.7893
 125   2.0000      -0.836659       -22.7667
 126   2.0000      -0.835115       -22.7246
 127   2.0000      -0.833676       -22.6855
 128   2.0000      -0.830092       -22.5879
 129   2.0000      -0.827128       -22.5073
 130   2.0000      -0.815865       -22.2008
 131   2.0000      -0.809968       -22.0404
 132   2.0000      -0.796127       -21.6637
 133   2.0000      -0.787208       -21.4210
 134   2.0000      -0.779767       -21.2185
 135   2.0000      -0.771236       -20.9864
 136   2.0000      -0.761169       -20.7125
 137   2.0000      -0.760496       -20.6941
 138   2.0000      -0.754624       -20.5344
 139   2.0000      -0.743860       -20.2415
 140   2.0000      -0.739137       -20.1129
 141   2.0000      -0.723128       -19.6773
 142   2.0000      -0.721065       -19.6212
 143   2.0000      -0.713508       -19.4155
 144   2.0000      -0.701284       -19.0829
 145   2.0000      -0.693065       -18.8592
 146   2.0000      -0.686946       -18.6928
 147   2.0000      -0.684188       -18.6177
 148   2.0000      -0.676075       -18.3969
 149   2.0000      -0.672129       -18.2896
 150   2.0000      -0.670876       -18.2555
 151   2.0000      -0.667333       -18.1590
 152   2.0000      -0.665682       -18.1141
 153   2.0000      -0.660147       -17.9635
 154   2.0000      -0.647817       -17.6280
 155   2.0000      -0.645277       -17.5589
 156   2.0000      -0.640285       -17.4231
 157   2.0000      -0.636415       -17.3177
 158   2.0000      -0.630769       -17.1641
 159   2.0000      -0.624510       -16.9938
 160   2.0000      -0.622564       -16.9408
 161   2.0000      -0.615802       -16.7568
 162   2.0000      -0.610428       -16.6106
 163   2.0000      -0.608773       -16.5655
 164   2.0000      -0.603857       -16.4318
 165   2.0000      -0.599951       -16.3255
 166   2.0000      -0.595139       -16.1945
 167   2.0000      -0.594067       -16.1654
 168   2.0000      -0.589565       -16.0429
 169   2.0000      -0.578403       -15.7391
 170   2.0000      -0.576409       -15.6849
 171   2.0000      -0.572296       -15.5730
 172   2.0000      -0.568672       -15.4744
 173   2.0000      -0.563573       -15.3356
 174   2.0000      -0.557649       -15.1744
 175   2.0000      -0.551837       -15.0163
 176   2.0000      -0.550369       -14.9763
 177   2.0000      -0.545066       -14.8320
 178   2.0000      -0.542008       -14.7488
 179   2.0000      -0.540316       -14.7027
 180   2.0000      -0.539726       -14.6867
 181   2.0000      -0.538207       -14.6454
 182   2.0000      -0.534891       -14.5551
 183   2.0000      -0.531797       -14.4709
 184   2.0000      -0.530544       -14.4368
 185   2.0000      -0.527554       -14.3555
 186   2.0000      -0.524029       -14.2596
 187   2.0000      -0.521731       -14.1970
 188   2.0000      -0.520653       -14.1677
 189   2.0000      -0.517965       -14.0945
 190   2.0000      -0.515443       -14.0259
 191   2.0000      -0.515324       -14.0227
 192   2.0000      -0.509735       -13.8706
 193   2.0000      -0.508958       -13.8494
 194   2.0000      -0.506523       -13.7832
 195   2.0000      -0.501662       -13.6509
 196   2.0000      -0.499220       -13.5845
 197   2.0000      -0.495591       -13.4857
 198   2.0000      -0.494518       -13.4565
 199   2.0000      -0.494399       -13.4533
 200   2.0000      -0.491647       -13.3784
 201   2.0000      -0.489240       -13.3129
 202   2.0000      -0.488182       -13.2841
 203   2.0000      -0.485440       -13.2095
 204   2.0000      -0.483011       -13.1434
 205   2.0000      -0.481919       -13.1137
 206   2.0000      -0.477426       -12.9914
 207   2.0000      -0.477067       -12.9817
 208   2.0000      -0.471696       -12.8355
 209   2.0000      -0.469148       -12.7662
 210   2.0000      -0.468211       -12.7407
 211   2.0000      -0.465781       -12.6745
 212   2.0000      -0.463842       -12.6218
 213   2.0000      -0.461459       -12.5569
 214   2.0000      -0.459702       -12.5091
 215   2.0000      -0.455789       -12.4027
 216   2.0000      -0.453169       -12.3313
 217   2.0000      -0.449318       -12.2266
 218   2.0000      -0.448662       -12.2087
 219   2.0000      -0.448122       -12.1940
 220   2.0000      -0.447880       -12.1874
 221   2.0000      -0.446158       -12.1406
 222   2.0000      -0.445649       -12.1267
 223   2.0000      -0.443322       -12.0634
 224   2.0000      -0.439576       -11.9615
 225   2.0000      -0.437399       -11.9022
 226   2.0000      -0.436215       -11.8700
 227   2.0000      -0.427559       -11.6345
 228   2.0000      -0.427296       -11.6273
 229   2.0000      -0.425111       -11.5679
 230   2.0000      -0.424169       -11.5422
 231   2.0000      -0.422636       -11.5005
 232   2.0000      -0.422093       -11.4857
 233   2.0000      -0.419492       -11.4150
 234   2.0000      -0.418642       -11.3918
 235   2.0000      -0.413803       -11.2601
 236   2.0000      -0.412534       -11.2256
 237   2.0000      -0.410077       -11.1588
 238   2.0000      -0.405233       -11.0269
 239   2.0000      -0.402831       -10.9616
 240   2.0000      -0.401992       -10.9388
 241   2.0000      -0.398092       -10.8326
 242   2.0000      -0.391681       -10.6582
 243   2.0000      -0.390192       -10.6177
 244   2.0000      -0.389403       -10.5962
 245   2.0000      -0.386667       -10.5217
 246   2.0000      -0.384518       -10.4633
 247   2.0000      -0.382094       -10.3973
 248   2.0000      -0.376478       -10.2445
 249   2.0000      -0.375390       -10.2149
 250   2.0000      -0.366501        -9.9730
 251   2.0000      -0.365058        -9.9337
 252   2.0000      -0.363097        -9.8804
 253   2.0000      -0.352739        -9.5985
 254   2.0000      -0.345404        -9.3989
 255   2.0000      -0.343268        -9.3408
 256   2.0000      -0.332777        -9.0553
 257   2.0000      -0.325185        -8.8487
 258   2.0000      -0.320469        -8.7204
 259   2.0000      -0.318792        -8.6748
 260   2.0000      -0.316198        -8.6042
 261   2.0000      -0.315636        -8.5889
 262   2.0000      -0.309550        -8.4233
 263   2.0000      -0.294410        -8.0113
 264   2.0000      -0.292155        -7.9500
 265   2.0000      -0.268286        -7.3004
 266   2.0000      -0.267002        -7.2655
 267   2.0000      -0.243470        -6.6251
 268   2.0000      -0.196777        -5.3546
 269   0.0000      -0.095262        -2.5922
 270   0.0000      -0.083826        -2.2810
 271   0.0000      -0.079006        -2.1499
 272   0.0000      -0.065761        -1.7894
 273   0.0000      -0.054425        -1.4810

MULLIKEN ATOMIC CHARGES
-----------------------
   0 C :    0.302891
   1 C :   -0.330457
   2 C :   -0.185553
   3 N :    0.151726
   4 C :   -0.211427
   5 N :    0.167101
   6 C :    0.012572
   7 C :   -0.016335
   8 C :   -0.066482
   9 C :    0.118270
  10 C :   -0.091106
  11 C :   -0.018319
  12 S :    0.188127
  13 C :   -0.124243
  14 C :    0.038778
  15 Br:    0.025278
  16 C :    0.165039
  17 O :   -0.151912
  18 C :   -0.090969
  19 C :    0.094289
  20 N :   -0.252452
  21 C :    0.228547
  22 O :   -0.147974
  23 C :   -0.117916
  24 C :    0.030340
  25 C :    0.241821
  26 O :   -0.140379
  27 C :    0.092644
  28 C :   -0.086580
  29 C :    0.009685
  30 C :    0.117201
  31 C :   -0.047988
  32 C :   -0.016952
  33 C :    0.095662
  34 C :    0.016421
  35 C :   -0.139857
  36 C :    0.071258
  37 C :    0.024289
  38 C :    0.066613
  39 C :    0.026672
  40 C :   -0.088814
  41 C :    0.133102
  42 C :   -0.019754
  43 C :   -0.039664
  44 C :   -0.027554
  45 C :    0.024505
  46 C :   -0.022845
  47 C :   -0.013854
  48 C :    0.031852
  49 C :    0.023663
  50 C :   -0.050154
  51 S :    0.058916
  52 C :   -0.028399
  53 C :    0.021545
  54 C :    0.035203
  55 C :   -0.024588
  56 S :    0.046246
  57 C :   -0.017263
  58 C :    0.060531
  59 C :   -0.041052
  60 C :    0.068538
  61 C :   -0.001150
  62 C :    0.046972
  63 C :   -0.018404
  64 C :    0.060021
  65 C :   -0.027381
  66 C :    0.059778
  67 C :    0.000536
  68 C :    0.040768
  69 C :   -0.026389
  70 C :    0.011820
  71 C :   -0.026954
  72 H :   -0.009890
  73 H :   -0.006182
  74 H :   -0.001499
  75 H :    0.057191
  76 H :    0.007360
  77 H :   -0.008975
  78 H :   -0.031432
  79 H :   -0.026851
  80 H :   -0.003031
  81 H :    0.001018
  82 H :    0.021892
  83 H :    0.010024
  84 H :    0.018217
  85 H :    0.005744
  86 H :   -0.002596
  87 H :    0.021631
  88 H :    0.008214
  89 H :    0.020949
  90 H :   -0.043333
  91 H :   -0.029907
  92 H :   -0.036753
  93 H :   -0.027451
  94 H :   -0.001232
  95 H :   -0.021395
  96 H :   -0.017304
  97 H :   -0.015411
  98 H :   -0.017273
  99 H :   -0.015013
 100 H :   -0.024682
 101 H :   -0.029851
 102 H :   -0.026293
 103 H :   -0.024323
 104 H :   -0.026222
 105 H :   -0.024805
 106 H :   -0.009262
 107 H :   -0.018257
 108 H :    0.007308
 109 H :    0.021572
Sum of atomic charges:   -0.0000000

LOEWDIN ATOMIC CHARGES
----------------------
   0 C :    0.078155
   1 C :   -0.134976
   2 C :   -0.017793
   3 N :   -0.050291
   4 C :   -0.024844
   5 N :   -0.044261
   6 C :   -0.020393
   7 C :   -0.048377
   8 C :    0.023763
   9 C :   -0.031691
  10 C :   -0.143609
  11 C :   -0.008121
  12 S :    0.433794
  13 C :   -0.270970
  14 C :   -0.070210
  15 Br:    0.138017
  16 C :    0.089611
  17 O :   -0.141354
  18 C :   -0.103305
  19 C :    0.129019
  20 N :   -0.021187
  21 C :    0.096521
  22 O :   -0.135153
  23 C :   -0.040367
  24 C :    0.006574
  25 C :    0.114095
  26 O :   -0.122444
  27 C :   -0.040377
  28 C :    0.002356
  29 C :    0.000989
  30 C :    0.003514
  31 C :   -0.022052
  32 C :    0.000867
  33 C :   -0.028350
  34 C :    0.009482
  35 C :   -0.035436
  36 C :   -0.010782
  37 C :   -0.057790
  38 C :   -0.011081
  39 C :   -0.057420
  40 C :   -0.020029
  41 C :   -0.016293
  42 C :   -0.020522
  43 C :   -0.015064
  44 C :   -0.027119
  45 C :   -0.024627
  46 C :   -0.064907
  47 C :   -0.141739
  48 C :   -0.041816
  49 C :   -0.030121
  50 C :   -0.187464
  51 S :    0.358663
  52 C :   -0.174050
  53 C :   -0.043972
  54 C :   -0.027835
  55 C :   -0.158100
  56 S :    0.370485
  57 C :   -0.042144
  58 C :   -0.064538
  59 C :    0.011026
  60 C :   -0.059716
  61 C :    0.071713
  62 C :   -0.063336
  63 C :    0.048430
  64 C :   -0.059430
  65 C :    0.015485
  66 C :   -0.058825
  67 C :    0.070379
  68 C :   -0.061748
  69 C :    0.029984
  70 C :   -0.020679
  71 C :   -0.054992
  72 H :    0.041563
  73 H :    0.041291
  74 H :    0.039293
  75 H :    0.046117
  76 H :    0.039406
  77 H :    0.030370
  78 H :    0.028717
  79 H :    0.027823
  80 H :    0.020004
  81 H :    0.021576
  82 H :    0.025647
  83 H :    0.024567
  84 H :    0.024046
  85 H :    0.023222
  86 H :    0.020015
  87 H :    0.025519
  88 H :    0.024106
  89 H :    0.025128
  90 H :    0.023669
  91 H :    0.025721
  92 H :    0.026539
  93 H :    0.025605
  94 H :    0.019854
  95 H :    0.030697
  96 H :    0.031673
  97 H :    0.030932
  98 H :    0.030388
  99 H :    0.032339
 100 H :    0.034828
 101 H :    0.022898
 102 H :    0.034372
 103 H :    0.024957
 104 H :    0.024563
 105 H :    0.035200
 106 H :    0.014237
 107 H :    0.029725
 108 H :    0.017422
 109 H :    0.024750

  Mayer bond orders larger than 0.100000
B(  0-C ,  1-C ) :   1.6597 B(  0-C ,  6-C ) :   1.0150 B(  0-C , 18-C ) :   1.0815
B(  1-C ,  2-C ) :   1.1382 B(  1-C ,  4-C ) :   1.1382 B(  2-C ,  3-N ) :   2.9734
B(  4-C ,  5-N ) :   3.0008 B(  6-C ,  7-C ) :   1.2767 B(  6-C , 11-C ) :   1.4086
B(  7-C ,  8-C ) :   1.4239 B(  7-C , 16-C ) :   0.9529 B(  8-C ,  9-C ) :   1.2470
B(  8-C , 72-H ) :   1.0178 B(  9-C , 10-C ) :   1.3039 B(  9-C , 14-C ) :   1.1632
B( 10-C , 11-C ) :   1.3325 B( 10-C , 12-S ) :   1.0862 B( 11-C , 73-H ) :   0.9809
B( 12-S , 13-C ) :   1.0868 B( 13-C , 14-C ) :   1.6194 B( 13-C , 15-Br) :   1.0194
B( 14-C , 74-H ) :   0.9995 B( 16-C , 17-O ) :   2.2086 B( 16-C , 18-C ) :   0.9324
B( 18-C , 19-C ) :   1.6143 B( 19-C , 20-N ) :   1.1037 B( 19-C , 75-H ) :   0.9544
B( 20-N , 21-C ) :   0.9499 B( 20-N , 25-C ) :   0.9891 B( 21-C , 22-O ) :   2.1875
B( 21-C , 23-C ) :   0.9814 B( 23-C , 24-C ) :   1.6461 B( 23-C , 76-H ) :   1.0200
B( 24-C , 25-C ) :   0.9163 B( 24-C , 27-C ) :   1.0612 B( 25-C , 26-O ) :   2.1629
B( 27-C , 28-C ) :   1.2967 B( 27-C , 32-C ) :   1.3362 B( 28-C , 29-C ) :   1.3802
B( 28-C , 77-H ) :   0.9998 B( 29-C , 30-C ) :   1.3617 B( 29-C , 35-C ) :   0.9100
B( 30-C , 31-C ) :   1.3225 B( 30-C , 33-C ) :   1.0077 B( 31-C , 32-C ) :   1.4058
B( 31-C , 78-H ) :   0.9909 B( 32-C , 79-H ) :   0.9885 B( 33-C , 34-C ) :   1.3473
B( 33-C , 43-C ) :   1.3314 B( 34-C , 35-C ) :   0.9168 B( 34-C , 40-C ) :   1.4197
B( 35-C , 36-C ) :   1.0400 B( 35-C , 38-C ) :   1.0395 B( 36-C , 37-C ) :   1.1003
B( 36-C , 80-H ) :   0.9387 B( 36-C , 81-H ) :   0.9391 B( 37-C , 82-H ) :   0.9646
B( 37-C , 83-H ) :   0.9639 B( 37-C , 84-H ) :   0.9645 B( 38-C , 39-C ) :   1.1034
B( 38-C , 85-H ) :   0.9389 B( 38-C , 86-H ) :   0.9389 B( 39-C , 87-H ) :   0.9636
B( 39-C , 88-H ) :   0.9634 B( 39-C , 89-H ) :   0.9643 B( 40-C , 41-C ) :   1.2888
B( 40-C , 90-H ) :   0.9994 B( 41-C , 42-C ) :   1.3181 B( 41-C , 44-C ) :   1.0754
B( 42-C , 43-C ) :   1.3900 B( 42-C , 91-H ) :   0.9932 B( 43-C , 92-H ) :   0.9901
B( 44-C , 45-C ) :   1.6402 B( 44-C , 93-H ) :   0.9875 B( 45-C , 46-C ) :   1.1590
B( 45-C , 94-H ) :   0.9633 B( 46-C , 47-C ) :   1.5524 B( 46-C , 95-H ) :   0.9844
B( 47-C , 48-C ) :   1.1465 B( 47-C , 51-S ) :   1.0325 B( 48-C , 49-C ) :   1.5800
B( 48-C , 96-H ) :   0.9995 B( 49-C , 50-C ) :   1.1972 B( 49-C , 97-H ) :   0.9942
B( 50-C , 51-S ) :   1.0349 B( 50-C , 52-C ) :   1.5024 B( 52-C , 53-C ) :   1.1884
B( 52-C , 56-S ) :   1.0445 B( 53-C , 54-C ) :   1.5875 B( 53-C , 98-H ) :   0.9931
B( 54-C , 55-C ) :   1.1425 B( 54-C , 99-H ) :   0.9998 B( 55-C , 56-S ) :   1.0171
B( 55-C , 57-C ) :   1.5742 B( 57-C , 58-C ) :   1.1350 B( 57-C ,100-H ) :   0.9697
B( 58-C , 59-C ) :   1.4290 B( 58-C , 69-C ) :   1.1333 B( 59-C , 60-C ) :   1.1177
B( 59-C ,101-H ) :   1.0205 B( 60-C , 61-C ) :   1.4232 B( 60-C , 68-C ) :   1.1309
B( 61-C , 62-C ) :   1.1419 B( 61-C ,102-H ) :   1.0053 B( 62-C , 63-C ) :   1.4266
B( 62-C , 66-C ) :   1.1271 B( 63-C , 64-C ) :   1.1514 B( 63-C ,103-H ) :   1.0076
B( 64-C , 65-C ) :   1.4993 B( 64-C , 70-C ) :   1.0847 B( 65-C , 66-C ) :   1.0868
B( 65-C ,104-H ) :   1.0178 B( 66-C , 67-C ) :   1.4633 B( 67-C , 68-C ) :   1.1227
B( 67-C ,105-H ) :   1.0049 B( 68-C , 69-C ) :   1.4601 B( 69-C ,106-H ) :   0.9915
B( 70-C , 71-C ) :   1.9333 B( 70-C ,107-H ) :   0.9669 B( 71-C ,108-H ) :   0.9527
B( 71-C ,109-H ) :   0.9495

-----------------------------------------------------------------------------
         ABSORPTION SPECTRUM VIA TRANSITION ELECTRIC DIPOLE MOMENTS
-----------------------------------------------------------------------------
State   Energy  Wavelength   fosc         T2         TX        TY        TZ
        (cm-1)    (nm)                  (au**2)     (au)      (au)      (au)
-----------------------------------------------------------------------------
   0    6063.4   1649.2   0.018685523   1.01453  -0.02439   0.34864  -0.94466
   1   13627.5    733.8   1.241062290  29.98148   1.77488  -3.15200   4.11050
   2   14706.5    680.0   0.017790741   0.39825   0.22423  -0.35167   0.47361
   3   17540.8    570.1   0.116241455   2.18167   0.38227  -0.16053  -1.41766
   4   18093.7    552.7   0.476994718   8.67885  -1.11255   0.29921   2.71137
   5   22315.7    448.1   0.033781035   0.49835   0.29457   0.08566  -0.63580
   6   23177.5    431.5   0.140017649   1.98880   0.97717  -0.81598  -0.60673
   7   23405.0    427.3   0.249229873   3.50563  -1.12497   1.04925   1.06731
   8   24798.6    403.2   0.891535634  11.83551   2.40283  -1.99079  -1.44868
   9   25538.1    391.6   0.605848577   7.81000   1.41857  -1.15076  -2.11504
  10   26608.8    375.8   0.155938515   1.92931   1.34474  -0.31544  -0.14659
  11   26852.5    372.4   0.350566849   4.29795  -1.65719   0.85720   0.90382
  12   28302.6    353.3   0.028498151   0.33149  -0.37594   0.16259   0.40462
  13   28640.8    349.2   0.363750340   4.18113  -1.16129   1.14538   1.23315
  14   28942.5    345.5   0.092376596   1.05076   0.52846   0.69954  -0.53116
  15   29221.9    342.2   0.374249041   4.21626   1.79263   0.87828   0.48098
  16   29626.8    337.5   0.016906442   0.18786  -0.03621  -0.35843   0.24099
  17   30221.4    330.9   0.016924537   0.18436   0.10244   0.31179   0.27688
  18   30598.0    326.8   0.132438310   1.42494   0.88543  -0.29846  -0.74289
  19   31045.2    322.1   0.018346676   0.19455  -0.39639  -0.18319   0.06222
  20   31427.8    318.2   0.153167936   1.60446   0.87676   0.17057  -0.89814
  21   31448.3    318.0   0.007702046   0.08063  -0.18870  -0.18080  -0.11104
  22   32075.7    311.8   0.009090260   0.09330  -0.03548   0.03534   0.30132
  23   32442.2    308.2   0.022861736   0.23199  -0.41396  -0.05240  -0.24060
  24   32588.0    306.9   0.049456520   0.49962   0.33329  -0.47066  -0.40868
  25   32710.4    305.7   0.010427907   0.10495  -0.12992  -0.05910   0.29082
  26   32857.6    304.3   0.000101520   0.00102  -0.01829   0.00785   0.02492
  27   32961.7    303.4   0.005706199   0.05699  -0.14787   0.05794   0.17824
  28   33181.5    301.4   0.031419582   0.31173  -0.42513   0.31948  -0.17007
  29   33563.0    297.9   0.000180619   0.00177  -0.00909  -0.03987  -0.00999
  30   33853.4    295.4   0.134054377   1.30363  -0.71171   0.25002   0.85708
  31   34095.9    293.3   0.003737179   0.03608   0.12315   0.10027  -0.10423
  32   34191.8    292.5   0.298941373   2.87832   1.47517   0.82921  -0.12089
  33   34474.5    290.1   0.311046306   2.97032   1.37775   0.41378  -0.94916
  34   34488.5    290.0   0.061933338   0.59119   0.67695  -0.28865  -0.22274
  35   34738.7    287.9   0.004796376   0.04545  -0.02475   0.20738  -0.04284
  36   34927.1    286.3   0.002646927   0.02495   0.11870   0.01285  -0.10341
  37   35402.8    282.5   0.209612758   1.94920  -0.49529  -0.85546  -0.98594
  38   35982.3    277.9   0.068112119   0.62318   0.34915  -0.02206  -0.70766
  39   36069.4    277.2   0.005613183   0.05123  -0.00864  -0.10462   0.20053
  40   36457.1    274.3   0.008772698   0.07922  -0.12949  -0.03208   0.24783
  41   36479.9    274.1   0.011764068   0.10616   0.32426   0.00130   0.03187
  42   36565.5    273.5   0.015573860   0.14022   0.25375  -0.03381  -0.27328
  43   36932.8    270.8   0.024303747   0.21664  -0.45909  -0.04000   0.06538
  44   37304.2    268.1   0.032567897   0.28741  -0.18333  -0.38752   0.32192
  45   37374.0    267.6   0.026785351   0.23594  -0.39303  -0.16699  -0.23148
  46   37472.8    266.9   0.227054460   1.99475   0.55473   1.00517   0.82259
  47   37542.6    266.4   0.160911351   1.41104  -1.14066  -0.33149  -0.00611
  48   37832.3    264.3   0.005123133   0.04458  -0.05513   0.09816  -0.17862
  49   38335.1    260.9   0.008164035   0.07011  -0.24348  -0.07338   0.07378
  50   38516.5    259.6   0.061718710   0.52753   0.02533   0.01351   0.72574
  51   38786.8    257.8   0.010387436   0.08817  -0.16615   0.24609  -0.00117
  52   39056.8    256.0   0.006979703   0.05883   0.10184  -0.16209  -0.14896
  53   39139.7    255.5   0.024248535   0.20396   0.39220  -0.22361  -0.01161
  54   39151.4    255.4   0.004564077   0.03838  -0.15100   0.12041   0.03282
  55   39223.3    255.0   0.031844118   0.26728  -0.28252   0.16569  -0.40001
  56   39663.0    252.1   0.089762840   0.74505   0.56966  -0.28649  -0.58177
  57   39978.7    250.1   0.006212399   0.05116  -0.13078   0.17660  -0.05352
  58   40159.2    249.0   0.325195491   2.66584   0.18885   0.91169   1.34127

FINAL SINGLE POINT ENERGY     -6539.928104688974

DIPOLE MOMENT
-------------
                                X             Y             Z
Electronic contribution:     -5.42731    -183.75994     -56.05596
Nuclear contribution   :      2.32750     185.25998      57.87387
                        -----------------------------------------
Total Dipole Moment    :     -3.09981       1.50004       1.81791
                        -----------------------------------------
Magnitude (a.u.)       :      3.89406
Magnitude (Debye)      :      9.89792

Rotational constants in cm-1:     0.000687     0.000296     0.000261
Rotational constants in MHz :    20.592184     8.886783     7.816515

                             ****ORCA TERMINATED NORMALLY****
TOTAL RUN TIME: 0 days 0 hours 13 minutes 42 seconds 236 msec
