                         Program Version 4.2.0 -  RELEASE  -
|  1> # ORCA input file
|  2> # SCF done       -210.923521863215          0.000740872014
|  3> ! CAM-B3LYP def2-SVP def2/J RIJCOSX Grid4 TightSCF
|  4> %maxcore 5000
|  5> %tddft
|  6>     Mode sTDDFT
|  7>     Ethresh 5.0
|  8>     maxcore 5000
|  9> end
| 10>
| 11> %pal
| 12>   nprocs 6
| 13>   end
| 14> * xyz 0 1
| 15>    C      -10.24904         2.22659        -2.40959
| 16>    C      -11.61483         2.26996        -2.41822
| 17>    F      -12.25065         3.38686        -2.79196
| 18>    C      -12.37141         1.14341        -2.03478
| 19>    F      -13.70820         1.21550        -2.05305
| 20>    C      -11.75094        -0.01087        -1.64689
| 21>    C      -10.34455        -0.08651        -1.62556
| 22>    C       -9.57834         1.05083        -2.01548
| 23>    C       -8.16658         0.99708        -2.00556
| 24>    C       -7.53873        -0.15922        -1.61949
| 25>    C       -8.31194        -1.28715        -1.22424
| 26>    C       -9.67744        -1.26359        -1.22156
| 27>    C       -7.41794        -2.39016        -0.83026
| 28>    O       -7.73838        -3.45533        -0.35701
| 29>    C       -6.03184        -1.86113        -1.01595
| 30>    C       -6.12455        -0.49987        -1.52215
| 31>    C       -5.07809         0.29061        -1.90974
| 32>    C       -3.71933        -0.09248        -1.87100
| 33>    N       -2.59924        -0.34155        -1.88093
| 34>    C       -5.22312         1.59696        -2.42578
| 35>    N       -5.27996         2.66336        -2.84518
| 36>    C       -4.92001        -2.50648        -0.59515
| 37>    C       -4.88242        -3.90113        -0.21687
| 38>    C       -5.49456        -4.91507        -0.96964
| 39>    F       -6.08947        -4.60697        -2.12578
| 40>    C       -5.41642        -6.23632        -0.58399
| 41>    F       -5.98990        -7.17385        -1.35301
| 42>    C       -4.71770        -6.65524         0.56778
| 43>    C       -4.12834        -5.62809         1.32575
| 44>    C       -4.18726        -4.30667         0.92780
| 45>    F       -3.61368        -3.36856         1.69318
| 46>    F       -3.55405        -5.90623         2.50486
| 47>    C       -4.68535        -8.05096         0.88498
| 48>    C       -3.72154        -8.76522         1.53790
| 49>    C       -3.80880       -10.16620         1.80687
| 50>    C       -2.70519       -10.69520         2.38953
| 51>    C       -1.66728        -9.75130         2.60430
| 52>    S       -2.15743        -8.16873         2.05328
| 53>    C       -0.42833        -9.95556         3.17110
| 54>    C        0.11895       -11.16122         3.68315
| 55>    C        1.36363       -11.01714         4.19972
| 56>    C        1.88890        -9.69057         4.11421
| 57>    S        0.71153        -8.64484         3.34544
| 58>    C        3.07856        -9.29928         4.65704
| 59>    C        3.69684        -8.00762         4.62670
| 60>    C        4.50542        -7.61028         5.71102
| 61>    F        4.65026        -8.45640         6.74050
| 62>    C        5.10636        -6.37187         5.77003
| 63>    F        5.82832        -6.04067         6.84604
| 64>    C        5.00924        -5.44917         4.71471
| 65>    C        4.23241        -5.85338         3.62081
| 66>    C        3.59961        -7.08040         3.57648
| 67>    F        2.94163        -7.40053         2.45404
| 68>    F        4.06113        -5.01642         2.58604
| 69>    C        5.63114        -4.15549         4.82815
| 70>    C        6.12325        -3.34222         3.86644
| 71>    C        6.34761        -1.89597         4.19294
| 72>    O        6.36861        -1.40502         5.29432
| 73>    C        6.46940        -1.22320         2.88655
| 74>    C        6.53428         0.11342         2.61279
| 75>    C        6.60652         0.53552         1.26666
| 76>    C        6.60387        -0.43897         0.22572
| 77>    C        6.66365        -0.00971        -1.11553
| 78>    C        6.72717         1.32325        -1.40988
| 79>    C        6.73211         2.28608        -0.37976
| 80>    C        6.67312         1.90197         0.93052
| 81>    F        6.79510         3.58508        -0.69784
| 82>    F        6.78663         1.72942        -2.68364
| 83>    C        6.54397        -1.81555         0.53923
| 84>    C        6.48506        -2.20200         1.85181
| 85>    C        6.42821        -3.52710         2.45883
| 86>    C        6.81325        -4.69194         1.85457
| 87>    C        6.91375        -5.92673         2.52580
| 88>    N        7.01353        -6.94645         3.04270
| 89>    C        7.21796        -4.77854         0.50492
| 90>    N        7.55743        -4.90053        -0.58375
| 91>    H       -9.68542         3.09693        -2.70746
| 92>    H      -12.34374        -0.86390        -1.35607
| 93>    H       -7.61541         1.87553        -2.29983
| 94>    H      -10.23899        -2.13373        -0.91745
| 95>    H       -3.98633        -1.97061        -0.48066
| 96>    H       -5.51129        -8.62533         0.48478
| 97>    H       -4.69563       -10.72225         1.56015
| 98>    H       -2.60114       -11.72813         2.66861
| 99>    H       -0.42512       -12.08806         3.65776
|100>    H        1.93876       -11.81190         4.64017
|101>    H        3.59752       -10.03768         5.25489
|102>    H        5.66711        -3.75038         5.83577
|103>    H        6.52636         0.83884         3.41197
|104>    H        6.66291        -0.73356        -1.91537
|105>    H        6.67640         2.65133         1.70645
|106>    H        6.52971        -2.53222        -0.26625
|107> *
|108>
|109>                          ****END OF INPUT****

CARTESIAN COORDINATES (ANGSTROEM)
---------------------------------
  C    -10.249040    2.226590   -2.409590
  C    -11.614830    2.269960   -2.418220
  F    -12.250650    3.386860   -2.791960
  C    -12.371410    1.143410   -2.034780
  F    -13.708200    1.215500   -2.053050
  C    -11.750940   -0.010870   -1.646890
  C    -10.344550   -0.086510   -1.625560
  C     -9.578340    1.050830   -2.015480
  C     -8.166580    0.997080   -2.005560
  C     -7.538730   -0.159220   -1.619490
  C     -8.311940   -1.287150   -1.224240
  C     -9.677440   -1.263590   -1.221560
  C     -7.417940   -2.390160   -0.830260
  O     -7.738380   -3.455330   -0.357010
  C     -6.031840   -1.861130   -1.015950
  C     -6.124550   -0.499870   -1.522150
  C     -5.078090    0.290610   -1.909740
  C     -3.719330   -0.092480   -1.871000
  N     -2.599240   -0.341550   -1.880930
  C     -5.223120    1.596960   -2.425780
  N     -5.279960    2.663360   -2.845180
  C     -4.920010   -2.506480   -0.595150
  C     -4.882420   -3.901130   -0.216870
  C     -5.494560   -4.915070   -0.969640
  F     -6.089470   -4.606970   -2.125780
  C     -5.416420   -6.236320   -0.583990
  F     -5.989900   -7.173850   -1.353010
  C     -4.717700   -6.655240    0.567780
  C     -4.128340   -5.628090    1.325750
  C     -4.187260   -4.306670    0.927800
  F     -3.613680   -3.368560    1.693180
  F     -3.554050   -5.906230    2.504860
  C     -4.685350   -8.050960    0.884980
  C     -3.721540   -8.765220    1.537900
  C     -3.808800  -10.166200    1.806870
  C     -2.705190  -10.695200    2.389530
  C     -1.667280   -9.751300    2.604300
  S     -2.157430   -8.168730    2.053280
  C     -0.428330   -9.955560    3.171100
  C      0.118950  -11.161220    3.683150
  C      1.363630  -11.017140    4.199720
  C      1.888900   -9.690570    4.114210
  S      0.711530   -8.644840    3.345440
  C      3.078560   -9.299280    4.657040
  C      3.696840   -8.007620    4.626700
  C      4.505420   -7.610280    5.711020
  F      4.650260   -8.456400    6.740500
  C      5.106360   -6.371870    5.770030
  F      5.828320   -6.040670    6.846040
  C      5.009240   -5.449170    4.714710
  C      4.232410   -5.853380    3.620810
  C      3.599610   -7.080400    3.576480
  F      2.941630   -7.400530    2.454040
  F      4.061130   -5.016420    2.586040
  C      5.631140   -4.155490    4.828150
  C      6.123250   -3.342220    3.866440
  C      6.347610   -1.895970    4.192940
  O      6.368610   -1.405020    5.294320
  C      6.469400   -1.223200    2.886550
  C      6.534280    0.113420    2.612790
  C      6.606520    0.535520    1.266660
  C      6.603870   -0.438970    0.225720
  C      6.663650   -0.009710   -1.115530
  C      6.727170    1.323250   -1.409880
  C      6.732110    2.286080   -0.379760
  C      6.673120    1.901970    0.930520
  F      6.795100    3.585080   -0.697840
  F      6.786630    1.729420   -2.683640
  C      6.543970   -1.815550    0.539230
  C      6.485060   -2.202000    1.851810
  C      6.428210   -3.527100    2.458830
  C      6.813250   -4.691940    1.854570
  C      6.913750   -5.926730    2.525800
  N      7.013530   -6.946450    3.042700
  C      7.217960   -4.778540    0.504920
  N      7.557430   -4.900530   -0.583750
  H     -9.685420    3.096930   -2.707460
  H    -12.343740   -0.863900   -1.356070
  H     -7.615410    1.875530   -2.299830
  H    -10.238990   -2.133730   -0.917450
  H     -3.986330   -1.970610   -0.480660
  H     -5.511290   -8.625330    0.484780
  H     -4.695630  -10.722250    1.560150
  H     -2.601140  -11.728130    2.668610
  H     -0.425120  -12.088060    3.657760
  H      1.938760  -11.811900    4.640170
  H      3.597520  -10.037680    5.254890
  H      5.667110   -3.750380    5.835770
  H      6.526360    0.838840    3.411970
  H      6.662910   -0.733560   -1.915370
  H      6.676400    2.651330    1.706450
  H      6.529710   -2.532220   -0.266250

 Total Charge           Charge          ....    0
 Multiplicity           Mult            ....    1
 Number of Electrons    NEL             ....  536
 Basis Dimension        Dim             .... 1152

ORBITAL ENERGIES
----------------

  NO   OCC          E(Eh)            E(eV)
   0   2.0000     -88.956241     -2420.6224
   1   2.0000     -88.956006     -2420.6160
   2   2.0000     -24.812311      -675.1773
   3   2.0000     -24.806881      -675.0296
   4   2.0000     -24.805550      -674.9933
   5   2.0000     -24.803945      -674.9496
   6   2.0000     -24.803884      -674.9480
   7   2.0000     -24.803679      -674.9424
   8   2.0000     -24.802923      -674.9218
   9   2.0000     -24.802512      -674.9107
  10   2.0000     -24.802411      -674.9079
  11   2.0000     -24.800917      -674.8673
  12   2.0000     -24.798556      -674.8030
  13   2.0000     -24.797870      -674.7844
  14   2.0000     -19.226709      -523.1854
  15   2.0000     -19.222349      -523.0667
  16   2.0000     -14.424846      -392.5200
  17   2.0000     -14.424358      -392.5067
  18   2.0000     -14.422302      -392.4508
  19   2.0000     -14.420395      -392.3989
  20   2.0000     -10.387889      -282.6688
  21   2.0000     -10.387325      -282.6535
  22   2.0000     -10.386523      -282.6317
  23   2.0000     -10.386322      -282.6262
  24   2.0000     -10.385333      -282.5993
  25   2.0000     -10.384928      -282.5882
  26   2.0000     -10.382170      -282.5132
  27   2.0000     -10.381887      -282.5055
  28   2.0000     -10.381738      -282.5014
  29   2.0000     -10.381357      -282.4911
  30   2.0000     -10.380957      -282.4802
  31   2.0000     -10.378668      -282.4179
  32   2.0000     -10.377468      -282.3852
  33   2.0000     -10.373048      -282.2650
  34   2.0000     -10.354391      -281.7573
  35   2.0000     -10.350566      -281.6532
  36   2.0000     -10.350074      -281.6398
  37   2.0000     -10.346092      -281.5315
  38   2.0000     -10.331406      -281.1318
  39   2.0000     -10.327746      -281.0323
  40   2.0000     -10.327274      -281.0194
  41   2.0000     -10.326863      -281.0082
  42   2.0000     -10.326565      -281.0001
  43   2.0000     -10.326212      -280.9905
  44   2.0000     -10.324725      -280.9500
  45   2.0000     -10.323975      -280.9296
  46   2.0000     -10.323693      -280.9220
  47   2.0000     -10.323287      -280.9109
  48   2.0000     -10.323153      -280.9073
  49   2.0000     -10.322347      -280.8853
  50   2.0000     -10.321560      -280.8639
  51   2.0000     -10.318878      -280.7909
  52   2.0000     -10.317048      -280.7411
  53   2.0000     -10.316783      -280.7339
  54   2.0000     -10.315131      -280.6890
  55   2.0000     -10.312795      -280.6254
  56   2.0000     -10.312427      -280.6154
  57   2.0000     -10.312094      -280.6063
  58   2.0000     -10.310578      -280.5651
  59   2.0000     -10.309485      -280.5353
  60   2.0000     -10.309262      -280.5293
  61   2.0000     -10.308734      -280.5149
  62   2.0000     -10.306623      -280.4575
  63   2.0000     -10.305932      -280.4387
  64   2.0000     -10.305775      -280.4344
  65   2.0000     -10.304673      -280.4044
  66   2.0000     -10.303142      -280.3628
  67   2.0000     -10.302927      -280.3569
  68   2.0000     -10.302093      -280.3342
  69   2.0000     -10.301067      -280.3063
  70   2.0000     -10.300557      -280.2924
  71   2.0000     -10.298901      -280.2474
  72   2.0000     -10.298652      -280.2406
  73   2.0000     -10.298578      -280.2386
  74   2.0000     -10.298156      -280.2271
  75   2.0000     -10.296948      -280.1942
  76   2.0000      -8.052556      -219.1212
  77   2.0000      -8.052420      -219.1175
  78   2.0000      -6.022328      -163.8759
  79   2.0000      -6.022186      -163.8720
  80   2.0000      -6.018170      -163.7627
  81   2.0000      -6.018058      -163.7597
  82   2.0000      -6.013368      -163.6321
  83   2.0000      -6.013193      -163.6273
  84   2.0000      -1.332571       -36.2611
  85   2.0000      -1.329250       -36.1707
  86   2.0000      -1.327611       -36.1261
  87   2.0000      -1.326343       -36.0916
  88   2.0000      -1.325579       -36.0708
  89   2.0000      -1.321526       -35.9605
  90   2.0000      -1.314209       -35.7614
  91   2.0000      -1.312684       -35.7199
  92   2.0000      -1.311415       -35.6854
  93   2.0000      -1.311411       -35.6853
  94   2.0000      -1.309398       -35.6305
  95   2.0000      -1.306620       -35.5549
  96   2.0000      -1.142581       -31.0912
  97   2.0000      -1.138599       -30.9829
  98   2.0000      -1.028255       -27.9802
  99   2.0000      -1.024831       -27.8871
 100   2.0000      -1.011581       -27.5265
 101   2.0000      -1.010015       -27.4839
 102   2.0000      -1.007609       -27.4184
 103   2.0000      -1.003032       -27.2939
 104   2.0000      -1.001156       -27.2428
 105   2.0000      -0.996800       -27.1243
 106   2.0000      -0.994301       -27.0563
 107   2.0000      -0.988116       -26.8880
 108   2.0000      -0.985107       -26.8061
 109   2.0000      -0.983289       -26.7567
 110   2.0000      -0.941936       -25.6314
 111   2.0000      -0.937884       -25.5211
 112   2.0000      -0.928239       -25.2587
 113   2.0000      -0.924466       -25.1560
 114   2.0000      -0.907682       -24.6993
 115   2.0000      -0.902733       -24.5646
 116   2.0000      -0.898584       -24.4517
 117   2.0000      -0.894711       -24.3463
 118   2.0000      -0.890137       -24.2219
 119   2.0000      -0.878221       -23.8976
 120   2.0000      -0.865583       -23.5537
 121   2.0000      -0.858008       -23.3476
 122   2.0000      -0.856891       -23.3172
 123   2.0000      -0.854039       -23.2396
 124   2.0000      -0.847315       -23.0566
 125   2.0000      -0.845230       -22.9999
 126   2.0000      -0.842678       -22.9304
 127   2.0000      -0.834354       -22.7039
 128   2.0000      -0.819890       -22.3104
 129   2.0000      -0.806569       -21.9479
 130   2.0000      -0.787861       -21.4388
 131   2.0000      -0.775176       -21.0936
 132   2.0000      -0.772844       -21.0302
 133   2.0000      -0.767444       -20.8832
 134   2.0000      -0.753875       -20.5140
 135   2.0000      -0.740186       -20.1415
 136   2.0000      -0.737852       -20.0780
 137   2.0000      -0.735726       -20.0201
 138   2.0000      -0.734171       -19.9778
 139   2.0000      -0.723015       -19.6742
 140   2.0000      -0.720311       -19.6007
 141   2.0000      -0.717163       -19.5150
 142   2.0000      -0.706236       -19.2177
 143   2.0000      -0.699479       -19.0338
 144   2.0000      -0.693979       -18.8841
 145   2.0000      -0.690275       -18.7833
 146   2.0000      -0.689242       -18.7552
 147   2.0000      -0.681591       -18.5470
 148   2.0000      -0.678605       -18.4658
 149   2.0000      -0.669506       -18.2182
 150   2.0000      -0.667899       -18.1745
 151   2.0000      -0.663202       -18.0467
 152   2.0000      -0.659974       -17.9588
 153   2.0000      -0.655545       -17.8383
 154   2.0000      -0.654347       -17.8057
 155   2.0000      -0.649428       -17.6718
 156   2.0000      -0.644677       -17.5425
 157   2.0000      -0.641586       -17.4585
 158   2.0000      -0.640108       -17.4182
 159   2.0000      -0.634118       -17.2552
 160   2.0000      -0.632931       -17.2229
 161   2.0000      -0.624299       -16.9880
 162   2.0000      -0.623278       -16.9603
 163   2.0000      -0.620767       -16.8919
 164   2.0000      -0.620363       -16.8809
 165   2.0000      -0.617101       -16.7922
 166   2.0000      -0.615456       -16.7474
 167   2.0000      -0.605505       -16.4766
 168   2.0000      -0.603302       -16.4167
 169   2.0000      -0.595500       -16.2044
 170   2.0000      -0.594187       -16.1687
 171   2.0000      -0.593033       -16.1373
 172   2.0000      -0.590701       -16.0738
 173   2.0000      -0.588509       -16.0141
 174   2.0000      -0.586868       -15.9695
 175   2.0000      -0.585941       -15.9443
 176   2.0000      -0.583637       -15.8816
 177   2.0000      -0.580908       -15.8073
 178   2.0000      -0.580458       -15.7951
 179   2.0000      -0.577874       -15.7247
 180   2.0000      -0.576991       -15.7007
 181   2.0000      -0.572095       -15.5675
 182   2.0000      -0.560981       -15.2651
 183   2.0000      -0.559810       -15.2332
 184   2.0000      -0.557402       -15.1677
 185   2.0000      -0.556184       -15.1345
 186   2.0000      -0.552906       -15.0453
 187   2.0000      -0.552265       -15.0279
 188   2.0000      -0.552174       -15.0254
 189   2.0000      -0.549548       -14.9540
 190   2.0000      -0.547473       -14.8975
 191   2.0000      -0.546614       -14.8741
 192   2.0000      -0.543997       -14.8029
 193   2.0000      -0.543182       -14.7807
 194   2.0000      -0.540323       -14.7029
 195   2.0000      -0.537590       -14.6286
 196   2.0000      -0.533601       -14.5200
 197   2.0000      -0.531245       -14.4559
 198   2.0000      -0.529783       -14.4161
 199   2.0000      -0.528556       -14.3827
 200   2.0000      -0.525016       -14.2864
 201   2.0000      -0.523347       -14.2410
 202   2.0000      -0.521993       -14.2042
 203   2.0000      -0.520174       -14.1546
 204   2.0000      -0.519994       -14.1498
 205   2.0000      -0.517138       -14.0721
 206   2.0000      -0.512443       -13.9443
 207   2.0000      -0.510257       -13.8848
 208   2.0000      -0.508215       -13.8292
 209   2.0000      -0.504732       -13.7345
 210   2.0000      -0.504095       -13.7171
 211   2.0000      -0.501908       -13.6576
 212   2.0000      -0.500125       -13.6091
 213   2.0000      -0.497078       -13.5262
 214   2.0000      -0.495303       -13.4779
 215   2.0000      -0.493428       -13.4269
 216   2.0000      -0.490463       -13.3462
 217   2.0000      -0.487454       -13.2643
 218   2.0000      -0.485704       -13.2167
 219   2.0000      -0.478383       -13.0175
 220   2.0000      -0.478109       -13.0100
 221   2.0000      -0.474326       -12.9071
 222   2.0000      -0.470925       -12.8145
 223   2.0000      -0.470475       -12.8023
 224   2.0000      -0.469292       -12.7701
 225   2.0000      -0.466855       -12.7038
 226   2.0000      -0.463936       -12.6243
 227   2.0000      -0.461415       -12.5558
 228   2.0000      -0.457934       -12.4610
 229   2.0000      -0.456360       -12.4182
 230   2.0000      -0.455303       -12.3894
 231   2.0000      -0.452664       -12.3176
 232   2.0000      -0.452004       -12.2997
 233   2.0000      -0.448043       -12.1919
 234   2.0000      -0.446756       -12.1568
 235   2.0000      -0.445103       -12.1119
 236   2.0000      -0.440691       -11.9918
 237   2.0000      -0.437404       -11.9024
 238   2.0000      -0.436490       -11.8775
 239   2.0000      -0.435622       -11.8539
 240   2.0000      -0.433041       -11.7837
 241   2.0000      -0.431830       -11.7507
 242   2.0000      -0.430019       -11.7014
 243   2.0000      -0.427920       -11.6443
 244   2.0000      -0.421125       -11.4594
 245   2.0000      -0.418468       -11.3871
 246   2.0000      -0.412853       -11.2343
 247   2.0000      -0.408467       -11.1150
 248   2.0000      -0.406666       -11.0660
 249   2.0000      -0.397953       -10.8288
 250   2.0000      -0.391628       -10.6567
 251   2.0000      -0.387740       -10.5509
 252   2.0000      -0.375924       -10.2294
 253   2.0000      -0.364305        -9.9132
 254   2.0000      -0.351860        -9.5746
 255   2.0000      -0.349238        -9.5033
 256   2.0000      -0.346333        -9.4242
 257   2.0000      -0.340290        -9.2598
 258   2.0000      -0.333628        -9.0785
 259   2.0000      -0.325599        -8.8600
 260   2.0000      -0.323694        -8.8082
 261   2.0000      -0.322245        -8.7687
 262   2.0000      -0.318597        -8.6695
 263   2.0000      -0.316976        -8.6253
 264   2.0000      -0.306948        -8.3525
 265   2.0000      -0.302193        -8.2231
 266   2.0000      -0.296653        -8.0723
 267   2.0000      -0.235397        -6.4055
 268   0.0000      -0.109262        -2.9732
 269   0.0000      -0.098180        -2.6716
 270   0.0000      -0.080024        -2.1776
 271   0.0000      -0.065522        -1.7830
 272   0.0000      -0.059301        -1.6137

MULLIKEN ATOMIC CHARGES
-----------------------
   0 C :   -0.107514
   1 C :    0.243567
   2 F :   -0.168851
   3 C :    0.240489
   4 F :   -0.169491
   5 C :   -0.104268
   6 C :    0.117224
   7 C :    0.114883
   8 C :   -0.082913
   9 C :    0.051188
  10 C :   -0.007790
  11 C :   -0.075314
  12 C :    0.151915
  13 O :   -0.136594
  14 C :   -0.072130
  15 C :    0.303358
  16 C :   -0.328507
  17 C :   -0.203482
  18 N :    0.167626
  19 C :   -0.182197
  20 N :    0.157560
  21 C :   -0.017696
  22 C :   -0.115402
  23 C :    0.253207
  24 F :   -0.162569
  25 C :    0.177880
  26 F :   -0.170115
  27 C :   -0.063893
  28 C :    0.172325
  29 C :    0.211209
  30 F :   -0.162894
  31 F :   -0.165484
  32 C :   -0.049585
  33 C :   -0.004434
  34 C :    0.033726
  35 C :    0.041830
  36 C :   -0.058544
  37 S :    0.116404
  38 C :   -0.056860
  39 C :    0.039433
  40 C :    0.039237
  41 C :   -0.005655
  42 S :    0.114993
  43 C :   -0.046315
  44 C :   -0.066172
  45 C :    0.194049
  46 F :   -0.167978
  47 C :    0.213446
  48 F :   -0.158732
  49 C :   -0.105730
  50 C :    0.211706
  51 C :    0.189604
  52 F :   -0.162577
  53 F :   -0.164906
  54 C :    0.021242
  55 C :   -0.103929
  56 C :    0.135825
  57 O :   -0.131027
  58 C :    0.011941
  59 C :   -0.077413
  60 C :    0.111581
  61 C :    0.111310
  62 C :   -0.104018
  63 C :    0.241126
  64 C :    0.238019
  65 C :   -0.101767
  66 F :   -0.170375
  67 F :   -0.168992
  68 C :   -0.076090
  69 C :    0.037665
  70 C :    0.279638
  71 C :   -0.316088
  72 C :   -0.199636
  73 N :    0.167372
  74 C :   -0.181892
  75 N :    0.164129
  76 H :    0.009283
  77 H :    0.000520
  78 H :   -0.004558
  79 H :   -0.008267
  80 H :    0.050384
  81 H :    0.010992
  82 H :   -0.003451
  83 H :   -0.006637
  84 H :   -0.006702
  85 H :   -0.002582
  86 H :    0.013613
  87 H :    0.040699
  88 H :   -0.005634
  89 H :    0.009056
  90 H :    0.001819
  91 H :    0.000577
Sum of atomic charges:   -0.0000000

LOEWDIN ATOMIC CHARGES
----------------------
   0 C :   -0.028713
   1 C :    0.068084
   2 F :   -0.046688
   3 C :    0.069151
   4 F :   -0.047080
   5 C :   -0.032321
   6 C :   -0.007494
   7 C :   -0.005291
   8 C :    0.019335
   9 C :   -0.023218
  10 C :   -0.052718
  11 C :    0.033458
  12 C :    0.083506
  13 O :   -0.128065
  14 C :   -0.072615
  15 C :    0.072999
  16 C :   -0.126017
  17 C :   -0.022702
  18 N :   -0.040032
  19 C :   -0.017094
  20 N :   -0.044862
  21 C :    0.078096
  22 C :   -0.083755
  23 C :    0.077234
  24 F :   -0.036559
  25 C :    0.061089
  26 F :   -0.047574
  27 C :   -0.056140
  28 C :    0.044290
  29 C :    0.074926
  30 F :   -0.043515
  31 F :   -0.044754
  32 C :   -0.066804
  33 C :   -0.126297
  34 C :   -0.026466
  35 C :   -0.022628
  36 C :   -0.176367
  37 S :    0.398056
  38 C :   -0.173865
  39 C :   -0.023583
  40 C :   -0.023771
  41 C :   -0.126764
  42 S :    0.396926
  43 C :   -0.061693
  44 C :   -0.054386
  45 C :    0.065247
  46 F :   -0.045389
  47 C :    0.074482
  48 F :   -0.039655
  49 C :   -0.085110
  50 C :    0.072468
  51 C :    0.052643
  52 F :   -0.041843
  53 F :   -0.035949
  54 C :    0.069022
  55 C :   -0.071488
  56 C :    0.086312
  57 O :   -0.130664
  58 C :   -0.056049
  59 C :    0.033591
  60 C :   -0.008595
  61 C :   -0.004102
  62 C :   -0.029037
  63 C :    0.068572
  64 C :    0.068242
  65 C :   -0.032108
  66 F :   -0.047751
  67 F :   -0.046580
  68 C :    0.017701
  69 C :   -0.019236
  70 C :    0.068060
  71 C :   -0.126899
  72 C :   -0.017156
  73 N :   -0.044494
  74 C :   -0.018175
  75 N :   -0.044035
  76 H :    0.048436
  77 H :    0.045511
  78 H :    0.040458
  79 H :    0.041442
  80 H :    0.050210
  81 H :    0.041023
  82 H :    0.036472
  83 H :    0.034702
  84 H :    0.034689
  85 H :    0.037044
  86 H :    0.042136
  87 H :    0.052513
  88 H :    0.041588
  89 H :    0.048186
  90 H :    0.045411
  91 H :    0.040832

  Mayer bond orders larger than 0.100000
B(  0-C ,  1-C ) :   1.4435 B(  0-C ,  5-C ) :   0.1085 B(  0-C ,  7-C ) :   1.1853
B(  0-C , 76-H ) :   1.0065 B(  1-C ,  2-F ) :   1.1364 B(  1-C ,  3-C ) :   1.1890
B(  3-C ,  4-F ) :   1.1363 B(  3-C ,  5-C ) :   1.4433 B(  5-C ,  6-C ) :   1.1912
B(  5-C , 77-H ) :   1.0071 B(  6-C ,  7-C ) :   1.2528 B(  6-C , 11-C ) :   1.1915
B(  7-C ,  8-C ) :   1.2235 B(  8-C ,  9-C ) :   1.4421 B(  8-C , 78-H ) :   0.9891
B(  9-C , 10-C ) :   1.2191 B(  9-C , 15-C ) :   0.9980 B( 10-C , 11-C ) :   1.4712
B( 10-C , 12-C ) :   0.9442 B( 11-C , 79-H ) :   1.0163 B( 12-C , 13-O ) :   2.2317
B( 12-C , 14-C ) :   0.9254 B( 14-C , 15-C ) :   1.0419 B( 14-C , 21-C ) :   1.7183
B( 15-C , 16-C ) :   1.6663 B( 16-C , 17-C ) :   1.1384 B( 16-C , 19-C ) :   1.1388
B( 17-C , 18-N ) :   2.9881 B( 19-C , 20-N ) :   2.9669 B( 21-C , 22-C ) :   1.0398
B( 21-C , 80-H ) :   0.9416 B( 22-C , 23-C ) :   1.2755 B( 22-C , 27-C ) :   0.1214
B( 22-C , 29-C ) :   1.3098 B( 23-C , 24-F ) :   1.1648 B( 23-C , 25-C ) :   1.3324
B( 25-C , 26-F ) :   1.1605 B( 25-C , 27-C ) :   1.2834 B( 27-C , 28-C ) :   1.2709
B( 27-C , 32-C ) :   1.0984 B( 28-C , 29-C ) :   1.3026 B( 28-C , 31-F ) :   1.1570
B( 29-C , 30-F ) :   1.1813 B( 32-C , 33-C ) :   1.6267 B( 32-C , 81-H ) :   0.9583
B( 33-C , 34-C ) :   1.1181 B( 33-C , 37-S ) :   1.0559 B( 34-C , 35-C ) :   1.6258
B( 34-C , 82-H ) :   0.9984 B( 35-C , 36-C ) :   1.1594 B( 35-C , 83-H ) :   0.9938
B( 36-C , 37-S ) :   1.0510 B( 36-C , 38-C ) :   1.5406 B( 38-C , 39-C ) :   1.1593
B( 38-C , 42-S ) :   1.0532 B( 39-C , 40-C ) :   1.6261 B( 39-C , 84-H ) :   0.9939
B( 40-C , 41-C ) :   1.1180 B( 40-C , 85-H ) :   0.9984 B( 41-C , 42-S ) :   1.0527
B( 41-C , 43-C ) :   1.6326 B( 43-C , 44-C ) :   1.0895 B( 43-C , 86-H ) :   0.9596
B( 44-C , 45-C ) :   1.2739 B( 44-C , 49-C ) :   0.1234 B( 44-C , 51-C ) :   1.2890
B( 45-C , 46-F ) :   1.1663 B( 45-C , 47-C ) :   1.3261 B( 47-C , 48-F ) :   1.1934
B( 47-C , 49-C ) :   1.2733 B( 49-C , 50-C ) :   1.2877 B( 49-C , 54-C ) :   1.0545
B( 50-C , 51-C ) :   1.3166 B( 50-C , 53-F ) :   1.1397 B( 51-C , 52-F ) :   1.1637
B( 54-C , 55-C ) :   1.7334 B( 54-C , 87-H ) :   0.9354 B( 55-C , 56-C ) :   0.9247
B( 55-C , 70-C ) :   1.0149 B( 56-C , 57-O ) :   2.2798 B( 56-C , 58-C ) :   0.9219
B( 58-C , 59-C ) :   1.4720 B( 58-C , 69-C ) :   1.2157 B( 59-C , 60-C ) :   1.2011
B( 59-C , 88-H ) :   1.0153 B( 60-C , 61-C ) :   1.2487 B( 60-C , 65-C ) :   1.1943
B( 61-C , 62-C ) :   1.1902 B( 61-C , 68-C ) :   1.2228 B( 62-C , 63-C ) :   1.4455
B( 62-C , 65-C ) :   0.1076 B( 62-C , 89-H ) :   1.0062 B( 63-C , 64-C ) :   1.1875
B( 63-C , 67-F ) :   1.1369 B( 64-C , 65-C ) :   1.4474 B( 64-C , 66-F ) :   1.1346
B( 65-C , 90-H ) :   1.0059 B( 68-C , 69-C ) :   1.4559 B( 68-C , 91-H ) :   0.9928
B( 69-C , 70-C ) :   1.0035 B( 70-C , 71-C ) :   1.6741 B( 71-C , 72-C ) :   1.1659
B( 71-C , 74-C ) :   1.1314 B( 72-C , 73-N ) :   3.0035 B( 74-C , 75-N ) :   2.9921

-----------------------------------------------------------------------------
         ABSORPTION SPECTRUM VIA TRANSITION ELECTRIC DIPOLE MOMENTS
-----------------------------------------------------------------------------
State   Energy  Wavelength   fosc         T2         TX        TY        TZ
        (cm-1)    (nm)                  (au**2)     (au)      (au)      (au)
-----------------------------------------------------------------------------
   0   14102.7    709.1   1.014167980  23.67465   4.44429  -0.98760   1.71686
   1   17674.6    565.8   0.444964507   8.28801  -0.62166  -2.68269   0.83947
   2   21732.0    460.2   0.382323525   5.79171   2.11434  -0.04222   1.14869
   3   25319.5    395.0   0.191743264   2.49310  -0.47321  -1.50152   0.12090
   4   25598.3    390.7   0.067752839   0.87135  -0.22994  -0.78899   0.44269
   5   26805.8    373.1   0.008042106   0.09877   0.30498   0.01735  -0.07386
   6   26957.7    371.0   0.061420748   0.75008  -0.38819  -0.36752   0.68141
   7   27421.8    364.7   0.074549700   0.89501  -0.56204  -0.71427   0.26255
   8   27724.2    360.7   0.530547313   6.30001   0.50697  -2.30778   0.84683
   9   28468.8    351.3   0.044065898   0.50958   0.12561  -0.29989   0.63551
  10   28767.5    347.6   0.111636391   1.27755  -0.45705  -0.98493   0.31398
  11   29173.9    342.8   0.079287822   0.89472   0.91845   0.17392  -0.14466
  12   29203.7    342.4   0.034061660   0.38398   0.24006  -0.45618   0.34388
  13   29909.0    334.3   0.064321033   0.70799   0.10176   0.47309  -0.68835
  14   30185.6    331.3   0.043440148   0.47377  -0.51812  -0.16405   0.42239
  15   30397.8    329.0   0.209992539   2.27424   0.01199  -1.50363   0.11486
  16   31180.4    320.7   0.048424424   0.51128   0.14313   0.51102  -0.47922
  17   32417.7    308.5   0.191873719   1.94854   0.32349  -1.35167   0.12995
  18   32652.7    306.3   0.193780772   1.95374  -1.13375   0.81293   0.08660
  19   33395.5    299.4   0.179762912   1.77210   0.03768  -1.30251   0.27232
  20   33839.5    295.5   0.272978586   2.65571  -1.61852   0.02712   0.18802
  21   34141.0    292.9   0.181688924   1.75197  -0.63819   1.15705  -0.07699
  22   34266.5    291.8   0.527808437   5.07086  -1.60048  -1.56959   0.21384
  23   34324.0    291.3   0.386855376   3.71044   1.65178  -0.87323   0.46855
  24   34691.2    288.3   0.004980845   0.04727   0.07842   0.19150  -0.06669
  25   34704.7    288.1   0.086157092   0.81729  -0.28085  -0.78490   0.34979
  26   35120.6    284.7   0.207829269   1.94814   0.26091  -1.15987   0.73127
  27   35766.5    279.6   0.024980379   0.22993  -0.27889   0.38927   0.02497
  28   35901.8    278.5   0.214052741   1.96282   0.44111  -1.13299   0.69612
  29   36540.4    273.7   0.016611153   0.14966   0.05996   0.37082  -0.09250
  30   36789.1    271.8   0.024939254   0.22317  -0.03959   0.46293  -0.08543
  31   36927.8    270.8   0.006551698   0.05841  -0.20445   0.12513   0.03084
  32   37211.0    268.7   0.039369050   0.34830   0.16105  -0.56412  -0.06433
  33   37421.1    267.2   0.016699577   0.14691   0.01737  -0.36515  -0.11522
  34   37756.8    264.9   0.053904527   0.47001  -0.32343   0.25717  -0.54705
  35   37968.8    263.4   0.018280284   0.15850  -0.13539   0.34562   0.14394
  36   38033.2    262.9   0.028516693   0.24684  -0.00487  -0.35344   0.34914
  37   38303.6    261.1   0.184787318   1.58821  -0.79303  -0.96227   0.18262
  38   38627.5    258.9   0.122075333   1.04042  -0.43741  -0.76687   0.51088
  39   38953.1    256.7   0.051710784   0.43703   0.09853  -0.47119  -0.45310
  40   39140.6    255.5   0.015168168   0.12758  -0.00260  -0.15735  -0.32065
  41   39523.3    253.0   0.018063132   0.15046   0.22376   0.25971   0.18148
  42   39649.3    252.2   0.044354830   0.36828  -0.09918  -0.05212  -0.59643
  43   40183.9    248.9   0.034763817   0.28481  -0.24913  -0.43644   0.17961

FINAL SINGLE POINT ENERGY     -4502.735822167487

DIPOLE MOMENT
-------------
                                X             Y             Z
Electronic contribution:     -0.00263      12.56602      -2.43422
Nuclear contribution   :     -2.44028     -14.38129       3.54253
                        -----------------------------------------
Total Dipole Moment    :     -2.44291      -1.81527       1.10831
                        -----------------------------------------
Magnitude (a.u.)       :      3.23904
Magnitude (Debye)      :      8.23298

Rotational constants in cm-1:     0.000828     0.000336     0.000253
Rotational constants in MHz :    24.811435    10.081753     7.590956

                             ****ORCA TERMINATED NORMALLY****
TOTAL RUN TIME: 0 days 0 hours 9 minutes 16 seconds 163 msec
