                         Program Version 4.2.0 -  RELEASE  -
|  1> # ORCA input file
|  2> # SCF done       -157.799184223029          0.000727557589
|  3> ! CAM-B3LYP def2-SVP def2/J RIJCOSX Grid4 TightSCF
|  4> %maxcore 5000
|  5> %tddft
|  6>     Mode sTDDFT
|  7>     Ethresh 5.0
|  8>     maxcore 5000
|  9> end
| 10>
| 11> %pal
| 12>   nprocs 6
| 13>   end
| 14> * xyz 0 1
| 15>    C        5.49544         0.11520        -8.46299
| 16>    C        6.40874        -0.20558        -7.53775
| 17>    C        7.50646         0.59312        -7.07074
| 18>    C        8.27010         0.00020        -6.12812
| 19>    C        7.84688        -1.31132        -5.76892
| 20>    S        6.42042        -1.75918        -6.68774
| 21>    C        8.42813        -2.15314        -4.85543
| 22>    C        9.57971        -1.92694        -4.05865
| 23>    C        9.92119        -2.96567        -3.25471
| 24>    C        9.06022        -4.09066        -3.35885
| 25>    S        7.78181        -3.75388        -4.53318
| 26>    C        9.15883        -5.27396        -2.69315
| 27>    N        8.27142        -6.28849        -2.87108
| 28>    C        8.30538        -7.51254        -2.30647
| 29>    S        9.58906        -7.97475        -1.23342
| 30>    C        8.86658        -9.55081        -1.07841
| 31>    N        9.50924       -10.47445        -0.26462
| 32>    O        9.01925       -11.59047        -0.16288
| 33>    O       10.53368       -10.10335         0.29474
| 34>    C        7.71380        -9.69493        -1.80486
| 35>    C        7.35891        -8.53640        -2.52164
| 36>    C        6.20581        -8.38934        -3.35094
| 37>    C        5.31937        -9.38439        -3.62545
| 38>    C        4.18048        -9.23089        -4.43337
| 39>    C        3.31364       -10.25703        -4.71576
| 40>    C        2.14026       -10.21379        -5.50736
| 41>    C        1.48707       -11.40524        -5.61341
| 42>    C        2.10771       -12.46190        -4.91302
| 43>    S        3.55117       -11.88647        -4.10428
| 44>    C        1.72810       -13.78542        -4.82338
| 45>    C        0.61791       -14.44087        -5.39878
| 46>    C        0.54494       -15.77283        -5.12108
| 47>    C        1.59904       -16.25317        -4.30661
| 48>    S        2.68882       -14.92271        -3.90136
| 49>    C        1.82311       -17.52499        -3.86335
| 50>    N        2.89429       -17.82825        -3.08916
| 51>    C        3.25252       -19.03103        -2.59415
| 52>    S        2.31082       -20.45476        -2.90388
| 53>    C        3.44700       -21.38174        -1.96819
| 54>    N        3.19653       -22.74444        -1.84208
| 55>    O        3.98074       -23.41562        -1.19125
| 56>    O        2.19591       -23.17242        -2.40341
| 57>    C        4.47607       -20.63589        -1.45763
| 58>    C        4.39350       -19.27201        -1.80014
| 59>    C        5.31374       -18.25009        -1.41733
| 60>    C        6.43524       -18.42963        -0.66866
| 61>    C        7.30096       -17.37527        -0.32515
| 62>    C        8.44252       -17.51587         0.41866
| 63>    C        9.34500       -16.48368         0.79030
| 64>    C       10.40241       -16.90590         1.53002
| 65>    C       10.40522       -18.29995         1.79266
| 66>    S        9.00288       -19.05401         1.05739
| 67>    C       11.33181       -19.02244         2.50434
| 68>    C       12.50609       -18.52883         3.14150
| 69>    C       13.23708       -19.47398         3.77081
| 70>    C       12.69596       -20.80065         3.68091
| 71>    S       11.19573       -20.75341         2.74099
| 72>    C       13.19796       -21.92807         4.20157
| 73>    H        5.52645         1.07101        -8.95554
| 74>    H        4.70907        -0.56198        -8.74172
| 75>    H        7.67230         1.57917        -7.46704
| 76>    H        9.13085         0.45457        -5.67034
| 77>    H       10.12176        -1.00007        -4.10938
| 78>    H       10.76452        -2.97188        -2.58771
| 79>    H        9.96143        -5.44810        -1.99279
| 80>    H        7.51212        -6.10449        -3.51887
| 81>    H        7.15649       -10.61298        -1.80028
| 82>    H        6.02447        -7.41659        -3.79046
| 83>    H        5.48147       -10.37015        -3.21187
| 84>    H        3.96789        -8.25948        -4.85947
| 85>    H        1.81730        -9.30006        -5.97459
| 86>    H        0.58205       -11.55278        -6.17533
| 87>    H       -0.09526       -13.90996        -6.00330
| 88>    H       -0.22928       -16.42873        -5.47625
| 89>    H        1.15473       -18.33270        -4.11834
| 90>    H        3.50581       -17.04992        -2.86215
| 91>    H        5.25212       -21.07537        -0.85901
| 92>    H        5.10139       -17.24180        -1.75225
| 93>    H        6.69840       -19.41488        -0.30997
| 94>    H        7.05696       -16.37808        -0.66845
| 95>    H        9.17606       -15.46241         0.49707
| 96>    H       11.17911       -16.25884         1.89588
| 97>    H       12.76409       -17.48504         3.10693
| 98>    H       14.15261       -19.29075         4.30494
| 99>    H       14.11338       -21.91183         4.76635
|100>    H       12.70919       -22.87654         4.07413
|101> *
|102>
|103>                          ****END OF INPUT****

CARTESIAN COORDINATES (ANGSTROEM)
---------------------------------
  C      5.495440    0.115200   -8.462990
  C      6.408740   -0.205580   -7.537750
  C      7.506460    0.593120   -7.070740
  C      8.270100    0.000200   -6.128120
  C      7.846880   -1.311320   -5.768920
  S      6.420420   -1.759180   -6.687740
  C      8.428130   -2.153140   -4.855430
  C      9.579710   -1.926940   -4.058650
  C      9.921190   -2.965670   -3.254710
  C      9.060220   -4.090660   -3.358850
  S      7.781810   -3.753880   -4.533180
  C      9.158830   -5.273960   -2.693150
  N      8.271420   -6.288490   -2.871080
  C      8.305380   -7.512540   -2.306470
  S      9.589060   -7.974750   -1.233420
  C      8.866580   -9.550810   -1.078410
  N      9.509240  -10.474450   -0.264620
  O      9.019250  -11.590470   -0.162880
  O     10.533680  -10.103350    0.294740
  C      7.713800   -9.694930   -1.804860
  C      7.358910   -8.536400   -2.521640
  C      6.205810   -8.389340   -3.350940
  C      5.319370   -9.384390   -3.625450
  C      4.180480   -9.230890   -4.433370
  C      3.313640  -10.257030   -4.715760
  C      2.140260  -10.213790   -5.507360
  C      1.487070  -11.405240   -5.613410
  C      2.107710  -12.461900   -4.913020
  S      3.551170  -11.886470   -4.104280
  C      1.728100  -13.785420   -4.823380
  C      0.617910  -14.440870   -5.398780
  C      0.544940  -15.772830   -5.121080
  C      1.599040  -16.253170   -4.306610
  S      2.688820  -14.922710   -3.901360
  C      1.823110  -17.524990   -3.863350
  N      2.894290  -17.828250   -3.089160
  C      3.252520  -19.031030   -2.594150
  S      2.310820  -20.454760   -2.903880
  C      3.447000  -21.381740   -1.968190
  N      3.196530  -22.744440   -1.842080
  O      3.980740  -23.415620   -1.191250
  O      2.195910  -23.172420   -2.403410
  C      4.476070  -20.635890   -1.457630
  C      4.393500  -19.272010   -1.800140
  C      5.313740  -18.250090   -1.417330
  C      6.435240  -18.429630   -0.668660
  C      7.300960  -17.375270   -0.325150
  C      8.442520  -17.515870    0.418660
  C      9.345000  -16.483680    0.790300
  C     10.402410  -16.905900    1.530020
  C     10.405220  -18.299950    1.792660
  S      9.002880  -19.054010    1.057390
  C     11.331810  -19.022440    2.504340
  C     12.506090  -18.528830    3.141500
  C     13.237080  -19.473980    3.770810
  C     12.695960  -20.800650    3.680910
  S     11.195730  -20.753410    2.740990
  C     13.197960  -21.928070    4.201570
  H      5.526450    1.071010   -8.955540
  H      4.709070   -0.561980   -8.741720
  H      7.672300    1.579170   -7.467040
  H      9.130850    0.454570   -5.670340
  H     10.121760   -1.000070   -4.109380
  H     10.764520   -2.971880   -2.587710
  H      9.961430   -5.448100   -1.992790
  H      7.512120   -6.104490   -3.518870
  H      7.156490  -10.612980   -1.800280
  H      6.024470   -7.416590   -3.790460
  H      5.481470  -10.370150   -3.211870
  H      3.967890   -8.259480   -4.859470
  H      1.817300   -9.300060   -5.974590
  H      0.582050  -11.552780   -6.175330
  H     -0.095260  -13.909960   -6.003300
  H     -0.229280  -16.428730   -5.476250
  H      1.154730  -18.332700   -4.118340
  H      3.505810  -17.049920   -2.862150
  H      5.252120  -21.075370   -0.859010
  H      5.101390  -17.241800   -1.752250
  H      6.698400  -19.414880   -0.309970
  H      7.056960  -16.378080   -0.668450
  H      9.176060  -15.462410    0.497070
  H     11.179110  -16.258840    1.895880
  H     12.764090  -17.485040    3.106930
  H     14.152610  -19.290750    4.304940
  H     14.113380  -21.911830    4.766350
  H     12.709190  -22.876540    4.074130

 Total Charge           Charge          ....    0
 Multiplicity           Mult            ....    1
 Number of Electrons    NEL             ....  468
 Basis Dimension        Dim             ....  984

ORBITAL ENERGIES
----------------

  NO   OCC          E(Eh)            E(eV)
   0   2.0000     -88.980064     -2421.2706
   1   2.0000     -88.975650     -2421.1505
   2   2.0000     -88.952365     -2420.5169
   3   2.0000     -88.952075     -2420.5090
   4   2.0000     -88.943273     -2420.2695
   5   2.0000     -88.940019     -2420.1810
   6   2.0000     -88.933963     -2420.0162
   7   2.0000     -88.930210     -2419.9141
   8   2.0000     -19.228145      -523.2244
   9   2.0000     -19.227387      -523.2038
  10   2.0000     -19.222547      -523.0721
  11   2.0000     -19.222329      -523.0662
  12   2.0000     -14.639676      -398.3658
  13   2.0000     -14.634266      -398.2186
  14   2.0000     -14.488690      -394.2573
  15   2.0000     -14.486327      -394.1930
  16   2.0000     -10.366885      -282.0973
  17   2.0000     -10.361254      -281.9441
  18   2.0000     -10.337001      -281.2841
  19   2.0000     -10.336187      -281.2619
  20   2.0000     -10.334551      -281.2174
  21   2.0000     -10.330193      -281.0988
  22   2.0000     -10.316018      -280.7131
  23   2.0000     -10.315259      -280.6925
  24   2.0000     -10.313630      -280.6481
  25   2.0000     -10.311461      -280.5891
  26   2.0000     -10.310822      -280.5717
  27   2.0000     -10.308667      -280.5131
  28   2.0000     -10.308108      -280.4979
  29   2.0000     -10.307106      -280.4706
  30   2.0000     -10.303913      -280.3837
  31   2.0000     -10.301646      -280.3220
  32   2.0000     -10.300180      -280.2821
  33   2.0000     -10.298844      -280.2458
  34   2.0000     -10.298724      -280.2425
  35   2.0000     -10.298604      -280.2393
  36   2.0000     -10.294680      -280.1325
  37   2.0000     -10.293286      -280.0946
  38   2.0000     -10.293144      -280.0907
  39   2.0000     -10.291481      -280.0454
  40   2.0000     -10.291063      -280.0341
  41   2.0000     -10.290401      -280.0160
  42   2.0000     -10.289499      -279.9915
  43   2.0000     -10.289302      -279.9861
  44   2.0000     -10.287853      -279.9467
  45   2.0000     -10.285781      -279.8903
  46   2.0000     -10.284030      -279.8427
  47   2.0000     -10.281780      -279.7815
  48   2.0000     -10.281718      -279.7798
  49   2.0000     -10.280822      -279.7554
  50   2.0000     -10.278630      -279.6958
  51   2.0000     -10.277739      -279.6715
  52   2.0000     -10.276869      -279.6478
  53   2.0000     -10.275385      -279.6074
  54   2.0000     -10.273694      -279.5614
  55   2.0000     -10.270741      -279.4811
  56   2.0000     -10.269489      -279.4470
  57   2.0000     -10.262223      -279.2493
  58   2.0000      -8.075477      -219.7449
  59   2.0000      -8.071010      -219.6233
  60   2.0000      -8.048659      -219.0151
  61   2.0000      -8.048477      -219.0102
  62   2.0000      -8.039660      -218.7703
  63   2.0000      -8.036782      -218.6920
  64   2.0000      -8.030256      -218.5144
  65   2.0000      -8.026965      -218.4248
  66   2.0000      -6.045240      -164.4994
  67   2.0000      -6.040885      -164.3808
  68   2.0000      -6.040794      -164.3784
  69   2.0000      -6.036703      -164.2670
  70   2.0000      -6.036391      -164.2586
  71   2.0000      -6.032272      -164.1465
  72   2.0000      -6.018557      -163.7733
  73   2.0000      -6.018318      -163.7668
  74   2.0000      -6.014658      -163.6672
  75   2.0000      -6.014401      -163.6602
  76   2.0000      -6.009395      -163.5240
  77   2.0000      -6.009206      -163.5188
  78   2.0000      -6.009135      -163.5169
  79   2.0000      -6.006627      -163.4486
  80   2.0000      -6.005506      -163.4181
  81   2.0000      -6.002767      -163.3436
  82   2.0000      -6.000440      -163.2803
  83   2.0000      -6.000009      -163.2686
  84   2.0000      -5.997221      -163.1927
  85   2.0000      -5.996800      -163.1812
  86   2.0000      -5.996112      -163.1625
  87   2.0000      -5.992897      -163.0750
  88   2.0000      -5.991017      -163.0239
  89   2.0000      -5.987445      -162.9267
  90   2.0000      -1.305959       -35.5370
  91   2.0000      -1.301500       -35.4156
  92   2.0000      -1.124452       -30.5979
  93   2.0000      -1.120390       -30.4874
  94   2.0000      -1.095510       -29.8103
  95   2.0000      -1.093540       -29.7567
  96   2.0000      -1.002347       -27.2752
  97   2.0000      -1.000501       -27.2250
  98   2.0000      -0.992728       -27.0135
  99   2.0000      -0.992161       -26.9981
 100   2.0000      -0.983552       -26.7638
 101   2.0000      -0.973084       -26.4790
 102   2.0000      -0.970701       -26.4141
 103   2.0000      -0.960881       -26.1469
 104   2.0000      -0.920796       -25.0561
 105   2.0000      -0.914478       -24.8842
 106   2.0000      -0.901291       -24.5254
 107   2.0000      -0.893899       -24.3242
 108   2.0000      -0.883300       -24.0358
 109   2.0000      -0.876012       -23.8375
 110   2.0000      -0.869889       -23.6709
 111   2.0000      -0.860037       -23.4028
 112   2.0000      -0.853366       -23.2213
 113   2.0000      -0.851589       -23.1729
 114   2.0000      -0.848477       -23.0882
 115   2.0000      -0.847995       -23.0751
 116   2.0000      -0.836204       -22.7543
 117   2.0000      -0.829430       -22.5699
 118   2.0000      -0.824457       -22.4346
 119   2.0000      -0.823199       -22.4004
 120   2.0000      -0.820655       -22.3312
 121   2.0000      -0.807785       -21.9809
 122   2.0000      -0.801277       -21.8039
 123   2.0000      -0.794593       -21.6220
 124   2.0000      -0.775481       -21.1019
 125   2.0000      -0.765310       -20.8251
 126   2.0000      -0.752284       -20.4707
 127   2.0000      -0.735508       -20.0142
 128   2.0000      -0.725359       -19.7380
 129   2.0000      -0.724277       -19.7086
 130   2.0000      -0.714808       -19.4509
 131   2.0000      -0.702536       -19.1170
 132   2.0000      -0.690813       -18.7980
 133   2.0000      -0.685054       -18.6413
 134   2.0000      -0.677876       -18.4459
 135   2.0000      -0.663922       -18.0662
 136   2.0000      -0.658996       -17.9322
 137   2.0000      -0.652919       -17.7668
 138   2.0000      -0.646808       -17.6005
 139   2.0000      -0.642002       -17.4698
 140   2.0000      -0.636501       -17.3201
 141   2.0000      -0.629378       -17.1263
 142   2.0000      -0.624744       -17.0002
 143   2.0000      -0.622913       -16.9503
 144   2.0000      -0.620572       -16.8866
 145   2.0000      -0.620353       -16.8807
 146   2.0000      -0.619389       -16.8544
 147   2.0000      -0.617927       -16.8147
 148   2.0000      -0.615381       -16.7454
 149   2.0000      -0.615256       -16.7420
 150   2.0000      -0.607061       -16.5190
 151   2.0000      -0.603745       -16.4287
 152   2.0000      -0.601807       -16.3760
 153   2.0000      -0.594809       -16.1856
 154   2.0000      -0.589222       -16.0336
 155   2.0000      -0.588468       -16.0130
 156   2.0000      -0.586387       -15.9564
 157   2.0000      -0.580335       -15.7917
 158   2.0000      -0.575013       -15.6469
 159   2.0000      -0.561969       -15.2920
 160   2.0000      -0.557717       -15.1762
 161   2.0000      -0.553418       -15.0593
 162   2.0000      -0.545650       -14.8479
 163   2.0000      -0.544499       -14.8166
 164   2.0000      -0.542676       -14.7670
 165   2.0000      -0.538632       -14.6569
 166   2.0000      -0.536973       -14.6118
 167   2.0000      -0.536052       -14.5867
 168   2.0000      -0.520705       -14.1691
 169   2.0000      -0.520126       -14.1534
 170   2.0000      -0.516557       -14.0562
 171   2.0000      -0.513725       -13.9792
 172   2.0000      -0.509017       -13.8510
 173   2.0000      -0.501023       -13.6335
 174   2.0000      -0.498663       -13.5693
 175   2.0000      -0.497947       -13.5498
 176   2.0000      -0.497756       -13.5446
 177   2.0000      -0.495476       -13.4826
 178   2.0000      -0.492925       -13.4132
 179   2.0000      -0.491665       -13.3789
 180   2.0000      -0.486870       -13.2484
 181   2.0000      -0.486306       -13.2331
 182   2.0000      -0.485113       -13.2006
 183   2.0000      -0.476117       -12.9558
 184   2.0000      -0.475738       -12.9455
 185   2.0000      -0.474238       -12.9047
 186   2.0000      -0.470952       -12.8153
 187   2.0000      -0.469704       -12.7813
 188   2.0000      -0.465249       -12.6601
 189   2.0000      -0.464258       -12.6331
 190   2.0000      -0.458884       -12.4869
 191   2.0000      -0.455135       -12.3849
 192   2.0000      -0.454001       -12.3540
 193   2.0000      -0.448586       -12.2066
 194   2.0000      -0.447278       -12.1711
 195   2.0000      -0.445234       -12.1154
 196   2.0000      -0.444844       -12.1048
 197   2.0000      -0.441262       -12.0073
 198   2.0000      -0.436139       -11.8680
 199   2.0000      -0.434333       -11.8188
 200   2.0000      -0.428028       -11.6472
 201   2.0000      -0.426634       -11.6093
 202   2.0000      -0.418963       -11.4006
 203   2.0000      -0.414217       -11.2714
 204   2.0000      -0.411208       -11.1895
 205   2.0000      -0.408927       -11.1275
 206   2.0000      -0.403454       -10.9786
 207   2.0000      -0.400372       -10.8947
 208   2.0000      -0.388502       -10.5717
 209   2.0000      -0.386129       -10.5071
 210   2.0000      -0.379740       -10.3332
 211   2.0000      -0.377749       -10.2791
 212   2.0000      -0.374248       -10.1838
 213   2.0000      -0.371627       -10.1125
 214   2.0000      -0.368222       -10.0198
 215   2.0000      -0.362621        -9.8674
 216   2.0000      -0.356690        -9.7060
 217   2.0000      -0.351241        -9.5578
 218   2.0000      -0.345735        -9.4079
 219   2.0000      -0.343640        -9.3509
 220   2.0000      -0.342406        -9.3173
 221   2.0000      -0.338431        -9.2092
 222   2.0000      -0.337242        -9.1768
 223   2.0000      -0.329168        -8.9571
 224   2.0000      -0.326530        -8.8853
 225   2.0000      -0.323894        -8.8136
 226   2.0000      -0.317337        -8.6352
 227   2.0000      -0.311420        -8.4742
 228   2.0000      -0.297090        -8.0842
 229   2.0000      -0.280989        -7.6461
 230   2.0000      -0.263134        -7.1602
 231   2.0000      -0.225469        -6.1353
 232   2.0000      -0.212260        -5.7759
 233   2.0000      -0.199371        -5.4252
 234   0.0000      -0.079918        -2.1747
 235   0.0000      -0.066757        -1.8166
 236   0.0000      -0.059658        -1.6234
 237   0.0000      -0.041822        -1.1380
 238   0.0000      -0.034599        -0.9415

MULLIKEN ATOMIC CHARGES
-----------------------
   0 C :   -0.030839
   1 C :   -0.062672
   2 C :    0.050405
   3 C :    0.031061
   4 C :   -0.068566
   5 S :    0.068923
   6 C :   -0.046840
   7 C :    0.029348
   8 C :    0.038927
   9 C :   -0.040806
  10 S :    0.026124
  11 C :    0.021560
  12 N :   -0.026973
  13 C :   -0.114483
  14 S :    0.145040
  15 C :   -0.014334
  16 N :    0.281592
  17 O :   -0.269850
  18 O :   -0.278392
  19 C :    0.008564
  20 C :    0.140133
  21 C :   -0.048550
  22 C :    0.005847
  23 C :   -0.014930
  24 C :   -0.014285
  25 C :    0.032539
  26 C :    0.028087
  27 C :   -0.044906
  28 S :    0.047663
  29 C :   -0.040016
  30 C :    0.024708
  31 C :    0.043041
  32 C :   -0.047771
  33 S :    0.020763
  34 C :    0.035815
  35 N :   -0.025351
  36 C :   -0.120984
  37 S :    0.145984
  38 C :   -0.009565
  39 N :    0.279678
  40 O :   -0.258208
  41 O :   -0.278002
  42 C :    0.007159
  43 C :    0.148494
  44 C :   -0.058946
  45 C :    0.012053
  46 C :   -0.023300
  47 C :   -0.016895
  48 C :    0.033220
  49 C :    0.025467
  50 C :   -0.046287
  51 S :    0.063528
  52 C :   -0.067209
  53 C :    0.029911
  54 C :    0.051301
  55 C :   -0.063268
  56 S :    0.079416
  57 C :   -0.031583
  58 H :    0.019721
  59 H :    0.020633
  60 H :   -0.012091
  61 H :   -0.012042
  62 H :   -0.013105
  63 H :   -0.009208
  64 H :    0.025237
  65 H :    0.150460
  66 H :    0.007769
  67 H :   -0.036905
  68 H :   -0.002615
  69 H :   -0.021326
  70 H :   -0.014981
  71 H :   -0.013971
  72 H :   -0.012783
  73 H :   -0.009164
  74 H :    0.025776
  75 H :    0.155170
  76 H :    0.011076
  77 H :   -0.038547
  78 H :   -0.001845
  79 H :   -0.017666
  80 H :    0.001529
  81 H :   -0.009915
  82 H :   -0.010471
  83 H :   -0.013251
  84 H :    0.018204
  85 H :    0.021775
Sum of atomic charges:   -0.0000000

LOEWDIN ATOMIC CHARGES
----------------------
   0 C :   -0.079231
   1 C :   -0.138532
   2 C :   -0.032724
   3 C :   -0.026084
   4 C :   -0.182837
   5 S :    0.342005
   6 C :   -0.175340
   7 C :   -0.038726
   8 C :   -0.030536
   9 C :   -0.181553
  10 S :    0.330920
  11 C :   -0.015979
  12 N :    0.051549
  13 C :   -0.099777
  14 S :    0.444329
  15 C :   -0.215543
  16 N :    0.275444
  17 O :   -0.236623
  18 O :   -0.244491
  19 C :    0.007911
  20 C :   -0.105052
  21 C :   -0.039579
  22 C :   -0.026980
  23 C :   -0.065641
  24 C :   -0.140818
  25 C :   -0.039635
  26 C :   -0.029277
  27 C :   -0.187451
  28 S :    0.357396
  29 C :   -0.170317
  30 C :   -0.043148
  31 C :   -0.027832
  32 C :   -0.186053
  33 S :    0.338557
  34 C :   -0.006200
  35 N :    0.053848
  36 C :   -0.105392
  37 S :    0.444114
  38 C :   -0.212347
  39 N :    0.274004
  40 O :   -0.224636
  41 O :   -0.244638
  42 C :    0.008129
  43 C :   -0.101824
  44 C :   -0.042525
  45 C :   -0.021502
  46 C :   -0.065885
  47 C :   -0.139788
  48 C :   -0.031998
  49 C :   -0.027894
  50 C :   -0.180003
  51 S :    0.359207
  52 C :   -0.177402
  53 C :   -0.025786
  54 C :   -0.032515
  55 C :   -0.139051
  56 S :    0.350677
  57 C :   -0.078663
  58 H :    0.028725
  59 H :    0.025855
  60 H :    0.033382
  61 H :    0.032185
  62 H :    0.032509
  63 H :    0.034541
  64 H :    0.030644
  65 H :    0.086183
  66 H :    0.043594
  67 H :    0.020868
  68 H :    0.019965
  69 H :    0.030776
  70 H :    0.032663
  71 H :    0.031893
  72 H :    0.032843
  73 H :    0.034808
  74 H :    0.032046
  75 H :    0.083998
  76 H :    0.045392
  77 H :    0.020505
  78 H :    0.022714
  79 H :    0.032081
  80 H :    0.038755
  81 H :    0.033035
  82 H :    0.032825
  83 H :    0.032800
  84 H :    0.027945
  85 H :    0.026186

  Mayer bond orders larger than 0.100000
B(  0-C ,  1-C ) :   1.8677 B(  0-C , 58-H ) :   0.9503 B(  0-C , 59-H ) :   0.9417
B(  1-C ,  2-C ) :   1.0797 B(  1-C ,  5-S ) :   1.0062 B(  2-C ,  3-C ) :   1.6667
B(  2-C , 60-H ) :   0.9924 B(  3-C ,  4-C ) :   1.1473 B(  3-C , 61-H ) :   0.9922
B(  4-C ,  5-S ) :   1.0373 B(  4-C ,  6-C ) :   1.5778 B(  6-C ,  7-C ) :   1.1633
B(  6-C , 10-S ) :   1.0329 B(  7-C ,  8-C ) :   1.6336 B(  7-C , 62-H ) :   0.9911
B(  8-C ,  9-C ) :   1.1418 B(  8-C , 63-H ) :   0.9946 B(  9-C , 10-S ) :   1.0061
B(  9-C , 11-C ) :   1.6247 B( 11-C , 12-N ) :   1.1297 B( 11-C , 64-H ) :   0.9593
B( 12-N , 13-C ) :   1.2556 B( 12-N , 65-H ) :   0.9031 B( 13-C , 14-S ) :   1.1273
B( 13-C , 20-C ) :   1.3157 B( 14-S , 15-C ) :   1.0548 B( 15-C , 16-N ) :   0.9977
B( 15-C , 19-C ) :   1.4781 B( 16-N , 17-O ) :   1.5101 B( 16-N , 18-O ) :   1.4953
B( 17-O , 18-O ) :   0.2467 B( 19-C , 20-C ) :   1.2409 B( 19-C , 66-H ) :   0.9979
B( 20-C , 21-C ) :   1.0682 B( 21-C , 22-C ) :   1.6754 B( 21-C , 67-H ) :   0.9762
B( 22-C , 23-C ) :   1.1488 B( 22-C , 68-H ) :   0.9681 B( 23-C , 24-C ) :   1.5611
B( 23-C , 69-H ) :   0.9858 B( 24-C , 25-C ) :   1.1419 B( 24-C , 28-S ) :   1.0332
B( 25-C , 26-C ) :   1.5880 B( 25-C , 70-H ) :   0.9994 B( 26-C , 27-C ) :   1.1919
B( 26-C , 71-H ) :   0.9942 B( 27-C , 28-S ) :   1.0353 B( 27-C , 29-C ) :   1.5161
B( 29-C , 30-C ) :   1.1896 B( 29-C , 33-S ) :   1.0469 B( 30-C , 31-C ) :   1.6051
B( 30-C , 72-H ) :   0.9924 B( 31-C , 32-C ) :   1.1599 B( 31-C , 73-H ) :   0.9943
B( 32-C , 33-S ) :   1.0068 B( 32-C , 34-C ) :   1.5973 B( 34-C , 35-N ) :   1.1472
B( 34-C , 74-H ) :   0.9612 B( 35-N , 36-C ) :   1.2459 B( 35-N , 75-H ) :   0.8995
B( 36-C , 37-S ) :   1.1234 B( 36-C , 43-C ) :   1.3264 B( 37-S , 38-C ) :   1.0597
B( 38-C , 39-N ) :   0.9895 B( 38-C , 42-C ) :   1.4848 B( 39-N , 40-O ) :   1.5225
B( 39-N , 41-O ) :   1.4953 B( 40-O , 41-O ) :   0.2503 B( 42-C , 43-C ) :   1.2329
B( 42-C , 76-H ) :   1.0004 B( 43-C , 44-C ) :   1.0622 B( 44-C , 45-C ) :   1.6827
B( 44-C , 77-H ) :   0.9747 B( 45-C , 46-C ) :   1.1401 B( 45-C , 78-H ) :   0.9721
B( 46-C , 47-C ) :   1.5767 B( 46-C , 79-H ) :   0.9844 B( 47-C , 48-C ) :   1.1253
B( 47-C , 51-S ) :   1.0311 B( 48-C , 49-C ) :   1.6128 B( 48-C , 80-H ) :   1.0006
B( 49-C , 50-C ) :   1.1668 B( 49-C , 81-H ) :   0.9935 B( 50-C , 51-S ) :   1.0332
B( 50-C , 52-C ) :   1.5605 B( 52-C , 53-C ) :   1.1518 B( 52-C , 56-S ) :   1.0431
B( 53-C , 54-C ) :   1.6620 B( 53-C , 82-H ) :   0.9921 B( 54-C , 55-C ) :   1.0799
B( 54-C , 83-H ) :   0.9927 B( 55-C , 56-S ) :   1.0074 B( 55-C , 57-C ) :   1.8643
B( 57-C , 84-H ) :   0.9506 B( 57-C , 85-H ) :   0.9418

-----------------------------------------------------------------------------
         ABSORPTION SPECTRUM VIA TRANSITION ELECTRIC DIPOLE MOMENTS
-----------------------------------------------------------------------------
State   Energy  Wavelength   fosc         T2         TX        TY        TZ
        (cm-1)    (nm)                  (au**2)     (au)      (au)      (au)
-----------------------------------------------------------------------------
   0   13025.1    767.7   1.554746375  39.29657   0.11261  -6.00808   1.78518
   1   17017.3    587.6   0.515090135   9.96481   1.12642   2.83713  -0.80418
   2   17747.5    563.5   0.055480192   1.02914  -0.80567  -0.11988  -0.60471
   3   18200.4    549.4   1.320502229  23.88553   4.18324   0.66647   2.43759
   4   20138.3    496.6   0.352339131   5.75988   1.55753  -0.57882   1.73175
   5   21009.8    476.0   0.052458224   0.82199  -0.56806  -0.70513  -0.04575
   6   21343.7    468.5   0.354049443   5.46096  -0.84718   1.74867  -1.29823
   7   22139.3    451.7   0.421258108   6.26412   1.67468  -1.34061   1.28932
   8   22856.8    437.5   0.237828940   3.42551  -0.80417   1.20872  -1.14795
   9   24024.5    416.2   0.022951506   0.31451  -0.42735  -0.02672  -0.36217
  10   25101.0    398.4   0.004249246   0.05573  -0.09888  -0.17673  -0.12132
  11   26697.3    374.6   0.166588409   2.05425  -1.17273   0.31749  -0.76036
  12   27443.5    364.4   0.306591900   3.67787   1.42757  -0.27383   1.25098
  13   27738.5    360.5   0.110687409   1.31368  -0.66302   0.65290  -0.66919
  14   28802.4    347.2   0.049973456   0.57120  -0.58848  -0.38176  -0.28133
  15   29214.7    342.3   0.001503214   0.01694  -0.10227  -0.00605  -0.08027
  16   29358.8    340.6   0.106911569   1.19884   0.90075  -0.11820   0.61117
  17   29645.6    337.3   0.108450994   1.20434   0.55009  -0.72019   0.61893
  18   30686.7    325.9   0.091455502   0.98115   0.52868   0.82635   0.13709
  19   30821.0    324.5   0.000866630   0.00926   0.03556   0.06976   0.05591
  20   31329.7    319.2   0.219465212   2.30614   1.01527   0.99318   0.53756
  21   31878.9    313.7   0.028574746   0.29509  -0.36931  -0.35387  -0.18296
  22   32562.9    307.1   0.202188403   2.04413  -0.26211   1.32744  -0.46187
  23   33513.4    298.4   0.114308540   1.12289  -0.10194  -1.04277   0.15853
  24   34003.3    294.1   0.006281687   0.06082   0.19414   0.05294   0.14256
  25   34144.6    292.9   0.000352824   0.00340   0.02535  -0.04766   0.02209
  26   34443.5    290.3   0.004880989   0.04665  -0.00839  -0.21572   0.00690
  27   34750.8    287.8   0.000030690   0.00029   0.01032  -0.00083  -0.01355
  28   35048.4    285.3   0.036004527   0.33819   0.10791   0.55717  -0.12693
  29   35418.5    282.3   0.036382855   0.33818   0.44153   0.26097   0.27408
  30   35696.0    280.1   0.088742820   0.81845  -0.04607  -0.88390   0.18718
  31   35830.2    279.1   0.008830365   0.08113  -0.14341   0.22304  -0.10402
  32   36954.7    270.6   0.001561244   0.01391  -0.02884   0.10825  -0.03685
  33   37002.3    270.3   0.000075966   0.00068   0.02527   0.00591   0.00151
  34   37179.6    269.0   0.020315620   0.17989   0.20214   0.36698   0.06597
  35   37440.0    267.1   0.002279621   0.02004   0.03713   0.13303  -0.03115
  36   37554.5    266.3   0.010394730   0.09112   0.15122  -0.18412   0.18535
  37   37588.9    266.0   0.281556679   2.46594  -1.27327  -0.53912  -0.74436
  38   37878.2    264.0   0.001033947   0.00899   0.04212  -0.06696   0.05225
  39   38064.1    262.7   0.088464532   0.76512  -0.45288  -0.74267  -0.09202
  40   38886.5    257.2   0.069894094   0.59172   0.43783  -0.44537   0.44908
  41   39069.2    256.0   0.064290478   0.54174   0.60666   0.21133   0.35922
  42   39325.3    254.3   0.001649114   0.01381  -0.07448   0.02991  -0.08582
  43   39597.6    252.5   0.049040593   0.40772  -0.10562   0.61006  -0.15619
  44   39631.7    252.3   0.038804965   0.32234  -0.05280  -0.55745   0.09383
  45   39831.3    251.1   0.011503691   0.09508   0.22469   0.10323   0.18422

FINAL SINGLE POINT ENERGY     -5318.741926218105

DIPOLE MOMENT
-------------
                                X             Y             Z
Electronic contribution:     -7.66645     -23.44061       4.44798
Nuclear contribution   :      7.60394      28.65652      -6.15156
                        -----------------------------------------
Total Dipole Moment    :     -0.06251       5.21591      -1.70358
                        -----------------------------------------
Magnitude (a.u.)       :      5.48743
Magnitude (Debye)      :     13.94793

Rotational constants in cm-1:     0.001132     0.000342     0.000264
Rotational constants in MHz :    33.924978    10.266938     7.922132

                             ****ORCA TERMINATED NORMALLY****
TOTAL RUN TIME: 0 days 0 hours 6 minutes 36 seconds 50 msec
