                         Program Version 4.2.0 -  RELEASE  -
|  1> # ORCA input file
|  2> # SCF done       -193.295880963731          0.000570501129
|  3> ! CAM-B3LYP def2-SVP def2/J RIJCOSX Grid4 TightSCF
|  4> %maxcore 5000
|  5> %tddft
|  6>     Mode sTDDFT
|  7>     Ethresh 5.0
|  8>     maxcore 5000
|  9> end
| 10>
| 11> %pal
| 12>   nprocs 6
| 13>   end
| 14> * xyz 0 1
| 15>    C        0.11737         1.02892        -2.93700
| 16>    C       -0.87143         0.16520        -3.41647
| 17>    C       -0.74163        -0.36510        -4.70110
| 18>    C        0.35750        -0.03753        -5.49517
| 19>    C        1.31976         0.81524        -5.00069
| 20>    C        1.20189         1.35042        -3.71991
| 21>    O       -1.66756        -1.20667        -5.22274
| 22>    C       -2.73196        -1.57298        -4.49132
| 23>    C       -3.62155        -2.49823        -5.25872
| 24>    C       -2.96303        -1.12999        -3.22380
| 25>    C       -2.02742        -0.18516        -2.57986
| 26>    O       -2.17849         0.25305        -1.45411
| 27>    C       -4.09189        -1.55953        -2.42290
| 28>    C       -4.77069        -0.79376        -1.50542
| 29>    C       -5.73967        -1.53119        -0.81236
| 30>    C       -5.77705        -2.87769        -1.19992
| 31>    S       -4.64382        -3.23065        -2.42389
| 32>    C       -6.76109        -3.54849        -0.42763
| 33>    C       -7.34752        -2.62161         0.44865
| 34>    C       -6.73208        -1.31865         0.22618
| 35>    C       -7.04204        -0.15032         0.85725
| 36>    C       -8.03321        -0.08571         1.85926
| 37>    N       -8.83852        -0.03235         2.67416
| 38>    C       -6.41977         1.07704         0.54347
| 39>    N       -5.94534         2.09048         0.29421
| 40>    C       -8.32010        -3.19113         1.26897
| 41>    C       -8.47305        -4.54474         1.02678
| 42>    S       -7.40203        -5.11962        -0.24535
| 43>    C       -9.33578        -5.45358         1.68515
| 44>    C       -9.43636        -6.81756         1.47448
| 45>    C      -10.36140        -7.41203         2.32890
| 46>    C      -10.98075        -6.48883         3.19755
| 47>    S      -10.41719        -4.89085         2.95349
| 48>    C      -11.87429        -7.18456         4.03664
| 49>    C      -11.81771        -8.55793         3.70733
| 50>    C      -10.88182        -8.73758         2.60602
| 51>    C      -10.58365        -9.90245         1.96192
| 52>    C      -11.20685       -11.12556         2.29233
| 53>    N      -11.73784       -12.11100         2.53931
| 54>    C       -9.66471        -9.94661         0.89219
| 55>    N       -8.92414        -9.97215         0.01716
| 56>    C      -12.62302        -9.34949         4.50470
| 57>    C      -13.32358        -8.60669         5.45725
| 58>    S      -12.96556        -6.87919         5.31527
| 59>    C      -14.20572        -9.03785         6.45490
| 60>    C      -14.41213       -10.33674         6.86681
| 61>    C      -15.32699       -10.75977         7.86039
| 62>    C      -15.28773       -12.09791         8.12977
| 63>    C      -14.32753       -12.79784         7.37191
| 64>    S      -13.50222       -11.71666         6.28422
| 65>    C      -13.97315       -14.13941         7.41129
| 66>    C      -14.52745       -15.18762         8.17021
| 67>    C      -13.90553       -16.38953         7.97460
| 68>    C      -12.82748       -16.33909         7.06418
| 69>    S      -12.64240       -14.71820         6.43892
| 70>    C      -11.98507       -17.37491         6.69810
| 71>    C      -10.91058       -17.18478         5.83725
| 72>    C      -10.01947       -18.16155         5.43761
| 73>    C       -8.87869       -17.97687         4.57945
| 74>    C       -8.38412       -16.78696         4.09506
| 75>    C       -7.25864       -16.68511         3.25439
| 76>    N       -6.35060       -16.53327         2.56687
| 77>    C       -8.88472       -15.50307         4.39049
| 78>    N       -9.20195       -14.41779         4.59714
| 79>    C       -8.28393       -19.29169         4.34338
| 80>    C       -9.01007       -20.25641         5.08313
| 81>    C      -10.11592       -19.58681         5.80216
| 82>    O      -10.92683       -20.12292         6.53301
| 83>    C       -8.68337       -21.58952         5.08362
| 84>    C       -7.58770       -21.99373         4.31224
| 85>    C       -6.87321       -21.02472         3.57154
| 86>    C       -7.20261       -19.67404         3.57368
| 87>    S       -5.55902       -21.73827         2.68525
| 88>    C       -5.98223       -23.30761         3.31622
| 89>    C       -7.05131       -23.30054         4.14639
| 90>   Br       -4.97105       -24.80804         2.81936
| 91>    H       -0.00468         1.42612        -1.94090
| 92>    H        0.43096        -0.46223        -6.48380
| 93>    H        2.17176         1.06894        -5.61281
| 94>    H        1.96316         2.01670        -3.34484
| 95>    H       -3.42047        -2.37720        -6.32047
| 96>    H       -4.66931        -2.29115        -5.05863
| 97>    H       -3.41735        -3.53399        -4.98944
| 98>    H       -4.56230         0.24821        -1.34965
| 99>    H       -8.89088        -2.66629         2.01400
|100>    H       -8.84988        -7.33712         0.73801
|101>    H      -12.72331       -10.41164         4.39004
|102>    H      -14.75677        -8.26967         6.98197
|103>    H      -15.98538       -10.06263         8.34813
|104>    H      -15.90698       -12.58755         8.85952
|105>    H      -15.36186       -15.03641         8.83159
|106>    H      -14.18353       -17.30629         8.46338
|107>    H      -12.16384       -18.35580         7.11379
|108>    H      -10.76746       -16.18137         5.45408
|109>    H       -9.25411       -22.30011         5.66073
|110>    H       -6.62580       -18.97554         2.99115
|111>    H       -7.44699       -24.17854         4.62350
|112> *
|113>
|114>                          ****END OF INPUT****

CARTESIAN COORDINATES (ANGSTROEM)
---------------------------------
  C      0.117370    1.028920   -2.937000
  C     -0.871430    0.165200   -3.416470
  C     -0.741630   -0.365100   -4.701100
  C      0.357500   -0.037530   -5.495170
  C      1.319760    0.815240   -5.000690
  C      1.201890    1.350420   -3.719910
  O     -1.667560   -1.206670   -5.222740
  C     -2.731960   -1.572980   -4.491320
  C     -3.621550   -2.498230   -5.258720
  C     -2.963030   -1.129990   -3.223800
  C     -2.027420   -0.185160   -2.579860
  O     -2.178490    0.253050   -1.454110
  C     -4.091890   -1.559530   -2.422900
  C     -4.770690   -0.793760   -1.505420
  C     -5.739670   -1.531190   -0.812360
  C     -5.777050   -2.877690   -1.199920
  S     -4.643820   -3.230650   -2.423890
  C     -6.761090   -3.548490   -0.427630
  C     -7.347520   -2.621610    0.448650
  C     -6.732080   -1.318650    0.226180
  C     -7.042040   -0.150320    0.857250
  C     -8.033210   -0.085710    1.859260
  N     -8.838520   -0.032350    2.674160
  C     -6.419770    1.077040    0.543470
  N     -5.945340    2.090480    0.294210
  C     -8.320100   -3.191130    1.268970
  C     -8.473050   -4.544740    1.026780
  S     -7.402030   -5.119620   -0.245350
  C     -9.335780   -5.453580    1.685150
  C     -9.436360   -6.817560    1.474480
  C    -10.361400   -7.412030    2.328900
  C    -10.980750   -6.488830    3.197550
  S    -10.417190   -4.890850    2.953490
  C    -11.874290   -7.184560    4.036640
  C    -11.817710   -8.557930    3.707330
  C    -10.881820   -8.737580    2.606020
  C    -10.583650   -9.902450    1.961920
  C    -11.206850  -11.125560    2.292330
  N    -11.737840  -12.111000    2.539310
  C     -9.664710   -9.946610    0.892190
  N     -8.924140   -9.972150    0.017160
  C    -12.623020   -9.349490    4.504700
  C    -13.323580   -8.606690    5.457250
  S    -12.965560   -6.879190    5.315270
  C    -14.205720   -9.037850    6.454900
  C    -14.412130  -10.336740    6.866810
  C    -15.326990  -10.759770    7.860390
  C    -15.287730  -12.097910    8.129770
  C    -14.327530  -12.797840    7.371910
  S    -13.502220  -11.716660    6.284220
  C    -13.973150  -14.139410    7.411290
  C    -14.527450  -15.187620    8.170210
  C    -13.905530  -16.389530    7.974600
  C    -12.827480  -16.339090    7.064180
  S    -12.642400  -14.718200    6.438920
  C    -11.985070  -17.374910    6.698100
  C    -10.910580  -17.184780    5.837250
  C    -10.019470  -18.161550    5.437610
  C     -8.878690  -17.976870    4.579450
  C     -8.384120  -16.786960    4.095060
  C     -7.258640  -16.685110    3.254390
  N     -6.350600  -16.533270    2.566870
  C     -8.884720  -15.503070    4.390490
  N     -9.201950  -14.417790    4.597140
  C     -8.283930  -19.291690    4.343380
  C     -9.010070  -20.256410    5.083130
  C    -10.115920  -19.586810    5.802160
  O    -10.926830  -20.122920    6.533010
  C     -8.683370  -21.589520    5.083620
  C     -7.587700  -21.993730    4.312240
  C     -6.873210  -21.024720    3.571540
  C     -7.202610  -19.674040    3.573680
  S     -5.559020  -21.738270    2.685250
  C     -5.982230  -23.307610    3.316220
  C     -7.051310  -23.300540    4.146390
  Br    -4.971050  -24.808040    2.819360
  H     -0.004680    1.426120   -1.940900
  H      0.430960   -0.462230   -6.483800
  H      2.171760    1.068940   -5.612810
  H      1.963160    2.016700   -3.344840
  H     -3.420470   -2.377200   -6.320470
  H     -4.669310   -2.291150   -5.058630
  H     -3.417350   -3.533990   -4.989440
  H     -4.562300    0.248210   -1.349650
  H     -8.890880   -2.666290    2.014000
  H     -8.849880   -7.337120    0.738010
  H    -12.723310  -10.411640    4.390040
  H    -14.756770   -8.269670    6.981970
  H    -15.985380  -10.062630    8.348130
  H    -15.906980  -12.587550    8.859520
  H    -15.361860  -15.036410    8.831590
  H    -14.183530  -17.306290    8.463380
  H    -12.163840  -18.355800    7.113790
  H    -10.767460  -16.181370    5.454080
  H     -9.254110  -22.300110    5.660730
  H     -6.625800  -18.975540    2.991150
  H     -7.446990  -24.178540    4.623500

 Total Charge           Charge          ....    0
 Multiplicity           Mult            ....    1
 Number of Electrons    NEL             ....  588
 Basis Dimension        Dim             .... 1215

ORBITAL ENERGIES
----------------

  NO   OCC          E(Eh)            E(eV)
   0   2.0000    -482.875229    -13139.7030
   1   2.0000     -88.991628     -2421.5853
   2   2.0000     -88.991296     -2421.5763
   3   2.0000     -88.989103     -2421.5166
   4   2.0000     -88.983424     -2421.3621
   5   2.0000     -88.963428     -2420.8179
   6   2.0000     -88.962655     -2420.7969
   7   2.0000     -88.954917     -2420.5863
   8   2.0000     -62.552947     -1702.1522
   9   2.0000     -56.386884     -1534.3651
  10   2.0000     -56.384194     -1534.2919
  11   2.0000     -56.384154     -1534.2908
  12   2.0000     -19.305455      -525.3281
  13   2.0000     -19.197336      -522.3861
  14   2.0000     -19.192741      -522.2610
  15   2.0000     -14.429235      -392.6394
  16   2.0000     -14.426824      -392.5738
  17   2.0000     -14.426296      -392.5595
  18   2.0000     -14.422704      -392.4617
  19   2.0000     -14.396728      -391.7549
  20   2.0000     -14.395341      -391.7171
  21   2.0000     -10.374155      -282.2951
  22   2.0000     -10.365243      -282.0526
  23   2.0000     -10.359339      -281.8919
  24   2.0000     -10.357838      -281.8511
  25   2.0000     -10.356925      -281.8262
  26   2.0000     -10.350539      -281.6525
  27   2.0000     -10.347606      -281.5727
  28   2.0000     -10.346622      -281.5459
  29   2.0000     -10.346203      -281.5345
  30   2.0000     -10.336578      -281.2726
  31   2.0000     -10.332757      -281.1686
  32   2.0000     -10.332552      -281.1630
  33   2.0000     -10.332240      -281.1545
  34   2.0000     -10.329879      -281.0903
  35   2.0000     -10.329129      -281.0699
  36   2.0000     -10.327447      -281.0241
  37   2.0000     -10.327407      -281.0230
  38   2.0000     -10.327073      -281.0139
  39   2.0000     -10.325515      -280.9716
  40   2.0000     -10.324533      -280.9448
  41   2.0000     -10.324438      -280.9422
  42   2.0000     -10.323392      -280.9138
  43   2.0000     -10.322642      -280.8934
  44   2.0000     -10.320547      -280.8364
  45   2.0000     -10.320214      -280.8273
  46   2.0000     -10.319015      -280.7947
  47   2.0000     -10.315590      -280.7015
  48   2.0000     -10.312824      -280.6262
  49   2.0000     -10.310732      -280.5693
  50   2.0000     -10.306304      -280.4488
  51   2.0000     -10.305948      -280.4391
  52   2.0000     -10.304841      -280.4090
  53   2.0000     -10.303764      -280.3797
  54   2.0000     -10.303561      -280.3742
  55   2.0000     -10.302267      -280.3389
  56   2.0000     -10.301742      -280.3247
  57   2.0000     -10.301550      -280.3194
  58   2.0000     -10.300304      -280.2855
  59   2.0000     -10.300054      -280.2787
  60   2.0000     -10.299619      -280.2669
  61   2.0000     -10.294562      -280.1293
  62   2.0000     -10.294253      -280.1209
  63   2.0000     -10.293565      -280.1021
  64   2.0000     -10.292655      -280.0774
  65   2.0000     -10.291270      -280.0397
  66   2.0000     -10.291230      -280.0386
  67   2.0000     -10.290962      -280.0313
  68   2.0000     -10.290604      -280.0216
  69   2.0000     -10.289102      -279.9807
  70   2.0000     -10.287341      -279.9328
  71   2.0000     -10.287260      -279.9306
  72   2.0000     -10.286361      -279.9061
  73   2.0000     -10.285515      -279.8831
  74   2.0000     -10.284635      -279.8591
  75   2.0000     -10.283913      -279.8395
  76   2.0000     -10.280096      -279.7356
  77   2.0000     -10.275247      -279.6037
  78   2.0000     -10.273616      -279.5593
  79   2.0000     -10.271880      -279.5121
  80   2.0000      -8.782371      -238.9805
  81   2.0000      -8.086009      -220.0315
  82   2.0000      -8.085873      -220.0278
  83   2.0000      -8.083589      -219.9657
  84   2.0000      -8.077860      -219.8098
  85   2.0000      -8.059399      -219.3074
  86   2.0000      -8.058606      -219.2858
  87   2.0000      -8.051114      -219.0819
  88   2.0000      -6.618625      -180.1019
  89   2.0000      -6.604109      -179.7070
  90   2.0000      -6.603958      -179.7028
  91   2.0000      -6.055350      -164.7745
  92   2.0000      -6.055138      -164.7687
  93   2.0000      -6.052889      -164.7075
  94   2.0000      -6.051174      -164.6608
  95   2.0000      -6.051047      -164.6574
  96   2.0000      -6.048729      -164.5943
  97   2.0000      -6.048185      -164.5795
  98   2.0000      -6.048166      -164.5790
  99   2.0000      -6.047134      -164.5509
 100   2.0000      -6.045834      -164.5155
 101   2.0000      -6.042867      -164.4348
 102   2.0000      -6.040322      -164.3655
 103   2.0000      -6.029096      -164.0600
 104   2.0000      -6.028308      -164.0386
 105   2.0000      -6.024882      -163.9454
 106   2.0000      -6.024039      -163.9224
 107   2.0000      -6.020702      -163.8316
 108   2.0000      -6.020503      -163.8262
 109   2.0000      -6.019830      -163.8079
 110   2.0000      -6.016631      -163.7208
 111   2.0000      -6.012266      -163.6021
 112   2.0000      -2.734489       -74.4092
 113   2.0000      -2.730444       -74.2992
 114   2.0000      -2.730302       -74.2953
 115   2.0000      -2.718785       -73.9819
 116   2.0000      -2.718772       -73.9815
 117   2.0000      -1.219679       -33.1892
 118   2.0000      -1.113404       -30.2973
 119   2.0000      -1.110558       -30.2198
 120   2.0000      -1.045882       -28.4599
 121   2.0000      -1.039345       -28.2820
 122   2.0000      -1.019914       -27.7533
 123   2.0000      -1.017078       -27.6761
 124   2.0000      -1.012554       -27.5530
 125   2.0000      -1.006974       -27.4012
 126   2.0000      -1.005296       -27.3555
 127   2.0000      -1.003128       -27.2965
 128   2.0000      -1.001384       -27.2490
 129   2.0000      -0.995824       -27.0978
 130   2.0000      -0.990715       -26.9587
 131   2.0000      -0.985874       -26.8270
 132   2.0000      -0.975016       -26.5315
 133   2.0000      -0.971779       -26.4434
 134   2.0000      -0.968383       -26.3510
 135   2.0000      -0.961241       -26.1567
 136   2.0000      -0.952150       -25.9093
 137   2.0000      -0.928452       -25.2645
 138   2.0000      -0.927170       -25.2296
 139   2.0000      -0.921553       -25.0767
 140   2.0000      -0.907473       -24.6936
 141   2.0000      -0.899370       -24.4731
 142   2.0000      -0.892632       -24.2897
 143   2.0000      -0.888146       -24.1677
 144   2.0000      -0.877866       -23.8879
 145   2.0000      -0.872617       -23.7451
 146   2.0000      -0.870503       -23.6876
 147   2.0000      -0.867236       -23.5987
 148   2.0000      -0.864794       -23.5322
 149   2.0000      -0.861553       -23.4441
 150   2.0000      -0.857546       -23.3350
 151   2.0000      -0.851325       -23.1657
 152   2.0000      -0.847693       -23.0669
 153   2.0000      -0.837397       -22.7867
 154   2.0000      -0.834897       -22.7187
 155   2.0000      -0.826091       -22.4791
 156   2.0000      -0.815443       -22.1893
 157   2.0000      -0.813785       -22.1442
 158   2.0000      -0.800496       -21.7826
 159   2.0000      -0.780526       -21.2392
 160   2.0000      -0.776215       -21.1219
 161   2.0000      -0.772037       -21.0082
 162   2.0000      -0.762419       -20.7465
 163   2.0000      -0.748213       -20.3599
 164   2.0000      -0.741457       -20.1761
 165   2.0000      -0.732206       -19.9243
 166   2.0000      -0.724148       -19.7051
 167   2.0000      -0.714116       -19.4321
 168   2.0000      -0.704014       -19.1572
 169   2.0000      -0.695843       -18.9348
 170   2.0000      -0.694470       -18.8975
 171   2.0000      -0.688824       -18.7439
 172   2.0000      -0.687357       -18.7039
 173   2.0000      -0.681012       -18.5313
 174   2.0000      -0.676593       -18.4110
 175   2.0000      -0.674386       -18.3510
 176   2.0000      -0.670145       -18.2356
 177   2.0000      -0.658584       -17.9210
 178   2.0000      -0.653328       -17.7780
 179   2.0000      -0.651872       -17.7383
 180   2.0000      -0.642682       -17.4883
 181   2.0000      -0.640764       -17.4361
 182   2.0000      -0.635614       -17.2959
 183   2.0000      -0.629687       -17.1347
 184   2.0000      -0.626045       -17.0356
 185   2.0000      -0.620035       -16.8720
 186   2.0000      -0.616778       -16.7834
 187   2.0000      -0.613528       -16.6949
 188   2.0000      -0.609847       -16.5948
 189   2.0000      -0.607453       -16.5296
 190   2.0000      -0.606377       -16.5004
 191   2.0000      -0.598264       -16.2796
 192   2.0000      -0.592218       -16.1151
 193   2.0000      -0.584400       -15.9023
 194   2.0000      -0.581815       -15.8320
 195   2.0000      -0.579320       -15.7641
 196   2.0000      -0.574184       -15.6244
 197   2.0000      -0.570634       -15.5277
 198   2.0000      -0.559810       -15.2332
 199   2.0000      -0.551305       -15.0018
 200   2.0000      -0.548797       -14.9335
 201   2.0000      -0.544253       -14.8099
 202   2.0000      -0.541756       -14.7419
 203   2.0000      -0.538966       -14.6660
 204   2.0000      -0.532749       -14.4968
 205   2.0000      -0.528358       -14.3773
 206   2.0000      -0.526754       -14.3337
 207   2.0000      -0.523408       -14.2426
 208   2.0000      -0.522550       -14.2193
 209   2.0000      -0.521308       -14.1855
 210   2.0000      -0.517485       -14.0815
 211   2.0000      -0.514856       -14.0099
 212   2.0000      -0.513612       -13.9761
 213   2.0000      -0.512203       -13.9378
 214   2.0000      -0.510867       -13.9014
 215   2.0000      -0.510202       -13.8833
 216   2.0000      -0.507711       -13.8155
 217   2.0000      -0.506103       -13.7718
 218   2.0000      -0.504837       -13.7373
 219   2.0000      -0.502192       -13.6653
 220   2.0000      -0.499237       -13.5849
 221   2.0000      -0.497936       -13.5495
 222   2.0000      -0.496353       -13.5064
 223   2.0000      -0.494089       -13.4448
 224   2.0000      -0.492758       -13.4086
 225   2.0000      -0.491262       -13.3679
 226   2.0000      -0.488589       -13.2952
 227   2.0000      -0.484656       -13.1882
 228   2.0000      -0.483434       -13.1549
 229   2.0000      -0.482275       -13.1234
 230   2.0000      -0.480044       -13.0627
 231   2.0000      -0.477812       -13.0019
 232   2.0000      -0.477325       -12.9887
 233   2.0000      -0.474416       -12.9095
 234   2.0000      -0.473219       -12.8769
 235   2.0000      -0.468987       -12.7618
 236   2.0000      -0.465902       -12.6778
 237   2.0000      -0.464091       -12.6286
 238   2.0000      -0.458809       -12.4848
 239   2.0000      -0.457261       -12.4427
 240   2.0000      -0.456454       -12.4208
 241   2.0000      -0.455276       -12.3887
 242   2.0000      -0.454021       -12.3545
 243   2.0000      -0.451506       -12.2861
 244   2.0000      -0.450944       -12.2708
 245   2.0000      -0.448590       -12.2068
 246   2.0000      -0.446719       -12.1559
 247   2.0000      -0.443986       -12.0815
 248   2.0000      -0.443178       -12.0595
 249   2.0000      -0.438831       -11.9412
 250   2.0000      -0.437704       -11.9105
 251   2.0000      -0.436384       -11.8746
 252   2.0000      -0.435365       -11.8469
 253   2.0000      -0.434898       -11.8342
 254   2.0000      -0.434366       -11.8197
 255   2.0000      -0.433453       -11.7949
 256   2.0000      -0.432309       -11.7637
 257   2.0000      -0.430437       -11.7128
 258   2.0000      -0.430141       -11.7047
 259   2.0000      -0.427286       -11.6270
 260   2.0000      -0.426251       -11.5989
 261   2.0000      -0.423983       -11.5372
 262   2.0000      -0.423121       -11.5137
 263   2.0000      -0.420186       -11.4338
 264   2.0000      -0.413391       -11.2489
 265   2.0000      -0.408260       -11.1093
 266   2.0000      -0.407060       -11.0767
 267   2.0000      -0.405340       -11.0299
 268   2.0000      -0.405068       -11.0225
 269   2.0000      -0.397990       -10.8299
 270   2.0000      -0.389335       -10.5943
 271   2.0000      -0.387908       -10.5555
 272   2.0000      -0.378787       -10.3073
 273   2.0000      -0.372269       -10.1299
 274   2.0000      -0.364882        -9.9289
 275   2.0000      -0.362496        -9.8640
 276   2.0000      -0.353817        -9.6278
 277   2.0000      -0.350900        -9.5485
 278   2.0000      -0.348018        -9.4700
 279   2.0000      -0.344171        -9.3654
 280   2.0000      -0.338815        -9.2196
 281   2.0000      -0.335103        -9.1186
 282   2.0000      -0.331446        -9.0191
 283   2.0000      -0.327115        -8.9013
 284   2.0000      -0.322617        -8.7788
 285   2.0000      -0.319038        -8.6815
 286   2.0000      -0.317576        -8.6417
 287   2.0000      -0.315356        -8.5813
 288   2.0000      -0.303660        -8.2630
 289   2.0000      -0.300928        -8.1887
 290   2.0000      -0.282870        -7.6973
 291   2.0000      -0.277204        -7.5431
 292   2.0000      -0.249649        -6.7933
 293   2.0000      -0.219443        -5.9713
 294   0.0000      -0.116194        -3.1618
 295   0.0000      -0.098560        -2.6819
 296   0.0000      -0.098086        -2.6691
 297   0.0000      -0.057391        -1.5617
 298   0.0000      -0.042293        -1.1509

MULLIKEN ATOMIC CHARGES
-----------------------
   0 C :   -0.002013
   1 C :   -0.058026
   2 C :    0.176243
   3 C :   -0.029729
   4 C :    0.041103
   5 C :    0.036536
   6 O :   -0.201080
   7 C :   -0.049703
   8 C :    0.085986
   9 C :   -0.008150
  10 C :    0.165351
  11 O :   -0.181605
  12 C :   -0.149960
  13 C :    0.014083
  14 C :    0.004073
  15 C :   -0.101981
  16 S :    0.160753
  17 C :   -0.094132
  18 C :    0.012401
  19 C :    0.299582
  20 C :   -0.299377
  21 C :   -0.189990
  22 N :    0.167761
  23 C :   -0.191861
  24 N :    0.186731
  25 C :   -0.064854
  26 C :   -0.055621
  27 S :    0.190367
  28 C :   -0.044836
  29 C :   -0.068704
  30 C :    0.021093
  31 C :   -0.107451
  32 S :    0.194483
  33 C :   -0.089271
  34 C :   -0.006034
  35 C :    0.299273
  36 C :   -0.281379
  37 C :   -0.179463
  38 N :    0.182196
  39 C :   -0.185764
  40 N :    0.173345
  41 C :   -0.031280
  42 C :   -0.105899
  43 S :    0.188223
  44 C :    0.049503
  45 C :   -0.045580
  46 C :    0.044666
  47 C :    0.027023
  48 C :   -0.023170
  49 S :    0.092446
  50 C :   -0.047011
  51 C :    0.041437
  52 C :    0.027357
  53 C :    0.006220
  54 S :    0.112053
  55 C :   -0.020982
  56 C :   -0.045885
  57 C :   -0.085408
  58 C :    0.326990
  59 C :   -0.358289
  60 C :   -0.188286
  61 N :    0.134597
  62 C :   -0.197283
  63 N :    0.137796
  64 C :    0.012878
  65 C :   -0.012662
  66 C :    0.136671
  67 O :   -0.165195
  68 C :   -0.077229
  69 C :    0.116538
  70 C :   -0.091588
  71 C :   -0.025034
  72 S :    0.178196
  73 C :   -0.123887
  74 C :    0.037965
  75 Br:    0.012718
  76 H :    0.003763
  77 H :   -0.014584
  78 H :   -0.000771
  79 H :   -0.005683
  80 H :    0.040253
  81 H :    0.054329
  82 H :    0.056065
  83 H :    0.019813
  84 H :    0.010202
  85 H :    0.012930
  86 H :    0.034319
  87 H :   -0.006940
  88 H :   -0.003458
  89 H :   -0.007136
  90 H :   -0.005529
  91 H :   -0.001332
  92 H :    0.014995
  93 H :    0.022542
  94 H :   -0.015920
  95 H :   -0.009542
  96 H :   -0.007297
Sum of atomic charges:   -0.0000000

LOEWDIN ATOMIC CHARGES
----------------------
   0 C :    0.024552
   1 C :   -0.085882
   2 C :    0.062676
   3 C :   -0.038585
   4 C :    0.002331
   5 C :   -0.027656
   6 O :    0.001238
   7 C :    0.084267
   8 C :   -0.062366
   9 C :   -0.138388
  10 C :    0.075984
  11 O :   -0.171708
  12 C :   -0.158823
  13 C :   -0.010493
  14 C :   -0.071993
  15 C :   -0.187169
  16 S :    0.476768
  17 C :   -0.175700
  18 C :   -0.069619
  19 C :    0.082768
  20 C :   -0.100922
  21 C :   -0.014443
  22 N :   -0.038956
  23 C :   -0.019174
  24 N :   -0.025496
  25 C :   -0.035847
  26 C :   -0.185228
  27 S :    0.482449
  28 C :   -0.171687
  29 C :   -0.042081
  30 C :   -0.059710
  31 C :   -0.185577
  32 S :    0.480418
  33 C :   -0.173784
  34 C :   -0.065328
  35 C :    0.077083
  36 C :   -0.090347
  37 C :   -0.017472
  38 N :   -0.017639
  39 C :   -0.014158
  40 N :   -0.029514
  41 C :   -0.027868
  42 C :   -0.172927
  43 S :    0.470599
  44 C :   -0.050902
  45 C :   -0.156169
  46 C :   -0.013461
  47 C :   -0.041839
  48 C :   -0.151484
  49 S :    0.422363
  50 C :   -0.190735
  51 C :   -0.009852
  52 C :   -0.040730
  53 C :   -0.104768
  54 S :    0.420386
  55 C :   -0.070467
  56 C :    0.048761
  57 C :   -0.107104
  58 C :    0.072174
  59 C :   -0.154798
  60 C :   -0.018304
  61 N :   -0.069469
  62 C :   -0.022458
  63 N :   -0.064191
  64 C :   -0.017421
  65 C :   -0.048841
  66 C :    0.081395
  67 O :   -0.159542
  68 C :    0.016772
  69 C :   -0.036515
  70 C :   -0.145740
  71 C :   -0.013886
  72 S :    0.426571
  73 C :   -0.275420
  74 C :   -0.070852
  75 Br:    0.128460
  76 H :    0.040356
  77 H :    0.036319
  78 H :    0.034475
  79 H :    0.032468
  80 H :    0.044363
  81 H :    0.041580
  82 H :    0.043366
  83 H :    0.043847
  84 H :    0.035326
  85 H :    0.035767
  86 H :    0.027527
  87 H :    0.037544
  88 H :    0.036893
  89 H :    0.034612
  90 H :    0.035166
  91 H :    0.038223
  92 H :    0.038350
  93 H :    0.031622
  94 H :    0.038496
  95 H :    0.039969
  96 H :    0.037202

  Mayer bond orders larger than 0.100000
B(  0-C ,  1-C ) :   1.3385 B(  0-C ,  5-C ) :   1.4006 B(  0-C , 76-H ) :   0.9974
B(  1-C ,  2-C ) :   1.3346 B(  1-C , 10-C ) :   0.9826 B(  2-C ,  3-C ) :   1.3518
B(  2-C ,  6-O ) :   1.0779 B(  3-C ,  4-C ) :   1.4159 B(  3-C , 77-H ) :   0.9940
B(  4-C ,  5-C ) :   1.3261 B(  4-C , 78-H ) :   0.9903 B(  5-C , 79-H ) :   0.9949
B(  6-O ,  7-C ) :   1.1524 B(  7-C ,  8-C ) :   1.1116 B(  7-C ,  9-C ) :   1.5580
B(  8-C , 80-H ) :   0.9353 B(  8-C , 81-H ) :   0.9446 B(  8-C , 82-H ) :   0.9384
B(  9-C , 10-C ) :   1.0086 B(  9-C , 12-C ) :   1.0029 B( 10-C , 11-O ) :   2.1722
B( 12-C , 13-C ) :   1.5254 B( 12-C , 16-S ) :   1.1070 B( 13-C , 14-C ) :   1.2639
B( 13-C , 83-H ) :   0.9942 B( 14-C , 15-C ) :   1.4400 B( 14-C , 19-C ) :   0.9962
B( 15-C , 16-S ) :   1.1276 B( 15-C , 17-C ) :   1.1781 B( 17-C , 18-C ) :   1.4521
B( 17-C , 27-S ) :   1.1222 B( 18-C , 19-C ) :   0.9900 B( 18-C , 25-C ) :   1.3009
B( 19-C , 20-C ) :   1.7148 B( 20-C , 21-C ) :   1.1342 B( 20-C , 23-C ) :   1.1356
B( 21-C , 22-N ) :   2.9908 B( 23-C , 24-N ) :   3.0001 B( 25-C , 26-C ) :   1.4549
B( 25-C , 84-H ) :   0.9872 B( 26-C , 27-S ) :   1.1037 B( 26-C , 28-C ) :   1.1757
B( 28-C , 29-C ) :   1.4485 B( 28-C , 32-S ) :   1.1108 B( 29-C , 30-C ) :   1.3070
B( 29-C , 85-H ) :   0.9864 B( 30-C , 31-C ) :   1.4319 B( 30-C , 35-C ) :   0.9973
B( 31-C , 32-S ) :   1.1057 B( 31-C , 33-C ) :   1.2201 B( 33-C , 34-C ) :   1.4024
B( 33-C , 43-S ) :   1.1280 B( 34-C , 35-C ) :   0.9963 B( 34-C , 41-C ) :   1.3679
B( 35-C , 36-C ) :   1.7176 B( 36-C , 37-C ) :   1.1312 B( 36-C , 39-C ) :   1.1350
B( 37-C , 38-N ) :   2.9790 B( 39-C , 40-N ) :   2.9897 B( 41-C , 42-C ) :   1.3862
B( 41-C , 86-H ) :   0.9622 B( 42-C , 43-S ) :   1.0793 B( 42-C , 44-C ) :   1.1950
B( 44-C , 45-C ) :   1.5674 B( 44-C , 87-H ) :   0.9550 B( 45-C , 46-C ) :   1.1646
B( 45-C , 49-S ) :   1.0390 B( 46-C , 47-C ) :   1.5662 B( 46-C , 88-H ) :   0.9988
B( 47-C , 48-C ) :   1.2069 B( 47-C , 89-H ) :   0.9944 B( 48-C , 49-S ) :   1.0826
B( 48-C , 50-C ) :   1.4475 B( 50-C , 51-C ) :   1.2225 B( 50-C , 54-S ) :   1.0546
B( 51-C , 52-C ) :   1.5340 B( 51-C , 90-H ) :   0.9964 B( 52-C , 53-C ) :   1.1831
B( 52-C , 91-H ) :   1.0020 B( 53-C , 54-S ) :   1.0907 B( 53-C , 55-C ) :   1.4078
B( 55-C , 56-C ) :   1.2650 B( 55-C , 92-H ) :   0.9811 B( 56-C , 57-C ) :   1.4758
B( 56-C , 93-H ) :   0.9420 B( 57-C , 58-C ) :   1.1156 B( 57-C , 66-C ) :   0.9668
B( 58-C , 59-C ) :   1.5828 B( 58-C , 64-C ) :   0.9898 B( 59-C , 60-C ) :   1.1511
B( 59-C , 62-C ) :   1.1517 B( 60-C , 61-N ) :   2.9606 B( 62-C , 63-N ) :   2.9685
B( 64-C , 65-C ) :   1.2783 B( 64-C , 71-C ) :   1.4196 B( 65-C , 66-C ) :   0.9343
B( 65-C , 68-C ) :   1.4322 B( 66-C , 67-O ) :   2.1893 B( 68-C , 69-C ) :   1.2386
B( 68-C , 94-H ) :   1.0163 B( 69-C , 70-C ) :   1.3164 B( 69-C , 74-C ) :   1.1614
B( 70-C , 71-C ) :   1.3207 B( 70-C , 72-S ) :   1.0824 B( 71-C , 95-H ) :   0.9795
B( 72-S , 73-C ) :   1.0857 B( 73-C , 74-C ) :   1.6195 B( 73-C , 75-Br) :   1.0118
B( 74-C , 96-H ) :   1.0004

-----------------------------------------------------------------------------
         ABSORPTION SPECTRUM VIA TRANSITION ELECTRIC DIPOLE MOMENTS
-----------------------------------------------------------------------------
State   Energy  Wavelength   fosc         T2         TX        TY        TZ
        (cm-1)    (nm)                  (au**2)     (au)      (au)      (au)
-----------------------------------------------------------------------------
   0    8267.7   1209.5   0.495130610  19.71562   0.34771   4.22190  -1.33053
   1   11532.6    867.1   0.607013712  17.32800  -1.10726   4.00309  -0.27791
   2   12652.0    790.4   0.139905539   3.64041   1.61814  -0.54337  -0.85252
   3   15594.3    641.3   0.170873712   3.60732  -1.55514  -0.09816   1.08592
   4   19255.8    519.3   0.025473585   0.43552   0.44901   0.27689  -0.39653
   5   20458.6    488.8   0.502969711   8.09359  -2.22238  -0.42334   1.72493
   6   20908.5    478.3   0.550509370   8.66796  -1.98394  -1.35355   1.70289
   7   22838.3    437.9   0.015144477   0.21831  -0.04712  -0.38548   0.25979
   8   23669.1    422.5   0.323214695   4.49557  -0.96294  -1.62569   0.96201
   9   24712.4    404.7   0.252915416   3.36927   1.37415  -0.67422  -1.01312
  10   26175.4    382.0   0.007463905   0.09387   0.12032   0.25119  -0.12768
  11   26541.6    376.8   0.129509752   1.60639  -0.95490  -0.36337   0.75001
  12   26697.3    374.6   0.447612281   5.51964  -1.72448  -0.81969   1.36891
  13   27322.1    366.0   0.097140916   1.17048  -0.58840  -0.88568   0.19959
  14   28057.8    356.4   0.015321563   0.17977   0.26297   0.31788  -0.09786
  15   28476.6    351.2   0.217093845   2.50978   0.44389   1.50915  -0.18762
  16   29442.8    339.6   0.141235615   1.57922  -0.93510   0.47036   0.69538
  17   29832.9    335.2   0.166658431   1.83911   0.53930  -1.04460  -0.67607
  18   29947.9    333.9   0.082529015   0.90723  -0.63575   0.28595   0.64906
  19   30299.7    330.0   0.204373422   2.22056  -0.03694   1.41011   0.48041
  20   30633.6    326.4   0.007460630   0.08018  -0.15260  -0.23845  -0.00567
  21   31210.3    320.4   0.391327124   4.12780   0.59377  -1.87691  -0.50245
  22   31500.3    317.5   0.035923184   0.37544  -0.00417   0.50121  -0.35244
  23   31957.1    312.9   0.065677757   0.67659   0.46303  -0.12131  -0.66894
  24   32176.5    310.8   0.370993578   3.79580  -0.45443   1.87002   0.30385
  25   32520.1    307.5   0.012835221   0.12994   0.03922  -0.35832  -0.00157
  26   32614.3    306.6   0.083310616   0.84095  -0.59214   0.24899   0.65447
  27   32805.1    304.8   0.594775776   5.96881  -0.04673   2.28519   0.86287
  28   33013.6    302.9   0.051828876   0.51684  -0.54436   0.16322   0.44031
  29   33102.9    302.1   0.139090870   1.38327  -0.94310   0.51996   0.47274
  30   33263.7    300.6   0.043442276   0.42995  -0.46810   0.05543   0.45581
  31   33373.2    299.6   0.096434768   0.95129  -0.50614  -0.39320   0.73519
  32   33841.3    295.5   0.143164213   1.39272  -0.59066  -0.98241   0.28054
  33   34240.4    292.1   0.328205592   3.15560  -0.84269   1.24422   0.94731
  34   34352.9    291.1   0.194819061   1.86699   0.90428   0.28856  -0.98285
  35   34482.7    290.0   0.049202565   0.46974   0.02437   0.59514  -0.33906
  36   34889.1    286.6   0.060092185   0.56703   0.54131  -0.36007  -0.37995
  37   35110.7    284.8   0.004733273   0.04438  -0.06578  -0.16627   0.11139
  38   35361.7    282.8   0.017212588   0.16025   0.01774   0.38605  -0.10439
  39   35653.2    280.5   0.057675023   0.53256   0.20705   0.67955  -0.16703
  40   36027.1    277.6   0.026420724   0.24143  -0.28396  -0.23455   0.32524
  41   36185.2    276.4   0.030961224   0.28168   0.27617   0.45259   0.02395
  42   36526.1    273.8   0.001016148   0.00916  -0.07162   0.06347   0.00054
  43   36815.1    271.6   0.010599332   0.09478   0.22341   0.16184  -0.13667
  44   36878.7    271.2   0.111667543   0.99684  -0.48223  -0.84931   0.20730
  45   36954.7    270.6   0.041702833   0.37151   0.45844   0.22923  -0.32984
  46   37176.3    269.0   0.032902392   0.29136   0.25048  -0.01167  -0.47801
  47   37569.7    266.2   0.044672719   0.39145  -0.21367  -0.57706   0.11313
  48   37707.5    265.2   0.056589724   0.49407  -0.50985   0.37817   0.30184
  49   37824.8    264.4   0.064457195   0.56101  -0.59364  -0.29883   0.34541
  50   37910.3    263.8   0.021001722   0.18238  -0.05930   0.07721   0.41581
  51   38338.6    260.8   0.001431158   0.01229   0.04822  -0.08474   0.05275
  52   38411.4    260.3   0.002770008   0.02374   0.03284  -0.05025  -0.14191
  53   38513.0    259.7   0.023222315   0.19851   0.23322   0.31503  -0.21183
  54   38701.6    258.4   0.046205064   0.39304  -0.31419  -0.44076   0.31631
  55   38986.2    256.5   0.039995902   0.33774   0.22584   0.46397  -0.26733
  56   39091.1    255.8   0.011459035   0.09650   0.04266   0.29716   0.07986
  57   39330.4    254.3   0.020971497   0.17554   0.17182   0.36990  -0.09588
  58   39566.9    252.7   0.013910489   0.11574   0.23050  -0.22385  -0.11180
  59   39806.4    251.2   0.165381381   1.36776  -0.83537  -0.35422   0.73787
  60   39984.0    250.1   0.002610417   0.02149  -0.00176   0.12204   0.08121
  61   40162.3    249.0   0.008261468   0.06772   0.07287   0.23216  -0.09226
  62   40288.8    248.2   0.004813883   0.03934  -0.00021  -0.19738   0.01945

FINAL SINGLE POINT ENERGY     -8171.827522206677

DIPOLE MOMENT
-------------
                                X             Y             Z
Electronic contribution:     21.13234    -160.71180      13.48583
Nuclear contribution   :    -22.63859     161.80258     -13.81766
                        -----------------------------------------
Total Dipole Moment    :     -1.50624       1.09078      -0.33183
                        -----------------------------------------
Magnitude (a.u.)       :      1.88910
Magnitude (Debye)      :      4.80170

Rotational constants in cm-1:     0.000703     0.000188     0.000151
Rotational constants in MHz :    21.084008     5.631937     4.512257

                             ****ORCA TERMINATED NORMALLY****
TOTAL RUN TIME: 0 days 0 hours 11 minutes 23 seconds 284 msec
