                         Program Version 4.2.0 -  RELEASE  -
|  1> # ORCA input file
|  2> # SCF done       -206.470879868915          0.000618632293
|  3> ! CAM-B3LYP def2-SVP def2/J RIJCOSX Grid4 TightSCF
|  4> %maxcore 5000
|  5> %tddft
|  6>     Mode sTDDFT
|  7>     Ethresh 5.0
|  8>     maxcore 5000
|  9> end
| 10>
| 11> %pal
| 12>   nprocs 6
| 13>   end
| 14> * xyz 0 1
| 15>    C       -0.77795       -11.42335         2.17899
| 16>    C       -2.13371       -11.59208         2.12741
| 17>    F       -2.65605       -12.81785         2.31636
| 18>    C       -3.01479       -10.53044         1.88170
| 19>    C       -2.50223        -9.27829         1.68552
| 20>    C       -1.11197        -9.04781         1.72558
| 21>    C       -0.23250       -10.14047         1.97924
| 22>    C        1.16648        -9.93321         2.02798
| 23>    C        1.66482        -8.67622         1.82043
| 24>    C        0.78153        -7.59109         1.55183
| 25>    C       -0.57194        -7.75982         1.51132
| 26>    C        1.57143        -6.36754         1.31631
| 27>    O        1.16698        -5.24462         1.12361
| 28>    C        2.99224        -6.81888         1.30544
| 29>    C        3.03437        -8.16546         1.82276
| 30>    C        4.10342        -8.76504         2.43899
| 31>    C        5.33534        -8.11321         2.64416
| 32>    N        6.33991        -7.59847         2.85293
| 33>    C        4.05679       -10.05198         3.01022
| 34>    N        4.06882       -11.10326         3.47126
| 35>    C        3.92697        -5.99603         0.74892
| 36>    C        5.20470        -6.27933         0.22550
| 37>    C        5.81348        -7.47828        -0.10847
| 38>    C        7.04630        -7.30898        -0.72611
| 39>   Cl        8.00761        -8.62708        -1.24813
| 40>    C        7.43143        -5.97797        -0.89606
| 41>    S        6.20615        -4.93453        -0.24991
| 42>    C        8.57363        -5.47163        -1.55316
| 43>    C        8.89572        -4.13560        -1.78848
| 44>   Cl        7.97645        -2.82708        -1.17830
| 45>    C       10.01790        -3.94256        -2.58406
| 46>    C       10.61330        -5.12664        -2.98883
| 47>    S        9.76554        -6.49534        -2.30721
| 48>    C       11.68181        -5.33114        -3.88398
| 49>    C       12.11216        -4.42463        -4.82117
| 50>    C       13.11888        -4.61996        -5.80346
| 51>    C       13.21417        -3.61912        -6.72469
| 52>    C       12.29075        -2.57076        -6.52189
| 53>    S       11.34246        -2.87252        -5.08399
| 54>    C       12.00166        -1.45355        -7.28293
| 55>    C       12.53738        -0.99618        -8.50562
| 56>    C       11.90329         0.10339        -9.00506
| 57>    C       10.82863         0.57940        -8.20898
| 58>    S       10.69949        -0.40581        -6.76766
| 59>    C        9.94215         1.57855        -8.53286
| 60>    C        8.83981         1.98248        -7.75802
| 61>    C        8.53820         1.70404        -6.43307
| 62>    C        7.30196         2.19331        -6.03647
| 63>   Cl        6.70097         1.95660        -4.44967
| 64>    C        6.59366         2.86562        -7.03189
| 65>    S        7.55117         2.91372        -8.48715
| 66>    C        5.28057         3.37314        -6.95722
| 67>    C        4.51327         3.97753        -7.95141
| 68>   Cl        5.12681         4.30454        -9.51701
| 69>    C        3.21315         4.28764        -7.56383
| 70>    C        2.92590         3.90547        -6.26609
| 71>    S        4.33661         3.21863        -5.50768
| 72>    C        1.71229         4.10274        -5.56889
| 73>    C        1.31056         3.53932        -4.39526
| 74>    C        0.27778         4.21963        -3.56555
| 75>    O       -0.48269         5.08996        -3.92224
| 76>    C        0.44186         3.65149        -2.21246
| 77>    C       -0.15568         4.02634        -1.04371
| 78>    C        0.19025         3.35891         0.15294
| 79>    C        1.15393         2.30890         0.11558
| 80>    C        1.50186         1.65693         1.31457
| 81>    C        0.90972         2.04324         2.48472
| 82>    C       -0.04140         3.07108         2.54210
| 83>    C       -0.39171         3.71359         1.38733
| 84>    F        1.24354         1.42579         3.63229
| 85>    C        1.74759         1.93197        -1.11178
| 86>    C        1.39406         2.59178        -2.25687
| 87>    C        1.80882         2.40612        -3.64364
| 88>    C        2.31651         1.24640        -4.16825
| 89>    C        2.40795         1.00589        -5.55523
| 90>    N        2.44450         0.75863        -6.67553
| 91>    C        2.72984         0.14573        -3.39246
| 92>    N        3.10819        -0.76605        -2.80640
| 93>    H       -0.13023       -12.26376         2.37390
| 94>    H       -4.07533       -10.72392         1.85209
| 95>    H       -3.16025        -8.44411         1.49378
| 96>    H        1.80986       -10.77863         2.21494
| 97>    H       -1.22329        -6.92188         1.31315
| 98>    H        3.58705        -4.97477         0.60003
| 99>    H        5.36717        -8.44477         0.03516
|100>    H       10.39216        -2.96454        -2.81762
|101>    H       12.13545        -6.31276        -3.89474
|102>    H       13.72567        -5.50820        -5.80836
|103>    H       13.90308        -3.61784        -7.55050
|104>    H       13.35648        -1.49677        -8.99037
|105>    H       12.16069         0.58127        -9.93379
|106>    H       10.05671         2.04614        -9.50134
|107>    H        9.19151         1.19178        -5.75412
|108>    H        2.49238         4.74091        -8.21935
|109>    H        1.05275         4.86490        -5.97194
|110>    H       -0.88197         4.82515        -1.03008
|111>    H        2.22615         0.85753         1.30688
|112>    H       -0.47510         3.33233         3.49437
|113>    H       -1.12222         4.50833         1.40663
|114>    H        2.47884         1.13895        -1.11470
|115> *
|116>
|117>                          ****END OF INPUT****

CARTESIAN COORDINATES (ANGSTROEM)
---------------------------------
  C     -0.777950  -11.423350    2.178990
  C     -2.133710  -11.592080    2.127410
  F     -2.656050  -12.817850    2.316360
  C     -3.014790  -10.530440    1.881700
  C     -2.502230   -9.278290    1.685520
  C     -1.111970   -9.047810    1.725580
  C     -0.232500  -10.140470    1.979240
  C      1.166480   -9.933210    2.027980
  C      1.664820   -8.676220    1.820430
  C      0.781530   -7.591090    1.551830
  C     -0.571940   -7.759820    1.511320
  C      1.571430   -6.367540    1.316310
  O      1.166980   -5.244620    1.123610
  C      2.992240   -6.818880    1.305440
  C      3.034370   -8.165460    1.822760
  C      4.103420   -8.765040    2.438990
  C      5.335340   -8.113210    2.644160
  N      6.339910   -7.598470    2.852930
  C      4.056790  -10.051980    3.010220
  N      4.068820  -11.103260    3.471260
  C      3.926970   -5.996030    0.748920
  C      5.204700   -6.279330    0.225500
  C      5.813480   -7.478280   -0.108470
  C      7.046300   -7.308980   -0.726110
  Cl     8.007610   -8.627080   -1.248130
  C      7.431430   -5.977970   -0.896060
  S      6.206150   -4.934530   -0.249910
  C      8.573630   -5.471630   -1.553160
  C      8.895720   -4.135600   -1.788480
  Cl     7.976450   -2.827080   -1.178300
  C     10.017900   -3.942560   -2.584060
  C     10.613300   -5.126640   -2.988830
  S      9.765540   -6.495340   -2.307210
  C     11.681810   -5.331140   -3.883980
  C     12.112160   -4.424630   -4.821170
  C     13.118880   -4.619960   -5.803460
  C     13.214170   -3.619120   -6.724690
  C     12.290750   -2.570760   -6.521890
  S     11.342460   -2.872520   -5.083990
  C     12.001660   -1.453550   -7.282930
  C     12.537380   -0.996180   -8.505620
  C     11.903290    0.103390   -9.005060
  C     10.828630    0.579400   -8.208980
  S     10.699490   -0.405810   -6.767660
  C      9.942150    1.578550   -8.532860
  C      8.839810    1.982480   -7.758020
  C      8.538200    1.704040   -6.433070
  C      7.301960    2.193310   -6.036470
  Cl     6.700970    1.956600   -4.449670
  C      6.593660    2.865620   -7.031890
  S      7.551170    2.913720   -8.487150
  C      5.280570    3.373140   -6.957220
  C      4.513270    3.977530   -7.951410
  Cl     5.126810    4.304540   -9.517010
  C      3.213150    4.287640   -7.563830
  C      2.925900    3.905470   -6.266090
  S      4.336610    3.218630   -5.507680
  C      1.712290    4.102740   -5.568890
  C      1.310560    3.539320   -4.395260
  C      0.277780    4.219630   -3.565550
  O     -0.482690    5.089960   -3.922240
  C      0.441860    3.651490   -2.212460
  C     -0.155680    4.026340   -1.043710
  C      0.190250    3.358910    0.152940
  C      1.153930    2.308900    0.115580
  C      1.501860    1.656930    1.314570
  C      0.909720    2.043240    2.484720
  C     -0.041400    3.071080    2.542100
  C     -0.391710    3.713590    1.387330
  F      1.243540    1.425790    3.632290
  C      1.747590    1.931970   -1.111780
  C      1.394060    2.591780   -2.256870
  C      1.808820    2.406120   -3.643640
  C      2.316510    1.246400   -4.168250
  C      2.407950    1.005890   -5.555230
  N      2.444500    0.758630   -6.675530
  C      2.729840    0.145730   -3.392460
  N      3.108190   -0.766050   -2.806400
  H     -0.130230  -12.263760    2.373900
  H     -4.075330  -10.723920    1.852090
  H     -3.160250   -8.444110    1.493780
  H      1.809860  -10.778630    2.214940
  H     -1.223290   -6.921880    1.313150
  H      3.587050   -4.974770    0.600030
  H      5.367170   -8.444770    0.035160
  H     10.392160   -2.964540   -2.817620
  H     12.135450   -6.312760   -3.894740
  H     13.725670   -5.508200   -5.808360
  H     13.903080   -3.617840   -7.550500
  H     13.356480   -1.496770   -8.990370
  H     12.160690    0.581270   -9.933790
  H     10.056710    2.046140   -9.501340
  H      9.191510    1.191780   -5.754120
  H      2.492380    4.740910   -8.219350
  H      1.052750    4.864900   -5.971940
  H     -0.881970    4.825150   -1.030080
  H      2.226150    0.857530    1.306880
  H     -0.475100    3.332330    3.494370
  H     -1.122220    4.508330    1.406630
  H      2.478840    1.138950   -1.114700

 Total Charge           Charge          ....    0
 Multiplicity           Mult            ....    1
 Number of Electrons    NEL             ....  608
 Basis Dimension        Dim             .... 1242

ORBITAL ENERGIES
----------------

  NO   OCC          E(Eh)            E(eV)
   0   2.0000    -101.603709     -2764.7775
   1   2.0000    -101.601028     -2764.7045
   2   2.0000    -101.600692     -2764.6954
   3   2.0000    -101.599267     -2764.6566
   4   2.0000     -88.969967     -2420.9959
   5   2.0000     -88.968663     -2420.9604
   6   2.0000     -88.968616     -2420.9591
   7   2.0000     -88.967472     -2420.9280
   8   2.0000     -88.955543     -2420.6034
   9   2.0000     -88.955050     -2420.5900
  10   2.0000     -24.781837      -674.3481
  11   2.0000     -24.781824      -674.3477
  12   2.0000     -19.209105      -522.7063
  13   2.0000     -19.207127      -522.6525
  14   2.0000     -14.411574      -392.1589
  15   2.0000     -14.411042      -392.1444
  16   2.0000     -14.409793      -392.1104
  17   2.0000     -14.407801      -392.0562
  18   2.0000     -10.365554      -282.0611
  19   2.0000     -10.365223      -282.0521
  20   2.0000     -10.361689      -281.9559
  21   2.0000     -10.358837      -281.8783
  22   2.0000     -10.340044      -281.3669
  23   2.0000     -10.338661      -281.3293
  24   2.0000     -10.337924      -281.3092
  25   2.0000     -10.337874      -281.3079
  26   2.0000     -10.337079      -281.2862
  27   2.0000     -10.336743      -281.2771
  28   2.0000     -10.336471      -281.2697
  29   2.0000     -10.335738      -281.2497
  30   2.0000     -10.333618      -281.1921
  31   2.0000     -10.331896      -281.1452
  32   2.0000     -10.324935      -280.9558
  33   2.0000     -10.323828      -280.9256
  34   2.0000     -10.321926      -280.8739
  35   2.0000     -10.321404      -280.8597
  36   2.0000     -10.320956      -280.8475
  37   2.0000     -10.320876      -280.8453
  38   2.0000     -10.318549      -280.7820
  39   2.0000     -10.317596      -280.7561
  40   2.0000     -10.316192      -280.7179
  41   2.0000     -10.315867      -280.7090
  42   2.0000     -10.314065      -280.6600
  43   2.0000     -10.313810      -280.6530
  44   2.0000     -10.313748      -280.6513
  45   2.0000     -10.311602      -280.5930
  46   2.0000     -10.310475      -280.5623
  47   2.0000     -10.309990      -280.5491
  48   2.0000     -10.302277      -280.3392
  49   2.0000     -10.302050      -280.3330
  50   2.0000     -10.301555      -280.3196
  51   2.0000     -10.301106      -280.3073
  52   2.0000     -10.300271      -280.2846
  53   2.0000     -10.299582      -280.2659
  54   2.0000     -10.299446      -280.2622
  55   2.0000     -10.297998      -280.2228
  56   2.0000     -10.297601      -280.2120
  57   2.0000     -10.297402      -280.2066
  58   2.0000     -10.297262      -280.2028
  59   2.0000     -10.297069      -280.1975
  60   2.0000     -10.296844      -280.1914
  61   2.0000     -10.296367      -280.1784
  62   2.0000     -10.296165      -280.1729
  63   2.0000     -10.294683      -280.1326
  64   2.0000     -10.294133      -280.1176
  65   2.0000     -10.294039      -280.1150
  66   2.0000     -10.293495      -280.1002
  67   2.0000     -10.293450      -280.0990
  68   2.0000     -10.293369      -280.0968
  69   2.0000     -10.291078      -280.0345
  70   2.0000     -10.290639      -280.0225
  71   2.0000     -10.290165      -280.0096
  72   2.0000     -10.286774      -279.9174
  73   2.0000     -10.286331      -279.9053
  74   2.0000     -10.286248      -279.9030
  75   2.0000     -10.285048      -279.8704
  76   2.0000     -10.284774      -279.8629
  77   2.0000     -10.284505      -279.8556
  78   2.0000      -9.558455      -260.0988
  79   2.0000      -9.555766      -260.0256
  80   2.0000      -9.555515      -260.0188
  81   2.0000      -9.554021      -259.9781
  82   2.0000      -8.064333      -219.4417
  83   2.0000      -8.063756      -219.4259
  84   2.0000      -8.063453      -219.4177
  85   2.0000      -8.062393      -219.3889
  86   2.0000      -8.051755      -219.0994
  87   2.0000      -8.051309      -219.0873
  88   2.0000      -7.328506      -199.4188
  89   2.0000      -7.325893      -199.3477
  90   2.0000      -7.325593      -199.3395
  91   2.0000      -7.324161      -199.3005
  92   2.0000      -7.318614      -199.1496
  93   2.0000      -7.318414      -199.1442
  94   2.0000      -7.315841      -199.0742
  95   2.0000      -7.315778      -199.0724
  96   2.0000      -7.315627      -199.0683
  97   2.0000      -7.315475      -199.0642
  98   2.0000      -7.314067      -199.0259
  99   2.0000      -7.314028      -199.0248
 100   2.0000      -6.033899      -164.1907
 101   2.0000      -6.033168      -164.1708
 102   2.0000      -6.033002      -164.1663
 103   2.0000      -6.031914      -164.1367
 104   2.0000      -6.029469      -164.0702
 105   2.0000      -6.028838      -164.0530
 106   2.0000      -6.028734      -164.0502
 107   2.0000      -6.027653      -164.0208
 108   2.0000      -6.026058      -163.9774
 109   2.0000      -6.025598      -163.9648
 110   2.0000      -6.025099      -163.9513
 111   2.0000      -6.024052      -163.9228
 112   2.0000      -6.021540      -163.8544
 113   2.0000      -6.021098      -163.8424
 114   2.0000      -6.017293      -163.7389
 115   2.0000      -6.016862      -163.7271
 116   2.0000      -6.012712      -163.6142
 117   2.0000      -6.012228      -163.6010
 118   2.0000      -1.296759       -35.2866
 119   2.0000      -1.296607       -35.2825
 120   2.0000      -1.124600       -30.6019
 121   2.0000      -1.122935       -30.5566
 122   2.0000      -1.029787       -28.0219
 123   2.0000      -1.027860       -27.9695
 124   2.0000      -1.014522       -27.6065
 125   2.0000      -1.013819       -27.5874
 126   2.0000      -1.009071       -27.4582
 127   2.0000      -1.004949       -27.3460
 128   2.0000      -1.002635       -27.2831
 129   2.0000      -0.995850       -27.0984
 130   2.0000      -0.995387       -27.0859
 131   2.0000      -0.988681       -26.9034
 132   2.0000      -0.988026       -26.8855
 133   2.0000      -0.985084       -26.8055
 134   2.0000      -0.973065       -26.4784
 135   2.0000      -0.971847       -26.4453
 136   2.0000      -0.962872       -26.2011
 137   2.0000      -0.961267       -26.1574
 138   2.0000      -0.953885       -25.9565
 139   2.0000      -0.952075       -25.9073
 140   2.0000      -0.923427       -25.1277
 141   2.0000      -0.922851       -25.1120
 142   2.0000      -0.910492       -24.7758
 143   2.0000      -0.904451       -24.6114
 144   2.0000      -0.899151       -24.4671
 145   2.0000      -0.892243       -24.2792
 146   2.0000      -0.884851       -24.0780
 147   2.0000      -0.882545       -24.0153
 148   2.0000      -0.879140       -23.9226
 149   2.0000      -0.873252       -23.7624
 150   2.0000      -0.864454       -23.5230
 151   2.0000      -0.854083       -23.2408
 152   2.0000      -0.851625       -23.1739
 153   2.0000      -0.834577       -22.7100
 154   2.0000      -0.831193       -22.6179
 155   2.0000      -0.830817       -22.6077
 156   2.0000      -0.830326       -22.5943
 157   2.0000      -0.827793       -22.5254
 158   2.0000      -0.826471       -22.4894
 159   2.0000      -0.820276       -22.3209
 160   2.0000      -0.816592       -22.2206
 161   2.0000      -0.806361       -21.9422
 162   2.0000      -0.790491       -21.5103
 163   2.0000      -0.778015       -21.1709
 164   2.0000      -0.766361       -20.8538
 165   2.0000      -0.756673       -20.5901
 166   2.0000      -0.754409       -20.5285
 167   2.0000      -0.743008       -20.2183
 168   2.0000      -0.726989       -19.7824
 169   2.0000      -0.725060       -19.7299
 170   2.0000      -0.710155       -19.3243
 171   2.0000      -0.705349       -19.1935
 172   2.0000      -0.705073       -19.1860
 173   2.0000      -0.704439       -19.1688
 174   2.0000      -0.701396       -19.0860
 175   2.0000      -0.681141       -18.5348
 176   2.0000      -0.678486       -18.4625
 177   2.0000      -0.675990       -18.3946
 178   2.0000      -0.674505       -18.3542
 179   2.0000      -0.670272       -18.2390
 180   2.0000      -0.667878       -18.1739
 181   2.0000      -0.656520       -17.8648
 182   2.0000      -0.648379       -17.6433
 183   2.0000      -0.639959       -17.4142
 184   2.0000      -0.634918       -17.2770
 185   2.0000      -0.632495       -17.2111
 186   2.0000      -0.631912       -17.1952
 187   2.0000      -0.629974       -17.1425
 188   2.0000      -0.628440       -17.1007
 189   2.0000      -0.625538       -17.0217
 190   2.0000      -0.624685       -16.9985
 191   2.0000      -0.619049       -16.8452
 192   2.0000      -0.616184       -16.7672
 193   2.0000      -0.611008       -16.6264
 194   2.0000      -0.599841       -16.3225
 195   2.0000      -0.592148       -16.1132
 196   2.0000      -0.590587       -16.0707
 197   2.0000      -0.587404       -15.9841
 198   2.0000      -0.580246       -15.7893
 199   2.0000      -0.576591       -15.6898
 200   2.0000      -0.573188       -15.5972
 201   2.0000      -0.562235       -15.2992
 202   2.0000      -0.562141       -15.2966
 203   2.0000      -0.554479       -15.0881
 204   2.0000      -0.554293       -15.0831
 205   2.0000      -0.553328       -15.0568
 206   2.0000      -0.552174       -15.0254
 207   2.0000      -0.549498       -14.9526
 208   2.0000      -0.548579       -14.9276
 209   2.0000      -0.545102       -14.8330
 210   2.0000      -0.542779       -14.7698
 211   2.0000      -0.541121       -14.7247
 212   2.0000      -0.540106       -14.6970
 213   2.0000      -0.532815       -14.4986
 214   2.0000      -0.529732       -14.4147
 215   2.0000      -0.528050       -14.3690
 216   2.0000      -0.527059       -14.3420
 217   2.0000      -0.525783       -14.3073
 218   2.0000      -0.520342       -14.1592
 219   2.0000      -0.519772       -14.1437
 220   2.0000      -0.519103       -14.1255
 221   2.0000      -0.518175       -14.1003
 222   2.0000      -0.517159       -14.0726
 223   2.0000      -0.516159       -14.0454
 224   2.0000      -0.514838       -14.0095
 225   2.0000      -0.510807       -13.8998
 226   2.0000      -0.507395       -13.8069
 227   2.0000      -0.506323       -13.7777
 228   2.0000      -0.502605       -13.6766
 229   2.0000      -0.500050       -13.6070
 230   2.0000      -0.499391       -13.5891
 231   2.0000      -0.497372       -13.5342
 232   2.0000      -0.496972       -13.5233
 233   2.0000      -0.494702       -13.4615
 234   2.0000      -0.492777       -13.4092
 235   2.0000      -0.489748       -13.3267
 236   2.0000      -0.488658       -13.2971
 237   2.0000      -0.485439       -13.2095
 238   2.0000      -0.484194       -13.1756
 239   2.0000      -0.479865       -13.0578
 240   2.0000      -0.477647       -12.9974
 241   2.0000      -0.476394       -12.9633
 242   2.0000      -0.472210       -12.8495
 243   2.0000      -0.469814       -12.7843
 244   2.0000      -0.466448       -12.6927
 245   2.0000      -0.462054       -12.5731
 246   2.0000      -0.459568       -12.5055
 247   2.0000      -0.458246       -12.4695
 248   2.0000      -0.454174       -12.3587
 249   2.0000      -0.453208       -12.3324
 250   2.0000      -0.453005       -12.3269
 251   2.0000      -0.451880       -12.2963
 252   2.0000      -0.446504       -12.1500
 253   2.0000      -0.445160       -12.1134
 254   2.0000      -0.443336       -12.0638
 255   2.0000      -0.441930       -12.0255
 256   2.0000      -0.440029       -11.9738
 257   2.0000      -0.439297       -11.9539
 258   2.0000      -0.438371       -11.9287
 259   2.0000      -0.437198       -11.8968
 260   2.0000      -0.435958       -11.8630
 261   2.0000      -0.434853       -11.8330
 262   2.0000      -0.434065       -11.8115
 263   2.0000      -0.432907       -11.7800
 264   2.0000      -0.431156       -11.7323
 265   2.0000      -0.425433       -11.5766
 266   2.0000      -0.423402       -11.5214
 267   2.0000      -0.423138       -11.5142
 268   2.0000      -0.421484       -11.4692
 269   2.0000      -0.421281       -11.4636
 270   2.0000      -0.415019       -11.2932
 271   2.0000      -0.414128       -11.2690
 272   2.0000      -0.407729       -11.0949
 273   2.0000      -0.405827       -11.0431
 274   2.0000      -0.403589       -10.9822
 275   2.0000      -0.402657       -10.9569
 276   2.0000      -0.396574       -10.7913
 277   2.0000      -0.390977       -10.6390
 278   2.0000      -0.386114       -10.5067
 279   2.0000      -0.384189       -10.4543
 280   2.0000      -0.380411       -10.3515
 281   2.0000      -0.377072       -10.2607
 282   2.0000      -0.374639       -10.1945
 283   2.0000      -0.372380       -10.1330
 284   2.0000      -0.370170       -10.0728
 285   2.0000      -0.365403        -9.9431
 286   2.0000      -0.351794        -9.5728
 287   2.0000      -0.350266        -9.5312
 288   2.0000      -0.335863        -9.1393
 289   2.0000      -0.333135        -9.0651
 290   2.0000      -0.330446        -8.9919
 291   2.0000      -0.328349        -8.9348
 292   2.0000      -0.327186        -8.9032
 293   2.0000      -0.324856        -8.8398
 294   2.0000      -0.319255        -8.6874
 295   2.0000      -0.317440        -8.6380
 296   2.0000      -0.312152        -8.4941
 297   2.0000      -0.308594        -8.3973
 298   2.0000      -0.305004        -8.2996
 299   2.0000      -0.294786        -8.0215
 300   2.0000      -0.293262        -7.9801
 301   2.0000      -0.275498        -7.4967
 302   2.0000      -0.256109        -6.9691
 303   2.0000      -0.219153        -5.9635
 304   0.0000      -0.105258        -2.8642
 305   0.0000      -0.092561        -2.5187
 306   0.0000      -0.079506        -2.1635
 307   0.0000      -0.052957        -1.4410
 308   0.0000      -0.050172        -1.3653

MULLIKEN ATOMIC CHARGES
-----------------------
   0 C :   -0.096243
   1 C :    0.302488
   2 F :   -0.191423
   3 C :   -0.034177
   4 C :   -0.008212
   5 C :    0.097552
   6 C :    0.100074
   7 C :   -0.084391
   8 C :    0.040607
   9 C :    0.009727
  10 C :   -0.078030
  11 C :    0.139332
  12 O :   -0.142922
  13 C :   -0.146588
  14 C :    0.265314
  15 C :   -0.339354
  16 C :   -0.210543
  17 N :    0.176962
  18 C :   -0.173702
  19 N :    0.154165
  20 C :    0.101187
  21 C :   -0.098532
  22 C :    0.053383
  23 C :    0.046065
  24 Cl:   -0.058326
  25 C :   -0.071299
  26 S :    0.180555
  27 C :   -0.100045
  28 C :    0.061337
  29 Cl:   -0.048181
  30 C :    0.007379
  31 C :   -0.090868
  32 S :    0.160695
  33 C :    0.050939
  34 C :   -0.035395
  35 C :    0.039481
  36 C :    0.034023
  37 C :   -0.037234
  38 S :    0.058992
  39 C :   -0.036707
  40 C :    0.035698
  41 C :    0.038648
  42 C :   -0.032267
  43 S :    0.054971
  44 C :    0.050169
  45 C :   -0.084816
  46 C :    0.004145
  47 C :    0.063790
  48 Cl:   -0.050522
  49 C :   -0.099211
  50 S :    0.158232
  51 C :   -0.067069
  52 C :    0.066212
  53 Cl:   -0.063117
  54 C :    0.056025
  55 C :   -0.085276
  56 S :    0.152403
  57 C :    0.071989
  58 C :   -0.143693
  59 C :    0.143010
  60 O :   -0.146218
  61 C :    0.007730
  62 C :   -0.083661
  63 C :    0.102361
  64 C :    0.104401
  65 C :   -0.098889
  66 C :    0.302533
  67 C :   -0.029148
  68 C :   -0.012709
  69 F :   -0.189983
  70 C :   -0.087210
  71 C :    0.042224
  72 C :    0.246778
  73 C :   -0.319529
  74 C :   -0.206396
  75 N :    0.171668
  76 C :   -0.172254
  77 N :    0.152798
  78 H :   -0.002601
  79 H :    0.003813
  80 H :   -0.009281
  81 H :   -0.005753
  82 H :   -0.011607
  83 H :    0.026585
  84 H :   -0.003195
  85 H :    0.002684
  86 H :   -0.008568
  87 H :   -0.005065
  88 H :   -0.007527
  89 H :   -0.008117
  90 H :   -0.007795
  91 H :   -0.012444
  92 H :    0.000809
  93 H :   -0.006208
  94 H :    0.023694
  95 H :   -0.010999
  96 H :   -0.000973
  97 H :    0.002488
  98 H :   -0.008433
  99 H :   -0.003407
Sum of atomic charges:   -0.0000000

LOEWDIN ATOMIC CHARGES
----------------------
   0 C :   -0.042708
   1 C :    0.092524
   2 F :   -0.065927
   3 C :   -0.038295
   4 C :    0.004541
   5 C :   -0.019062
   6 C :    0.003083
   7 C :    0.009371
   8 C :   -0.016549
   9 C :   -0.058484
  10 C :    0.033818
  11 C :    0.082575
  12 O :   -0.144087
  13 C :   -0.096991
  14 C :    0.065820
  15 C :   -0.143660
  16 C :   -0.021207
  17 N :   -0.040798
  18 C :   -0.020513
  19 N :   -0.053809
  20 C :    0.049381
  21 C :   -0.188026
  22 C :   -0.026081
  23 C :   -0.171039
  24 Cl:    0.162288
  25 C :   -0.183624
  26 S :    0.479781
  27 C :   -0.215640
  28 C :   -0.157187
  29 Cl:    0.173202
  30 C :   -0.085236
  31 C :   -0.165891
  32 S :    0.449896
  33 C :   -0.071371
  34 C :   -0.139089
  35 C :   -0.026602
  36 C :   -0.031749
  37 C :   -0.173767
  38 S :    0.394457
  39 C :   -0.177024
  40 C :   -0.030488
  41 C :   -0.028819
  42 C :   -0.137343
  43 S :    0.395713
  44 C :   -0.076401
  45 C :   -0.161549
  46 C :   -0.086911
  47 C :   -0.154720
  48 Cl:    0.171673
  49 C :   -0.217460
  50 S :    0.448761
  51 C :   -0.177459
  52 C :   -0.177667
  53 Cl:    0.158613
  54 C :   -0.024372
  55 C :   -0.188590
  56 S :    0.483206
  57 C :    0.052222
  58 C :   -0.099026
  59 C :    0.082781
  60 O :   -0.147336
  61 C :   -0.059251
  62 C :    0.033394
  63 C :   -0.019076
  64 C :    0.003784
  65 C :   -0.041955
  66 C :    0.093245
  67 C :   -0.037547
  68 C :    0.003969
  69 F :   -0.064544
  70 C :    0.009301
  71 C :   -0.015864
  72 C :    0.058020
  73 C :   -0.142075
  74 C :   -0.037378
  75 N :   -0.047944
  76 C :   -0.019274
  77 N :   -0.052996
  78 H :    0.042839
  79 H :    0.041657
  80 H :    0.035609
  81 H :    0.038630
  82 H :    0.039683
  83 H :    0.047418
  84 H :    0.036959
  85 H :    0.021893
  86 H :    0.035836
  87 H :    0.035845
  88 H :    0.034342
  89 H :    0.034378
  90 H :    0.035136
  91 H :    0.035067
  92 H :    0.019943
  93 H :    0.039730
  94 H :    0.051259
  95 H :    0.039443
  96 H :    0.043360
  97 H :    0.041480
  98 H :    0.035494
  99 H :    0.039036

  Mayer bond orders larger than 0.100000
B(  0-C ,  1-C ) :   1.4422 B(  0-C ,  6-C ) :   1.2031 B(  0-C , 78-H ) :   1.0057
B(  1-C ,  2-F ) :   1.0879 B(  1-C ,  3-C ) :   1.2551 B(  3-C ,  4-C ) :   1.4598
B(  3-C , 79-H ) :   0.9935 B(  4-C ,  5-C ) :   1.2373 B(  4-C , 80-H ) :   0.9963
B(  5-C ,  6-C ) :   1.2564 B(  5-C , 10-C ) :   1.1894 B(  6-C ,  7-C ) :   1.2032
B(  7-C ,  8-C ) :   1.4657 B(  7-C , 81-H ) :   0.9946 B(  8-C ,  9-C ) :   1.2176
B(  8-C , 14-C ) :   0.9940 B(  9-C , 10-C ) :   1.4784 B(  9-C , 11-C ) :   0.9186
B( 10-C , 82-H ) :   1.0143 B( 11-C , 12-O ) :   2.2653 B( 11-C , 13-C ) :   0.9449
B( 13-C , 14-C ) :   1.0508 B( 13-C , 20-C ) :   1.6398 B( 14-C , 15-C ) :   1.6394
B( 15-C , 16-C ) :   1.1655 B( 15-C , 18-C ) :   1.1328 B( 16-C , 17-N ) :   3.0038
B( 18-C , 19-N ) :   2.9875 B( 20-C , 21-C ) :   1.1610 B( 20-C , 83-H ) :   0.9242
B( 21-C , 22-C ) :   1.3971 B( 21-C , 26-S ) :   1.0909 B( 22-C , 23-C ) :   1.3463
B( 22-C , 84-H ) :   0.9933 B( 23-C , 24-Cl) :   1.0370 B( 23-C , 25-C ) :   1.4157
B( 25-C , 26-S ) :   1.1654 B( 25-C , 27-C ) :   1.2014 B( 27-C , 28-C ) :   1.4379
B( 27-C , 32-S ) :   1.1213 B( 28-C , 29-Cl) :   1.0465 B( 28-C , 30-C ) :   1.3142
B( 30-C , 31-C ) :   1.4253 B( 30-C , 85-H ) :   0.9795 B( 31-C , 32-S ) :   1.0969
B( 31-C , 33-C ) :   1.1553 B( 33-C , 34-C ) :   1.6014 B( 33-C , 86-H ) :   0.9579
B( 34-C , 35-C ) :   1.1432 B( 34-C , 38-S ) :   1.0440 B( 35-C , 36-C ) :   1.5959
B( 35-C , 87-H ) :   0.9969 B( 36-C , 37-C ) :   1.1868 B( 36-C , 88-H ) :   0.9945
B( 37-C , 38-S ) :   1.0449 B( 37-C , 39-C ) :   1.5042 B( 39-C , 40-C ) :   1.1889
B( 39-C , 43-S ) :   1.0419 B( 40-C , 41-C ) :   1.5909 B( 40-C , 89-H ) :   0.9946
B( 41-C , 42-C ) :   1.1486 B( 41-C , 90-H ) :   0.9973 B( 42-C , 43-S ) :   1.0478
B( 42-C , 44-C ) :   1.5880 B( 44-C , 45-C ) :   1.1693 B( 44-C , 91-H ) :   0.9571
B( 45-C , 46-C ) :   1.4194 B( 45-C , 50-S ) :   1.0963 B( 46-C , 47-C ) :   1.3194
B( 46-C , 92-H ) :   0.9781 B( 47-C , 48-Cl) :   1.0460 B( 47-C , 49-C ) :   1.4304
B( 49-C , 50-S ) :   1.1161 B( 49-C , 51-C ) :   1.2162 B( 51-C , 52-C ) :   1.4161
B( 51-C , 56-S ) :   1.1535 B( 52-C , 53-Cl) :   1.0277 B( 52-C , 54-C ) :   1.3055
B( 54-C , 55-C ) :   1.4074 B( 54-C , 93-H ) :   1.0075 B( 55-C , 56-S ) :   1.0868
B( 55-C , 57-C ) :   1.1511 B( 57-C , 58-C ) :   1.6296 B( 57-C , 94-H ) :   0.9495
B( 58-C , 59-C ) :   0.9423 B( 58-C , 72-C ) :   1.0339 B( 59-C , 60-O ) :   2.2697
B( 59-C , 61-C ) :   0.9194 B( 61-C , 62-C ) :   1.4731 B( 61-C , 71-C ) :   1.2181
B( 62-C , 63-C ) :   1.1927 B( 62-C , 95-H ) :   1.0157 B( 63-C , 64-C ) :   1.2556
B( 63-C , 68-C ) :   1.2339 B( 64-C , 65-C ) :   1.2032 B( 64-C , 70-C ) :   1.2011
B( 65-C , 66-C ) :   1.4414 B( 65-C , 96-H ) :   1.0070 B( 66-C , 67-C ) :   1.2547
B( 66-C , 69-F ) :   1.0892 B( 67-C , 68-C ) :   1.4607 B( 67-C , 97-H ) :   0.9930
B( 68-C , 98-H ) :   0.9978 B( 70-C , 71-C ) :   1.4657 B( 70-C , 99-H ) :   0.9961
B( 71-C , 72-C ) :   1.0026 B( 72-C , 73-C ) :   1.6553 B( 73-C , 74-C ) :   1.1470
B( 73-C , 76-C ) :   1.1406 B( 74-C , 75-N ) :   3.0301 B( 76-C , 77-N ) :   2.9866

-----------------------------------------------------------------------------
         ABSORPTION SPECTRUM VIA TRANSITION ELECTRIC DIPOLE MOMENTS
-----------------------------------------------------------------------------
State   Energy  Wavelength   fosc         T2         TX        TY        TZ
        (cm-1)    (nm)                  (au**2)     (au)      (au)      (au)
-----------------------------------------------------------------------------
   0   11330.7    882.6   0.724406855  21.04759  -1.12751   3.98307  -1.97774
   1   15651.5    638.9   1.116719926  23.48901   3.67278   1.45518  -2.80752
   2   18574.2    538.4   0.247593434   4.38838  -1.24648   1.46023  -0.83810
   3   19343.8    517.0   0.849760989  14.46204   3.05776   0.75993  -2.12946
   4   21958.6    455.4   0.032455905   0.48659  -0.68149   0.13863  -0.05422
   5   24370.6    410.3   0.357875846   4.83438   2.02917  -0.25865  -0.80619
   6   24891.5    401.7   0.273889120   3.62242  -1.41318   1.25092   0.24611
   7   24931.8    401.1   0.084168342   1.11140  -0.70768  -0.56223   0.54267
   8   25730.3    388.6   0.050609758   0.64754  -0.78242   0.11489   0.14884
   9   26708.0    374.4   0.089996391   1.10933  -0.52256   0.09266   0.90977
  10   27296.2    366.4   0.067957236   0.81961   0.89588  -0.11334   0.06452
  11   27663.3    361.5   0.000710956   0.00846  -0.05848  -0.06631   0.02539
  12   27729.6    360.6   0.072632771   0.86231   0.27944  -0.68402  -0.56244
  13   28293.9    353.4   0.039981515   0.46520  -0.29914  -0.05216   0.61073
  14   28587.9    349.8   0.108622877   1.25088   1.10262  -0.13207   0.13291
  15   29594.9    337.9   0.066407411   0.73871   0.26392  -0.07691  -0.81434
  16   29870.8    334.8   0.062573311   0.68963   0.62193   0.10096  -0.54097
  17   30163.4    331.5   0.053101548   0.57957  -0.54699   0.11273  -0.51736
  18   30386.8    329.1   0.055641594   0.60282  -0.44940  -0.11459   0.62268
  19   30578.5    327.0   0.075951767   0.81771  -0.07987  -0.56089   0.70479
  20   31038.4    322.2   0.017183360   0.18226   0.29715  -0.20728  -0.22583
  21   31208.3    320.4   0.044474517   0.46916  -0.02662  -0.66795  -0.14928
  22   31701.0    315.4   0.002417590   0.02511   0.14880  -0.05051  -0.02034
  23   31768.2    314.8   0.193540908   2.00565   0.86764  -0.66673  -0.89907
  24   32137.1    311.2   0.165282363   1.69315  -1.21281  -0.00346  -0.47141
  25   32457.9    308.1   0.047858957   0.48542   0.57508   0.26875  -0.28719
  26   32735.0    305.5   0.214759360   2.15981   1.18638   0.17008  -0.85052
  27   33161.7    301.6   0.026203533   0.26014  -0.38170   0.02045   0.33767
  28   33371.3    299.7   0.104723582   1.03311   0.63280   0.78052   0.15320
  29   33601.4    297.6   0.072486679   0.71019   0.70311   0.05417   0.46140
  30   33671.1    297.0   0.179462412   1.75465   1.15092  -0.07625  -0.65133
  31   34086.4    293.4   0.191298672   1.84759  -0.04913   0.28198   1.32878
  32   34308.5    291.5   0.008760875   0.08407  -0.01418   0.27476  -0.09151
  33   34639.6    288.7   0.191209618   1.81724   0.66680   0.09854   1.16744
  34   34957.7    286.1   0.112141762   1.05609   0.72866   0.62474  -0.36720
  35   35135.0    284.6   0.081977760   0.76812   0.78938   0.31039  -0.22059
  36   35267.2    283.5   0.013938697   0.13011  -0.15330   0.31887   0.07025
  37   35391.9    282.6   0.110742426   1.03011   0.73524   0.37150   0.59289
  38   35620.1    280.7   0.041107965   0.37993  -0.09479   0.60600  -0.06090
  39   35884.9    278.7   0.030204176   0.27710  -0.04900  -0.02359  -0.52358
  40   36060.1    277.3   0.138037975   1.26022   0.04770  -0.33567   1.07017
  41   36105.2    277.0   0.033293349   0.30357   0.24923   0.38372  -0.30695
  42   36452.0    274.3   0.166699622   1.50553  -0.56148   0.46749   0.98576
  43   36735.1    272.2   0.053175245   0.47654  -0.56782   0.25802   0.29588
  44   36982.5    270.4   0.214787342   1.91200  -1.30200  -0.39401   0.24810
  45   37141.2    269.2   0.089322252   0.79173  -0.78915   0.27282   0.30748
  46   37595.1    266.0   0.009300533   0.08144   0.07467   0.04961   0.27094
  47   37763.7    264.8   0.025322948   0.22076   0.36212  -0.27837   0.11016
  48   37905.7    263.8   0.009592595   0.08331   0.17738   0.22404   0.04064
  49   38065.5    262.7   0.009147160   0.07911   0.23944  -0.00682   0.14741
  50   38351.9    260.7   0.026351488   0.22620  -0.34774  -0.29923  -0.12546
  51   38477.8    259.9   0.052256833   0.44710  -0.36902   0.47869   0.28599
  52   38799.6    257.7   0.104420888   0.88600   0.31621  -0.58750  -0.66397
  53   39000.6    256.4   0.131115277   1.10677   0.85588  -0.58426   0.18135
  54   39110.2    255.7   0.010401325   0.08755   0.16826  -0.00861   0.24324
  55   39364.4    254.0   0.022192007   0.18560  -0.20417   0.36858   0.08979
  56   39618.9    252.4   0.008747075   0.07268   0.23709  -0.06569   0.11025
  57   40018.4    249.9   0.032421578   0.26672  -0.14650   0.49510  -0.01127
  58   40133.3    249.2   0.122236359   1.00270  -0.51401   0.77035  -0.38086

FINAL SINGLE POINT ENERGY     -7093.713450568372

DIPOLE MOMENT
-------------
                                X             Y             Z
Electronic contribution:     10.04155       4.30511      -2.85918
Nuclear contribution   :     -8.46003      -2.77190       0.59223
                        -----------------------------------------
Total Dipole Moment    :      1.58151       1.53320      -2.26695
                        -----------------------------------------
Magnitude (a.u.)       :      3.16085
Magnitude (Debye)      :      8.03424

Rotational constants in cm-1:     0.000608     0.000357     0.000249
Rotational constants in MHz :    18.212891    10.705073     7.454807

                             ****ORCA TERMINATED NORMALLY****
TOTAL RUN TIME: 0 days 0 hours 22 minutes 33 seconds 932 msec
