                         Program Version 4.2.0 -  RELEASE  -
|  1> # ORCA input file
|  2> # SCF done       -176.049500513794          0.000495718721
|  3> ! CAM-B3LYP def2-SVP def2/J RIJCOSX Grid4 TightSCF
|  4> %maxcore 5000
|  5> %tddft
|  6>     Mode sTDDFT
|  7>     Ethresh 5.0
|  8>     maxcore 5000
|  9> end
| 10>
| 11> %pal
| 12>   nprocs 6
| 13>   end
| 14> * xyz 0 1
| 15>    C       -0.61454        -0.42539        -1.70944
| 16>    C       -0.99689        -0.54163        -0.39849
| 17>    C       -0.51344         0.28361         0.63966
| 18>    N       -0.15692         0.92476         1.52144
| 19>    C       -1.99028        -1.42940         0.05904
| 20>    N       -2.81256        -2.11297         0.47732
| 21>    C        0.21487         0.65620        -2.23981
| 22>    C       -0.00177         0.75888        -3.62615
| 23>    C        0.62067         1.72832        -4.38592
| 24>    C        1.48922         2.60719        -3.75009
| 25>    C        1.72419         2.49854        -2.37407
| 26>    C        1.08731         1.52649        -1.60954
| 27>   Cl        2.81519         3.57843        -1.60770
| 28>   Cl        2.28038         3.82844        -4.66039
| 29>    C       -0.93171        -0.30519        -4.05903
| 30>    O       -1.38376        -0.49828        -5.16295
| 31>    C       -1.15880        -1.13820        -2.84560
| 32>    C       -1.73040        -2.36787        -2.99668
| 33>    C       -1.71713        -3.46495        -2.11279
| 34>    C       -0.86369        -3.71936        -1.04701
| 35>    C       -1.15403        -4.91893        -0.41506
| 36>    C       -2.24019        -5.60404        -1.00321
| 37>    S       -2.87345        -4.77503        -2.34720
| 38>    C       -2.47771        -6.78219        -0.25949
| 39>    C       -1.55212        -6.84348         0.80223
| 40>    C       -0.68148        -5.67991         0.72591
| 41>    C        0.36212        -5.36095         1.54476
| 42>    C        0.76611        -6.20717         2.59602
| 43>    N        1.10185        -6.91475         3.43337
| 44>    C        1.10461        -4.17493         1.36583
| 45>    N        1.69875        -3.20712         1.20757
| 46>    C       -1.73919        -7.95412         1.61803
| 47>    C       -2.78533        -8.75600         1.18238
| 48>    S       -3.55291        -8.10883        -0.26228
| 49>    C       -3.21696        -9.95544         1.79475
| 50>    C       -4.14614       -10.78968         1.26252
| 51>    C       -4.60420       -12.00825         1.84122
| 52>    C       -4.33387       -12.39796         3.13635
| 53>    C       -4.73531       -13.59579         3.71497
| 54>    C       -5.56460       -14.54565         2.96350
| 55>    C       -5.96925       -14.36131         1.68467
| 56>    S       -5.55880       -12.99115         0.74727
| 57>    C       -5.83618       -15.61635         3.85781
| 58>    C       -5.22858       -15.36395         5.08722
| 59>    C       -5.46293       -16.39841         6.01892
| 60>    C       -6.22749       -17.38596         5.48318
| 61>    S       -6.69075       -17.10674         3.83855
| 62>    C       -4.52167       -14.10907         5.02229
| 63>    C       -3.80210       -13.59246         6.11320
| 64>    C       -2.98291       -12.49452         6.13663
| 65>    C       -2.37318       -12.03719         7.31067
| 66>    C       -1.61563       -10.89003         7.39054
| 67>    C       -0.96490       -10.37229         8.57354
| 68>    C       -0.91324       -10.95169         9.81666
| 69>    C       -0.25300       -10.38663        10.92777
| 70>    N        0.26121        -9.98867        11.87394
| 71>    C       -1.49524       -12.18453        10.17614
| 72>    N       -1.93453       -13.17737        10.55240
| 73>    C       -0.34373        -9.09891         8.21312
| 74>    C       -0.58374        -8.84630         6.85091
| 75>    C       -1.38099        -9.95009         6.27672
| 76>    O       -1.76863       -10.02885         5.12311
| 77>    C       -0.11879        -7.70461         6.23247
| 78>    C        0.60014        -6.78744         6.98921
| 79>    C        0.84635        -7.03307         8.34356
| 80>    C        0.37981        -8.18781         8.96347
| 81>   Cl        1.73885        -5.89524         9.26893
| 82>   Cl        1.18068        -5.34791         6.25596
| 83>    H        0.43574         1.80063        -5.44596
| 84>    H        1.29540         1.46440        -0.55375
| 85>    H       -2.20217        -2.53270        -3.96074
| 86>    H       -0.04761        -3.07125        -0.78439
| 87>    H       -1.15799        -8.19905         2.48839
| 88>    H       -2.72911       -10.17989         2.73331
| 89>    H       -4.56322       -10.54460         0.29271
| 90>    H       -3.78758       -11.68619         3.73184
| 91>    H       -6.58335       -15.08026         1.16555
| 92>    H       -5.09227       -16.41915         7.02742
| 93>    H       -6.56062       -18.28817         5.95777
| 94>    H       -3.91754       -14.14251         7.04088
| 95>    H       -2.77165       -11.94170         5.23971
| 96>    H       -2.53428       -12.61675         8.21001
| 97>    H       -0.29027        -7.52862         5.18270
| 98>    H        0.58997        -8.34183        10.00893
| 99> *
|100>
|101>                          ****END OF INPUT****

CARTESIAN COORDINATES (ANGSTROEM)
---------------------------------
  C     -0.614540   -0.425390   -1.709440
  C     -0.996890   -0.541630   -0.398490
  C     -0.513440    0.283610    0.639660
  N     -0.156920    0.924760    1.521440
  C     -1.990280   -1.429400    0.059040
  N     -2.812560   -2.112970    0.477320
  C      0.214870    0.656200   -2.239810
  C     -0.001770    0.758880   -3.626150
  C      0.620670    1.728320   -4.385920
  C      1.489220    2.607190   -3.750090
  C      1.724190    2.498540   -2.374070
  C      1.087310    1.526490   -1.609540
  Cl     2.815190    3.578430   -1.607700
  Cl     2.280380    3.828440   -4.660390
  C     -0.931710   -0.305190   -4.059030
  O     -1.383760   -0.498280   -5.162950
  C     -1.158800   -1.138200   -2.845600
  C     -1.730400   -2.367870   -2.996680
  C     -1.717130   -3.464950   -2.112790
  C     -0.863690   -3.719360   -1.047010
  C     -1.154030   -4.918930   -0.415060
  C     -2.240190   -5.604040   -1.003210
  S     -2.873450   -4.775030   -2.347200
  C     -2.477710   -6.782190   -0.259490
  C     -1.552120   -6.843480    0.802230
  C     -0.681480   -5.679910    0.725910
  C      0.362120   -5.360950    1.544760
  C      0.766110   -6.207170    2.596020
  N      1.101850   -6.914750    3.433370
  C      1.104610   -4.174930    1.365830
  N      1.698750   -3.207120    1.207570
  C     -1.739190   -7.954120    1.618030
  C     -2.785330   -8.756000    1.182380
  S     -3.552910   -8.108830   -0.262280
  C     -3.216960   -9.955440    1.794750
  C     -4.146140  -10.789680    1.262520
  C     -4.604200  -12.008250    1.841220
  C     -4.333870  -12.397960    3.136350
  C     -4.735310  -13.595790    3.714970
  C     -5.564600  -14.545650    2.963500
  C     -5.969250  -14.361310    1.684670
  S     -5.558800  -12.991150    0.747270
  C     -5.836180  -15.616350    3.857810
  C     -5.228580  -15.363950    5.087220
  C     -5.462930  -16.398410    6.018920
  C     -6.227490  -17.385960    5.483180
  S     -6.690750  -17.106740    3.838550
  C     -4.521670  -14.109070    5.022290
  C     -3.802100  -13.592460    6.113200
  C     -2.982910  -12.494520    6.136630
  C     -2.373180  -12.037190    7.310670
  C     -1.615630  -10.890030    7.390540
  C     -0.964900  -10.372290    8.573540
  C     -0.913240  -10.951690    9.816660
  C     -0.253000  -10.386630   10.927770
  N      0.261210   -9.988670   11.873940
  C     -1.495240  -12.184530   10.176140
  N     -1.934530  -13.177370   10.552400
  C     -0.343730   -9.098910    8.213120
  C     -0.583740   -8.846300    6.850910
  C     -1.380990   -9.950090    6.276720
  O     -1.768630  -10.028850    5.123110
  C     -0.118790   -7.704610    6.232470
  C      0.600140   -6.787440    6.989210
  C      0.846350   -7.033070    8.343560
  C      0.379810   -8.187810    8.963470
  Cl     1.738850   -5.895240    9.268930
  Cl     1.180680   -5.347910    6.255960
  H      0.435740    1.800630   -5.445960
  H      1.295400    1.464400   -0.553750
  H     -2.202170   -2.532700   -3.960740
  H     -0.047610   -3.071250   -0.784390
  H     -1.157990   -8.199050    2.488390
  H     -2.729110  -10.179890    2.733310
  H     -4.563220  -10.544600    0.292710
  H     -3.787580  -11.686190    3.731840
  H     -6.583350  -15.080260    1.165550
  H     -5.092270  -16.419150    7.027420
  H     -6.560620  -18.288170    5.957770
  H     -3.917540  -14.142510    7.040880
  H     -2.771650  -11.941700    5.239710
  H     -2.534280  -12.616750    8.210010
  H     -0.290270   -7.528620    5.182700
  H      0.589970   -8.341830   10.008930

 Total Charge           Charge          ....    0
 Multiplicity           Mult            ....    1
 Number of Electrons    NEL             ....  518
 Basis Dimension        Dim             .... 1064

ORBITAL ENERGIES
----------------

  NO   OCC          E(Eh)            E(eV)
   0   2.0000    -101.603651     -2764.7759
   1   2.0000    -101.602373     -2764.7411
   2   2.0000    -101.589236     -2764.3836
   3   2.0000    -101.589085     -2764.3795
   4   2.0000     -89.005690     -2421.9680
   5   2.0000     -89.002274     -2421.8750
   6   2.0000     -88.998424     -2421.7702
   7   2.0000     -88.966988     -2420.9148
   8   2.0000     -19.227015      -523.1937
   9   2.0000     -19.218496      -522.9619
  10   2.0000     -14.442564      -393.0021
  11   2.0000     -14.441502      -392.9732
  12   2.0000     -14.427483      -392.5918
  13   2.0000     -14.422007      -392.4428
  14   2.0000     -14.409752      -392.1093
  15   2.0000     -14.406102      -392.0100
  16   2.0000     -10.378489      -282.4131
  17   2.0000     -10.376883      -282.3693
  18   2.0000     -10.367302      -282.1086
  19   2.0000     -10.364269      -282.0261
  20   2.0000     -10.360854      -281.9332
  21   2.0000     -10.360262      -281.9171
  22   2.0000     -10.355066      -281.7757
  23   2.0000     -10.353867      -281.7430
  24   2.0000     -10.353324      -281.7283
  25   2.0000     -10.346566      -281.5444
  26   2.0000     -10.345380      -281.5121
  27   2.0000     -10.345265      -281.5090
  28   2.0000     -10.344788      -281.4960
  29   2.0000     -10.344219      -281.4805
  30   2.0000     -10.343166      -281.4519
  31   2.0000     -10.341484      -281.4061
  32   2.0000     -10.337356      -281.2938
  33   2.0000     -10.337279      -281.2917
  34   2.0000     -10.334968      -281.2288
  35   2.0000     -10.334056      -281.2040
  36   2.0000     -10.333383      -281.1856
  37   2.0000     -10.328469      -281.0519
  38   2.0000     -10.323843      -280.9261
  39   2.0000     -10.322423      -280.8874
  40   2.0000     -10.321950      -280.8745
  41   2.0000     -10.319517      -280.8083
  42   2.0000     -10.317221      -280.7459
  43   2.0000     -10.317039      -280.7409
  44   2.0000     -10.314679      -280.6767
  45   2.0000     -10.313740      -280.6511
  46   2.0000     -10.313583      -280.6469
  47   2.0000     -10.313138      -280.6348
  48   2.0000     -10.313128      -280.6345
  49   2.0000     -10.312466      -280.6165
  50   2.0000     -10.311430      -280.5883
  51   2.0000     -10.310241      -280.5559
  52   2.0000     -10.309973      -280.5486
  53   2.0000     -10.309474      -280.5351
  54   2.0000     -10.307682      -280.4863
  55   2.0000     -10.307520      -280.4819
  56   2.0000     -10.306340      -280.4498
  57   2.0000     -10.304657      -280.4040
  58   2.0000     -10.303910      -280.3836
  59   2.0000     -10.297994      -280.2227
  60   2.0000     -10.297860      -280.2190
  61   2.0000     -10.295968      -280.1675
  62   2.0000     -10.290591      -280.0212
  63   2.0000     -10.288548      -279.9656
  64   2.0000     -10.286155      -279.9005
  65   2.0000     -10.285513      -279.8831
  66   2.0000     -10.284428      -279.8535
  67   2.0000     -10.273860      -279.5659
  68   2.0000      -9.558748      -260.1067
  69   2.0000      -9.557411      -260.0704
  70   2.0000      -9.544289      -259.7133
  71   2.0000      -9.544051      -259.7068
  72   2.0000      -8.100370      -220.4223
  73   2.0000      -8.096851      -220.3265
  74   2.0000      -8.093761      -220.2424
  75   2.0000      -8.062439      -219.3901
  76   2.0000      -7.329131      -199.4358
  77   2.0000      -7.327813      -199.3999
  78   2.0000      -7.318992      -199.1599
  79   2.0000      -7.318273      -199.1403
  80   2.0000      -7.317674      -199.1240
  81   2.0000      -7.316910      -199.1032
  82   2.0000      -7.314627      -199.0411
  83   2.0000      -7.314415      -199.0353
  84   2.0000      -7.304554      -198.7670
  85   2.0000      -7.304379      -198.7622
  86   2.0000      -7.303853      -198.7479
  87   2.0000      -7.303542      -198.7395
  88   2.0000      -6.069534      -165.1604
  89   2.0000      -6.066008      -165.0645
  90   2.0000      -6.065362      -165.0469
  91   2.0000      -6.063064      -164.9844
  92   2.0000      -6.062853      -164.9786
  93   2.0000      -6.061952      -164.9541
  94   2.0000      -6.059288      -164.8816
  95   2.0000      -6.058565      -164.8619
  96   2.0000      -6.056154      -164.7963
  97   2.0000      -6.031930      -164.1371
  98   2.0000      -6.027640      -164.0204
  99   2.0000      -6.024390      -163.9320
 100   2.0000      -1.142703       -31.0945
 101   2.0000      -1.129508       -30.7355
 102   2.0000      -1.059322       -28.8256
 103   2.0000      -1.036969       -28.2174
 104   2.0000      -1.034225       -28.1427
 105   2.0000      -1.024211       -27.8702
 106   2.0000      -1.021556       -27.7979
 107   2.0000      -1.020871       -27.7793
 108   2.0000      -1.019668       -27.7466
 109   2.0000      -1.012281       -27.5456
 110   2.0000      -1.007096       -27.4045
 111   2.0000      -1.002772       -27.2868
 112   2.0000      -0.997658       -27.1477
 113   2.0000      -0.990716       -26.9587
 114   2.0000      -0.986752       -26.8509
 115   2.0000      -0.981236       -26.7008
 116   2.0000      -0.973928       -26.5019
 117   2.0000      -0.965622       -26.2759
 118   2.0000      -0.951179       -25.8829
 119   2.0000      -0.946615       -25.7587
 120   2.0000      -0.942834       -25.6558
 121   2.0000      -0.935616       -25.4594
 122   2.0000      -0.927275       -25.2324
 123   2.0000      -0.922188       -25.0940
 124   2.0000      -0.910104       -24.7652
 125   2.0000      -0.906094       -24.6561
 126   2.0000      -0.887915       -24.1614
 127   2.0000      -0.885814       -24.1042
 128   2.0000      -0.881502       -23.9869
 129   2.0000      -0.869862       -23.6701
 130   2.0000      -0.866162       -23.5695
 131   2.0000      -0.864583       -23.5265
 132   2.0000      -0.862821       -23.4785
 133   2.0000      -0.849825       -23.1249
 134   2.0000      -0.835222       -22.7276
 135   2.0000      -0.828384       -22.5415
 136   2.0000      -0.811270       -22.0758
 137   2.0000      -0.797526       -21.7018
 138   2.0000      -0.788622       -21.4595
 139   2.0000      -0.782693       -21.2982
 140   2.0000      -0.774117       -21.0648
 141   2.0000      -0.763208       -20.7680
 142   2.0000      -0.756845       -20.5948
 143   2.0000      -0.750028       -20.4093
 144   2.0000      -0.735237       -20.0068
 145   2.0000      -0.728736       -19.8299
 146   2.0000      -0.713937       -19.4272
 147   2.0000      -0.710929       -19.3454
 148   2.0000      -0.699582       -19.0366
 149   2.0000      -0.697105       -18.9692
 150   2.0000      -0.691759       -18.8237
 151   2.0000      -0.687096       -18.6968
 152   2.0000      -0.683677       -18.6038
 153   2.0000      -0.676446       -18.4070
 154   2.0000      -0.667541       -18.1647
 155   2.0000      -0.665872       -18.1193
 156   2.0000      -0.652921       -17.7669
 157   2.0000      -0.647316       -17.6144
 158   2.0000      -0.643695       -17.5158
 159   2.0000      -0.636412       -17.3176
 160   2.0000      -0.631055       -17.1719
 161   2.0000      -0.628179       -17.0936
 162   2.0000      -0.623670       -16.9709
 163   2.0000      -0.616864       -16.7857
 164   2.0000      -0.610910       -16.6237
 165   2.0000      -0.606334       -16.4992
 166   2.0000      -0.601756       -16.3746
 167   2.0000      -0.594244       -16.1702
 168   2.0000      -0.591158       -16.0862
 169   2.0000      -0.580910       -15.8074
 170   2.0000      -0.578376       -15.7384
 171   2.0000      -0.572921       -15.5900
 172   2.0000      -0.564636       -15.3645
 173   2.0000      -0.562898       -15.3172
 174   2.0000      -0.561313       -15.2741
 175   2.0000      -0.556748       -15.1499
 176   2.0000      -0.551655       -15.0113
 177   2.0000      -0.549415       -14.9503
 178   2.0000      -0.548149       -14.9159
 179   2.0000      -0.539598       -14.6832
 180   2.0000      -0.538555       -14.6548
 181   2.0000      -0.536211       -14.5910
 182   2.0000      -0.535630       -14.5752
 183   2.0000      -0.530525       -14.4363
 184   2.0000      -0.527650       -14.3581
 185   2.0000      -0.526302       -14.3214
 186   2.0000      -0.524036       -14.2597
 187   2.0000      -0.522693       -14.2232
 188   2.0000      -0.518392       -14.1062
 189   2.0000      -0.518158       -14.0998
 190   2.0000      -0.511754       -13.9255
 191   2.0000      -0.510517       -13.8919
 192   2.0000      -0.509510       -13.8645
 193   2.0000      -0.508570       -13.8389
 194   2.0000      -0.501729       -13.6527
 195   2.0000      -0.498451       -13.5635
 196   2.0000      -0.497858       -13.5474
 197   2.0000      -0.495885       -13.4937
 198   2.0000      -0.491558       -13.3760
 199   2.0000      -0.488393       -13.2899
 200   2.0000      -0.484790       -13.1918
 201   2.0000      -0.484086       -13.1726
 202   2.0000      -0.481720       -13.1083
 203   2.0000      -0.479959       -13.0603
 204   2.0000      -0.476808       -12.9746
 205   2.0000      -0.474688       -12.9169
 206   2.0000      -0.473076       -12.8730
 207   2.0000      -0.469604       -12.7786
 208   2.0000      -0.464470       -12.6389
 209   2.0000      -0.460942       -12.5429
 210   2.0000      -0.459593       -12.5062
 211   2.0000      -0.458636       -12.4801
 212   2.0000      -0.457113       -12.4387
 213   2.0000      -0.452804       -12.3214
 214   2.0000      -0.451905       -12.2970
 215   2.0000      -0.450569       -12.2606
 216   2.0000      -0.450204       -12.2507
 217   2.0000      -0.448423       -12.2022
 218   2.0000      -0.446015       -12.1367
 219   2.0000      -0.442737       -12.0475
 220   2.0000      -0.442268       -12.0347
 221   2.0000      -0.440379       -11.9833
 222   2.0000      -0.438125       -11.9220
 223   2.0000      -0.436015       -11.8646
 224   2.0000      -0.435417       -11.8483
 225   2.0000      -0.434633       -11.8270
 226   2.0000      -0.433064       -11.7843
 227   2.0000      -0.431931       -11.7534
 228   2.0000      -0.428111       -11.6495
 229   2.0000      -0.423867       -11.5340
 230   2.0000      -0.422426       -11.4948
 231   2.0000      -0.419960       -11.4277
 232   2.0000      -0.419439       -11.4135
 233   2.0000      -0.418596       -11.3906
 234   2.0000      -0.418269       -11.3817
 235   2.0000      -0.413105       -11.2412
 236   2.0000      -0.410011       -11.1570
 237   2.0000      -0.407567       -11.0905
 238   2.0000      -0.401991       -10.9387
 239   2.0000      -0.395582       -10.7643
 240   2.0000      -0.391312       -10.6481
 241   2.0000      -0.384855       -10.4724
 242   2.0000      -0.375566       -10.2197
 243   2.0000      -0.370623       -10.0852
 244   2.0000      -0.370251       -10.0750
 245   2.0000      -0.361130        -9.8268
 246   2.0000      -0.350610        -9.5406
 247   2.0000      -0.349625        -9.5138
 248   2.0000      -0.344740        -9.3809
 249   2.0000      -0.337370        -9.1803
 250   2.0000      -0.335559        -9.1310
 251   2.0000      -0.332085        -9.0365
 252   2.0000      -0.327600        -8.9144
 253   2.0000      -0.316522        -8.6130
 254   2.0000      -0.313578        -8.5329
 255   2.0000      -0.300730        -8.1833
 256   2.0000      -0.294800        -8.0219
 257   2.0000      -0.272352        -7.4111
 258   2.0000      -0.240722        -6.5504
 259   0.0000      -0.125058        -3.4030
 260   0.0000      -0.100159        -2.7255
 261   0.0000      -0.094840        -2.5807
 262   0.0000      -0.072187        -1.9643
 263   0.0000      -0.065639        -1.7861

MULLIKEN ATOMIC CHARGES
-----------------------
   0 C :    0.270978
   1 C :   -0.325695
   2 C :   -0.175058
   3 N :    0.169851
   4 C :   -0.202196
   5 N :    0.170648
   6 C :    0.010264
   7 C :    0.005488
   8 C :   -0.030352
   9 C :    0.058294
  10 C :    0.048707
  11 C :   -0.009967
  12 Cl:   -0.031653
  13 Cl:   -0.040562
  14 C :    0.136732
  15 O :   -0.137387
  16 C :   -0.141410
  17 C :    0.084239
  18 C :   -0.113420
  19 C :    0.000331
  20 C :   -0.007601
  21 C :   -0.066212
  22 S :    0.218067
  23 C :   -0.106320
  24 C :    0.036466
  25 C :    0.304130
  26 C :   -0.287684
  27 C :   -0.168379
  28 N :    0.166773
  29 C :   -0.182475
  30 N :    0.175864
  31 C :   -0.037742
  32 C :   -0.054964
  33 S :    0.185245
  34 C :    0.031572
  35 C :    0.023000
  36 C :   -0.078227
  37 C :   -0.055725
  38 C :    0.082962
  39 C :    0.054291
  40 C :   -0.132003
  41 S :    0.166212
  42 C :   -0.110861
  43 C :    0.056890
  44 C :    0.009114
  45 C :   -0.062187
  46 S :    0.133592
  47 C :    0.085777
  48 C :    0.010232
  49 C :   -0.038814
  50 C :   -0.017727
  51 C :   -0.094687
  52 C :    0.330534
  53 C :   -0.357421
  54 C :   -0.192554
  55 N :    0.151677
  56 C :   -0.192271
  57 N :    0.141916
  58 C :    0.023111
  59 C :    0.006266
  60 C :    0.157560
  61 O :   -0.184104
  62 C :   -0.013911
  63 C :    0.058709
  64 C :    0.044617
  65 C :   -0.015857
  66 Cl:   -0.039358
  67 Cl:   -0.040926
  68 H :    0.002044
  69 H :    0.009966
  70 H :    0.023073
  71 H :    0.026039
  72 H :    0.012733
  73 H :    0.025789
  74 H :   -0.006156
  75 H :   -0.000827
  76 H :    0.042710
  77 H :   -0.007218
  78 H :    0.032045
  79 H :   -0.006487
  80 H :    0.010129
  81 H :    0.004595
  82 H :   -0.029842
  83 H :   -0.002993
Sum of atomic charges:    0.0000000

LOEWDIN ATOMIC CHARGES
----------------------
   0 C :    0.064132
   1 C :   -0.131758
   2 C :   -0.021781
   3 N :   -0.037039
   4 C :   -0.015571
   5 N :   -0.042307
   6 C :   -0.010504
   7 C :   -0.046729
   8 C :    0.002001
   9 C :   -0.134742
  10 C :   -0.128674
  11 C :   -0.011713
  12 Cl:    0.166446
  13 Cl:    0.160725
  14 C :    0.083711
  15 O :   -0.137620
  16 C :   -0.093975
  17 C :    0.044454
  18 C :   -0.181691
  19 C :    0.011276
  20 C :   -0.065442
  21 C :   -0.157111
  22 S :    0.501202
  23 C :   -0.181122
  24 C :   -0.057890
  25 C :    0.083282
  26 C :   -0.095853
  27 C :   -0.007348
  28 N :   -0.026355
  29 C :   -0.013802
  30 N :   -0.027660
  31 C :   -0.016955
  32 C :   -0.152662
  33 S :    0.478580
  34 C :   -0.010013
  35 C :   -0.058492
  36 C :   -0.151984
  37 C :   -0.015242
  38 C :    0.012676
  39 C :   -0.041455
  40 C :   -0.143989
  41 S :    0.483653
  42 C :   -0.209306
  43 C :   -0.031700
  44 C :   -0.061841
  45 C :   -0.156298
  46 S :    0.424468
  47 C :   -0.068006
  48 C :    0.046406
  49 C :   -0.060090
  50 C :    0.070100
  51 C :   -0.117147
  52 C :    0.075215
  53 C :   -0.146046
  54 C :   -0.020760
  55 N :   -0.055677
  56 C :   -0.019152
  57 N :   -0.059924
  58 C :   -0.012827
  59 C :   -0.046222
  60 C :    0.094401
  61 O :   -0.179669
  62 C :    0.002846
  63 C :   -0.132993
  64 C :   -0.131374
  65 C :   -0.015795
  66 Cl:    0.158883
  67 Cl:    0.161950
  68 H :    0.046704
  69 H :    0.046608
  70 H :    0.046878
  71 H :    0.043122
  72 H :    0.044750
  73 H :    0.046990
  74 H :    0.019113
  75 H :    0.043318
  76 H :    0.039141
  77 H :    0.034017
  78 H :    0.026130
  79 H :    0.037357
  80 H :    0.023374
  81 H :    0.040746
  82 H :    0.034154
  83 H :    0.043495

  Mayer bond orders larger than 0.100000
B(  0-C ,  1-C ) :   1.6533 B(  0-C ,  6-C ) :   1.0008 B(  0-C , 16-C ) :   1.0404
B(  1-C ,  2-C ) :   1.1243 B(  1-C ,  4-C ) :   1.1728 B(  2-C ,  3-N ) :   2.9948
B(  4-C ,  5-N ) :   2.9956 B(  6-C ,  7-C ) :   1.3287 B(  6-C , 11-C ) :   1.3502
B(  7-C ,  8-C ) :   1.3479 B(  7-C , 14-C ) :   0.9218 B(  8-C ,  9-C ) :   1.3458
B(  8-C , 68-H ) :   1.0160 B(  9-C , 10-C ) :   1.4051 B(  9-C , 13-Cl) :   1.0490
B( 10-C , 11-C ) :   1.3592 B( 10-C , 12-Cl) :   1.0736 B( 11-C , 69-H ) :   0.9889
B( 14-C , 15-O ) :   2.2691 B( 14-C , 16-C ) :   0.9484 B( 16-C , 17-C ) :   1.6621
B( 17-C , 18-C ) :   1.1456 B( 17-C , 70-H ) :   0.9274 B( 18-C , 19-C ) :   1.3873
B( 18-C , 22-S ) :   1.0870 B( 19-C , 20-C ) :   1.3640 B( 19-C , 71-H ) :   0.9797
B( 20-C , 21-C ) :   1.4017 B( 20-C , 25-C ) :   1.0048 B( 21-C , 22-S ) :   1.1559
B( 21-C , 23-C ) :   1.2090 B( 23-C , 24-C ) :   1.4252 B( 23-C , 33-S ) :   1.1222
B( 24-C , 25-C ) :   0.9912 B( 24-C , 31-C ) :   1.2755 B( 25-C , 26-C ) :   1.7170
B( 26-C , 27-C ) :   1.1463 B( 26-C , 29-C ) :   1.1311 B( 27-C , 28-N ) :   2.9203
B( 29-C , 30-N ) :   2.9825 B( 31-C , 32-C ) :   1.4174 B( 31-C , 72-H ) :   1.0101
B( 32-C , 33-S ) :   1.0931 B( 32-C , 34-C ) :   1.1899 B( 34-C , 35-C ) :   1.6485
B( 34-C , 73-H ) :   0.9594 B( 35-C , 36-C ) :   1.1146 B( 35-C , 74-H ) :   0.9583
B( 36-C , 37-C ) :   1.5003 B( 36-C , 41-S ) :   1.0886 B( 37-C , 38-C ) :   1.2766
B( 37-C , 75-H ) :   0.9666 B( 38-C , 39-C ) :   1.0733 B( 38-C , 47-C ) :   1.3048
B( 39-C , 40-C ) :   1.5792 B( 39-C , 42-C ) :   1.1838 B( 40-C , 41-S ) :   1.1557
B( 40-C , 76-H ) :   0.9412 B( 42-C , 43-C ) :   1.4435 B( 42-C , 46-S ) :   1.0719
B( 43-C , 44-C ) :   1.2259 B( 43-C , 47-C ) :   1.0916 B( 44-C , 45-C ) :   1.5860
B( 44-C , 77-H ) :   0.9974 B( 45-C , 46-S ) :   1.1585 B( 45-C , 78-H ) :   0.9654
B( 47-C , 48-C ) :   1.2045 B( 48-C , 49-C ) :   1.4445 B( 48-C , 79-H ) :   0.9762
B( 49-C , 50-C ) :   1.2434 B( 49-C , 80-H ) :   0.9832 B( 50-C , 51-C ) :   1.4437
B( 50-C , 81-H ) :   0.9645 B( 51-C , 52-C ) :   1.0891 B( 51-C , 60-C ) :   0.9874
B( 52-C , 53-C ) :   1.6131 B( 52-C , 58-C ) :   0.9842 B( 53-C , 54-C ) :   1.1429
B( 53-C , 56-C ) :   1.1533 B( 54-C , 55-N ) :   2.9702 B( 56-C , 57-N ) :   2.9599
B( 58-C , 59-C ) :   1.3235 B( 58-C , 65-C ) :   1.3511 B( 59-C , 60-C ) :   0.9528
B( 59-C , 62-C ) :   1.3460 B( 60-C , 61-O ) :   2.1035 B( 62-C , 63-C ) :   1.3427
B( 62-C , 82-H ) :   1.0123 B( 63-C , 64-C ) :   1.4122 B( 63-C , 67-Cl) :   1.0632
B( 64-C , 65-C ) :   1.3523 B( 64-C , 66-Cl) :   1.0738 B( 65-C , 83-H ) :   0.9865

-----------------------------------------------------------------------------
         ABSORPTION SPECTRUM VIA TRANSITION ELECTRIC DIPOLE MOMENTS
-----------------------------------------------------------------------------
State   Energy  Wavelength   fosc         T2         TX        TY        TZ
        (cm-1)    (nm)                  (au**2)     (au)      (au)      (au)
-----------------------------------------------------------------------------
   0   11031.0    906.5   0.375126667  11.19533  -0.22425  -2.37385   2.34731
   1   14822.5    674.7   0.364933667   8.10529  -1.01002  -0.01120  -2.66177
   2   16822.9    594.4   0.079258694   1.55103   0.12121  -0.73400   0.99879
   3   19197.7    520.9   0.833242418  14.28888  -1.28215  -3.55589  -0.02547
   4   22021.3    454.1   0.080549039   1.20419   0.60660   0.54625   0.73337
   5   22300.1    448.4   0.080570729   1.18945  -0.41300  -0.92534  -0.40327
   6   23000.2    434.8   0.201448549   2.88342  -0.95385  -1.40107  -0.10301
   7   24284.4    411.8   0.018972196   0.25720   0.32558  -0.31093   0.23349
   8   24685.8    405.1   0.597513603   7.96850   1.67556   2.20608   0.54240
   9   25736.5    388.6   0.421310059   5.38924   0.72900   2.10586  -0.65049
  10   25869.3    386.6   0.001822126   0.02319  -0.09456  -0.08413   0.08466
  11   26543.5    376.7   0.131704243   1.63349   0.79704   0.55877   0.82825
  12   27038.6    369.8   0.131651039   1.60294  -0.55550  -0.76458   0.84248
  13   28231.1    354.2   0.045645929   0.53229  -0.52613  -0.18620  -0.46991
  14   28437.8    351.6   0.007710287   0.08926  -0.03900   0.15031  -0.25523
  15   28691.0    348.5   0.021356261   0.24505  -0.00699   0.25113  -0.42654
  16   29268.6    341.7   0.283950334   3.19386   0.36174   1.29774  -1.17425
  17   29593.7    337.9   0.037934579   0.42200   0.03027  -0.62234   0.18378
  18   30109.5    332.1   0.274363166   2.99984   1.33893   0.73754   0.81433
  19   30193.4    331.2   0.248257192   2.70685  -1.37704  -0.73898  -0.51433
  20   30899.4    323.6   0.095544591   1.01796  -0.53438  -0.85481   0.04115
  21   31141.4    321.1   0.056093367   0.59299   0.35266   0.07440  -0.68051
  22   31657.9    315.9   0.000696787   0.00725  -0.05932   0.03037  -0.05296
  23   32001.7    312.5   0.069308537   0.71300  -0.18150   0.36288  -0.74052
  24   32094.6    311.6   0.176618138   1.81167  -0.49588  -1.20007   0.35441
  25   32235.0    310.2   0.135462856   1.38346   0.66117   0.92850  -0.29019
  26   32356.8    309.1   0.129508596   1.31768  -0.70322  -0.88972   0.17764
  27   32677.3    306.0   0.017959212   0.18093  -0.11187  -0.39676  -0.10489
  28   32814.5    304.7   0.004706947   0.04722   0.05530   0.11109  -0.17839
  29   33006.4    303.0   0.018690533   0.18642  -0.06778   0.02319   0.42578
  30   33159.8    301.6   0.237217283   2.35510  -0.07370  -0.98073   1.17807
  31   33964.6    294.4   0.231060225   2.23962  -0.48466  -0.89298   1.09877
  32   34104.3    293.2   0.134783177   1.30108   0.24163  -0.46403   1.01359
  33   34336.7    291.2   0.436656961   4.18656   0.33900   1.46361  -1.38906
  34   34770.8    287.6   0.161551429   1.52958  -1.00002  -0.71650  -0.12718
  35   34985.7    285.8   0.105793934   0.99551  -0.34857  -0.04604  -0.93375
  36   35111.7    284.8   0.321568634   3.01507  -0.11792  -0.88140   1.49141
  37   35243.7    283.7   0.116200281   1.08543   0.44777   0.17654  -0.92399
  38   35690.1    280.2   0.055792769   0.51464   0.28272   0.65742  -0.05008
  39   36382.1    274.9   0.043969977   0.39787  -0.44473  -0.43345  -0.11049
  40   36684.1    272.6   0.101705602   0.91273   0.48393   0.78397  -0.25285
  41   36725.6    272.3   0.133813794   1.19952   0.38015   0.31230   0.97851
  42   37298.9    268.1   0.004817658   0.04252  -0.14457  -0.14442  -0.02764
  43   37822.5    264.4   0.027929389   0.24310   0.14010   0.23478  -0.41031
  44   37892.3    263.9   0.070537597   0.61284   0.43755   0.17575   0.62490
  45   38131.9    262.2   0.008765004   0.07567  -0.20482  -0.00181  -0.18362
  46   38203.4    261.8   0.005811915   0.05008  -0.03770  -0.13176  -0.17692
  47   38318.9    261.0   0.039437028   0.33882  -0.13295   0.32803  -0.46210
  48   38404.6    260.4   0.021121609   0.18106  -0.01793  -0.06417  -0.42026
  49   38746.2    258.1   0.026219505   0.22278  -0.19464  -0.37040   0.21840
  50   38984.7    256.5   0.135462433   1.14393   0.23752   0.66486  -0.80341
  51   39296.6    254.5   0.042411872   0.35531  -0.26668  -0.50405   0.17357
  52   39384.0    253.9   0.011373555   0.09507  -0.21183  -0.22147  -0.03389
  53   39559.0    252.8   0.139214301   1.15855   0.43423   0.10754   0.97899
  54   39773.6    251.4   0.014127221   0.11693   0.03447   0.24958  -0.23120
  55   39864.3    250.9   0.010800981   0.08920  -0.09835  -0.21610   0.18118
  56   39930.2    250.4   0.039802929   0.32816  -0.37189  -0.41923  -0.11878
  57   40221.3    248.6   0.083509829   0.68353   0.46936   0.62529   0.26878

FINAL SINGLE POINT ENERGY     -5899.340261217709

DIPOLE MOMENT
-------------
                                X             Y             Z
Electronic contribution:     31.14955      65.36970     -14.71683
Nuclear contribution   :    -33.53187     -67.62339       9.87485
                        -----------------------------------------
Total Dipole Moment    :     -2.38233      -2.25369      -4.84198
                        -----------------------------------------
Magnitude (a.u.)       :      5.84802
Magnitude (Debye)      :     14.86449

Rotational constants in cm-1:     0.001288     0.000339     0.000273
Rotational constants in MHz :    38.602546    10.169801     8.174217

                             ****ORCA TERMINATED NORMALLY****
TOTAL RUN TIME: 0 days 0 hours 9 minutes 11 seconds 551 msec
