                         Program Version 4.2.0 -  RELEASE  -
|  1> # ORCA input file
|  2> # SCF done       -172.069252920485          0.002485914716
|  3> ! CAM-B3LYP def2-SVP def2/J RIJCOSX Grid4 TightSCF
|  4> %maxcore 5000
|  5> %tddft
|  6>     Mode sTDDFT
|  7>     Ethresh 5.0
|  8>     maxcore 5000
|  9> end
| 10>
| 11> %pal
| 12>   nprocs 6
| 13>   end
| 14> * xyz 0 1
| 15>    C       -2.86910        -1.91229         3.00309
| 16>    C       -3.48685        -1.08873         3.89469
| 17>    C       -3.37915         0.25968         3.50519
| 18>    C       -2.67073         0.41438         2.30840
| 19>    S       -2.14291        -1.07838         1.67025
| 20>    C       -2.61053         1.80248         1.99281
| 21>    C       -3.28002         2.51593         2.99666
| 22>    C       -3.79152         1.56944         3.97884
| 23>    C       -4.51728         1.85977         5.09696
| 24>    C       -4.86481         3.18224         5.44736
| 25>    N       -5.15522         4.25281         5.73828
| 26>    C       -4.97763         0.85565         5.97450
| 27>    N       -5.35812         0.04278         6.68807
| 28>    C       -3.27778         3.89447         2.77963
| 29>    C       -2.61417         4.23557         1.61778
| 30>    S       -1.98341         2.82116         0.78085
| 31>    C       -2.42198         5.54464         1.07207
| 32>    C       -1.78331         5.75635        -0.13889
| 33>    C       -1.61498         7.02862        -0.68090
| 34>    F       -0.91814         7.09672        -1.83483
| 35>    C       -2.07022         8.19721        -0.09116
| 36>    C       -2.67982         8.01431         1.17676
| 37>    C       -2.86904         6.71101         1.75336
| 38>    N       -3.47006         6.78634         2.93928
| 39>    S       -3.76426         8.32287         3.29358
| 40>    N       -3.15323         8.98080         1.96132
| 41>    C       -1.92943         9.52102        -0.64458
| 42>    S       -1.61944        10.84197         0.42784
| 43>    C       -1.58158        11.98128        -0.89604
| 44>    C       -1.82073        11.33585        -2.10109
| 45>    C       -2.03444         9.94996        -1.95127
| 46>    C       -2.45258         9.08104        -3.09591
| 47>    C       -3.12705         9.93701        -4.17469
| 48>    C       -3.47954         9.10804        -5.30521
| 49>    N       -3.73459         8.43227        -6.18959
| 50>    C       -2.13950        11.04249        -4.59595
| 51>    C       -2.65256        11.77884        -5.72998
| 52>    N       -3.07680        12.37673        -6.60580
| 53>    C       -1.89820        12.01903        -3.43244
| 54>    C       -1.34195        13.35959        -0.58744
| 55>    C       -1.29066        13.79481         0.71829
| 56>    C       -1.03346        15.09865         1.13069
| 57>    C       -0.76124        16.16458         0.16439
| 58>    C       -0.78188        15.98189        -1.17372
| 59>    S       -1.11066        14.47653        -1.92441
| 60>    C       -0.51820        17.32750         0.94239
| 61>    C       -0.64204        17.03082         2.30222
| 62>    C       -0.39447        18.16702         3.10605
| 63>    C       -0.10263        19.26083         2.35235
| 64>    S       -0.11118        18.97041         0.64800
| 65>    C       -0.97832        15.63078         2.43830
| 66>    C       -1.24230        14.90551         3.61430
| 67>    C       -1.27163        15.42480         4.87845
| 68>    C       -1.59285        14.64335         5.99681
| 69>    C       -1.69608        15.06438         7.30429
| 70>    C       -1.44500        16.43530         7.72795
| 71>    O       -1.07592        17.33596         6.99355
| 72>    N       -1.65430        16.68913         9.07680
| 73>    C       -2.07318        15.77449        10.02146
| 74>    O       -2.25013        16.10040        11.17368
| 75>    N       -2.27003        14.48350         9.58169
| 76>    C       -2.09603        14.04946         8.27854
| 77>    O       -2.28743        12.88140         7.99870
| 78>    C       -2.70042        13.48949        10.55045
| 79>    C       -1.43541        18.03794         9.57229
| 80>    H       -2.79125        -2.98018         3.04158
| 81>    H       -3.98988        -1.43555         4.77927
| 82>    H       -3.72676         4.63280         3.41854
| 83>    H       -1.38653         4.92189        -0.69675
| 84>    H       -3.13891         8.30595        -2.74480
| 85>    H       -1.58555         8.57611        -3.53286
| 86>    H       -4.04350        10.39458        -3.78065
| 87>    H       -1.19538        10.56970        -4.89437
| 88>    H       -2.70604        12.75977        -3.40839
| 89>    H       -0.97002        12.56278        -3.62732
| 90>    H       -1.46592        13.04783         1.48002
| 91>    H       -0.59700        16.77632        -1.87822
| 92>    H       -0.42185        18.20006         4.17926
| 93>    H        0.12585        20.25058         2.69763
| 94>    H       -1.46237        13.85130         3.49421
| 95>    H       -1.06655        16.46755         5.04307
| 96>    H       -1.80630        13.59083         5.83678
| 97>    H       -2.75918        13.96910        11.52399
| 98>    H       -1.98430        12.66811        10.56939
| 99>    H       -3.67487        13.09572        10.26076
|100>    H       -1.12868        18.65390         8.73070
|101>    H       -0.66052        18.02774        10.33849
|102>    H       -2.35553        18.42216        10.01129
|103> *
|104>
|105>                          ****END OF INPUT****

CARTESIAN COORDINATES (ANGSTROEM)
---------------------------------
  C     -2.869100   -1.912290    3.003090
  C     -3.486850   -1.088730    3.894690
  C     -3.379150    0.259680    3.505190
  C     -2.670730    0.414380    2.308400
  S     -2.142910   -1.078380    1.670250
  C     -2.610530    1.802480    1.992810
  C     -3.280020    2.515930    2.996660
  C     -3.791520    1.569440    3.978840
  C     -4.517280    1.859770    5.096960
  C     -4.864810    3.182240    5.447360
  N     -5.155220    4.252810    5.738280
  C     -4.977630    0.855650    5.974500
  N     -5.358120    0.042780    6.688070
  C     -3.277780    3.894470    2.779630
  C     -2.614170    4.235570    1.617780
  S     -1.983410    2.821160    0.780850
  C     -2.421980    5.544640    1.072070
  C     -1.783310    5.756350   -0.138890
  C     -1.614980    7.028620   -0.680900
  F     -0.918140    7.096720   -1.834830
  C     -2.070220    8.197210   -0.091160
  C     -2.679820    8.014310    1.176760
  C     -2.869040    6.711010    1.753360
  N     -3.470060    6.786340    2.939280
  S     -3.764260    8.322870    3.293580
  N     -3.153230    8.980800    1.961320
  C     -1.929430    9.521020   -0.644580
  S     -1.619440   10.841970    0.427840
  C     -1.581580   11.981280   -0.896040
  C     -1.820730   11.335850   -2.101090
  C     -2.034440    9.949960   -1.951270
  C     -2.452580    9.081040   -3.095910
  C     -3.127050    9.937010   -4.174690
  C     -3.479540    9.108040   -5.305210
  N     -3.734590    8.432270   -6.189590
  C     -2.139500   11.042490   -4.595950
  C     -2.652560   11.778840   -5.729980
  N     -3.076800   12.376730   -6.605800
  C     -1.898200   12.019030   -3.432440
  C     -1.341950   13.359590   -0.587440
  C     -1.290660   13.794810    0.718290
  C     -1.033460   15.098650    1.130690
  C     -0.761240   16.164580    0.164390
  C     -0.781880   15.981890   -1.173720
  S     -1.110660   14.476530   -1.924410
  C     -0.518200   17.327500    0.942390
  C     -0.642040   17.030820    2.302220
  C     -0.394470   18.167020    3.106050
  C     -0.102630   19.260830    2.352350
  S     -0.111180   18.970410    0.648000
  C     -0.978320   15.630780    2.438300
  C     -1.242300   14.905510    3.614300
  C     -1.271630   15.424800    4.878450
  C     -1.592850   14.643350    5.996810
  C     -1.696080   15.064380    7.304290
  C     -1.445000   16.435300    7.727950
  O     -1.075920   17.335960    6.993550
  N     -1.654300   16.689130    9.076800
  C     -2.073180   15.774490   10.021460
  O     -2.250130   16.100400   11.173680
  N     -2.270030   14.483500    9.581690
  C     -2.096030   14.049460    8.278540
  O     -2.287430   12.881400    7.998700
  C     -2.700420   13.489490   10.550450
  C     -1.435410   18.037940    9.572290
  H     -2.791250   -2.980180    3.041580
  H     -3.989880   -1.435550    4.779270
  H     -3.726760    4.632800    3.418540
  H     -1.386530    4.921890   -0.696750
  H     -3.138910    8.305950   -2.744800
  H     -1.585550    8.576110   -3.532860
  H     -4.043500   10.394580   -3.780650
  H     -1.195380   10.569700   -4.894370
  H     -2.706040   12.759770   -3.408390
  H     -0.970020   12.562780   -3.627320
  H     -1.465920   13.047830    1.480020
  H     -0.597000   16.776320   -1.878220
  H     -0.421850   18.200060    4.179260
  H      0.125850   20.250580    2.697630
  H     -1.462370   13.851300    3.494210
  H     -1.066550   16.467550    5.043070
  H     -1.806300   13.590830    5.836780
  H     -2.759180   13.969100   11.523990
  H     -1.984300   12.668110   10.569390
  H     -3.674870   13.095720   10.260760
  H     -1.128680   18.653900    8.730700
  H     -0.660520   18.027740   10.338490
  H     -2.355530   18.422160   10.011290

 Total Charge           Charge          ....    0
 Multiplicity           Mult            ....    1
 Number of Electrons    NEL             ....  490
 Basis Dimension        Dim             .... 1049

ORBITAL ENERGIES
----------------

  NO   OCC          E(Eh)            E(eV)
   0   2.0000     -89.041417     -2422.9401
   1   2.0000     -88.994936     -2421.6753
   2   2.0000     -88.993093     -2421.6252
   3   2.0000     -88.992539     -2421.6101
   4   2.0000     -88.973643     -2421.0959
   5   2.0000     -88.960259     -2420.7317
   6   2.0000     -24.811500      -675.1553
   7   2.0000     -19.185004      -522.0505
   8   2.0000     -19.182608      -521.9853
   9   2.0000     -19.178890      -521.8841
  10   2.0000     -14.457008      -393.3952
  11   2.0000     -14.454012      -393.3137
  12   2.0000     -14.447825      -393.1453
  13   2.0000     -14.446734      -393.1156
  14   2.0000     -14.431421      -392.6989
  15   2.0000     -14.430660      -392.6782
  16   2.0000     -14.414492      -392.2383
  17   2.0000     -14.413168      -392.2023
  18   2.0000     -10.401607      -283.0421
  19   2.0000     -10.392745      -282.8010
  20   2.0000     -10.377142      -282.3764
  21   2.0000     -10.370159      -282.1864
  22   2.0000     -10.366239      -282.0797
  23   2.0000     -10.353307      -281.7278
  24   2.0000     -10.346329      -281.5379
  25   2.0000     -10.345780      -281.5230
  26   2.0000     -10.345354      -281.5114
  27   2.0000     -10.344670      -281.4928
  28   2.0000     -10.342862      -281.4436
  29   2.0000     -10.338854      -281.3345
  30   2.0000     -10.338425      -281.3229
  31   2.0000     -10.333626      -281.1923
  32   2.0000     -10.331969      -281.1472
  33   2.0000     -10.331619      -281.1376
  34   2.0000     -10.330732      -281.1135
  35   2.0000     -10.328208      -281.0448
  36   2.0000     -10.327047      -281.0132
  37   2.0000     -10.325455      -280.9699
  38   2.0000     -10.321182      -280.8536
  39   2.0000     -10.317216      -280.7457
  40   2.0000     -10.312874      -280.6276
  41   2.0000     -10.312652      -280.6215
  42   2.0000     -10.312199      -280.6092
  43   2.0000     -10.311182      -280.5815
  44   2.0000     -10.309979      -280.5488
  45   2.0000     -10.307660      -280.4857
  46   2.0000     -10.307093      -280.4703
  47   2.0000     -10.306927      -280.4658
  48   2.0000     -10.305006      -280.4135
  49   2.0000     -10.304128      -280.3896
  50   2.0000     -10.303292      -280.3668
  51   2.0000     -10.302702      -280.3508
  52   2.0000     -10.301936      -280.3299
  53   2.0000     -10.301085      -280.3068
  54   2.0000     -10.298400      -280.2337
  55   2.0000     -10.294253      -280.1209
  56   2.0000     -10.294132      -280.1176
  57   2.0000     -10.292271      -280.0669
  58   2.0000     -10.283703      -279.8338
  59   2.0000     -10.283584      -279.8306
  60   2.0000     -10.281916      -279.7852
  61   2.0000     -10.281022      -279.7608
  62   2.0000     -10.274296      -279.5778
  63   2.0000     -10.270219      -279.4669
  64   2.0000     -10.261731      -279.2359
  65   2.0000      -8.132880      -221.3069
  66   2.0000      -8.089548      -220.1278
  67   2.0000      -8.087670      -220.0767
  68   2.0000      -8.087492      -220.0719
  69   2.0000      -8.068299      -219.5496
  70   2.0000      -8.055726      -219.2075
  71   2.0000      -6.104096      -166.1009
  72   2.0000      -6.096288      -165.8884
  73   2.0000      -6.095333      -165.8625
  74   2.0000      -6.058753      -164.8670
  75   2.0000      -6.057275      -164.8268
  76   2.0000      -6.056758      -164.8128
  77   2.0000      -6.054628      -164.7548
  78   2.0000      -6.052463      -164.6959
  79   2.0000      -6.052280      -164.6909
  80   2.0000      -6.051962      -164.6823
  81   2.0000      -6.050129      -164.6324
  82   2.0000      -6.049848      -164.6247
  83   2.0000      -6.037706      -164.2943
  84   2.0000      -6.033431      -164.1780
  85   2.0000      -6.030305      -164.0930
  86   2.0000      -6.025116      -163.9517
  87   2.0000      -6.020918      -163.8375
  88   2.0000      -6.017802      -163.7527
  89   2.0000      -1.324903       -36.0524
  90   2.0000      -1.155534       -31.4437
  91   2.0000      -1.143343       -31.1119
  92   2.0000      -1.120006       -30.4769
  93   2.0000      -1.114948       -30.3393
  94   2.0000      -1.047174       -28.4950
  95   2.0000      -1.027127       -27.9495
  96   2.0000      -1.026375       -27.9291
  97   2.0000      -1.023101       -27.8400
  98   2.0000      -1.015014       -27.6199
  99   2.0000      -1.008968       -27.4554
 100   2.0000      -1.008588       -27.4451
 101   2.0000      -1.006226       -27.3808
 102   2.0000      -1.004017       -27.3207
 103   2.0000      -0.996929       -27.1278
 104   2.0000      -0.995067       -27.0771
 105   2.0000      -0.985219       -26.8092
 106   2.0000      -0.978053       -26.6142
 107   2.0000      -0.960235       -26.1293
 108   2.0000      -0.957257       -26.0483
 109   2.0000      -0.937660       -25.5150
 110   2.0000      -0.921719       -25.0813
 111   2.0000      -0.913269       -24.8513
 112   2.0000      -0.907358       -24.6905
 113   2.0000      -0.894490       -24.3403
 114   2.0000      -0.885968       -24.1084
 115   2.0000      -0.880924       -23.9712
 116   2.0000      -0.874837       -23.8055
 117   2.0000      -0.867426       -23.6039
 118   2.0000      -0.864498       -23.5242
 119   2.0000      -0.855205       -23.2713
 120   2.0000      -0.843685       -22.9578
 121   2.0000      -0.838532       -22.8176
 122   2.0000      -0.814985       -22.1769
 123   2.0000      -0.813283       -22.1305
 124   2.0000      -0.797712       -21.7069
 125   2.0000      -0.788900       -21.4671
 126   2.0000      -0.780018       -21.2254
 127   2.0000      -0.774507       -21.0754
 128   2.0000      -0.768853       -20.9216
 129   2.0000      -0.767303       -20.8794
 130   2.0000      -0.765621       -20.8336
 131   2.0000      -0.746735       -20.3197
 132   2.0000      -0.737679       -20.0733
 133   2.0000      -0.731608       -19.9081
 134   2.0000      -0.726937       -19.7809
 135   2.0000      -0.712866       -19.3981
 136   2.0000      -0.704588       -19.1728
 137   2.0000      -0.702189       -19.1075
 138   2.0000      -0.687382       -18.7046
 139   2.0000      -0.683752       -18.6058
 140   2.0000      -0.678792       -18.4709
 141   2.0000      -0.669275       -18.2119
 142   2.0000      -0.664829       -18.0909
 143   2.0000      -0.658846       -17.9281
 144   2.0000      -0.655179       -17.8283
 145   2.0000      -0.644733       -17.5441
 146   2.0000      -0.642956       -17.4957
 147   2.0000      -0.639253       -17.3949
 148   2.0000      -0.632994       -17.2247
 149   2.0000      -0.629673       -17.1343
 150   2.0000      -0.621293       -16.9062
 151   2.0000      -0.619581       -16.8596
 152   2.0000      -0.617055       -16.7909
 153   2.0000      -0.610651       -16.6167
 154   2.0000      -0.592214       -16.1150
 155   2.0000      -0.589541       -16.0422
 156   2.0000      -0.586014       -15.9462
 157   2.0000      -0.582938       -15.8625
 158   2.0000      -0.578219       -15.7342
 159   2.0000      -0.577211       -15.7067
 160   2.0000      -0.576353       -15.6834
 161   2.0000      -0.572403       -15.5759
 162   2.0000      -0.564329       -15.3562
 163   2.0000      -0.561768       -15.2865
 164   2.0000      -0.559622       -15.2281
 165   2.0000      -0.548998       -14.9390
 166   2.0000      -0.548495       -14.9253
 167   2.0000      -0.546170       -14.8620
 168   2.0000      -0.538199       -14.6452
 169   2.0000      -0.534802       -14.5527
 170   2.0000      -0.529143       -14.3987
 171   2.0000      -0.527544       -14.3552
 172   2.0000      -0.526441       -14.3252
 173   2.0000      -0.526078       -14.3153
 174   2.0000      -0.525021       -14.2865
 175   2.0000      -0.521676       -14.1955
 176   2.0000      -0.518777       -14.1166
 177   2.0000      -0.517614       -14.0850
 178   2.0000      -0.511574       -13.9206
 179   2.0000      -0.509432       -13.8624
 180   2.0000      -0.506799       -13.7907
 181   2.0000      -0.505887       -13.7659
 182   2.0000      -0.500447       -13.6179
 183   2.0000      -0.496676       -13.5152
 184   2.0000      -0.492541       -13.4027
 185   2.0000      -0.491831       -13.3834
 186   2.0000      -0.490992       -13.3606
 187   2.0000      -0.486442       -13.2367
 188   2.0000      -0.483554       -13.1582
 189   2.0000      -0.482947       -13.1416
 190   2.0000      -0.481395       -13.0994
 191   2.0000      -0.477872       -13.0035
 192   2.0000      -0.476113       -12.9557
 193   2.0000      -0.474308       -12.9066
 194   2.0000      -0.470000       -12.7893
 195   2.0000      -0.463368       -12.6089
 196   2.0000      -0.462141       -12.5755
 197   2.0000      -0.459618       -12.5068
 198   2.0000      -0.458617       -12.4796
 199   2.0000      -0.457782       -12.4569
 200   2.0000      -0.457148       -12.4396
 201   2.0000      -0.455218       -12.3871
 202   2.0000      -0.454555       -12.3691
 203   2.0000      -0.454138       -12.3577
 204   2.0000      -0.452260       -12.3066
 205   2.0000      -0.450340       -12.2544
 206   2.0000      -0.448023       -12.1913
 207   2.0000      -0.444687       -12.1006
 208   2.0000      -0.443296       -12.0627
 209   2.0000      -0.440940       -11.9986
 210   2.0000      -0.440628       -11.9901
 211   2.0000      -0.439619       -11.9626
 212   2.0000      -0.435647       -11.8546
 213   2.0000      -0.433838       -11.8053
 214   2.0000      -0.432569       -11.7708
 215   2.0000      -0.430164       -11.7054
 216   2.0000      -0.427819       -11.6415
 217   2.0000      -0.426065       -11.5938
 218   2.0000      -0.424426       -11.5492
 219   2.0000      -0.420375       -11.4390
 220   2.0000      -0.415179       -11.2976
 221   2.0000      -0.411372       -11.1940
 222   2.0000      -0.409516       -11.1435
 223   2.0000      -0.407731       -11.0949
 224   2.0000      -0.402251       -10.9458
 225   2.0000      -0.400888       -10.9087
 226   2.0000      -0.391160       -10.6440
 227   2.0000      -0.382502       -10.4084
 228   2.0000      -0.377440       -10.2707
 229   2.0000      -0.360432        -9.8079
 230   2.0000      -0.353280        -9.6132
 231   2.0000      -0.349720        -9.5164
 232   2.0000      -0.347860        -9.4658
 233   2.0000      -0.344978        -9.3873
 234   2.0000      -0.341655        -9.2969
 235   2.0000      -0.336679        -9.1615
 236   2.0000      -0.327690        -8.9169
 237   2.0000      -0.325132        -8.8473
 238   2.0000      -0.323800        -8.8111
 239   2.0000      -0.315704        -8.5907
 240   2.0000      -0.313363        -8.5270
 241   2.0000      -0.310257        -8.4425
 242   2.0000      -0.284170        -7.7327
 243   2.0000      -0.267076        -7.2675
 244   2.0000      -0.236226        -6.4280
 245   0.0000      -0.108180        -2.9437
 246   0.0000      -0.091016        -2.4767
 247   0.0000      -0.077062        -2.0970
 248   0.0000      -0.042141        -1.1467
 249   0.0000      -0.030102        -0.8191

MULLIKEN ATOMIC CHARGES
-----------------------
   0 C :   -0.078146
   1 C :    0.034397
   2 C :   -0.025496
   3 C :   -0.119872
   4 S :    0.185516
   5 C :   -0.084001
   6 C :    0.017009
   7 C :    0.300713
   8 C :   -0.298689
   9 C :   -0.182255
  10 N :    0.175390
  11 C :   -0.192898
  12 N :    0.175350
  13 C :   -0.039163
  14 C :   -0.129206
  15 S :    0.163528
  16 C :    0.179955
  17 C :   -0.140592
  18 C :    0.201271
  19 F :   -0.183872
  20 C :    0.014338
  21 C :   -0.014498
  22 C :    0.007567
  23 N :   -0.272632
  24 S :    0.547964
  25 N :   -0.287282
  26 C :   -0.149915
  27 S :    0.168682
  28 C :   -0.094065
  29 C :   -0.109607
  30 C :   -0.050373
  31 C :    0.209160
  32 C :   -0.098900
  33 C :   -0.255851
  34 N :    0.158921
  35 C :   -0.063302
  36 C :   -0.264792
  37 N :    0.158890
  38 C :    0.161437
  39 C :   -0.036640
  40 C :   -0.088661
  41 C :    0.080965
  42 C :    0.061898
  43 C :   -0.105461
  44 S :    0.101130
  45 C :   -0.117660
  46 C :    0.059107
  47 C :   -0.013494
  48 C :   -0.062206
  49 S :    0.130272
  50 C :    0.090614
  51 C :    0.002660
  52 C :   -0.004739
  53 C :    0.017640
  54 C :   -0.138797
  55 C :    0.205245
  56 O :   -0.229746
  57 N :   -0.294522
  58 C :    0.227705
  59 O :   -0.233788
  60 N :   -0.285926
  61 C :    0.183357
  62 O :   -0.225734
  63 C :    0.146939
  64 C :    0.144909
  65 H :    0.039869
  66 H :    0.013922
  67 H :    0.023022
  68 H :    0.001046
  69 H :    0.034307
  70 H :    0.030876
  71 H :    0.050267
  72 H :    0.046915
  73 H :    0.043021
  74 H :    0.053844
  75 H :    0.006079
  76 H :    0.042478
  77 H :    0.020046
  78 H :    0.029127
  79 H :   -0.028673
  80 H :    0.007772
  81 H :    0.010192
  82 H :    0.052655
  83 H :    0.034060
  84 H :    0.031243
  85 H :    0.049980
  86 H :    0.034206
  87 H :    0.033999
Sum of atomic charges:    0.0000000

LOEWDIN ATOMIC CHARGES
----------------------
   0 C :   -0.173251
   1 C :   -0.034003
   2 C :   -0.070421
   3 C :   -0.188534
   4 S :    0.480293
   5 C :   -0.168654
   6 C :   -0.074899
   7 C :    0.081097
   8 C :   -0.099731
   9 C :   -0.017249
  10 N :   -0.029508
  11 C :   -0.017197
  12 N :   -0.031305
  13 C :   -0.009055
  14 C :   -0.171380
  15 S :    0.474386
  16 C :   -0.020231
  17 C :   -0.053052
  18 C :    0.097275
  19 F :   -0.053841
  20 C :   -0.091437
  21 C :   -0.042634
  22 C :   -0.045690
  23 N :   -0.268518
  24 S :    0.671347
  25 N :   -0.297791
  26 C :   -0.162346
  27 S :    0.491970
  28 C :   -0.187082
  29 C :   -0.064732
  30 C :   -0.058189
  31 C :   -0.008060
  32 C :   -0.033378
  33 C :   -0.037159
  34 N :   -0.045140
  35 C :   -0.031043
  36 C :   -0.038082
  37 N :   -0.044662
  38 C :   -0.024463
  39 C :   -0.171239
  40 C :   -0.034354
  41 C :    0.004103
  42 C :   -0.043545
  43 C :   -0.143745
  44 S :    0.485219
  45 C :   -0.206239
  46 C :   -0.028328
  47 C :   -0.058938
  48 C :   -0.159133
  49 S :    0.424404
  50 C :   -0.062298
  51 C :    0.036758
  52 C :   -0.056354
  53 C :    0.089918
  54 C :   -0.160695
  55 C :    0.091808
  56 O :   -0.205416
  57 N :   -0.042261
  58 C :    0.095309
  59 O :   -0.204189
  60 N :   -0.041321
  61 C :    0.081135
  62 O :   -0.205928
  63 C :    0.040707
  64 C :    0.039316
  65 H :    0.029013
  66 H :    0.043478
  67 H :    0.040025
  68 H :    0.034929
  69 H :    0.042168
  70 H :    0.039691
  71 H :    0.058898
  72 H :    0.058525
  73 H :    0.039883
  74 H :    0.034776
  75 H :    0.026866
  76 H :    0.039467
  77 H :    0.040592
  78 H :    0.025622
  79 H :    0.028098
  80 H :    0.029358
  81 H :    0.039356
  82 H :    0.033188
  83 H :    0.029675
  84 H :    0.028850
  85 H :    0.030958
  86 H :    0.029084
  87 H :    0.029152

  Mayer bond orders larger than 0.100000
B(  0-C ,  1-C ) :   1.5455 B(  0-C ,  4-S ) :   1.1549 B(  0-C , 65-H ) :   0.9639
B(  1-C ,  2-C ) :   1.2805 B(  1-C , 66-H ) :   0.9961 B(  2-C ,  3-C ) :   1.4569
B(  2-C ,  7-C ) :   1.0111 B(  3-C ,  4-S ) :   1.1331 B(  3-C ,  5-C ) :   1.1793
B(  5-C ,  6-C ) :   1.4531 B(  5-C , 15-S ) :   1.1378 B(  6-C ,  7-C ) :   0.9953
B(  6-C , 13-C ) :   1.2438 B(  7-C ,  8-C ) :   1.7135 B(  8-C ,  9-C ) :   1.1342
B(  8-C , 11-C ) :   1.1309 B(  9-C , 10-N ) :   2.9871 B( 11-C , 12-N ) :   3.0019
B( 13-C , 14-C ) :   1.4855 B( 13-C , 67-H ) :   0.9821 B( 14-C , 15-S ) :   1.0844
B( 14-C , 16-C ) :   1.1352 B( 16-C , 17-C ) :   1.3957 B( 16-C , 20-C ) :   0.1081
B( 16-C , 22-C ) :   1.1794 B( 17-C , 18-C ) :   1.2211 B( 17-C , 68-H ) :   0.9948
B( 18-C , 19-F ) :   1.1002 B( 18-C , 20-C ) :   1.4277 B( 20-C , 21-C ) :   1.1825
B( 20-C , 26-C ) :   1.0055 B( 21-C , 22-C ) :   1.1621 B( 21-C , 25-N ) :   1.5374
B( 22-C , 23-N ) :   1.5375 B( 23-N , 24-S ) :   1.2739 B( 23-N , 25-N ) :   0.1428
B( 24-S , 25-N ) :   1.2607 B( 26-C , 27-S ) :   1.1550 B( 26-C , 28-C ) :   0.1086
B( 26-C , 30-C ) :   1.5540 B( 27-S , 28-C ) :   1.1358 B( 28-C , 29-C ) :   1.5077
B( 28-C , 39-C ) :   1.1446 B( 29-C , 30-C ) :   1.3068 B( 29-C , 38-C ) :   1.0444
B( 30-C , 31-C ) :   1.0670 B( 31-C , 32-C ) :   1.0896 B( 31-C , 69-H ) :   0.9166
B( 31-C , 70-H ) :   0.8691 B( 32-C , 33-C ) :   1.0952 B( 32-C , 35-C ) :   1.0720
B( 32-C , 71-H ) :   0.8554 B( 33-C , 34-N ) :   3.1231 B( 35-C , 36-C ) :   1.0735
B( 35-C , 38-C ) :   1.0658 B( 35-C , 72-H ) :   0.8496 B( 36-C , 37-N ) :   3.1248
B( 38-C , 73-H ) :   0.9010 B( 38-C , 74-H ) :   0.9048 B( 39-C , 40-C ) :   1.4992
B( 39-C , 44-S ) :   1.0646 B( 40-C , 41-C ) :   1.2703 B( 40-C , 75-H ) :   0.9554
B( 41-C , 42-C ) :   1.0582 B( 41-C , 50-C ) :   1.3392 B( 42-C , 43-C ) :   1.5953
B( 42-C , 45-C ) :   1.1804 B( 43-C , 44-S ) :   1.1390 B( 43-C , 76-H ) :   0.9397
B( 45-C , 46-C ) :   1.4501 B( 45-C , 49-S ) :   1.0785 B( 46-C , 47-C ) :   1.2212
B( 46-C , 50-C ) :   1.0711 B( 47-C , 48-C ) :   1.5839 B( 47-C , 77-H ) :   0.9986
B( 48-C , 49-S ) :   1.1550 B( 48-C , 78-H ) :   0.9625 B( 50-C , 51-C ) :   1.1806
B( 51-C , 52-C ) :   1.5086 B( 51-C , 79-H ) :   0.9703 B( 52-C , 53-C ) :   1.1878
B( 52-C , 80-H ) :   0.9759 B( 53-C , 54-C ) :   1.5723 B( 53-C , 81-H ) :   0.9696
B( 54-C , 55-C ) :   0.9825 B( 54-C , 61-C ) :   0.9614 B( 55-C , 56-O ) :   2.0445
B( 55-C , 57-N ) :   1.0725 B( 57-N , 58-C ) :   1.0626 B( 57-N , 64-C ) :   0.9402
B( 58-C , 59-O ) :   2.0707 B( 58-C , 60-N ) :   1.0712 B( 60-N , 61-C ) :   1.0644
B( 60-N , 63-C ) :   0.9398 B( 61-C , 62-O ) :   2.1129 B( 63-C , 82-H ) :   0.9563
B( 63-C , 83-H ) :   0.9745 B( 63-C , 84-H ) :   0.9772 B( 64-C , 85-H ) :   0.9536
B( 64-C , 86-H ) :   0.9765 B( 64-C , 87-H ) :   0.9757

-----------------------------------------------------------------------------
         ABSORPTION SPECTRUM VIA TRANSITION ELECTRIC DIPOLE MOMENTS
-----------------------------------------------------------------------------
State   Energy  Wavelength   fosc         T2         TX        TY        TZ
        (cm-1)    (nm)                  (au**2)     (au)      (au)      (au)
-----------------------------------------------------------------------------
   0   15125.8    661.1   0.302350212   6.58065   0.24914   2.52857   0.35344
   1   16878.2    592.5   0.579025702  11.29401   0.25809   2.45738   2.27787
   2   19403.4    515.4   0.289033622   4.90395   0.11505  -0.18261  -2.20394
   3   21156.9    472.7   0.254847626   3.96556   0.26178   1.58742  -1.17352
   4   22899.1    436.7   0.552184429   7.93855  -0.34724  -1.69954   2.22026
   5   23449.0    426.5   0.187870911   2.63761  -0.15373  -1.59072  -0.28914
   6   26078.5    383.5   0.224948401   2.83972  -0.31744  -0.63901   1.52664
   7   27490.0    363.8   0.114349564   1.36941  -0.21533  -0.47437   1.04787
   8   28487.5    351.0   0.349978864   4.04449  -0.44143  -1.51931   1.24150
   9   28905.2    346.0   0.073493431   0.83704  -0.21611  -0.81275   0.36025
  10   30445.9    328.5   0.000093211   0.00101   0.00544  -0.00592  -0.03071
  11   30568.0    327.1   0.121936388   1.31324   0.15123  -0.86855  -0.73212
  12   31191.2    320.6   0.465342756   4.91153   1.28776  -0.30334  -1.77798
  13   31695.1    315.5   0.018441533   0.19155  -0.15581   0.32539   0.24779
  14   32139.8    311.1   0.018634195   0.19087   0.21797  -0.13522   0.35366
  15   32658.4    306.2   0.239459978   2.41387  -0.25012   0.02560   1.53319
  16   33431.9    299.1   0.481172311   4.73823   0.19304   2.13880   0.35567
  17   33731.5    296.5   0.077435762   0.75576   0.05388   0.86455  -0.07356
  18   34653.9    288.6   0.279355737   2.65388   0.38203   1.38987  -0.75907
  19   35493.4    281.7   0.061746694   0.57272  -0.29929  -0.35500  -0.59759
  20   35680.7    280.3   0.176397631   1.62755  -0.50784   0.64973   0.97340
  21   35912.6    278.5   0.008425414   0.07724  -0.12169  -0.24969  -0.00914
  22   36150.9    276.6   0.063361258   0.57701   0.42275   0.44527  -0.44724
  23   36219.8    276.1   0.087126210   0.79192   0.24889  -0.67665  -0.52164
  24   36706.7    272.4   0.028407264   0.25478  -0.04957   0.26077   0.42933
  25   36919.7    270.9   0.279806400   2.49502  -0.00320   0.09678   1.57659
  26   37255.3    268.4   0.000053359   0.00047  -0.00384  -0.00417  -0.02096
  27   37282.3    268.2   0.030742466   0.27146  -0.06497  -0.31336   0.41116
  28   37630.1    265.7   0.022930759   0.20061  -0.38872  -0.20978   0.07416
  29   38092.8    262.5   0.003772662   0.03260  -0.13059   0.09593   0.07967
  30   38474.0    259.9   0.000902457   0.00772   0.03921   0.06480  -0.04456
  31   38751.6    258.1   0.000173555   0.00147  -0.02319  -0.00017   0.03061
  32   38947.1    256.8   0.012871152   0.10880  -0.08191  -0.30889   0.08171
  33   39107.6    255.7   0.036880792   0.31047  -0.06896   0.54717   0.07951
  34   39380.8    253.9   0.170593362   1.42611   0.01113   1.04192   0.58344
  35   39725.9    251.7   0.001893491   0.01569   0.02736  -0.02735  -0.11914
  36   40006.3    250.0   0.177536692   1.46095   0.15647   1.17491  -0.23676
  37   40264.7    248.4   0.000492589   0.00403   0.01061  -0.03043  -0.05467

FINAL SINGLE POINT ENERGY     -4953.550067173180

DIPOLE MOMENT
-------------
                                X             Y             Z
Electronic contribution:     -2.51567     -49.54170     -26.04402
Nuclear contribution   :      4.26579      47.93739      24.46583
                        -----------------------------------------
Total Dipole Moment    :      1.75012      -1.60431      -1.57819
                        -----------------------------------------
Magnitude (a.u.)       :      2.85086
Magnitude (Debye)      :      7.24631

Rotational constants in cm-1:     0.000991     0.000464     0.000324
Rotational constants in MHz :    29.717491    13.903171     9.712799

                             ****ORCA TERMINATED NORMALLY****
TOTAL RUN TIME: 0 days 0 hours 11 minutes 8 seconds 509 msec
