                         Program Version 4.2.0 -  RELEASE  -
|  1> # ORCA input file
|  2> # SCF done       -218.576929665139          0.000638244884
|  3> ! CAM-B3LYP def2-SVP def2/J RIJCOSX Grid4 TightSCF
|  4> %maxcore 5000
|  5> %tddft
|  6>     Mode sTDDFT
|  7>     Ethresh 5.0
|  8>     maxcore 5000
|  9> end
| 10>
| 11> %pal
| 12>   nprocs 6
| 13>   end
| 14> * xyz 0 1
| 15>    C        1.31595        -2.29806         2.55333
| 16>    C        0.86757        -1.93256         1.32252
| 17>    C        0.60541        -0.54929         1.25899
| 18>    C        0.87665         0.10227         2.47435
| 19>    S        1.44188        -0.97665         3.67255
| 20>    C        0.60038         1.48448         2.32085
| 21>    C        0.13845         1.69697         1.01183
| 22>    C        0.16342         0.42853         0.29485
| 23>    C       -0.09226         0.25401        -1.04128
| 24>    C       -0.37880         1.35605        -1.86537
| 25>    N       -0.57324         2.28424        -2.51435
| 26>    C       -0.03217        -1.00602        -1.66495
| 27>    N        0.00775        -2.03367        -2.17456
| 28>    C       -0.19856         3.02159         0.75639
| 29>    C        0.03660         3.84262         1.84567
| 30>    S        0.65233         2.93271         3.22495
| 31>    C       -0.09291         5.26284         1.94133
| 32>    C       -0.23016         5.80094         3.30866
| 33>    C       -1.22764         5.34055         4.16968
| 34>    C       -1.34786         5.81326         5.47037
| 35>    C       -0.45476         6.77047         5.94304
| 36>    C        0.55168         7.24271         5.10570
| 37>    C        0.65769         6.75521         3.80964
| 38>    F        1.64012         7.21906         3.03140
| 39>    F        1.41106         8.16254         5.55002
| 40>    F       -0.56545         7.23601         7.18713
| 41>    F       -2.32085         5.36202         6.26367
| 42>    F       -2.11616         4.44614         3.72875
| 43>    C       -0.01530         6.11378         0.86140
| 44>    C        0.40149         5.62292        -0.46900
| 45>    C       -0.39951         5.84803        -1.58948
| 46>    C       -0.05508         5.38350        -2.85345
| 47>    C        1.13885         4.69077        -3.02627
| 48>    C        1.97008         4.47761        -1.92934
| 49>    C        1.60063         4.93887        -0.67346
| 50>    F        2.41701         4.71481         0.36188
| 51>    F        3.12510         3.82488        -2.09024
| 52>    F        1.49741         4.23664        -4.22401
| 53>    F       -0.87093         5.59952        -3.88246
| 54>    F       -1.55676         6.50400        -1.44368
| 55>    C       -0.29874         7.52443         0.92776
| 56>    C        0.44216         8.42809         0.20064
| 57>    C        0.33292         9.81006         0.29602
| 58>    C       -0.57824        10.42974         1.26407
| 59>    C       -1.46339         9.74377         2.01708
| 60>    S       -1.62392         8.03171         1.97130
| 61>    C       -0.26755        11.81913         1.24306
| 62>    C        0.77408        12.05569         0.34845
| 63>    C        1.13085        13.42038         0.29415
| 64>    C        0.36812        14.16812         1.13451
| 65>    S       -0.80724        13.25375         2.01803
| 66>    C        1.14458        10.81518        -0.28710
| 67>    C        2.14101        10.69216        -1.26436
| 68>    C        2.24608         9.67932        -2.19158
| 69>    C        3.31643         9.53552        -3.06732
| 70>    C        3.35120         8.62935        -4.11278
| 71>    C        4.42277         8.36566        -4.98486
| 72>    C        4.13686         7.45734        -5.96948
| 73>    C        2.81668         6.98065        -5.93665
| 74>    S        1.95876         7.66631        -4.57517
| 75>    C        2.17714         6.15014        -6.84936
| 76>    C        2.73164         5.48997        -7.96163
| 77>    C        1.81452         4.79547        -8.69698
| 78>    C        0.49006         4.87922        -8.20726
| 79>    S        0.46042         5.85805        -6.76004
| 80>    C       -0.61223         4.30813        -8.80624
| 81>    C       -1.96136         4.35831        -8.41734
| 82>    C       -2.94262         3.79049        -9.22227
| 83>    C       -4.30338         3.80219        -8.96085
| 84>    C       -4.82366         4.34375        -7.69361
| 85>    C       -4.05276         4.94425        -6.76065
| 86>    S       -2.36184         5.16788        -6.90467
| 87>    C       -6.21807         4.08781        -7.71755
| 88>    C       -6.55449         3.44344        -8.91504
| 89>    C       -7.94190         3.17654        -9.00151
| 90>    C       -8.60291         3.60849        -7.89872
| 91>    S       -7.58310         4.35933        -6.71097
| 92>    C       -5.37923         3.27890        -9.70923
| 93>    C       -5.39444         2.69680       -11.02155
| 94>    C       -4.52329         2.91634       -12.00748
| 95>    H        1.58901        -3.27793         2.89038
| 96>    H        0.73020        -2.61954         0.50739
| 97>    H       -0.63880         3.36884        -0.15886
| 98>    H        1.24016         8.02119        -0.40462
| 99>    H       -2.13622        10.22080         2.71150
|100>    H        1.90543        13.83122        -0.32755
|101>    H        0.41699        15.22664         1.29982
|102>    H        2.86026        11.50042        -1.31903
|103>    H        1.43067         8.97470        -2.29386
|104>    H        4.18808        10.16286        -2.93307
|105>    H        5.37544         8.85143        -4.86745
|106>    H        4.83632         7.14577        -6.72411
|107>    H        3.78114         5.53453        -8.19043
|108>    H        2.05044         4.22825        -9.58016
|109>    H       -0.41238         3.76095        -9.71965
|110>    H       -2.59788         3.29220       -10.11727
|111>    H       -4.45694         5.34337        -5.84349
|112>    H       -8.42512         2.69324        -9.83130
|113>    H       -9.65316         3.53870        -7.69204
|114>    H       -6.24314         2.05006       -11.21239
|115>    H       -3.70303         3.60591       -11.91310
|116>    H       -4.63254         2.43354       -12.96328
|117> *
|118>
|119>                          ****END OF INPUT****

CARTESIAN COORDINATES (ANGSTROEM)
---------------------------------
  C      1.315950   -2.298060    2.553330
  C      0.867570   -1.932560    1.322520
  C      0.605410   -0.549290    1.258990
  C      0.876650    0.102270    2.474350
  S      1.441880   -0.976650    3.672550
  C      0.600380    1.484480    2.320850
  C      0.138450    1.696970    1.011830
  C      0.163420    0.428530    0.294850
  C     -0.092260    0.254010   -1.041280
  C     -0.378800    1.356050   -1.865370
  N     -0.573240    2.284240   -2.514350
  C     -0.032170   -1.006020   -1.664950
  N      0.007750   -2.033670   -2.174560
  C     -0.198560    3.021590    0.756390
  C      0.036600    3.842620    1.845670
  S      0.652330    2.932710    3.224950
  C     -0.092910    5.262840    1.941330
  C     -0.230160    5.800940    3.308660
  C     -1.227640    5.340550    4.169680
  C     -1.347860    5.813260    5.470370
  C     -0.454760    6.770470    5.943040
  C      0.551680    7.242710    5.105700
  C      0.657690    6.755210    3.809640
  F      1.640120    7.219060    3.031400
  F      1.411060    8.162540    5.550020
  F     -0.565450    7.236010    7.187130
  F     -2.320850    5.362020    6.263670
  F     -2.116160    4.446140    3.728750
  C     -0.015300    6.113780    0.861400
  C      0.401490    5.622920   -0.469000
  C     -0.399510    5.848030   -1.589480
  C     -0.055080    5.383500   -2.853450
  C      1.138850    4.690770   -3.026270
  C      1.970080    4.477610   -1.929340
  C      1.600630    4.938870   -0.673460
  F      2.417010    4.714810    0.361880
  F      3.125100    3.824880   -2.090240
  F      1.497410    4.236640   -4.224010
  F     -0.870930    5.599520   -3.882460
  F     -1.556760    6.504000   -1.443680
  C     -0.298740    7.524430    0.927760
  C      0.442160    8.428090    0.200640
  C      0.332920    9.810060    0.296020
  C     -0.578240   10.429740    1.264070
  C     -1.463390    9.743770    2.017080
  S     -1.623920    8.031710    1.971300
  C     -0.267550   11.819130    1.243060
  C      0.774080   12.055690    0.348450
  C      1.130850   13.420380    0.294150
  C      0.368120   14.168120    1.134510
  S     -0.807240   13.253750    2.018030
  C      1.144580   10.815180   -0.287100
  C      2.141010   10.692160   -1.264360
  C      2.246080    9.679320   -2.191580
  C      3.316430    9.535520   -3.067320
  C      3.351200    8.629350   -4.112780
  C      4.422770    8.365660   -4.984860
  C      4.136860    7.457340   -5.969480
  C      2.816680    6.980650   -5.936650
  S      1.958760    7.666310   -4.575170
  C      2.177140    6.150140   -6.849360
  C      2.731640    5.489970   -7.961630
  C      1.814520    4.795470   -8.696980
  C      0.490060    4.879220   -8.207260
  S      0.460420    5.858050   -6.760040
  C     -0.612230    4.308130   -8.806240
  C     -1.961360    4.358310   -8.417340
  C     -2.942620    3.790490   -9.222270
  C     -4.303380    3.802190   -8.960850
  C     -4.823660    4.343750   -7.693610
  C     -4.052760    4.944250   -6.760650
  S     -2.361840    5.167880   -6.904670
  C     -6.218070    4.087810   -7.717550
  C     -6.554490    3.443440   -8.915040
  C     -7.941900    3.176540   -9.001510
  C     -8.602910    3.608490   -7.898720
  S     -7.583100    4.359330   -6.710970
  C     -5.379230    3.278900   -9.709230
  C     -5.394440    2.696800  -11.021550
  C     -4.523290    2.916340  -12.007480
  H      1.589010   -3.277930    2.890380
  H      0.730200   -2.619540    0.507390
  H     -0.638800    3.368840   -0.158860
  H      1.240160    8.021190   -0.404620
  H     -2.136220   10.220800    2.711500
  H      1.905430   13.831220   -0.327550
  H      0.416990   15.226640    1.299820
  H      2.860260   11.500420   -1.319030
  H      1.430670    8.974700   -2.293860
  H      4.188080   10.162860   -2.933070
  H      5.375440    8.851430   -4.867450
  H      4.836320    7.145770   -6.724110
  H      3.781140    5.534530   -8.190430
  H      2.050440    4.228250   -9.580160
  H     -0.412380    3.760950   -9.719650
  H     -2.597880    3.292200  -10.117270
  H     -4.456940    5.343370   -5.843490
  H     -8.425120    2.693240   -9.831300
  H     -9.653160    3.538700   -7.692040
  H     -6.243140    2.050060  -11.212390
  H     -3.703030    3.605910  -11.913100
  H     -4.632540    2.433540  -12.963280

 Total Charge           Charge          ....    0
 Multiplicity           Mult            ....    1
 Number of Electrons    NEL             ....  614
 Basis Dimension        Dim             .... 1262

ORBITAL ENERGIES
----------------

  NO   OCC          E(Eh)            E(eV)
   0   2.0000     -88.985544     -2421.4197
   1   2.0000     -88.984761     -2421.3985
   2   2.0000     -88.969545     -2420.9844
   3   2.0000     -88.956629     -2420.6329
   4   2.0000     -88.953413     -2420.5454
   5   2.0000     -88.941026     -2420.2084
   6   2.0000     -88.940842     -2420.2034
   7   2.0000     -88.938065     -2420.1278
   8   2.0000     -24.813684      -675.2147
   9   2.0000     -24.809618      -675.1040
  10   2.0000     -24.808443      -675.0721
  11   2.0000     -24.807888      -675.0569
  12   2.0000     -24.807271      -675.0402
  13   2.0000     -24.800339      -674.8515
  14   2.0000     -24.799055      -674.8166
  15   2.0000     -24.799032      -674.8160
  16   2.0000     -24.796177      -674.7383
  17   2.0000     -24.796001      -674.7335
  18   2.0000     -14.430766      -392.6811
  19   2.0000     -14.426071      -392.5534
  20   2.0000     -10.396385      -282.9000
  21   2.0000     -10.391206      -282.7591
  22   2.0000     -10.390900      -282.7508
  23   2.0000     -10.389127      -282.7025
  24   2.0000     -10.388612      -282.6885
  25   2.0000     -10.382182      -282.5135
  26   2.0000     -10.380212      -282.4599
  27   2.0000     -10.379571      -282.4425
  28   2.0000     -10.375503      -282.3318
  29   2.0000     -10.375278      -282.3257
  30   2.0000     -10.359700      -281.9018
  31   2.0000     -10.348535      -281.5979
  32   2.0000     -10.332418      -281.1594
  33   2.0000     -10.327613      -281.0286
  34   2.0000     -10.326480      -280.9978
  35   2.0000     -10.325054      -280.9590
  36   2.0000     -10.321876      -280.8725
  37   2.0000     -10.321457      -280.8611
  38   2.0000     -10.320152      -280.8256
  39   2.0000     -10.317030      -280.7407
  40   2.0000     -10.315735      -280.7054
  41   2.0000     -10.315190      -280.6906
  42   2.0000     -10.312488      -280.6171
  43   2.0000     -10.309587      -280.5381
  44   2.0000     -10.308657      -280.5128
  45   2.0000     -10.305100      -280.4160
  46   2.0000     -10.302944      -280.3573
  47   2.0000     -10.301966      -280.3307
  48   2.0000     -10.300454      -280.2896
  49   2.0000     -10.299711      -280.2694
  50   2.0000     -10.297080      -280.1978
  51   2.0000     -10.295623      -280.1581
  52   2.0000     -10.294839      -280.1368
  53   2.0000     -10.294715      -280.1334
  54   2.0000     -10.293085      -280.0891
  55   2.0000     -10.292905      -280.0842
  56   2.0000     -10.291106      -280.0352
  57   2.0000     -10.283807      -279.8366
  58   2.0000     -10.283050      -279.8160
  59   2.0000     -10.280974      -279.7595
  60   2.0000     -10.280868      -279.7566
  61   2.0000     -10.279207      -279.7114
  62   2.0000     -10.278582      -279.6944
  63   2.0000     -10.278154      -279.6828
  64   2.0000     -10.277893      -279.6757
  65   2.0000     -10.277827      -279.6739
  66   2.0000     -10.276953      -279.6501
  67   2.0000     -10.272970      -279.5417
  68   2.0000     -10.271679      -279.5066
  69   2.0000     -10.271597      -279.5044
  70   2.0000     -10.271364      -279.4980
  71   2.0000     -10.270009      -279.4612
  72   2.0000     -10.269896      -279.4581
  73   2.0000     -10.268668      -279.4247
  74   2.0000     -10.266516      -279.3661
  75   2.0000     -10.260992      -279.2158
  76   2.0000     -10.260251      -279.1956
  77   2.0000     -10.256677      -279.0984
  78   2.0000     -10.255183      -279.0577
  79   2.0000     -10.247474      -278.8480
  80   2.0000      -8.079765      -219.8616
  81   2.0000      -8.079633      -219.8580
  82   2.0000      -8.064084      -219.4349
  83   2.0000      -8.051915      -219.1037
  84   2.0000      -8.048815      -219.0194
  85   2.0000      -8.036561      -218.6859
  86   2.0000      -8.036467      -218.6834
  87   2.0000      -8.034213      -218.6221
  88   2.0000      -6.049006      -164.6018
  89   2.0000      -6.048816      -164.5967
  90   2.0000      -6.044726      -164.4853
  91   2.0000      -6.044578      -164.4813
  92   2.0000      -6.042363      -164.4210
  93   2.0000      -6.042143      -164.4151
  94   2.0000      -6.033772      -164.1873
  95   2.0000      -6.029168      -164.0620
  96   2.0000      -6.025917      -163.9735
  97   2.0000      -6.021477      -163.8527
  98   2.0000      -6.018276      -163.7656
  99   2.0000      -6.016899      -163.7281
 100   2.0000      -6.013995      -163.6491
 101   2.0000      -6.013769      -163.6430
 102   2.0000      -6.010860      -163.5638
 103   2.0000      -6.006217      -163.4375
 104   2.0000      -6.005949      -163.4302
 105   2.0000      -6.003928      -163.3752
 106   2.0000      -6.002275      -163.3302
 107   2.0000      -6.001736      -163.3155
 108   2.0000      -5.999689      -163.2598
 109   2.0000      -5.998391      -163.2245
 110   2.0000      -5.997671      -163.2049
 111   2.0000      -5.995219      -163.1382
 112   2.0000      -1.339820       -36.4583
 113   2.0000      -1.332107       -36.2485
 114   2.0000      -1.326897       -36.1067
 115   2.0000      -1.326759       -36.1029
 116   2.0000      -1.321366       -35.9562
 117   2.0000      -1.316844       -35.8331
 118   2.0000      -1.315362       -35.7928
 119   2.0000      -1.312694       -35.7202
 120   2.0000      -1.305634       -35.5281
 121   2.0000      -1.300624       -35.3918
 122   2.0000      -1.039704       -28.2918
 123   2.0000      -1.019498       -27.7420
 124   2.0000      -1.008895       -27.4534
 125   2.0000      -1.005144       -27.3514
 126   2.0000      -1.000177       -27.2162
 127   2.0000      -0.991856       -26.9898
 128   2.0000      -0.990846       -26.9623
 129   2.0000      -0.987143       -26.8615
 130   2.0000      -0.986990       -26.8574
 131   2.0000      -0.969741       -26.3880
 132   2.0000      -0.969035       -26.3688
 133   2.0000      -0.954871       -25.9834
 134   2.0000      -0.952882       -25.9292
 135   2.0000      -0.938697       -25.5433
 136   2.0000      -0.920237       -25.0409
 137   2.0000      -0.911612       -24.8062
 138   2.0000      -0.905347       -24.6358
 139   2.0000      -0.895473       -24.3670
 140   2.0000      -0.892627       -24.2896
 141   2.0000      -0.886137       -24.1130
 142   2.0000      -0.872009       -23.7286
 143   2.0000      -0.866506       -23.5788
 144   2.0000      -0.862065       -23.4580
 145   2.0000      -0.858908       -23.3721
 146   2.0000      -0.854305       -23.2468
 147   2.0000      -0.849157       -23.1067
 148   2.0000      -0.847674       -23.0664
 149   2.0000      -0.843897       -22.9636
 150   2.0000      -0.841876       -22.9086
 151   2.0000      -0.837744       -22.7962
 152   2.0000      -0.826811       -22.4987
 153   2.0000      -0.819041       -22.2872
 154   2.0000      -0.814245       -22.1567
 155   2.0000      -0.811671       -22.0867
 156   2.0000      -0.798098       -21.7173
 157   2.0000      -0.787784       -21.4367
 158   2.0000      -0.779706       -21.2169
 159   2.0000      -0.777197       -21.1486
 160   2.0000      -0.770297       -20.9608
 161   2.0000      -0.762819       -20.7574
 162   2.0000      -0.750435       -20.4204
 163   2.0000      -0.747546       -20.3418
 164   2.0000      -0.742054       -20.1923
 165   2.0000      -0.737729       -20.0746
 166   2.0000      -0.730623       -19.8813
 167   2.0000      -0.727038       -19.7837
 168   2.0000      -0.708561       -19.2809
 169   2.0000      -0.706086       -19.2136
 170   2.0000      -0.701941       -19.1008
 171   2.0000      -0.695565       -18.9273
 172   2.0000      -0.686541       -18.6817
 173   2.0000      -0.684537       -18.6272
 174   2.0000      -0.680938       -18.5293
 175   2.0000      -0.673770       -18.3342
 176   2.0000      -0.672891       -18.3103
 177   2.0000      -0.672479       -18.2991
 178   2.0000      -0.667272       -18.1574
 179   2.0000      -0.664034       -18.0693
 180   2.0000      -0.656716       -17.8702
 181   2.0000      -0.650390       -17.6980
 182   2.0000      -0.649061       -17.6619
 183   2.0000      -0.646392       -17.5892
 184   2.0000      -0.634269       -17.2593
 185   2.0000      -0.630636       -17.1605
 186   2.0000      -0.629764       -17.1367
 187   2.0000      -0.628566       -17.1041
 188   2.0000      -0.624624       -16.9969
 189   2.0000      -0.622832       -16.9481
 190   2.0000      -0.620328       -16.8800
 191   2.0000      -0.618741       -16.8368
 192   2.0000      -0.618515       -16.8306
 193   2.0000      -0.614985       -16.7346
 194   2.0000      -0.613803       -16.7024
 195   2.0000      -0.611541       -16.6409
 196   2.0000      -0.608727       -16.5643
 197   2.0000      -0.605287       -16.4707
 198   2.0000      -0.603817       -16.4307
 199   2.0000      -0.601709       -16.3733
 200   2.0000      -0.600577       -16.3425
 201   2.0000      -0.597004       -16.2453
 202   2.0000      -0.592330       -16.1181
 203   2.0000      -0.589446       -16.0397
 204   2.0000      -0.584896       -15.9158
 205   2.0000      -0.579981       -15.7821
 206   2.0000      -0.576953       -15.6997
 207   2.0000      -0.575191       -15.6517
 208   2.0000      -0.572760       -15.5856
 209   2.0000      -0.566279       -15.4092
 210   2.0000      -0.564720       -15.3668
 211   2.0000      -0.559440       -15.2231
 212   2.0000      -0.555913       -15.1272
 213   2.0000      -0.554092       -15.0776
 214   2.0000      -0.548401       -14.9227
 215   2.0000      -0.547044       -14.8858
 216   2.0000      -0.544977       -14.8296
 217   2.0000      -0.544000       -14.8030
 218   2.0000      -0.540528       -14.7085
 219   2.0000      -0.539742       -14.6871
 220   2.0000      -0.537344       -14.6219
 221   2.0000      -0.535452       -14.5704
 222   2.0000      -0.529784       -14.4161
 223   2.0000      -0.528307       -14.3760
 224   2.0000      -0.525152       -14.2901
 225   2.0000      -0.523433       -14.2433
 226   2.0000      -0.519713       -14.1421
 227   2.0000      -0.518417       -14.1069
 228   2.0000      -0.514065       -13.9884
 229   2.0000      -0.510362       -13.8877
 230   2.0000      -0.509959       -13.8767
 231   2.0000      -0.506262       -13.7761
 232   2.0000      -0.503029       -13.6881
 233   2.0000      -0.501257       -13.6399
 234   2.0000      -0.500084       -13.6080
 235   2.0000      -0.499521       -13.5927
 236   2.0000      -0.497615       -13.5408
 237   2.0000      -0.494808       -13.4644
 238   2.0000      -0.493953       -13.4411
 239   2.0000      -0.492513       -13.4020
 240   2.0000      -0.491775       -13.3819
 241   2.0000      -0.488339       -13.2884
 242   2.0000      -0.487008       -13.2522
 243   2.0000      -0.486120       -13.2280
 244   2.0000      -0.484166       -13.1748
 245   2.0000      -0.480212       -13.0672
 246   2.0000      -0.475232       -12.9317
 247   2.0000      -0.472035       -12.8447
 248   2.0000      -0.470516       -12.8034
 249   2.0000      -0.468885       -12.7590
 250   2.0000      -0.467519       -12.7218
 251   2.0000      -0.465859       -12.6767
 252   2.0000      -0.464109       -12.6291
 253   2.0000      -0.460639       -12.5346
 254   2.0000      -0.458217       -12.4687
 255   2.0000      -0.456738       -12.4285
 256   2.0000      -0.455532       -12.3956
 257   2.0000      -0.454697       -12.3729
 258   2.0000      -0.449825       -12.2404
 259   2.0000      -0.449038       -12.2189
 260   2.0000      -0.447747       -12.1838
 261   2.0000      -0.445817       -12.1313
 262   2.0000      -0.443660       -12.0726
 263   2.0000      -0.440648       -11.9906
 264   2.0000      -0.439693       -11.9647
 265   2.0000      -0.439278       -11.9534
 266   2.0000      -0.437271       -11.8987
 267   2.0000      -0.435242       -11.8435
 268   2.0000      -0.433092       -11.7850
 269   2.0000      -0.427975       -11.6458
 270   2.0000      -0.427110       -11.6222
 271   2.0000      -0.425133       -11.5685
 272   2.0000      -0.423257       -11.5174
 273   2.0000      -0.422021       -11.4838
 274   2.0000      -0.419980       -11.4282
 275   2.0000      -0.413895       -11.2627
 276   2.0000      -0.412513       -11.2250
 277   2.0000      -0.407924       -11.1002
 278   2.0000      -0.404643       -11.0109
 279   2.0000      -0.401797       -10.9334
 280   2.0000      -0.399094       -10.8599
 281   2.0000      -0.396345       -10.7851
 282   2.0000      -0.394114       -10.7244
 283   2.0000      -0.390552       -10.6275
 284   2.0000      -0.379841       -10.3360
 285   2.0000      -0.376588       -10.2475
 286   2.0000      -0.375413       -10.2155
 287   2.0000      -0.356266        -9.6945
 288   2.0000      -0.347934        -9.4678
 289   2.0000      -0.344203        -9.3662
 290   2.0000      -0.341754        -9.2996
 291   2.0000      -0.337263        -9.1774
 292   2.0000      -0.331063        -9.0087
 293   2.0000      -0.327756        -8.9187
 294   2.0000      -0.326386        -8.8814
 295   2.0000      -0.320410        -8.7188
 296   2.0000      -0.318324        -8.6620
 297   2.0000      -0.313404        -8.5282
 298   2.0000      -0.312652        -8.5077
 299   2.0000      -0.310100        -8.4383
 300   2.0000      -0.299341        -8.1455
 301   2.0000      -0.280125        -7.6226
 302   2.0000      -0.268935        -7.3181
 303   2.0000      -0.261569        -7.1177
 304   2.0000      -0.246772        -6.7150
 305   2.0000      -0.223011        -6.0684
 306   2.0000      -0.185378        -5.0444
 307   0.0000      -0.101855        -2.7716
 308   0.0000      -0.086862        -2.3636
 309   0.0000      -0.057997        -1.5782
 310   0.0000      -0.037154        -1.0110
 311   0.0000      -0.023474        -0.6388

MULLIKEN ATOMIC CHARGES
-----------------------
   0 C :   -0.083019
   1 C :    0.039858
   2 C :   -0.039749
   3 C :   -0.116494
   4 S :    0.181123
   5 C :   -0.087814
   6 C :   -0.000254
   7 C :    0.297036
   8 C :   -0.293104
   9 C :   -0.169342
  10 N :    0.150183
  11 C :   -0.184906
  12 N :    0.171923
  13 C :    0.000066
  14 C :   -0.146940
  15 S :    0.191791
  16 C :    0.125393
  17 C :   -0.259750
  18 C :    0.214602
  19 C :    0.170256
  20 C :    0.132064
  21 C :    0.170015
  22 C :    0.243988
  23 F :   -0.151078
  24 F :   -0.157089
  25 F :   -0.152535
  26 F :   -0.157111
  27 F :   -0.155406
  28 C :    0.082785
  29 C :   -0.247809
  30 C :    0.206019
  31 C :    0.188909
  32 C :    0.161566
  33 C :    0.159852
  34 C :    0.224622
  35 F :   -0.161267
  36 F :   -0.161191
  37 F :   -0.144963
  38 F :   -0.152709
  39 F :   -0.160468
  40 C :   -0.170021
  41 C :   -0.010615
  42 C :    0.043165
  43 C :    0.076390
  44 C :   -0.145723
  45 S :    0.135510
  46 C :   -0.106909
  47 C :    0.055046
  48 C :    0.009519
  49 C :   -0.071523
  50 S :    0.127673
  51 C :    0.100339
  52 C :   -0.056946
  53 C :   -0.005138
  54 C :   -0.015497
  55 C :   -0.021209
  56 C :    0.030901
  57 C :    0.023259
  58 C :   -0.047054
  59 S :    0.055500
  60 C :   -0.023087
  61 C :    0.024753
  62 C :    0.032513
  63 C :   -0.032387
  64 S :    0.080047
  65 C :   -0.017983
  66 C :   -0.042197
  67 C :   -0.066662
  68 C :    0.066359
  69 C :    0.059548
  70 C :   -0.108023
  71 S :    0.110213
  72 C :   -0.109305
  73 C :    0.048794
  74 C :    0.011825
  75 C :   -0.072158
  76 S :    0.117864
  77 C :    0.046686
  78 C :   -0.037243
  79 C :   -0.034423
  80 H :    0.035449
  81 H :    0.012570
  82 H :    0.008388
  83 H :   -0.002450
  84 H :    0.033307
  85 H :   -0.018093
  86 H :    0.026729
  87 H :   -0.021501
  88 H :    0.004138
  89 H :   -0.017206
  90 H :   -0.016823
  91 H :   -0.016092
  92 H :   -0.016331
  93 H :   -0.015289
  94 H :   -0.011099
  95 H :   -0.022780
  96 H :    0.034822
  97 H :   -0.021240
  98 H :    0.022254
  99 H :   -0.017131
 100 H :    0.013342
 101 H :    0.014183
Sum of atomic charges:   -0.0000000

LOEWDIN ATOMIC CHARGES
----------------------
   0 C :   -0.178576
   1 C :   -0.032698
   2 C :   -0.080545
   3 C :   -0.177710
   4 S :    0.476161
   5 C :   -0.184848
   6 C :   -0.069770
   7 C :    0.088457
   8 C :   -0.108923
   9 C :   -0.002738
  10 N :   -0.045037
  11 C :   -0.018223
  12 N :   -0.033369
  13 C :   -0.025010
  14 C :   -0.160766
  15 S :    0.484618
  16 C :   -0.044960
  17 C :   -0.108696
  18 C :    0.056907
  19 C :    0.025152
  20 C :    0.043557
  21 C :    0.026740
  22 C :    0.065162
  23 F :   -0.030116
  24 F :   -0.037170
  25 F :   -0.031196
  26 F :   -0.037469
  27 F :   -0.036299
  28 C :   -0.019022
  29 C :   -0.088384
  30 C :    0.063787
  31 C :    0.027522
  32 C :    0.047536
  33 C :    0.025376
  34 C :    0.062751
  35 F :   -0.038472
  36 F :   -0.041330
  37 F :   -0.021093
  38 F :   -0.030980
  39 F :   -0.040324
  40 C :   -0.183703
  41 C :   -0.001199
  42 C :   -0.030808
  43 C :   -0.047390
  44 C :   -0.145578
  45 S :    0.457838
  46 C :   -0.199259
  47 C :   -0.041284
  48 C :   -0.061833
  49 C :   -0.166836
  50 S :    0.421709
  51 C :   -0.038153
  52 C :   -0.022104
  53 C :   -0.039004
  54 C :   -0.059164
  55 C :   -0.148935
  56 C :   -0.041357
  57 C :   -0.033611
  58 C :   -0.181915
  59 S :    0.377026
  60 C :   -0.178794
  61 C :   -0.039298
  62 C :   -0.031966
  63 C :   -0.161964
  64 S :    0.388168
  65 C :   -0.069056
  66 C :   -0.173772
  67 C :   -0.016183
  68 C :   -0.024021
  69 C :   -0.052276
  70 C :   -0.142371
  71 S :    0.454946
  72 C :   -0.205520
  73 C :   -0.040268
  74 C :   -0.065449
  75 C :   -0.167094
  76 S :    0.410659
  77 C :   -0.056964
  78 C :   -0.019843
  79 C :   -0.062759
  80 H :    0.027204
  81 H :    0.042832
  82 H :    0.038696
  83 H :    0.039321
  84 H :    0.034416
  85 H :    0.030350
  86 H :    0.023046
  87 H :    0.028243
  88 H :    0.020248
  89 H :    0.031853
  90 H :    0.032136
  91 H :    0.031201
  92 H :    0.030756
  93 H :    0.032133
  94 H :    0.039539
  95 H :    0.035494
  96 H :    0.035956
  97 H :    0.028750
  98 H :    0.021179
  99 H :    0.027887
 100 H :    0.017019
 101 H :    0.021127

  Mayer bond orders larger than 0.100000
B(  0-C ,  1-C ) :   1.5552 B(  0-C ,  4-S ) :   1.1435 B(  0-C , 80-H ) :   0.9645
B(  1-C ,  2-C ) :   1.2685 B(  1-C , 81-H ) :   0.9966 B(  2-C ,  3-C ) :   1.4450
B(  2-C ,  7-C ) :   1.0287 B(  3-C ,  4-S ) :   1.1396 B(  3-C ,  5-C ) :   1.1916
B(  5-C ,  6-C ) :   1.4466 B(  5-C , 15-S ) :   1.1271 B(  6-C ,  7-C ) :   0.9927
B(  6-C , 13-C ) :   1.2908 B(  7-C ,  8-C ) :   1.6939 B(  8-C ,  9-C ) :   1.1435
B(  8-C , 11-C ) :   1.1264 B(  9-C , 10-N ) :   2.9570 B( 11-C , 12-N ) :   3.0033
B( 13-C , 14-C ) :   1.4509 B( 13-C , 82-H ) :   0.9883 B( 14-C , 15-S ) :   1.1183
B( 14-C , 16-C ) :   1.1043 B( 16-C , 17-C ) :   0.9455 B( 16-C , 28-C ) :   1.7004
B( 17-C , 18-C ) :   1.3106 B( 17-C , 20-C ) :   0.1118 B( 17-C , 22-C ) :   1.3242
B( 18-C , 19-C ) :   1.2827 B( 18-C , 27-F ) :   1.1844 B( 19-C , 20-C ) :   1.2746
B( 19-C , 26-F ) :   1.1735 B( 20-C , 21-C ) :   1.2742 B( 20-C , 25-F ) :   1.1773
B( 21-C , 22-C ) :   1.2884 B( 21-C , 24-F ) :   1.1754 B( 22-C , 23-F ) :   1.1751
B( 28-C , 29-C ) :   0.9626 B( 28-C , 40-C ) :   1.0757 B( 29-C , 30-C ) :   1.3384
B( 29-C , 32-C ) :   0.1095 B( 29-C , 34-C ) :   1.3240 B( 30-C , 31-C ) :   1.2908
B( 30-C , 39-F ) :   1.1750 B( 31-C , 32-C ) :   1.2723 B( 31-C , 38-F ) :   1.1685
B( 32-C , 33-C ) :   1.2825 B( 32-C , 37-F ) :   1.1664 B( 33-C , 34-C ) :   1.2985
B( 33-C , 36-F ) :   1.1739 B( 34-C , 35-F ) :   1.1664 B( 40-C , 41-C ) :   1.5359
B( 40-C , 45-S ) :   1.0406 B( 41-C , 42-C ) :   1.2456 B( 41-C , 83-H ) :   0.9608
B( 42-C , 43-C ) :   1.0588 B( 42-C , 51-C ) :   1.3493 B( 43-C , 44-C ) :   1.6038
B( 43-C , 46-C ) :   1.1710 B( 44-C , 45-S ) :   1.1310 B( 44-C , 84-H ) :   0.9423
B( 46-C , 47-C ) :   1.4435 B( 46-C , 50-S ) :   1.0791 B( 47-C , 48-C ) :   1.2220
B( 47-C , 51-C ) :   1.0950 B( 48-C , 49-C ) :   1.5859 B( 48-C , 85-H ) :   0.9989
B( 49-C , 50-S ) :   1.1526 B( 49-C , 86-H ) :   0.9662 B( 51-C , 52-C ) :   1.1841
B( 52-C , 53-C ) :   1.5428 B( 52-C , 87-H ) :   0.9699 B( 53-C , 54-C ) :   1.2150
B( 53-C , 88-H ) :   0.9667 B( 54-C , 55-C ) :   1.4944 B( 54-C , 89-H ) :   0.9840
B( 55-C , 56-C ) :   1.1824 B( 55-C , 59-S ) :   1.0365 B( 56-C , 57-C ) :   1.5411
B( 56-C , 90-H ) :   0.9989 B( 57-C , 58-C ) :   1.2287 B( 57-C , 91-H ) :   0.9930
B( 58-C , 59-S ) :   1.0462 B( 58-C , 60-C ) :   1.4540 B( 60-C , 61-C ) :   1.2109
B( 60-C , 64-S ) :   1.0543 B( 61-C , 62-C ) :   1.5648 B( 61-C , 92-H ) :   0.9933
B( 62-C , 63-C ) :   1.1677 B( 62-C , 93-H ) :   1.0003 B( 63-C , 64-S ) :   1.0420
B( 63-C , 65-C ) :   1.5104 B( 65-C , 66-C ) :   1.2145 B( 65-C , 94-H ) :   0.9740
B( 66-C , 67-C ) :   1.4379 B( 66-C , 71-S ) :   1.0334 B( 67-C , 68-C ) :   1.2453
B( 67-C , 95-H ) :   0.9774 B( 68-C , 69-C ) :   1.0424 B( 68-C , 77-C ) :   1.3846
B( 69-C , 70-C ) :   1.5980 B( 69-C , 72-C ) :   1.1921 B( 70-C , 71-S ) :   1.1566
B( 70-C , 96-H ) :   0.9411 B( 72-C , 73-C ) :   1.4193 B( 72-C , 76-S ) :   1.0687
B( 73-C , 74-C ) :   1.2031 B( 73-C , 77-C ) :   1.1493 B( 74-C , 75-C ) :   1.5948
B( 74-C , 97-H ) :   0.9965 B( 75-C , 76-S ) :   1.1463 B( 75-C , 98-H ) :   0.9664
B( 77-C , 78-C ) :   1.1120 B( 78-C , 79-C ) :   1.9141 B( 78-C , 99-H ) :   0.9542
B( 79-C ,100-H ) :   0.9571 B( 79-C ,101-H ) :   0.9461

-----------------------------------------------------------------------------
         ABSORPTION SPECTRUM VIA TRANSITION ELECTRIC DIPOLE MOMENTS
-----------------------------------------------------------------------------
State   Energy  Wavelength   fosc         T2         TX        TY        TZ
        (cm-1)    (nm)                  (au**2)     (au)      (au)      (au)
-----------------------------------------------------------------------------
   0    6772.9   1476.5   0.122273274   5.94338   0.63899  -0.58287   2.27933
   1    9017.1   1109.0   0.601964909  21.97749   1.65273   1.62626   4.07446
   2   13379.4    747.4   0.049165675   1.20976  -0.03890  -1.09515   0.09429
   3   14515.4    688.9   0.340373181   7.71970   1.60477   2.08667   0.88896
   4   16314.4    613.0   0.375176149   7.57074  -2.06274  -1.78213   0.37397
   5   17438.6    573.4   0.062646737   1.18267  -0.62252  -0.86719   0.20767
   6   18078.6    553.1   0.337604464   6.14779   2.16701   1.18412  -0.22295
   7   19309.8    517.9   0.020769437   0.35410  -0.26079   0.06977   0.53030
   8   21048.1    475.1   0.342063270   5.35019  -0.22068   2.25228   0.47823
   9   22133.7    451.8   0.064845740   0.96450   0.93364  -0.01349  -0.30437
  10   22179.0    450.9   0.093730714   1.39128   0.54527   1.04244  -0.08528
  11   23179.7    431.4   0.190188457   2.70117   1.32228  -0.94376  -0.24912
  12   24253.2    412.3   0.310802217   4.21881   1.60192  -1.16957  -0.53364
  13   25226.2    396.4   0.033841436   0.44164   0.19530  -0.44576   0.45254
  14   25573.6    391.0   0.030388874   0.39120   0.31672   0.12133  -0.52551
  15   26220.4    381.4   0.030356017   0.38114   0.06962  -0.57080  -0.22467
  16   26409.9    378.6   0.129447060   1.61362   0.53975  -0.97309  -0.61268
  17   26791.5    373.3   0.014765117   0.18143   0.33632   0.19337  -0.17587
  18   26912.5    371.6   0.078289505   0.95769   0.33485  -0.56576  -0.72490
  19   27719.3    360.8   0.085362777   1.01382  -0.56434  -0.82839   0.09548
  20   28052.1    356.5   0.101087617   1.18634  -0.12547   1.06407  -0.19583
  21   28569.3    350.0   0.042804331   0.49325  -0.11817  -0.08500   0.68706
  22   28587.5    349.8   0.001822184   0.02098  -0.13943  -0.03833  -0.00865
  23   29360.9    340.6   0.035834692   0.40180   0.55238  -0.05689   0.30568
  24   29506.7    338.9   0.021854627   0.24384   0.11307   0.47945   0.03426
  25   30237.4    330.7   0.112164681   1.22120  -0.92076  -0.27824   0.54404
  26   30572.8    327.1   0.041196380   0.44361   0.14218   0.52276  -0.38744
  27   30645.8    326.3   0.012567986   0.13501  -0.10324   0.29024   0.20029
  28   30802.1    324.7   0.038245467   0.40877  -0.33675  -0.10494   0.53325
  29   31160.1    320.9   0.073740672   0.77908   0.60144   0.20603  -0.61230
  30   31644.2    316.0   0.559009189   5.81569   0.61426   0.15093   2.32714
  31   31892.2    313.6   0.083099573   0.85781  -0.56761   0.30586  -0.66489
  32   32315.0    309.5   0.013641598   0.13898   0.01597   0.36783   0.05852
  33   32480.8    307.9   0.142012633   1.43938  -0.06273   0.31432  -1.15614
  34   32640.1    306.4   0.046620642   0.47022  -0.56582   0.35629  -0.15206
  35   32831.5    304.6   0.049498404   0.49634   0.43630   0.51240   0.20839
  36   33055.6    302.5   0.019027205   0.18950  -0.11335  -0.40769   0.10217
  37   33518.6    298.3   0.087078071   0.85526   0.29067   0.86797   0.13188
  38   33606.2    297.6   0.083226622   0.81530  -0.61607   0.51375   0.41450
  39   33990.9    294.2   0.018875814   0.18282  -0.23799   0.32435   0.14483
  40   34260.0    291.9   0.009043729   0.08690  -0.25555  -0.14392  -0.02972
  41   34455.4    290.2   0.115529651   1.10386  -0.79864   0.67157  -0.12255
  42   34612.0    288.9   0.250521622   2.38283  -0.18981   1.08372   1.08275
  43   34742.3    287.8   0.095319454   0.90323  -0.64868  -0.69052  -0.07505
  44   35103.6    284.9   0.047215264   0.44280   0.30439  -0.55647   0.20121
  45   35296.4    283.3   0.109679491   1.02299  -0.23534  -0.97973  -0.08790
  46   35396.1    282.5   0.068631494   0.63833  -0.51839  -0.16219   0.58592
  47   35754.0    279.7   0.014191140   0.13067  -0.05487  -0.34747  -0.08322
  48   36041.2    277.5   0.077770473   0.71038   0.62310   0.47757   0.30668
  49   36421.7    274.6   0.035851028   0.32405  -0.00981   0.50185   0.26852
  50   36588.2    273.3   0.040423353   0.36372   0.09974   0.03189  -0.59393
  51   36816.7    271.6   0.070880464   0.63381  -0.34704   0.63333   0.33505
  52   36866.9    271.2   0.080760873   0.72117   0.33797   0.42055   0.65581
  53   37043.9    270.0   0.046940317   0.41716   0.46670  -0.22155   0.38764
  54   37127.9    269.3   0.159511750   1.41439   0.15666  -1.07919   0.47455
  55   37203.6    268.8   0.071096961   0.62913  -0.68696  -0.12569  -0.37605
  56   37411.5    267.3   0.078986686   0.69506   0.68493   0.42177   0.21918
  57   37446.0    267.1   0.010856358   0.09545  -0.20008  -0.23302   0.03342
  58   37690.4    265.3   0.045016001   0.39320  -0.32566  -0.49999  -0.19277
  59   37754.2    264.9   0.090915255   0.79277   0.28227   0.24923   0.80683
  60   37896.6    263.9   0.007628592   0.06627   0.08289   0.21941   0.10611
  61   38267.3    261.3   0.066633837   0.57325  -0.29506   0.59067  -0.37054
  62   38325.3    260.9   0.053481178   0.45940  -0.58359  -0.28148  -0.19896
  63   38464.6    260.0   0.175703376   1.50381  -0.05394   1.12069   0.49493
  64   38614.0    259.0   0.020759210   0.17699   0.23028  -0.32855   0.12654
  65   38640.7    258.8   0.038311864   0.32641  -0.10483  -0.49976   0.25624
  66   38825.2    257.6   0.080802821   0.68515  -0.23988   0.51435   0.60254
  67   38898.6    257.1   0.018416025   0.15586  -0.02638   0.37373   0.12446
  68   39103.8    255.7   0.012882536   0.10846   0.05723   0.22547   0.23312
  69   39360.3    254.1   0.103509535   0.86576   0.07774   0.79792   0.47227
  70   39416.7    253.7   0.154696687   1.29204   0.02719  -1.13435  -0.06753
  71   39761.1    251.5   0.143077181   1.18464  -0.11859   0.63539   0.87571
  72   39965.6    250.2   0.004414022   0.03636  -0.15114   0.00456   0.11617
  73   40165.4    249.0   0.162183117   1.32932   0.99626   0.40935   0.41135
  74   40173.7    248.9   0.049098719   0.40235  -0.53029  -0.06662   0.34162

FINAL SINGLE POINT ENERGY     -6587.740122398535

DIPOLE MOMENT
-------------
                                X             Y             Z
Electronic contribution:     10.21438      -4.52194      97.62968
Nuclear contribution   :     -9.10223       4.87125     -96.53110
                        -----------------------------------------
Total Dipole Moment    :      1.11214       0.34930       1.09858
                        -----------------------------------------
Magnitude (a.u.)       :      1.60180
Magnitude (Debye)      :      4.07145

Rotational constants in cm-1:     0.000766     0.000458     0.000380
Rotational constants in MHz :    22.975579    13.745325    11.384645

                             ****ORCA TERMINATED NORMALLY****
TOTAL RUN TIME: 0 days 0 hours 19 minutes 44 seconds 811 msec
