                         Program Version 4.2.0 -  RELEASE  -
|  1> # ORCA input file
|  2> # SCF done       -154.657832607024          0.000452220421
|  3> ! CAM-B3LYP def2-SVP def2/J RIJCOSX Grid4 TightSCF
|  4> %maxcore 5000
|  5> %tddft
|  6>     Mode sTDDFT
|  7>     Ethresh 5.0
|  8>     maxcore 5000
|  9> end
| 10>
| 11> %pal
| 12>   nprocs 6
| 13>   end
| 14> * xyz 0 1
| 15>    C       -4.92197        14.98583         8.39892
| 16>    C       -4.57348        15.63359         7.25556
| 17>    C       -4.10159        14.73630         6.27659
| 18>    C       -4.11953        13.40482         6.71983
| 19>    S       -4.69697        13.26553         8.32391
| 20>    C       -3.61501        12.57563         5.68574
| 21>    C       -3.26129        13.38762         4.59705
| 22>    C       -3.58484        14.77170         4.92782
| 23>    C       -3.44023        15.85978         4.11167
| 24>    C       -2.97400        15.73657         2.78875
| 25>    N       -2.61724        15.63205         1.70288
| 26>    C       -3.77514        17.16489         4.52280
| 27>    N       -4.03717        18.23445         4.84433
| 28>    C       -2.70490        12.67209         3.54037
| 29>    C       -2.64510        11.31334         3.79949
| 30>    S       -3.28994        10.92252         5.39457
| 31>    C       -2.13107        10.28638         2.96043
| 32>    C       -2.22803         8.95274         3.28165
| 33>    C       -1.71172         7.90731         2.52503
| 34>    C       -0.97646         8.15483         1.28458
| 35>    C       -0.77869         9.38546         0.76255
| 36>    S       -1.34351        10.83673         1.48665
| 37>    C       -0.59070         6.86647         0.81744
| 38>    C       -1.06215         5.87832         1.68487
| 39>    C       -0.69867         4.58409         1.25270
| 40>    C        0.01842         4.62246         0.09887
| 41>    S        0.28302         6.21928        -0.51233
| 42>    C       -1.77934         6.51319         2.76152
| 43>    C       -2.49565         5.95876         3.83137
| 44>    C       -2.77290         4.65382         4.13986
| 45>    C       -3.67503         4.40765         5.18892
| 46>    C       -4.21481         3.22223         5.59875
| 47>    C       -5.28747         3.14862         6.52746
| 48>    C       -5.95911         4.26093         6.99651
| 49>    C       -7.09583         4.25561         7.78590
| 50>    C       -7.59592         3.01667         8.38968
| 51>    C       -7.09092         1.79693         8.09886
| 52>    S       -5.80930         1.53087         6.98274
| 53>    C       -8.64243         3.42761         9.26195
| 54>    C       -8.80383         4.81427         9.18927
| 55>    C       -9.84804         5.27300        10.02239
| 56>    C      -10.43720         4.24956        10.69343
| 57>    S       -9.76058         2.69392        10.34166
| 58>    C       -7.87031         5.35095         8.23654
| 59>    C       -7.79870         6.70066         7.82088
| 60>    C       -7.26529         7.11021         6.63313
| 61>    C       -7.10068         8.43939         6.18819
| 62>    C       -7.39419         9.64858         6.80821
| 63>    C       -7.08889        10.73961         6.00290
| 64>    C       -6.54521        10.38127         4.75726
| 65>    S       -6.40799         8.68437         4.58431
| 66>    C       -6.32204        11.56145         4.00762
| 67>    C       -6.71077        12.66825         4.78190
| 68>    C       -7.20964        12.19602         6.05006
| 69>    C       -7.71194        12.94037         7.08136
| 70>    C       -7.80740        14.34412         7.01513
| 71>    N       -7.88192        15.48828         6.97322
| 72>    C       -8.16316        12.35559         8.28064
| 73>    N       -8.52757        11.88680         9.26263
| 74>    C       -6.52678        13.88924         4.10062
| 75>    C       -6.01537        13.69422         2.85599
| 76>    S       -5.75017        12.02264         2.46291
| 77>    H       -5.31462        15.40732         9.30221
| 78>    H       -4.65472        16.69703         7.12641
| 79>    H       -2.36190        13.10242         2.61662
| 80>    H       -2.74744         8.72392         4.20298
| 81>    H       -0.24826         9.54863        -0.16216
| 82>    H       -0.94288         3.66851         1.75886
| 83>    H        0.42199         3.79449        -0.45052
| 84>    H       -2.94908         6.69489         4.48530
| 85>    H       -2.37594         3.83333         3.56374
| 86>    H       -4.00960         5.30840         5.68608
| 87>    H       -3.86335         2.29126         5.17611
| 88>    H       -5.56248         5.22364         6.72268
| 89>    H       -7.47313         0.88770         8.53515
| 90>    H      -10.14734         6.30025        10.12453
| 91>    H      -11.24912         4.30250        11.39217
| 92>    H       -8.24028         7.43425         8.48219
| 93>    H       -6.96926         6.36141         5.91225
| 94>    H       -7.81848         9.71195         7.79313
| 95>    H       -6.76201        14.85734         4.50521
| 96>    H       -5.77155        14.43168         2.11723
| 97> *
| 98>
| 99>                          ****END OF INPUT****

CARTESIAN COORDINATES (ANGSTROEM)
---------------------------------
  C     -4.921970   14.985830    8.398920
  C     -4.573480   15.633590    7.255560
  C     -4.101590   14.736300    6.276590
  C     -4.119530   13.404820    6.719830
  S     -4.696970   13.265530    8.323910
  C     -3.615010   12.575630    5.685740
  C     -3.261290   13.387620    4.597050
  C     -3.584840   14.771700    4.927820
  C     -3.440230   15.859780    4.111670
  C     -2.974000   15.736570    2.788750
  N     -2.617240   15.632050    1.702880
  C     -3.775140   17.164890    4.522800
  N     -4.037170   18.234450    4.844330
  C     -2.704900   12.672090    3.540370
  C     -2.645100   11.313340    3.799490
  S     -3.289940   10.922520    5.394570
  C     -2.131070   10.286380    2.960430
  C     -2.228030    8.952740    3.281650
  C     -1.711720    7.907310    2.525030
  C     -0.976460    8.154830    1.284580
  C     -0.778690    9.385460    0.762550
  S     -1.343510   10.836730    1.486650
  C     -0.590700    6.866470    0.817440
  C     -1.062150    5.878320    1.684870
  C     -0.698670    4.584090    1.252700
  C      0.018420    4.622460    0.098870
  S      0.283020    6.219280   -0.512330
  C     -1.779340    6.513190    2.761520
  C     -2.495650    5.958760    3.831370
  C     -2.772900    4.653820    4.139860
  C     -3.675030    4.407650    5.188920
  C     -4.214810    3.222230    5.598750
  C     -5.287470    3.148620    6.527460
  C     -5.959110    4.260930    6.996510
  C     -7.095830    4.255610    7.785900
  C     -7.595920    3.016670    8.389680
  C     -7.090920    1.796930    8.098860
  S     -5.809300    1.530870    6.982740
  C     -8.642430    3.427610    9.261950
  C     -8.803830    4.814270    9.189270
  C     -9.848040    5.273000   10.022390
  C    -10.437200    4.249560   10.693430
  S     -9.760580    2.693920   10.341660
  C     -7.870310    5.350950    8.236540
  C     -7.798700    6.700660    7.820880
  C     -7.265290    7.110210    6.633130
  C     -7.100680    8.439390    6.188190
  C     -7.394190    9.648580    6.808210
  C     -7.088890   10.739610    6.002900
  C     -6.545210   10.381270    4.757260
  S     -6.407990    8.684370    4.584310
  C     -6.322040   11.561450    4.007620
  C     -6.710770   12.668250    4.781900
  C     -7.209640   12.196020    6.050060
  C     -7.711940   12.940370    7.081360
  C     -7.807400   14.344120    7.015130
  N     -7.881920   15.488280    6.973220
  C     -8.163160   12.355590    8.280640
  N     -8.527570   11.886800    9.262630
  C     -6.526780   13.889240    4.100620
  C     -6.015370   13.694220    2.855990
  S     -5.750170   12.022640    2.462910
  H     -5.314620   15.407320    9.302210
  H     -4.654720   16.697030    7.126410
  H     -2.361900   13.102420    2.616620
  H     -2.747440    8.723920    4.202980
  H     -0.248260    9.548630   -0.162160
  H     -0.942880    3.668510    1.758860
  H      0.421990    3.794490   -0.450520
  H     -2.949080    6.694890    4.485300
  H     -2.375940    3.833330    3.563740
  H     -4.009600    5.308400    5.686080
  H     -3.863350    2.291260    5.176110
  H     -5.562480    5.223640    6.722680
  H     -7.473130    0.887700    8.535150
  H    -10.147340    6.300250   10.124530
  H    -11.249120    4.302500   11.392170
  H     -8.240280    7.434250    8.482190
  H     -6.969260    6.361410    5.912250
  H     -7.818480    9.711950    7.793130
  H     -6.762010   14.857340    4.505210
  H     -5.771550   14.431680    2.117230

 Total Charge           Charge          ....    0
 Multiplicity           Mult            ....    1
 Number of Electrons    NEL             ....  476
 Basis Dimension        Dim             .... 1000

ORBITAL ENERGIES
----------------

  NO   OCC          E(Eh)            E(eV)
   0   2.0000     -88.988950     -2421.5124
   1   2.0000     -88.984820     -2421.4001
   2   2.0000     -88.981191     -2421.3013
   3   2.0000     -88.980273     -2421.2763
   4   2.0000     -88.977519     -2421.2014
   5   2.0000     -88.969782     -2420.9908
   6   2.0000     -88.960061     -2420.7263
   7   2.0000     -88.950276     -2420.4601
   8   2.0000     -14.429323      -392.6418
   9   2.0000     -14.424669      -392.5152
  10   2.0000     -14.424636      -392.5143
  11   2.0000     -14.423135      -392.4735
  12   2.0000     -10.358138      -281.8593
  13   2.0000     -10.354592      -281.7628
  14   2.0000     -10.347987      -281.5830
  15   2.0000     -10.342665      -281.4382
  16   2.0000     -10.334239      -281.2089
  17   2.0000     -10.332498      -281.1616
  18   2.0000     -10.329998      -281.0935
  19   2.0000     -10.328468      -281.0519
  20   2.0000     -10.326393      -280.9954
  21   2.0000     -10.325632      -280.9747
  22   2.0000     -10.325357      -280.9673
  23   2.0000     -10.324914      -280.9552
  24   2.0000     -10.324472      -280.9432
  25   2.0000     -10.323866      -280.9267
  26   2.0000     -10.321669      -280.8669
  27   2.0000     -10.317159      -280.7442
  28   2.0000     -10.315026      -280.6861
  29   2.0000     -10.314277      -280.6657
  30   2.0000     -10.306525      -280.4548
  31   2.0000     -10.303748      -280.3792
  32   2.0000     -10.302701      -280.3507
  33   2.0000     -10.301489      -280.3178
  34   2.0000     -10.300044      -280.2785
  35   2.0000     -10.299432      -280.2618
  36   2.0000     -10.299159      -280.2544
  37   2.0000     -10.295936      -280.1667
  38   2.0000     -10.294966      -280.1403
  39   2.0000     -10.292672      -280.0778
  40   2.0000     -10.291734      -280.0523
  41   2.0000     -10.291622      -280.0493
  42   2.0000     -10.291356      -280.0420
  43   2.0000     -10.290964      -280.0314
  44   2.0000     -10.290536      -280.0197
  45   2.0000     -10.289142      -279.9818
  46   2.0000     -10.287489      -279.9368
  47   2.0000     -10.282671      -279.8057
  48   2.0000     -10.282382      -279.7978
  49   2.0000     -10.281202      -279.7657
  50   2.0000     -10.280905      -279.7577
  51   2.0000     -10.280523      -279.7473
  52   2.0000     -10.280005      -279.7332
  53   2.0000     -10.279998      -279.7330
  54   2.0000     -10.278377      -279.6889
  55   2.0000     -10.278132      -279.6822
  56   2.0000     -10.277975      -279.6779
  57   2.0000     -10.275805      -279.6189
  58   2.0000     -10.274089      -279.5722
  59   2.0000     -10.268998      -279.4336
  60   2.0000     -10.267990      -279.4062
  61   2.0000     -10.266654      -279.3699
  62   2.0000      -8.082182      -219.9274
  63   2.0000      -8.078918      -219.8385
  64   2.0000      -8.076293      -219.7671
  65   2.0000      -8.074336      -219.7139
  66   2.0000      -8.071989      -219.6500
  67   2.0000      -8.064991      -219.4596
  68   2.0000      -8.055489      -219.2010
  69   2.0000      -8.045667      -218.9337
  70   2.0000      -6.051579      -164.6718
  71   2.0000      -6.048214      -164.5803
  72   2.0000      -6.047413      -164.5585
  73   2.0000      -6.045918      -164.5178
  74   2.0000      -6.044498      -164.4791
  75   2.0000      -6.043777      -164.4595
  76   2.0000      -6.043702      -164.4575
  77   2.0000      -6.041593      -164.4001
  78   2.0000      -6.041351      -164.3935
  79   2.0000      -6.041226      -164.3901
  80   2.0000      -6.039261      -164.3366
  81   2.0000      -6.038105      -164.3052
  82   2.0000      -6.037129      -164.2786
  83   2.0000      -6.036915      -164.2728
  84   2.0000      -6.034473      -164.2064
  85   2.0000      -6.034401      -164.2044
  86   2.0000      -6.030031      -164.0855
  87   2.0000      -6.027042      -164.0042
  88   2.0000      -6.024915      -163.9463
  89   2.0000      -6.020662      -163.8305
  90   2.0000      -6.017549      -163.7458
  91   2.0000      -6.015102      -163.6793
  92   2.0000      -6.010913      -163.5653
  93   2.0000      -6.007677      -163.4772
  94   2.0000      -1.041104       -28.3299
  95   2.0000      -1.032606       -28.0986
  96   2.0000      -1.018868       -27.7248
  97   2.0000      -1.014862       -27.6158
  98   2.0000      -1.010837       -27.5063
  99   2.0000      -1.004124       -27.3236
 100   2.0000      -1.001682       -27.2571
 101   2.0000      -0.999395       -27.1949
 102   2.0000      -0.994633       -27.0653
 103   2.0000      -0.983529       -26.7632
 104   2.0000      -0.972793       -26.4710
 105   2.0000      -0.966427       -26.2978
 106   2.0000      -0.951954       -25.9040
 107   2.0000      -0.948255       -25.8033
 108   2.0000      -0.933338       -25.3974
 109   2.0000      -0.925123       -25.1739
 110   2.0000      -0.914860       -24.8946
 111   2.0000      -0.908820       -24.7302
 112   2.0000      -0.902959       -24.5708
 113   2.0000      -0.889191       -24.1961
 114   2.0000      -0.882857       -24.0238
 115   2.0000      -0.870474       -23.6868
 116   2.0000      -0.864261       -23.5177
 117   2.0000      -0.853783       -23.2326
 118   2.0000      -0.850486       -23.1429
 119   2.0000      -0.845693       -23.0125
 120   2.0000      -0.842529       -22.9264
 121   2.0000      -0.836501       -22.7623
 122   2.0000      -0.831153       -22.6168
 123   2.0000      -0.821617       -22.3573
 124   2.0000      -0.804486       -21.8912
 125   2.0000      -0.798013       -21.7150
 126   2.0000      -0.788399       -21.4534
 127   2.0000      -0.776898       -21.1405
 128   2.0000      -0.771620       -20.9969
 129   2.0000      -0.768651       -20.9161
 130   2.0000      -0.754457       -20.5298
 131   2.0000      -0.738665       -20.1001
 132   2.0000      -0.729806       -19.8590
 133   2.0000      -0.728287       -19.8177
 134   2.0000      -0.709117       -19.2961
 135   2.0000      -0.699426       -19.0324
 136   2.0000      -0.695466       -18.9246
 137   2.0000      -0.686065       -18.6688
 138   2.0000      -0.675186       -18.3728
 139   2.0000      -0.672584       -18.3019
 140   2.0000      -0.667849       -18.1731
 141   2.0000      -0.666707       -18.1420
 142   2.0000      -0.661209       -17.9924
 143   2.0000      -0.655144       -17.8274
 144   2.0000      -0.649976       -17.6867
 145   2.0000      -0.639097       -17.3907
 146   2.0000      -0.634608       -17.2686
 147   2.0000      -0.626690       -17.0531
 148   2.0000      -0.620653       -16.8888
 149   2.0000      -0.618024       -16.8173
 150   2.0000      -0.615684       -16.7536
 151   2.0000      -0.610728       -16.6187
 152   2.0000      -0.605896       -16.4873
 153   2.0000      -0.599613       -16.3163
 154   2.0000      -0.592479       -16.1222
 155   2.0000      -0.588345       -16.0097
 156   2.0000      -0.581299       -15.8179
 157   2.0000      -0.571752       -15.5582
 158   2.0000      -0.568844       -15.4790
 159   2.0000      -0.561525       -15.2799
 160   2.0000      -0.560086       -15.2407
 161   2.0000      -0.557770       -15.1777
 162   2.0000      -0.551460       -15.0060
 163   2.0000      -0.545891       -14.8545
 164   2.0000      -0.538875       -14.6635
 165   2.0000      -0.535808       -14.5801
 166   2.0000      -0.527034       -14.3413
 167   2.0000      -0.526317       -14.3218
 168   2.0000      -0.519806       -14.1446
 169   2.0000      -0.518024       -14.0962
 170   2.0000      -0.514408       -13.9978
 171   2.0000      -0.511706       -13.9242
 172   2.0000      -0.509777       -13.8718
 173   2.0000      -0.507333       -13.8052
 174   2.0000      -0.503661       -13.7053
 175   2.0000      -0.502180       -13.6650
 176   2.0000      -0.499085       -13.5808
 177   2.0000      -0.495528       -13.4840
 178   2.0000      -0.492984       -13.4148
 179   2.0000      -0.490745       -13.3538
 180   2.0000      -0.487993       -13.2790
 181   2.0000      -0.485909       -13.2222
 182   2.0000      -0.480816       -13.0837
 183   2.0000      -0.480308       -13.0698
 184   2.0000      -0.472659       -12.8617
 185   2.0000      -0.469106       -12.7650
 186   2.0000      -0.465351       -12.6628
 187   2.0000      -0.463271       -12.6062
 188   2.0000      -0.461441       -12.5565
 189   2.0000      -0.459760       -12.5107
 190   2.0000      -0.456681       -12.4269
 191   2.0000      -0.454754       -12.3745
 192   2.0000      -0.454362       -12.3638
 193   2.0000      -0.453739       -12.3469
 194   2.0000      -0.452030       -12.3004
 195   2.0000      -0.451472       -12.2852
 196   2.0000      -0.450462       -12.2577
 197   2.0000      -0.449057       -12.2195
 198   2.0000      -0.442782       -12.0487
 199   2.0000      -0.440192       -11.9782
 200   2.0000      -0.438912       -11.9434
 201   2.0000      -0.437558       -11.9066
 202   2.0000      -0.437296       -11.8994
 203   2.0000      -0.436539       -11.8788
 204   2.0000      -0.434354       -11.8194
 205   2.0000      -0.433113       -11.7856
 206   2.0000      -0.432415       -11.7666
 207   2.0000      -0.431041       -11.7292
 208   2.0000      -0.430481       -11.7140
 209   2.0000      -0.427692       -11.6381
 210   2.0000      -0.424398       -11.5485
 211   2.0000      -0.422313       -11.4917
 212   2.0000      -0.419677       -11.4200
 213   2.0000      -0.419259       -11.4086
 214   2.0000      -0.415229       -11.2989
 215   2.0000      -0.414846       -11.2885
 216   2.0000      -0.413439       -11.2502
 217   2.0000      -0.408428       -11.1139
 218   2.0000      -0.402769       -10.9599
 219   2.0000      -0.401490       -10.9251
 220   2.0000      -0.393939       -10.7196
 221   2.0000      -0.379549       -10.3281
 222   2.0000      -0.376141       -10.2353
 223   2.0000      -0.358544        -9.7565
 224   2.0000      -0.348962        -9.4957
 225   2.0000      -0.340858        -9.2752
 226   2.0000      -0.339742        -9.2449
 227   2.0000      -0.333016        -9.0618
 228   2.0000      -0.322963        -8.7883
 229   2.0000      -0.318982        -8.6799
 230   2.0000      -0.310565        -8.4509
 231   2.0000      -0.308084        -8.3834
 232   2.0000      -0.294463        -8.0128
 233   2.0000      -0.280832        -7.6418
 234   2.0000      -0.274740        -7.4761
 235   2.0000      -0.261842        -7.1251
 236   2.0000      -0.233211        -6.3460
 237   2.0000      -0.206804        -5.6274
 238   0.0000      -0.108294        -2.9468
 239   0.0000      -0.090862        -2.4725
 240   0.0000      -0.074112        -2.0167
 241   0.0000      -0.048756        -1.3267
 242   0.0000      -0.032426        -0.8824

MULLIKEN ATOMIC CHARGES
-----------------------
   0 C :   -0.079545
   1 C :    0.053384
   2 C :   -0.042886
   3 C :   -0.125715
   4 S :    0.173055
   5 C :   -0.083788
   6 C :    0.011709
   7 C :    0.319361
   8 C :   -0.313235
   9 C :   -0.194999
  10 N :    0.167251
  11 C :   -0.194184
  12 N :    0.183753
  13 C :   -0.046536
  14 C :   -0.077327
  15 S :    0.165128
  16 C :   -0.019851
  17 C :   -0.102040
  18 C :    0.064471
  19 C :    0.061081
  20 C :   -0.120419
  21 S :    0.135561
  22 C :   -0.114155
  23 C :    0.054224
  24 C :   -0.003193
  25 C :   -0.066714
  26 S :    0.130596
  27 C :    0.115953
  28 C :   -0.041039
  29 C :    0.010414
  30 C :    0.027503
  31 C :    0.023309
  32 C :   -0.070928
  33 C :   -0.041109
  34 C :    0.036923
  35 C :    0.075246
  36 C :   -0.140285
  37 S :    0.133856
  38 C :   -0.120686
  39 C :    0.061535
  40 C :    0.008999
  41 C :   -0.070328
  42 S :    0.121794
  43 C :    0.061310
  44 C :   -0.016332
  45 C :    0.012171
  46 C :   -0.079856
  47 C :   -0.038408
  48 C :   -0.010694
  49 C :   -0.105172
  50 S :    0.160471
  51 C :   -0.121083
  52 C :   -0.040659
  53 C :    0.304321
  54 C :   -0.313464
  55 C :   -0.194206
  56 N :    0.171334
  57 C :   -0.186095
  58 N :    0.171031
  59 C :    0.059704
  60 C :   -0.111830
  61 S :    0.179618
  62 H :    0.041126
  63 H :    0.014614
  64 H :    0.012135
  65 H :   -0.006512
  66 H :    0.038406
  67 H :   -0.017359
  68 H :    0.026003
  69 H :   -0.043109
  70 H :   -0.028784
  71 H :   -0.007161
  72 H :   -0.021284
  73 H :   -0.038572
  74 H :    0.032255
  75 H :   -0.017205
  76 H :    0.026187
  77 H :   -0.015550
  78 H :   -0.016335
  79 H :    0.001244
  80 H :    0.009871
  81 H :    0.041725
Sum of atomic charges:   -0.0000000

LOEWDIN ATOMIC CHARGES
----------------------
   0 C :   -0.169629
   1 C :   -0.027127
   2 C :   -0.076333
   3 C :   -0.184021
   4 S :    0.484256
   5 C :   -0.177567
   6 C :   -0.068299
   7 C :    0.087301
   8 C :   -0.110630
   9 C :   -0.015126
  10 N :   -0.043085
  11 C :   -0.020666
  12 N :   -0.031262
  13 C :   -0.042575
  14 C :   -0.191735
  15 S :    0.484834
  16 C :   -0.177265
  17 C :   -0.037641
  18 C :   -0.011168
  19 C :   -0.049507
  20 C :   -0.138794
  21 S :    0.462495
  22 C :   -0.201723
  23 C :   -0.036484
  24 C :   -0.064227
  25 C :   -0.165014
  26 S :    0.425475
  27 C :   -0.056762
  28 C :   -0.006203
  29 C :   -0.041449
  30 C :   -0.004953
  31 C :   -0.070477
  32 C :   -0.160088
  33 C :   -0.031387
  34 C :   -0.007367
  35 C :   -0.048796
  36 C :   -0.145987
  37 S :    0.448198
  38 C :   -0.210026
  39 C :   -0.036984
  40 C :   -0.064916
  41 C :   -0.164989
  42 S :    0.415799
  43 C :   -0.067324
  44 C :    0.002588
  45 C :   -0.080241
  46 C :   -0.148450
  47 C :   -0.042193
  48 C :   -0.064813
  49 C :   -0.213188
  50 S :    0.455079
  51 C :   -0.173456
  52 C :   -0.090208
  53 C :    0.079841
  54 C :   -0.118822
  55 C :   -0.016870
  56 N :   -0.038459
  57 C :   -0.019959
  58 N :   -0.043140
  59 C :   -0.037016
  60 C :   -0.183894
  61 S :    0.484168
  62 H :    0.029633
  63 H :    0.044521
  64 H :    0.031784
  65 H :    0.023673
  66 H :    0.037797
  67 H :    0.029099
  68 H :    0.023753
  69 H :    0.024580
  70 H :    0.024155
  71 H :    0.025876
  72 H :    0.024726
  73 H :    0.031411
  74 H :    0.034655
  75 H :    0.030632
  76 H :    0.022831
  77 H :    0.030071
  78 H :    0.025320
  79 H :    0.037133
  80 H :    0.040146
  81 H :    0.026467

  Mayer bond orders larger than 0.100000
B(  0-C ,  1-C ) :   1.5425 B(  0-C ,  4-S ) :   1.1478 B(  0-C , 62-H ) :   0.9642
B(  1-C ,  2-C ) :   1.2756 B(  1-C , 63-H ) :   0.9992 B(  2-C ,  3-C ) :   1.4450
B(  2-C ,  7-C ) :   1.0156 B(  3-C ,  4-S ) :   1.1311 B(  3-C ,  5-C ) :   1.1884
B(  5-C ,  6-C ) :   1.4607 B(  5-C , 15-S ) :   1.1246 B(  6-C ,  7-C ) :   0.9807
B(  6-C , 13-C ) :   1.3128 B(  7-C ,  8-C ) :   1.7058 B(  8-C ,  9-C ) :   1.1407
B(  8-C , 11-C ) :   1.1320 B(  9-C , 10-N ) :   2.9741 B( 11-C , 12-N ) :   3.0041
B( 13-C , 14-C ) :   1.4304 B( 13-C , 64-H ) :   0.9857 B( 14-C , 15-S ) :   1.1095
B( 14-C , 16-C ) :   1.1662 B( 16-C , 17-C ) :   1.5196 B( 16-C , 21-S ) :   1.0604
B( 17-C , 18-C ) :   1.2572 B( 17-C , 65-H ) :   0.9580 B( 18-C , 19-C ) :   1.0545
B( 18-C , 27-C ) :   1.3600 B( 19-C , 20-C ) :   1.6092 B( 19-C , 22-C ) :   1.1707
B( 20-C , 21-S ) :   1.1354 B( 20-C , 66-H ) :   0.9400 B( 22-C , 23-C ) :   1.4537
B( 22-C , 26-S ) :   1.0791 B( 23-C , 24-C ) :   1.2219 B( 23-C , 27-C ) :   1.0684
B( 24-C , 25-C ) :   1.5798 B( 24-C , 67-H ) :   1.0027 B( 25-C , 26-S ) :   1.1585
B( 25-C , 68-H ) :   0.9655 B( 27-C , 28-C ) :   1.1746 B( 28-C , 29-C ) :   1.5526
B( 28-C , 69-H ) :   0.9576 B( 29-C , 30-C ) :   1.1937 B( 29-C , 70-H ) :   0.9950
B( 30-C , 31-C ) :   1.5971 B( 30-C , 71-H ) :   0.9728 B( 31-C , 32-C ) :   1.1199
B( 31-C , 72-H ) :   0.9747 B( 32-C , 33-C ) :   1.4941 B( 32-C , 37-S ) :   1.0581
B( 33-C , 34-C ) :   1.2902 B( 33-C , 73-H ) :   0.9557 B( 34-C , 35-C ) :   1.0612
B( 34-C , 43-C ) :   1.3474 B( 35-C , 36-C ) :   1.6018 B( 35-C , 38-C ) :   1.1745
B( 36-C , 37-S ) :   1.1402 B( 36-C , 74-H ) :   0.9408 B( 38-C , 39-C ) :   1.4407
B( 38-C , 42-S ) :   1.0695 B( 39-C , 40-C ) :   1.2222 B( 39-C , 43-C ) :   1.0993
B( 40-C , 41-C ) :   1.5813 B( 40-C , 75-H ) :   0.9990 B( 41-C , 42-S ) :   1.1555
B( 41-C , 76-H ) :   0.9668 B( 43-C , 44-C ) :   1.1850 B( 44-C , 45-C ) :   1.6204
B( 44-C , 77-H ) :   0.9623 B( 45-C , 46-C ) :   1.1466 B( 45-C , 78-H ) :   0.9482
B( 46-C , 47-C ) :   1.4280 B( 46-C , 50-S ) :   1.1129 B( 47-C , 48-C ) :   1.3167
B( 47-C , 79-H ) :   0.9902 B( 48-C , 49-C ) :   1.4380 B( 48-C , 53-C ) :   0.9876
B( 49-C , 50-S ) :   1.0876 B( 49-C , 51-C ) :   1.2074 B( 51-C , 52-C ) :   1.4244
B( 51-C , 61-S ) :   1.1471 B( 52-C , 53-C ) :   1.0259 B( 52-C , 59-C ) :   1.2882
B( 53-C , 54-C ) :   1.7024 B( 54-C , 55-C ) :   1.1397 B( 54-C , 57-C ) :   1.1302
B( 55-C , 56-N ) :   2.9663 B( 57-C , 58-N ) :   2.9935 B( 59-C , 60-C ) :   1.5266
B( 59-C , 80-H ) :   0.9904 B( 60-C , 61-S ) :   1.1415 B( 60-C , 81-H ) :   0.9640

-----------------------------------------------------------------------------
         ABSORPTION SPECTRUM VIA TRANSITION ELECTRIC DIPOLE MOMENTS
-----------------------------------------------------------------------------
State   Energy  Wavelength   fosc         T2         TX        TY        TZ
        (cm-1)    (nm)                  (au**2)     (au)      (au)      (au)
-----------------------------------------------------------------------------
   0    7058.2   1416.8   0.076944785   3.58892  -0.02051   1.88661  -0.17089
   1   10331.7    967.9   0.030701093   0.97826  -0.68217  -0.67530  -0.23849
   2   12152.8    822.9   0.093866514   2.54278   1.25414   0.71065  -0.68183
   3   14191.3    704.7   0.205907679   4.77669   1.53869   1.05984  -1.13395
   4   15053.4    664.3   0.056943675   1.24534   0.70735  -0.71526  -0.48312
   5   17122.7    584.0   0.047135225   0.90625  -0.65978   0.68483   0.04423
   6   18194.9    549.6   0.028531202   0.51623   0.50644  -0.44882  -0.24148
   7   19612.7    509.9   0.511463020   8.58526  -0.42809   2.89236   0.19033
   8   20011.6    499.7   0.035743051   0.58801   0.06838  -0.76361  -0.01516
   9   21404.7    467.2   0.080333961   1.23557  -0.61064  -0.57605   0.72860
  10   21726.9    460.3   0.010523784   0.15946  -0.04990  -0.04949  -0.39309
  11   22848.1    437.7   0.813509253  11.72162   0.23764  -3.41443   0.08272
  12   24560.8    407.2   0.051934476   0.69613   0.62183   0.15846  -0.53324
  13   24681.3    405.2   0.027153635   0.36219  -0.29731  -0.43875   0.28512
  14   25557.0    391.3   0.287370859   3.70175   0.71799   1.32038  -1.20119
  15   25771.2    388.0   0.203558743   2.60034  -1.03863   0.03684   1.23298
  16   26055.2    383.8   0.106087380   1.34043  -0.38876  -0.75448   0.78744
  17   26655.4    375.2   0.085176796   1.05199   0.14056   1.00433  -0.15344
  18   27519.8    363.4   0.995093358  11.90403   1.46180   2.35276  -2.05711
  19   27806.0    359.6   0.067994852   0.80503   0.53652  -0.21219  -0.68713
  20   28304.8    353.3   0.146472440   1.70361  -0.31756  -1.23791   0.26525
  21   28957.9    345.3   0.008175498   0.09294   0.20025   0.18961  -0.12997
  22   29014.0    344.7   0.065532606   0.74358   0.40313   0.56629  -0.51027
  23   29963.2    333.7   0.036815922   0.40450   0.17709  -0.56091   0.24190
  24   30272.2    330.3   0.125518861   1.36502  -0.33982  -0.31947   1.07121
  25   30575.3    327.1   0.005887353   0.06339   0.09036  -0.18292  -0.14753
  26   30823.0    324.4   0.340956270   3.64166   1.15858   0.32852  -1.48035
  27   31259.1    319.9   0.064288019   0.67706  -0.00812  -0.72018   0.39792
  28   31528.7    317.2   0.173238654   1.80890   0.58528  -0.16175  -1.20008
  29   31755.7    314.9   0.187669922   1.94558   0.73622  -0.81270  -0.86201
  30   32333.4    309.3   0.235508867   2.39790  -0.28787   1.51946  -0.07915
  31   32641.6    306.4   0.234093159   2.36098  -0.59477   0.58622   1.28980
  32   32820.2    304.7   0.030458029   0.30552   0.35934  -0.21608   0.36013
  33   33253.2    300.7   0.074220291   0.73479   0.55586  -0.32119  -0.56802
  34   33604.7    297.6   0.173193422   1.69671   0.20594  -0.58780  -1.14402
  35   34177.3    292.6   0.361011645   3.47743   0.26308  -1.84467   0.07370
  36   34464.7    290.2   0.013107002   0.12520   0.13223   0.15618   0.28865
  37   34811.5    287.3   0.354389640   3.35146   0.05703  -1.82134   0.17588
  38   34873.5    286.8   0.409567549   3.86639   1.15055  -0.60800  -1.47410
  39   35134.3    284.6   0.159240043   1.49209   0.51153  -0.36754  -1.04659
  40   35200.7    284.1   0.045576268   0.42625  -0.16494  -0.62199   0.11031
  41   36012.6    277.7   0.051606852   0.47177  -0.32803   0.29913   0.52410
  42   36434.6    274.5   0.067293252   0.60804  -0.48457   0.59323   0.14599
  43   36537.7    273.7   0.152810116   1.37685   0.32092  -0.23019  -1.10493
  44   36716.5    272.4   0.178476990   1.60028  -0.66261   0.33706   1.02353
  45   37054.9    269.9   0.015280773   0.13576  -0.08672  -0.31571   0.16903
  46   37372.0    267.6   0.015086433   0.13290  -0.15293  -0.32192   0.07667
  47   37667.7    265.5   0.012294217   0.10745   0.11577  -0.29628   0.07914
  48   37868.4    264.1   0.051222327   0.44531   0.25542  -0.34009  -0.51420
  49   38055.7    262.8   0.072940525   0.63099   0.13164  -0.46323  -0.63173
  50   38146.5    262.1   0.092133011   0.79513  -0.46980   0.52673   0.54494
  51   38317.9    261.0   0.067027791   0.57588   0.40159  -0.62495  -0.15505
  52   38587.6    259.2   0.089405953   0.76277  -0.37958  -0.51282   0.59641
  53   38670.2    258.6   0.013482502   0.11478  -0.05618   0.32812   0.06295
  54   39061.3    256.0   0.002515995   0.02121  -0.05943   0.09063   0.09725
  55   39105.7    255.7   0.004132899   0.03479   0.16618   0.08318  -0.01605
  56   39207.4    255.1   0.020042041   0.16829   0.04625  -0.37776   0.15311
  57   39613.6    252.4   0.006339056   0.05268  -0.03412  -0.18271   0.13466
  58   40025.8    249.8   0.102765017   0.84524   0.61521  -0.62414  -0.27786

FINAL SINGLE POINT ENERGY     -5317.961160340876

DIPOLE MOMENT
-------------
                                X             Y             Z
Electronic contribution:      2.13053      22.02710      -4.72596
Nuclear contribution   :     -1.12174     -25.03889       4.11003
                        -----------------------------------------
Total Dipole Moment    :      1.00879      -3.01179      -0.61593
                        -----------------------------------------
Magnitude (a.u.)       :      3.23542
Magnitude (Debye)      :      8.22377

Rotational constants in cm-1:     0.001234     0.000814     0.000523
Rotational constants in MHz :    36.980964    24.396040    15.685795

                             ****ORCA TERMINATED NORMALLY****
TOTAL RUN TIME: 0 days 0 hours 8 minutes 38 seconds 740 msec
