                         Program Version 4.2.0 -  RELEASE  -
|  1> # ORCA input file
|  2> # SCF done       -191.597100995312          0.000591962613
|  3> ! CAM-B3LYP def2-SVP def2/J RIJCOSX Grid4 TightSCF
|  4> %maxcore 5000
|  5> %tddft
|  6>     Mode sTDDFT
|  7>     Ethresh 5.0
|  8>     maxcore 5000
|  9> end
| 10>
| 11> %pal
| 12>   nprocs 6
| 13>   end
| 14> * xyz 0 1
| 15>    C        2.91080         5.32699         4.03310
| 16>    C        1.74982         4.82778         4.56742
| 17>    C        1.32024         5.07309         5.88511
| 18>    N        0.90598         5.26737         6.93840
| 19>    C        0.89675         3.95259         3.86551
| 20>    N        0.20698         3.20222         3.33564
| 21>    C        3.98268         5.97242         4.78053
| 22>    C        5.18429         5.87546         4.01816
| 23>    C        6.37004         6.36048         4.48775
| 24>    C        6.40623         6.98448         5.75571
| 25>    C        5.20584         7.09691         6.51506
| 26>    C        3.99249         6.57732         6.00776
| 27>    C        5.25610         7.72781         7.77447
| 28>    C        6.43447         8.22187         8.26401
| 29>    C        7.61597         8.10958         7.51639
| 30>    C        7.60197         7.50371         6.28932
| 31>    C        4.89391         5.21845         2.72926
| 32>    O        5.67032         4.91670         1.85094
| 33>    C        3.41553         5.05794         2.70454
| 34>    C        2.77006         4.81017         1.53272
| 35>    C        1.40819         5.03896         1.22679
| 36>    S        0.47395         6.26020         2.04469
| 37>    C       -0.93775         5.89275         1.10016
| 38>    C       -0.67815         4.86475         0.20214
| 39>    C        0.64750         4.40763         0.25482
| 40>    C        1.16380         3.28373        -0.58198
| 41>    C        0.20334         2.94709        -1.71924
| 42>    C       -1.24287         2.87932        -1.20758
| 43>    C       -1.32751         1.84815        -0.10479
| 44>    O       -1.52919         0.68168        -0.29119
| 45>    C       -1.68704         4.25921        -0.72091
| 46>    C       -2.14149         6.63090         1.29149
| 47>    S       -3.36475         6.65237         0.04916
| 48>    C       -4.38129         7.69602         0.99279
| 49>    C       -3.79390         8.00932         2.19576
| 50>    C       -2.52191         7.41857         2.36586
| 51>    C       -1.67353         7.67544         3.56840
| 52>    C       -2.41588         8.43849         4.66507
| 53>    C       -3.27509         9.55179         4.06667
| 54>    C       -2.46778        10.54492         3.26933
| 55>    O       -1.27679        10.66588         3.29461
| 56>    C       -4.38472         8.93307         3.21337
| 57>    C       -5.62304         8.13965         0.41169
| 58>    S       -5.58158         8.87497        -1.15795
| 59>    C       -7.32472         8.98188        -1.20401
| 60>    C       -7.87806         8.50328        -0.02560
| 61>    C       -6.91309         8.02563         0.88536
| 62>    C       -7.26960         7.43202         2.21084
| 63>    C       -8.77395         7.20454         2.34598
| 64>    C       -9.54231         8.41714         1.81928
| 65>    C       -9.16681         9.70297         2.50982
| 66>    O       -8.50615         9.80970         3.50380
| 67>    C       -9.32978         8.53244         0.30805
| 68>    C       -7.90193         9.61460        -2.33096
| 69>    C       -9.08174         9.32561        -2.95408
| 70>    C       -9.67316        10.11387        -4.02096
| 71>    C       -9.41340        11.43421        -4.27745
| 72>    C      -10.02789        12.17210        -5.30994
| 73>    N      -10.49241        12.81701        -6.13821
| 74>    C       -8.54408        12.23527        -3.50754
| 75>    N       -7.88142        12.94675        -2.89666
| 76>    C      -10.66621         9.28587        -4.68970
| 77>    C      -10.75471         8.04402        -3.99775
| 78>    C       -9.79386         8.03083        -2.88085
| 79>    O       -9.57460         7.10386        -2.12558
| 80>    C      -11.60792         7.05696        -4.39817
| 81>    C      -12.42644         7.27101        -5.53025
| 82>    C      -12.33938         8.50887        -6.23043
| 83>    C      -11.44650         9.51356        -5.79178
| 84>    C      -13.15398         8.70686        -7.36356
| 85>    C      -14.01469         7.73059        -7.78629
| 86>    C      -14.10008         6.51253        -7.09597
| 87>    C      -13.32357         6.28807        -5.99140
| 88>    H        7.27157         6.27063         3.90008
| 89>    H        3.09457         6.68110         6.59721
| 90>    H        4.34410         7.80974         8.34742
| 91>    H        6.46270         8.70196         9.23074
| 92>    H        8.53708         8.50563         7.91712
| 93>    H        8.50867         7.41469         5.70887
| 94>    H        3.39727         4.46473         0.71629
| 95>    H        1.30266         2.40735         0.05865
| 96>    H        2.14532         3.54385        -0.98711
| 97>    H        0.48241         1.99172        -2.16497
| 98>    H        0.26074         3.71567        -2.49334
| 99>    H       -1.88785         2.54982        -2.02827
|100>    H       -1.17340         2.25191         0.91299
|101>    H       -2.65249         4.17566        -0.21575
|102>    H       -1.83044         4.91585        -1.58514
|103>    H       -0.80607         8.26538         3.25634
|104>    H       -1.29515         6.73107         3.97022
|105>    H       -1.68502         8.86055         5.35482
|106>    H       -3.05996         7.75827         5.22503
|107>    H       -3.74224        10.13410         4.87159
|108>    H       -3.09654        11.20534         2.63800
|109>    H       -4.98016         9.70442         2.71950
|110>    H       -5.05022         8.37081         3.87448
|111>    H       -6.95659         8.11784         2.99992
|112>    H       -6.72542         6.49572         2.35333
|113>    H       -9.01603         7.03387         3.39549
|114>    H       -9.07605         6.32547         1.77458
|115>    H      -10.61617         8.28778         2.00626
|116>    H       -9.58475        10.59852         2.00626
|117>    H       -9.79136         9.43774        -0.09615
|118>    H       -9.80810         7.67900        -0.18494
|119>    H       -7.28056        10.38501        -2.77527
|120>    H      -11.65655         6.12166        -3.86036
|121>    H      -11.39416        10.43705        -6.34669
|122>    H      -13.08468         9.64669        -7.89139
|123>    H      -14.63399         7.89163        -8.65582
|124>    H      -14.78341         5.75245        -7.44393
|125>    H      -13.38470         5.35155        -5.45644
|126> *
|127>
|128>                          ****END OF INPUT****

CARTESIAN COORDINATES (ANGSTROEM)
---------------------------------
  C      2.910800    5.326990    4.033100
  C      1.749820    4.827780    4.567420
  C      1.320240    5.073090    5.885110
  N      0.905980    5.267370    6.938400
  C      0.896750    3.952590    3.865510
  N      0.206980    3.202220    3.335640
  C      3.982680    5.972420    4.780530
  C      5.184290    5.875460    4.018160
  C      6.370040    6.360480    4.487750
  C      6.406230    6.984480    5.755710
  C      5.205840    7.096910    6.515060
  C      3.992490    6.577320    6.007760
  C      5.256100    7.727810    7.774470
  C      6.434470    8.221870    8.264010
  C      7.615970    8.109580    7.516390
  C      7.601970    7.503710    6.289320
  C      4.893910    5.218450    2.729260
  O      5.670320    4.916700    1.850940
  C      3.415530    5.057940    2.704540
  C      2.770060    4.810170    1.532720
  C      1.408190    5.038960    1.226790
  S      0.473950    6.260200    2.044690
  C     -0.937750    5.892750    1.100160
  C     -0.678150    4.864750    0.202140
  C      0.647500    4.407630    0.254820
  C      1.163800    3.283730   -0.581980
  C      0.203340    2.947090   -1.719240
  C     -1.242870    2.879320   -1.207580
  C     -1.327510    1.848150   -0.104790
  O     -1.529190    0.681680   -0.291190
  C     -1.687040    4.259210   -0.720910
  C     -2.141490    6.630900    1.291490
  S     -3.364750    6.652370    0.049160
  C     -4.381290    7.696020    0.992790
  C     -3.793900    8.009320    2.195760
  C     -2.521910    7.418570    2.365860
  C     -1.673530    7.675440    3.568400
  C     -2.415880    8.438490    4.665070
  C     -3.275090    9.551790    4.066670
  C     -2.467780   10.544920    3.269330
  O     -1.276790   10.665880    3.294610
  C     -4.384720    8.933070    3.213370
  C     -5.623040    8.139650    0.411690
  S     -5.581580    8.874970   -1.157950
  C     -7.324720    8.981880   -1.204010
  C     -7.878060    8.503280   -0.025600
  C     -6.913090    8.025630    0.885360
  C     -7.269600    7.432020    2.210840
  C     -8.773950    7.204540    2.345980
  C     -9.542310    8.417140    1.819280
  C     -9.166810    9.702970    2.509820
  O     -8.506150    9.809700    3.503800
  C     -9.329780    8.532440    0.308050
  C     -7.901930    9.614600   -2.330960
  C     -9.081740    9.325610   -2.954080
  C     -9.673160   10.113870   -4.020960
  C     -9.413400   11.434210   -4.277450
  C    -10.027890   12.172100   -5.309940
  N    -10.492410   12.817010   -6.138210
  C     -8.544080   12.235270   -3.507540
  N     -7.881420   12.946750   -2.896660
  C    -10.666210    9.285870   -4.689700
  C    -10.754710    8.044020   -3.997750
  C     -9.793860    8.030830   -2.880850
  O     -9.574600    7.103860   -2.125580
  C    -11.607920    7.056960   -4.398170
  C    -12.426440    7.271010   -5.530250
  C    -12.339380    8.508870   -6.230430
  C    -11.446500    9.513560   -5.791780
  C    -13.153980    8.706860   -7.363560
  C    -14.014690    7.730590   -7.786290
  C    -14.100080    6.512530   -7.095970
  C    -13.323570    6.288070   -5.991400
  H      7.271570    6.270630    3.900080
  H      3.094570    6.681100    6.597210
  H      4.344100    7.809740    8.347420
  H      6.462700    8.701960    9.230740
  H      8.537080    8.505630    7.917120
  H      8.508670    7.414690    5.708870
  H      3.397270    4.464730    0.716290
  H      1.302660    2.407350    0.058650
  H      2.145320    3.543850   -0.987110
  H      0.482410    1.991720   -2.164970
  H      0.260740    3.715670   -2.493340
  H     -1.887850    2.549820   -2.028270
  H     -1.173400    2.251910    0.912990
  H     -2.652490    4.175660   -0.215750
  H     -1.830440    4.915850   -1.585140
  H     -0.806070    8.265380    3.256340
  H     -1.295150    6.731070    3.970220
  H     -1.685020    8.860550    5.354820
  H     -3.059960    7.758270    5.225030
  H     -3.742240   10.134100    4.871590
  H     -3.096540   11.205340    2.638000
  H     -4.980160    9.704420    2.719500
  H     -5.050220    8.370810    3.874480
  H     -6.956590    8.117840    2.999920
  H     -6.725420    6.495720    2.353330
  H     -9.016030    7.033870    3.395490
  H     -9.076050    6.325470    1.774580
  H    -10.616170    8.287780    2.006260
  H     -9.584750   10.598520    2.006260
  H     -9.791360    9.437740   -0.096150
  H     -9.808100    7.679000   -0.184940
  H     -7.280560   10.385010   -2.775270
  H    -11.656550    6.121660   -3.860360
  H    -11.394160   10.437050   -6.346690
  H    -13.084680    9.646690   -7.891390
  H    -14.633990    7.891630   -8.655820
  H    -14.783410    5.752450   -7.443930
  H    -13.384700    5.351550   -5.456440

 Total Charge           Charge          ....    0
 Multiplicity           Mult            ....    1
 Number of Electrons    NEL             ....  520
 Basis Dimension        Dim             .... 1224

ORBITAL ENERGIES
----------------

  NO   OCC          E(Eh)            E(eV)
   0   2.0000     -88.967689     -2420.9339
   1   2.0000     -88.966584     -2420.9038
   2   2.0000     -88.964392     -2420.8442
   3   2.0000     -19.226017      -523.1665
   4   2.0000     -19.220626      -523.0198
   5   2.0000     -19.220463      -523.0154
   6   2.0000     -19.207759      -522.6697
   7   2.0000     -19.206518      -522.6359
   8   2.0000     -14.417694      -392.3254
   9   2.0000     -14.417069      -392.3084
  10   2.0000     -14.411560      -392.1585
  11   2.0000     -14.411299      -392.1514
  12   2.0000     -10.371334      -282.2183
  13   2.0000     -10.363552      -282.0066
  14   2.0000     -10.359532      -281.8972
  15   2.0000     -10.358452      -281.8678
  16   2.0000     -10.345126      -281.5052
  17   2.0000     -10.344199      -281.4800
  18   2.0000     -10.342610      -281.4367
  19   2.0000     -10.336307      -281.2652
  20   2.0000     -10.335632      -281.2469
  21   2.0000     -10.327548      -281.0269
  22   2.0000     -10.322546      -280.8908
  23   2.0000     -10.322441      -280.8879
  24   2.0000     -10.320246      -280.8282
  25   2.0000     -10.319853      -280.8175
  26   2.0000     -10.316333      -280.7217
  27   2.0000     -10.314522      -280.6724
  28   2.0000     -10.314416      -280.6695
  29   2.0000     -10.314235      -280.6646
  30   2.0000     -10.314079      -280.6604
  31   2.0000     -10.313841      -280.6539
  32   2.0000     -10.305576      -280.4290
  33   2.0000     -10.304967      -280.4124
  34   2.0000     -10.303566      -280.3743
  35   2.0000     -10.301074      -280.3065
  36   2.0000     -10.300918      -280.3022
  37   2.0000     -10.300633      -280.2945
  38   2.0000     -10.300173      -280.2820
  39   2.0000     -10.300037      -280.2783
  40   2.0000     -10.298534      -280.2374
  41   2.0000     -10.294982      -280.1407
  42   2.0000     -10.293504      -280.1005
  43   2.0000     -10.293117      -280.0900
  44   2.0000     -10.292353      -280.0692
  45   2.0000     -10.292289      -280.0674
  46   2.0000     -10.292068      -280.0614
  47   2.0000     -10.291307      -280.0407
  48   2.0000     -10.290296      -280.0132
  49   2.0000     -10.290006      -280.0053
  50   2.0000     -10.289609      -279.9945
  51   2.0000     -10.289180      -279.9828
  52   2.0000     -10.289130      -279.9815
  53   2.0000     -10.288831      -279.9733
  54   2.0000     -10.288343      -279.9601
  55   2.0000     -10.287985      -279.9503
  56   2.0000     -10.287686      -279.9422
  57   2.0000     -10.285679      -279.8876
  58   2.0000     -10.284727      -279.8616
  59   2.0000     -10.284365      -279.8518
  60   2.0000     -10.282639      -279.8048
  61   2.0000     -10.282371      -279.7975
  62   2.0000     -10.282145      -279.7914
  63   2.0000     -10.282104      -279.7903
  64   2.0000     -10.282086      -279.7898
  65   2.0000     -10.281906      -279.7849
  66   2.0000     -10.281414      -279.7715
  67   2.0000     -10.277991      -279.6783
  68   2.0000     -10.277544      -279.6662
  69   2.0000     -10.274042      -279.5709
  70   2.0000     -10.273944      -279.5682
  71   2.0000     -10.271996      -279.5152
  72   2.0000     -10.270530      -279.4753
  73   2.0000      -8.063574      -219.4210
  74   2.0000      -8.061382      -219.3614
  75   2.0000      -8.058734      -219.2893
  76   2.0000      -6.032750      -164.1595
  77   2.0000      -6.030704      -164.1038
  78   2.0000      -6.028729      -164.0500
  79   2.0000      -6.028209      -164.0359
  80   2.0000      -6.026502      -163.9895
  81   2.0000      -6.025671      -163.9668
  82   2.0000      -6.023858      -163.9175
  83   2.0000      -6.023565      -163.9095
  84   2.0000      -6.020727      -163.8323
  85   2.0000      -1.140554       -31.0361
  86   2.0000      -1.135212       -30.8907
  87   2.0000      -1.134616       -30.8745
  88   2.0000      -1.122571       -30.5467
  89   2.0000      -1.120441       -30.4888
  90   2.0000      -1.021133       -27.7864
  91   2.0000      -1.017309       -27.6824
  92   2.0000      -1.013336       -27.5743
  93   2.0000      -1.004168       -27.3248
  94   2.0000      -1.001068       -27.2405
  95   2.0000      -0.995959       -27.1014
  96   2.0000      -0.993691       -27.0397
  97   2.0000      -0.991040       -26.9676
  98   2.0000      -0.986795       -26.8521
  99   2.0000      -0.974442       -26.5159
 100   2.0000      -0.966911       -26.3110
 101   2.0000      -0.936063       -25.4716
 102   2.0000      -0.933217       -25.3941
 103   2.0000      -0.931418       -25.3452
 104   2.0000      -0.928024       -25.2528
 105   2.0000      -0.920431       -25.0462
 106   2.0000      -0.913023       -24.8446
 107   2.0000      -0.903130       -24.5754
 108   2.0000      -0.891183       -24.2503
 109   2.0000      -0.884453       -24.0672
 110   2.0000      -0.881925       -23.9984
 111   2.0000      -0.876693       -23.8560
 112   2.0000      -0.868606       -23.6360
 113   2.0000      -0.856861       -23.3164
 114   2.0000      -0.856614       -23.3096
 115   2.0000      -0.846496       -23.0343
 116   2.0000      -0.843085       -22.9415
 117   2.0000      -0.833666       -22.6852
 118   2.0000      -0.831340       -22.6219
 119   2.0000      -0.828962       -22.5572
 120   2.0000      -0.823932       -22.4203
 121   2.0000      -0.817458       -22.2442
 122   2.0000      -0.803164       -21.8552
 123   2.0000      -0.783672       -21.3248
 124   2.0000      -0.764843       -20.8124
 125   2.0000      -0.764322       -20.7983
 126   2.0000      -0.754805       -20.5393
 127   2.0000      -0.744539       -20.2599
 128   2.0000      -0.741280       -20.1713
 129   2.0000      -0.736699       -20.0466
 130   2.0000      -0.729390       -19.8477
 131   2.0000      -0.721732       -19.6393
 132   2.0000      -0.719215       -19.5708
 133   2.0000      -0.713736       -19.4218
 134   2.0000      -0.707105       -19.2413
 135   2.0000      -0.703953       -19.1555
 136   2.0000      -0.700728       -19.0678
 137   2.0000      -0.697285       -18.9741
 138   2.0000      -0.692320       -18.8390
 139   2.0000      -0.681753       -18.5514
 140   2.0000      -0.674935       -18.3659
 141   2.0000      -0.672117       -18.2892
 142   2.0000      -0.662354       -18.0236
 143   2.0000      -0.653359       -17.7788
 144   2.0000      -0.648970       -17.6594
 145   2.0000      -0.640283       -17.4230
 146   2.0000      -0.638050       -17.3622
 147   2.0000      -0.632610       -17.2142
 148   2.0000      -0.627357       -17.0712
 149   2.0000      -0.623526       -16.9670
 150   2.0000      -0.614075       -16.7098
 151   2.0000      -0.609900       -16.5962
 152   2.0000      -0.606673       -16.5084
 153   2.0000      -0.604784       -16.4570
 154   2.0000      -0.603585       -16.4244
 155   2.0000      -0.602152       -16.3854
 156   2.0000      -0.600976       -16.3534
 157   2.0000      -0.588361       -16.0101
 158   2.0000      -0.576620       -15.6906
 159   2.0000      -0.568847       -15.4791
 160   2.0000      -0.567659       -15.4468
 161   2.0000      -0.560820       -15.2607
 162   2.0000      -0.554199       -15.0805
 163   2.0000      -0.551813       -15.0156
 164   2.0000      -0.550322       -14.9750
 165   2.0000      -0.548348       -14.9213
 166   2.0000      -0.544814       -14.8251
 167   2.0000      -0.544181       -14.8079
 168   2.0000      -0.542111       -14.7516
 169   2.0000      -0.541216       -14.7272
 170   2.0000      -0.540427       -14.7058
 171   2.0000      -0.538876       -14.6636
 172   2.0000      -0.534949       -14.5567
 173   2.0000      -0.532843       -14.4994
 174   2.0000      -0.531532       -14.4637
 175   2.0000      -0.528732       -14.3875
 176   2.0000      -0.527819       -14.3627
 177   2.0000      -0.526967       -14.3395
 178   2.0000      -0.523540       -14.2462
 179   2.0000      -0.522018       -14.2048
 180   2.0000      -0.520551       -14.1649
 181   2.0000      -0.518484       -14.1087
 182   2.0000      -0.515958       -14.0399
 183   2.0000      -0.514666       -14.0048
 184   2.0000      -0.512759       -13.9529
 185   2.0000      -0.511315       -13.9136
 186   2.0000      -0.508492       -13.8368
 187   2.0000      -0.507610       -13.8128
 188   2.0000      -0.506338       -13.7782
 189   2.0000      -0.501394       -13.6436
 190   2.0000      -0.500426       -13.6173
 191   2.0000      -0.498124       -13.5547
 192   2.0000      -0.496231       -13.5031
 193   2.0000      -0.494022       -13.4430
 194   2.0000      -0.493251       -13.4220
 195   2.0000      -0.491461       -13.3733
 196   2.0000      -0.489794       -13.3280
 197   2.0000      -0.487319       -13.2606
 198   2.0000      -0.486087       -13.2271
 199   2.0000      -0.484498       -13.1838
 200   2.0000      -0.479040       -13.0353
 201   2.0000      -0.474202       -12.9037
 202   2.0000      -0.470091       -12.7918
 203   2.0000      -0.468769       -12.7558
 204   2.0000      -0.464531       -12.6405
 205   2.0000      -0.461699       -12.5635
 206   2.0000      -0.459883       -12.5141
 207   2.0000      -0.459093       -12.4926
 208   2.0000      -0.456298       -12.4165
 209   2.0000      -0.451828       -12.2949
 210   2.0000      -0.450384       -12.2556
 211   2.0000      -0.448384       -12.2011
 212   2.0000      -0.447559       -12.1787
 213   2.0000      -0.446481       -12.1494
 214   2.0000      -0.443057       -12.0562
 215   2.0000      -0.440763       -11.9938
 216   2.0000      -0.437504       -11.9051
 217   2.0000      -0.436934       -11.8896
 218   2.0000      -0.436697       -11.8831
 219   2.0000      -0.435544       -11.8518
 220   2.0000      -0.433058       -11.7841
 221   2.0000      -0.431371       -11.7382
 222   2.0000      -0.429810       -11.6957
 223   2.0000      -0.428752       -11.6669
 224   2.0000      -0.427567       -11.6347
 225   2.0000      -0.425039       -11.5659
 226   2.0000      -0.424580       -11.5534
 227   2.0000      -0.422216       -11.4891
 228   2.0000      -0.421366       -11.4660
 229   2.0000      -0.417033       -11.3480
 230   2.0000      -0.413480       -11.2514
 231   2.0000      -0.412720       -11.2307
 232   2.0000      -0.410917       -11.1816
 233   2.0000      -0.409547       -11.1443
 234   2.0000      -0.406332       -11.0569
 235   2.0000      -0.405966       -11.0469
 236   2.0000      -0.404076       -10.9955
 237   2.0000      -0.400743       -10.9048
 238   2.0000      -0.397823       -10.8253
 239   2.0000      -0.393933       -10.7195
 240   2.0000      -0.393303       -10.7023
 241   2.0000      -0.380688       -10.3590
 242   2.0000      -0.374256       -10.1840
 243   2.0000      -0.364572        -9.9205
 244   2.0000      -0.354867        -9.6564
 245   2.0000      -0.345226        -9.3941
 246   2.0000      -0.332909        -9.0589
 247   2.0000      -0.332418        -9.0456
 248   2.0000      -0.329310        -8.9610
 249   2.0000      -0.325335        -8.8528
 250   2.0000      -0.323308        -8.7976
 251   2.0000      -0.322009        -8.7623
 252   2.0000      -0.318572        -8.6688
 253   2.0000      -0.315874        -8.5954
 254   2.0000      -0.310498        -8.4491
 255   2.0000      -0.308740        -8.4013
 256   2.0000      -0.299782        -8.1575
 257   2.0000      -0.291029        -7.9193
 258   2.0000      -0.285977        -7.7818
 259   2.0000      -0.256310        -6.9746
 260   0.0000      -0.096269        -2.6196
 261   0.0000      -0.089616        -2.4386
 262   0.0000      -0.061694        -1.6788
 263   0.0000      -0.051299        -1.3959
 264   0.0000      -0.033874        -0.9218

MULLIKEN ATOMIC CHARGES
-----------------------
   0 C :    0.260704
   1 C :   -0.338130
   2 C :   -0.177679
   3 N :    0.150086
   4 C :   -0.190495
   5 N :    0.168215
   6 C :    0.038856
   7 C :    0.012756
   8 C :   -0.085153
   9 C :    0.096695
  10 C :    0.097119
  11 C :   -0.084685
  12 C :   -0.019614
  13 C :    0.037673
  14 C :    0.036853
  15 C :   -0.018039
  16 C :    0.141663
  17 O :   -0.147542
  18 C :   -0.143428
  19 C :    0.040930
  20 C :   -0.148063
  21 S :    0.124250
  22 C :   -0.078696
  23 C :   -0.112308
  24 C :   -0.013025
  25 C :    0.085912
  26 C :    0.067288
  27 C :   -0.086623
  28 C :    0.112671
  29 O :   -0.175962
  30 C :    0.134674
  31 C :   -0.120549
  32 S :    0.130457
  33 C :   -0.173316
  34 C :   -0.048975
  35 C :   -0.096761
  36 C :    0.070217
  37 C :    0.107059
  38 C :   -0.119123
  39 C :    0.148483
  40 O :   -0.170700
  41 C :    0.135052
  42 C :   -0.177478
  43 S :    0.165102
  44 C :   -0.136824
  45 C :   -0.044055
  46 C :   -0.047995
  47 C :    0.107650
  48 C :    0.080533
  49 C :   -0.117680
  50 C :    0.152008
  51 O :   -0.174670
  52 C :    0.118937
  53 C :   -0.005451
  54 C :   -0.093361
  55 C :    0.287966
  56 C :   -0.334774
  57 C :   -0.181579
  58 N :    0.150381
  59 C :   -0.212658
  60 N :    0.165438
  61 C :    0.053988
  62 C :   -0.006167
  63 C :    0.150486
  64 O :   -0.164115
  65 C :   -0.081901
  66 C :    0.097769
  67 C :    0.096441
  68 C :   -0.084068
  69 C :   -0.018616
  70 C :    0.036525
  71 C :    0.035523
  72 C :   -0.015110
  73 H :   -0.013055
  74 H :   -0.006394
  75 H :   -0.012100
  76 H :   -0.006325
  77 H :   -0.007042
  78 H :   -0.018143
  79 H :    0.020511
  80 H :    0.046792
  81 H :    0.026227
  82 H :    0.020575
  83 H :    0.013736
  84 H :    0.013310
  85 H :    0.024171
  86 H :    0.029787
  87 H :    0.030074
  88 H :    0.053934
  89 H :    0.030613
  90 H :    0.016631
  91 H :    0.009506
  92 H :    0.034017
  93 H :   -0.003619
  94 H :    0.027948
  95 H :    0.043795
  96 H :    0.043301
  97 H :    0.020938
  98 H :    0.011216
  99 H :    0.013809
 100 H :    0.028190
 101 H :   -0.003110
 102 H :    0.014852
 103 H :    0.061415
 104 H :    0.040620
 105 H :   -0.014922
 106 H :   -0.007542
 107 H :   -0.008891
 108 H :   -0.003805
 109 H :   -0.004037
 110 H :   -0.017972
Sum of atomic charges:   -0.0000000

LOEWDIN ATOMIC CHARGES
----------------------
   0 C :    0.065120
   1 C :   -0.150539
   2 C :   -0.020401
   3 N :   -0.058940
   4 C :   -0.024502
   5 N :   -0.061108
   6 C :   -0.022149
   7 C :   -0.055637
   8 C :    0.031112
   9 C :   -0.009073
  10 C :   -0.005762
  11 C :    0.015020
  12 C :   -0.006902
  13 C :   -0.014018
  14 C :   -0.013911
  15 C :   -0.009703
  16 C :    0.082518
  17 O :   -0.148299
  18 C :   -0.102889
  19 C :    0.054908
  20 C :   -0.197184
  21 S :    0.497833
  22 C :   -0.152029
  23 C :   -0.069829
  24 C :   -0.013837
  25 C :   -0.028913
  26 C :   -0.011633
  27 C :   -0.068240
  28 C :    0.112935
  29 O :   -0.122627
  30 C :   -0.035273
  31 C :   -0.189646
  32 S :    0.465622
  33 C :   -0.201912
  34 C :   -0.053880
  35 C :   -0.045213
  36 C :   -0.045929
  37 C :   -0.013632
  38 C :   -0.073090
  39 C :    0.120452
  40 O :   -0.120600
  41 C :   -0.015574
  42 C :   -0.177166
  43 S :    0.451866
  44 C :   -0.184754
  45 C :   -0.011508
  46 C :   -0.052282
  47 C :   -0.029672
  48 C :   -0.015102
  49 C :   -0.073939
  50 C :    0.120931
  51 O :   -0.125620
  52 C :   -0.022525
  53 C :    0.052320
  54 C :   -0.097265
  55 C :    0.074597
  56 C :   -0.138307
  57 C :   -0.017854
  58 N :   -0.051483
  59 C :   -0.027520
  60 N :   -0.049979
  61 C :   -0.027094
  62 C :   -0.054950
  63 C :    0.084384
  64 O :   -0.145546
  65 C :    0.030567
  66 C :   -0.008430
  67 C :   -0.006680
  68 C :    0.020182
  69 C :   -0.005218
  70 C :   -0.012747
  71 C :   -0.011749
  72 C :   -0.009684
  73 H :    0.038876
  74 H :    0.038313
  75 H :    0.033693
  76 H :    0.032602
  77 H :    0.032067
  78 H :    0.031536
  79 H :    0.047402
  80 H :    0.043532
  81 H :    0.039029
  82 H :    0.032359
  83 H :    0.026075
  84 H :    0.037090
  85 H :    0.001742
  86 H :    0.025557
  87 H :    0.033182
  88 H :    0.030960
  89 H :    0.031590
  90 H :    0.033803
  91 H :    0.027277
  92 H :    0.048876
  93 H :   -0.004470
  94 H :    0.034021
  95 H :    0.039894
  96 H :    0.033088
  97 H :    0.036649
  98 H :    0.030882
  99 H :    0.028398
 100 H :    0.047019
 101 H :   -0.003919
 102 H :    0.031397
 103 H :    0.043837
 104 H :    0.046416
 105 H :    0.038214
 106 H :    0.039144
 107 H :    0.034900
 108 H :    0.033585
 109 H :    0.033230
 110 H :    0.031735

  Mayer bond orders larger than 0.100000
B(  0-C ,  1-C ) :   1.6411 B(  0-C ,  6-C ) :   1.0050 B(  0-C , 18-C ) :   1.0435
B(  1-C ,  2-C ) :   1.1431 B(  1-C ,  4-C ) :   1.1571 B(  2-C ,  3-N ) :   2.9820
B(  4-C ,  5-N ) :   3.0023 B(  6-C ,  7-C ) :   1.2139 B(  6-C , 11-C ) :   1.4603
B(  7-C ,  8-C ) :   1.4762 B(  7-C , 16-C ) :   0.9207 B(  8-C ,  9-C ) :   1.1819
B(  8-C , 73-H ) :   1.0160 B(  9-C , 10-C ) :   1.2599 B(  9-C , 15-C ) :   1.2448
B( 10-C , 11-C ) :   1.1998 B( 10-C , 12-C ) :   1.2423 B( 11-C , 74-H ) :   0.9937
B( 12-C , 13-C ) :   1.4878 B( 12-C , 75-H ) :   0.9972 B( 13-C , 14-C ) :   1.2623
B( 13-C , 76-H ) :   0.9882 B( 14-C , 15-C ) :   1.4888 B( 14-C , 77-H ) :   0.9885
B( 15-C , 78-H ) :   0.9975 B( 16-C , 17-O ) :   2.2664 B( 16-C , 18-C ) :   0.9409
B( 18-C , 19-C ) :   1.6378 B( 19-C , 20-C ) :   1.1354 B( 19-C , 79-H ) :   0.9386
B( 20-C , 21-S ) :   1.0929 B( 20-C , 22-C ) :   0.1010 B( 20-C , 24-C ) :   1.4328
B( 21-S , 22-C ) :   1.1541 B( 22-C , 23-C ) :   1.4715 B( 22-C , 31-C ) :   1.1179
B( 23-C , 24-C ) :   1.3465 B( 23-C , 30-C ) :   1.0364 B( 24-C , 25-C ) :   1.0650
B( 25-C , 26-C ) :   1.0925 B( 25-C , 80-H ) :   0.9043 B( 25-C , 81-H ) :   0.8999
B( 26-C , 27-C ) :   1.0449 B( 26-C , 82-H ) :   0.9320 B( 26-C , 83-H ) :   0.9483
B( 27-C , 28-C ) :   0.9088 B( 27-C , 30-C ) :   1.0201 B( 27-C , 84-H ) :   0.9037
B( 28-C , 29-O ) :   2.1991 B( 28-C , 85-H ) :   0.9459 B( 30-C , 86-H ) :   0.9155
B( 30-C , 87-H ) :   0.9000 B( 31-C , 32-S ) :   1.1162 B( 31-C , 33-C ) :   0.1196
B( 31-C , 35-C ) :   1.5123 B( 32-S , 33-C ) :   1.1341 B( 33-C , 34-C ) :   1.5573
B( 33-C , 42-C ) :   1.0050 B( 34-C , 35-C ) :   1.2951 B( 34-C , 41-C ) :   1.0523
B( 35-C , 36-C ) :   1.0620 B( 36-C , 37-C ) :   1.0801 B( 36-C , 88-H ) :   0.8967
B( 36-C , 89-H ) :   0.9041 B( 37-C , 38-C ) :   1.0392 B( 37-C , 90-H ) :   0.9240
B( 37-C , 91-H ) :   0.9419 B( 38-C , 39-C ) :   0.9189 B( 38-C , 41-C ) :   1.0391
B( 38-C , 92-H ) :   0.8930 B( 39-C , 40-O ) :   2.1891 B( 39-C , 93-H ) :   0.9504
B( 41-C , 94-H ) :   0.9183 B( 41-C , 95-H ) :   0.8941 B( 42-C , 43-S ) :   1.1686
B( 42-C , 44-C ) :   0.1081 B( 42-C , 46-C ) :   1.5337 B( 43-S , 44-C ) :   1.0863
B( 44-C , 45-C ) :   1.4788 B( 44-C , 53-C ) :   1.1575 B( 45-C , 46-C ) :   1.3111
B( 45-C , 52-C ) :   1.0564 B( 46-C , 47-C ) :   1.0619 B( 47-C , 48-C ) :   1.0858
B( 47-C , 96-H ) :   0.8868 B( 47-C , 97-H ) :   0.9081 B( 48-C , 49-C ) :   1.0375
B( 48-C , 98-H ) :   0.9274 B( 48-C , 99-H ) :   0.9451 B( 49-C , 50-C ) :   0.9193
B( 49-C , 52-C ) :   1.0460 B( 49-C ,100-H ) :   0.8925 B( 50-C , 51-O ) :   2.1745
B( 50-C ,101-H ) :   0.9491 B( 52-C ,102-H ) :   0.9145 B( 52-C ,103-H ) :   0.8718
B( 53-C , 54-C ) :   1.6051 B( 53-C ,104-H ) :   0.9359 B( 54-C , 55-C ) :   1.0521
B( 54-C , 63-C ) :   0.9624 B( 55-C , 56-C ) :   1.6519 B( 55-C , 61-C ) :   0.9972
B( 56-C , 57-C ) :   1.1407 B( 56-C , 59-C ) :   1.1380 B( 57-C , 58-N ) :   2.9718
B( 59-C , 60-N ) :   3.0071 B( 61-C , 62-C ) :   1.2084 B( 61-C , 68-C ) :   1.4495
B( 62-C , 63-C ) :   0.9413 B( 62-C , 65-C ) :   1.4771 B( 63-C , 64-O ) :   2.1578
B( 65-C , 66-C ) :   1.1769 B( 65-C ,105-H ) :   1.0158 B( 66-C , 67-C ) :   1.2552
B( 66-C , 72-C ) :   1.2477 B( 67-C , 68-C ) :   1.2046 B( 67-C , 69-C ) :   1.2395
B( 68-C ,106-H ) :   0.9916 B( 69-C , 70-C ) :   1.4883 B( 69-C ,107-H ) :   0.9975
B( 70-C , 71-C ) :   1.2605 B( 70-C ,108-H ) :   0.9891 B( 71-C , 72-C ) :   1.4859
B( 71-C ,109-H ) :   0.9893 B( 72-C ,110-H ) :   0.9975

-----------------------------------------------------------------------------
         ABSORPTION SPECTRUM VIA TRANSITION ELECTRIC DIPOLE MOMENTS
-----------------------------------------------------------------------------
State   Energy  Wavelength   fosc         T2         TX        TY        TZ
        (cm-1)    (nm)                  (au**2)     (au)      (au)      (au)
-----------------------------------------------------------------------------
   0   18596.9    537.7   1.025207903  18.14876  -3.36839   0.99431  -2.41124
   1   21745.7    459.9   0.293406783   4.44193  -1.53013   0.74564  -1.24284
   2   26130.3    382.7   0.109678892   1.38183   0.75739  -0.10608   0.89272
   3   26470.0    377.8   0.065628430   0.81623  -0.06281  -0.89358   0.11744
   4   27584.6    362.5   0.146901856   1.75322   0.97744   0.04031   0.89230
   5   28037.5    356.7   0.177983493   2.08986  -1.40574  -0.11782  -0.31604
   6   28218.8    354.4   0.021363560   0.24924  -0.14547  -0.45201   0.15416
   7   28670.7    348.8   0.323135221   3.71041   1.92570   0.02570   0.03765
   8   29428.0    339.8   0.024518771   0.27429  -0.01802   0.16715   0.49601
   9   29826.7    335.3   0.027967442   0.30869   0.06119  -0.54321   0.09932
  10   30181.9    331.3   0.040125195   0.43767  -0.62728  -0.20048  -0.06325
  11   30443.5    328.5   0.064769899   0.70041  -0.69096  -0.15835  -0.44488
  12   30843.5    324.2   0.257438949   2.74780   1.05046   0.40718   1.21595
  13   31366.1    318.8   0.157495165   1.65304  -0.08864  -0.27674  -1.25244
  14   32658.7    306.2   0.032823017   0.33087  -0.50245  -0.15841  -0.23091
  15   33182.3    301.4   0.014619691   0.14505  -0.11459   0.34777  -0.10475
  16   33343.4    299.9   0.185229810   1.82884   0.20061   1.19699   0.59651
  17   33677.0    296.9   0.824588128   8.06082   2.58334   0.98541   0.64509
  18   33716.4    296.6   0.068928129   0.67302   0.75443   0.12911   0.29529
  19   34099.5    293.3   0.289187971   2.79195   0.64689   1.46131   0.48791
  20   34395.2    290.7   0.039724313   0.38022   0.55559   0.26536  -0.03347
  21   34559.3    289.4   0.260274510   2.47938   1.02373   0.84880   0.84314
  22   34869.2    286.8   0.025094172   0.23692   0.08496  -0.34693  -0.33067
  23   35134.3    284.6   0.013456820   0.12609   0.24307  -0.23689   0.10437
  24   35444.8    282.1   0.074505058   0.69200   0.68526   0.23022   0.41160
  25   35550.7    281.3   0.260210247   2.40964  -0.51060  -1.13099  -0.93262
  26   36775.6    271.9   0.010247229   0.09173  -0.08725   0.20595   0.20421
  27   36864.9    271.3   0.100058895   0.89355  -0.06376  -0.70359  -0.62805
  28   37345.8    267.8   0.012981612   0.11444  -0.07942  -0.16733   0.28307
  29   37719.7    265.1   0.036767983   0.32091  -0.45509   0.10325  -0.32116
  30   37968.2    263.4   0.018955889   0.16436  -0.31921  -0.24616  -0.04320
  31   38489.5    259.8   0.056819802   0.48600  -0.66920  -0.17728   0.08209
  32   38614.3    259.0   0.042600397   0.36320   0.11183   0.25798  -0.53305
  33   38997.4    256.4   0.120797038   1.01976   0.03625   0.89447  -0.46729
  34   39150.4    255.4   0.007658690   0.06440  -0.03898   0.11202  -0.22435
  35   39408.2    253.8   0.034137082   0.28518   0.20040   0.49073  -0.06481
  36   39496.9    253.2   0.002962695   0.02469   0.11877  -0.08186   0.06234
  37   39923.4    250.5   0.075113425   0.61939   0.37812  -0.58787   0.36170

FINAL SINGLE POINT ENERGY     -4132.933319581094

DIPOLE MOMENT
-------------
                                X             Y             Z
Electronic contribution:      9.77549       9.18390     -13.96951
Nuclear contribution   :    -11.23489      -9.30682      13.48514
                        -----------------------------------------
Total Dipole Moment    :     -1.45940      -0.12292      -0.48438
                        -----------------------------------------
Magnitude (a.u.)       :      1.54259
Magnitude (Debye)      :      3.92095

Rotational constants in cm-1:     0.001914     0.000327     0.000306
Rotational constants in MHz :    57.382137     9.789011     9.178840

                             ****ORCA TERMINATED NORMALLY****
TOTAL RUN TIME: 0 days 0 hours 12 minutes 30 seconds 59 msec
