                         Program Version 4.2.0 -  RELEASE  -
|  1> # ORCA input file
|  2> # SCF done       -226.033349762488          0.000631565142
|  3> ! CAM-B3LYP def2-SVP def2/J RIJCOSX Grid4 TightSCF
|  4> %maxcore 5000
|  5> %tddft
|  6>     Mode sTDDFT
|  7>     Ethresh 5.0
|  8>     maxcore 5000
|  9> end
| 10>
| 11> %pal
| 12>   nprocs 6
| 13>   end
| 14> * xyz 0 1
| 15>    C       -3.59506        -1.90665         1.57201
| 16>    C       -4.10542        -1.26165         0.44366
| 17>    C       -5.29618        -0.37111         0.70228
| 18>    O       -5.89083        -0.43866         1.74149
| 19>    O       -5.66251         0.50274        -0.23502
| 20>    C       -3.52558        -1.49021        -0.81723
| 21>    C       -3.98597        -0.88343        -2.00938
| 22>    N       -4.30777        -0.40966        -3.00437
| 23>    C       -2.43758        -2.36240        -0.95073
| 24>    C       -1.94912        -2.97857         0.17804
| 25>    C       -2.51255        -2.76035         1.44651
| 26>    C       -1.77967        -3.56266         2.42645
| 27>    C       -2.10071        -3.65899         3.75414
| 28>    C       -3.13868        -2.93248         4.38141
| 29>    N       -3.94847        -2.37458         4.97146
| 30>    C       -1.46932        -4.49753         4.69918
| 31>    N       -1.02566        -5.16138         5.52458
| 32>    C       -0.71948        -4.26398         1.72077
| 33>    C       -0.81842        -3.92906         0.28400
| 34>    O       -0.11680        -4.28867        -0.63555
| 35>    C        0.25809        -4.99997         2.34193
| 36>    C        1.27480        -5.81223         1.81254
| 37>    C        1.52491        -6.29423         0.53015
| 38>    C        2.62891        -7.12892         0.49016
| 39>    C        3.25237        -7.29280         1.75343
| 40>    S        2.45525        -6.43298         2.98213
| 41>    C        4.36671        -8.14232         1.59720
| 42>    C        4.45504        -8.52780         0.24072
| 43>    C        3.35997        -7.90889        -0.49377
| 44>    C        3.07501        -8.05512        -1.81838
| 45>    C        3.87622        -8.84660        -2.67016
| 46>    N        4.52345        -9.48868        -3.36495
| 47>    C        1.95629        -7.45272        -2.43584
| 48>    N        1.04599        -6.99349        -2.95867
| 49>    C        5.51967        -9.38058        -0.01070
| 50>    C        6.25428        -9.65518         1.13952
| 51>    S        5.60453        -8.83287         2.54882
| 52>    C        7.38322       -10.49522         1.25695
| 53>    C        7.97479       -11.24048         0.25751
| 54>    C        9.06179       -11.97161         0.81226
| 55>    C        9.09501       -11.59929         2.23067
| 56>    C        8.10940       -10.73114         2.50558
| 57>    F        9.99234       -12.07985         3.09444
| 58>    C        9.89219       -12.86999         0.17962
| 59>    C       10.94527       -13.64826         0.73201
| 60>    C       11.47345       -14.46280        -0.25175
| 61>    C       10.75336       -14.19422        -1.50244
| 62>    C        9.83282       -13.25748        -1.23563
| 63>    F        8.96701       -12.73024        -2.10550
| 64>    C       12.50286       -15.41024        -0.06658
| 65>    C       12.94400       -16.26356        -1.03401
| 66>    C       13.93687       -17.25174        -0.85789
| 67>    C       14.70444       -17.55146         0.26453
| 68>    C       15.55164       -18.62868         0.04572
| 69>    C       15.44046       -19.16667        -1.25575
| 70>    S       14.29619       -18.32814        -2.20219
| 71>    C       16.32132       -20.26367        -1.37079
| 72>    C       16.99283       -20.42658        -0.13674
| 73>    C       16.54941       -19.39326         0.78040
| 74>    C       17.01447       -19.16919         2.04287
| 75>    C       18.02764       -19.97871         2.59936
| 76>    N       18.85224       -20.65100         3.02694
| 77>    C       16.52291       -18.12096         2.84881
| 78>    N       16.11097       -17.27150         3.49884
| 79>    C       17.88752       -21.48389        -0.14394
| 80>    C       17.92531       -22.13551        -1.37209
| 81>    S       16.79275       -21.42411        -2.52132
| 82>    C       18.67370       -23.26281        -1.75573
| 83>    C       19.75084       -23.83023        -1.13637
| 84>    C       20.10124       -25.23935        -1.46865
| 85>    O       19.67038       -25.89469        -2.38594
| 86>    C       21.04275       -25.66525        -0.40603
| 87>    C       21.32919       -24.56657         0.42422
| 88>    C       22.13386       -24.73011         1.53934
| 89>    C       22.67947       -25.98502         1.80012
| 90>    C       22.40639       -27.07099         0.95164
| 91>    C       21.57521       -26.91249        -0.16222
| 92>    C       22.97512       -28.35109         1.17706
| 93>    N       23.41081       -29.40751         1.24794
| 94>    C       23.51706       -26.23149         3.02398
| 95>    O       23.52510       -27.29025         3.58300
| 96>    O       24.24875       -25.20218         3.46204
| 97>    C       20.66614       -23.37753        -0.11460
| 98>    C       21.08415       -22.09335         0.12650
| 99>    C       20.59848       -20.96210        -0.55690
|100>    N       20.23772       -20.02019        -1.10478
|101>    C       22.14156       -21.79081         1.00956
|102>    N       23.01857       -21.53790         1.70499
|103>    H       -4.07723        -1.70972         2.51698
|104>    H       -5.16083         0.47003        -1.06391
|105>    H       -1.99369        -2.54923        -1.91705
|106>    H        0.26830        -4.95882         3.42470
|107>    H        0.91983        -6.02760        -0.31706
|108>    H        5.76892        -9.79403        -0.97010
|109>    H        7.66894       -11.28164        -0.76835
|110>    H        7.87546       -10.27971         3.45012
|111>    H       11.26265       -13.61728         1.75588
|112>    H       10.93813       -14.65812        -2.45055
|113>    H       12.93404       -15.45638         0.92391
|114>    H       12.49982       -16.21917        -2.01828
|115>    H       14.63683       -17.00375         1.18615
|116>    H       18.45125       -21.81151         0.70997
|117>    H       18.31102       -23.80922        -2.62118
|118>    H       22.29443       -23.91102         2.22447
|119>    H       21.35461       -27.74622        -0.81124
|120>    H       24.18604       -24.40241         2.92092
|121> *
|122>
|123>                          ****END OF INPUT****

CARTESIAN COORDINATES (ANGSTROEM)
---------------------------------
  C     -3.595060   -1.906650    1.572010
  C     -4.105420   -1.261650    0.443660
  C     -5.296180   -0.371110    0.702280
  O     -5.890830   -0.438660    1.741490
  O     -5.662510    0.502740   -0.235020
  C     -3.525580   -1.490210   -0.817230
  C     -3.985970   -0.883430   -2.009380
  N     -4.307770   -0.409660   -3.004370
  C     -2.437580   -2.362400   -0.950730
  C     -1.949120   -2.978570    0.178040
  C     -2.512550   -2.760350    1.446510
  C     -1.779670   -3.562660    2.426450
  C     -2.100710   -3.658990    3.754140
  C     -3.138680   -2.932480    4.381410
  N     -3.948470   -2.374580    4.971460
  C     -1.469320   -4.497530    4.699180
  N     -1.025660   -5.161380    5.524580
  C     -0.719480   -4.263980    1.720770
  C     -0.818420   -3.929060    0.284000
  O     -0.116800   -4.288670   -0.635550
  C      0.258090   -4.999970    2.341930
  C      1.274800   -5.812230    1.812540
  C      1.524910   -6.294230    0.530150
  C      2.628910   -7.128920    0.490160
  C      3.252370   -7.292800    1.753430
  S      2.455250   -6.432980    2.982130
  C      4.366710   -8.142320    1.597200
  C      4.455040   -8.527800    0.240720
  C      3.359970   -7.908890   -0.493770
  C      3.075010   -8.055120   -1.818380
  C      3.876220   -8.846600   -2.670160
  N      4.523450   -9.488680   -3.364950
  C      1.956290   -7.452720   -2.435840
  N      1.045990   -6.993490   -2.958670
  C      5.519670   -9.380580   -0.010700
  C      6.254280   -9.655180    1.139520
  S      5.604530   -8.832870    2.548820
  C      7.383220  -10.495220    1.256950
  C      7.974790  -11.240480    0.257510
  C      9.061790  -11.971610    0.812260
  C      9.095010  -11.599290    2.230670
  C      8.109400  -10.731140    2.505580
  F      9.992340  -12.079850    3.094440
  C      9.892190  -12.869990    0.179620
  C     10.945270  -13.648260    0.732010
  C     11.473450  -14.462800   -0.251750
  C     10.753360  -14.194220   -1.502440
  C      9.832820  -13.257480   -1.235630
  F      8.967010  -12.730240   -2.105500
  C     12.502860  -15.410240   -0.066580
  C     12.944000  -16.263560   -1.034010
  C     13.936870  -17.251740   -0.857890
  C     14.704440  -17.551460    0.264530
  C     15.551640  -18.628680    0.045720
  C     15.440460  -19.166670   -1.255750
  S     14.296190  -18.328140   -2.202190
  C     16.321320  -20.263670   -1.370790
  C     16.992830  -20.426580   -0.136740
  C     16.549410  -19.393260    0.780400
  C     17.014470  -19.169190    2.042870
  C     18.027640  -19.978710    2.599360
  N     18.852240  -20.651000    3.026940
  C     16.522910  -18.120960    2.848810
  N     16.110970  -17.271500    3.498840
  C     17.887520  -21.483890   -0.143940
  C     17.925310  -22.135510   -1.372090
  S     16.792750  -21.424110   -2.521320
  C     18.673700  -23.262810   -1.755730
  C     19.750840  -23.830230   -1.136370
  C     20.101240  -25.239350   -1.468650
  O     19.670380  -25.894690   -2.385940
  C     21.042750  -25.665250   -0.406030
  C     21.329190  -24.566570    0.424220
  C     22.133860  -24.730110    1.539340
  C     22.679470  -25.985020    1.800120
  C     22.406390  -27.070990    0.951640
  C     21.575210  -26.912490   -0.162220
  C     22.975120  -28.351090    1.177060
  N     23.410810  -29.407510    1.247940
  C     23.517060  -26.231490    3.023980
  O     23.525100  -27.290250    3.583000
  O     24.248750  -25.202180    3.462040
  C     20.666140  -23.377530   -0.114600
  C     21.084150  -22.093350    0.126500
  C     20.598480  -20.962100   -0.556900
  N     20.237720  -20.020190   -1.104780
  C     22.141560  -21.790810    1.009560
  N     23.018570  -21.537900    1.704990
  H     -4.077230   -1.709720    2.516980
  H     -5.160830    0.470030   -1.063910
  H     -1.993690   -2.549230   -1.917050
  H      0.268300   -4.958820    3.424700
  H      0.919830   -6.027600   -0.317060
  H      5.768920   -9.794030   -0.970100
  H      7.668940  -11.281640   -0.768350
  H      7.875460  -10.279710    3.450120
  H     11.262650  -13.617280    1.755880
  H     10.938130  -14.658120   -2.450550
  H     12.934040  -15.456380    0.923910
  H     12.499820  -16.219170   -2.018280
  H     14.636830  -17.003750    1.186150
  H     18.451250  -21.811510    0.709970
  H     18.311020  -23.809220   -2.621180
  H     22.294430  -23.911020    2.224470
  H     21.354610  -27.746220   -0.811240
  H     24.186040  -24.402410    2.920920

 Total Charge           Charge          ....    0
 Multiplicity           Mult            ....    1
 Number of Electrons    NEL             ....  614
 Basis Dimension        Dim             .... 1338

ORBITAL ENERGIES
----------------

  NO   OCC          E(Eh)            E(eV)
   0   2.0000     -89.014339     -2422.2033
   1   2.0000     -89.011513     -2422.1264
   2   2.0000     -89.011245     -2422.1191
   3   2.0000     -89.011095     -2422.1150
   4   2.0000     -24.810854      -675.1376
   5   2.0000     -24.809846      -675.1102
   6   2.0000     -19.276940      -524.5522
   7   2.0000     -19.270745      -524.3836
   8   2.0000     -19.240142      -523.5509
   9   2.0000     -19.239633      -523.5370
  10   2.0000     -19.216356      -522.9036
  11   2.0000     -19.212191      -522.7903
  12   2.0000     -14.450406      -393.2155
  13   2.0000     -14.449640      -393.1947
  14   2.0000     -14.448547      -393.1649
  15   2.0000     -14.445444      -393.0805
  16   2.0000     -14.442519      -393.0009
  17   2.0000     -14.439597      -392.9214
  18   2.0000     -14.438135      -392.8816
  19   2.0000     -14.434663      -392.7872
  20   2.0000     -14.426850      -392.5746
  21   2.0000     -14.413903      -392.2222
  22   2.0000     -10.422309      -283.6054
  23   2.0000     -10.421456      -283.5822
  24   2.0000     -10.391465      -282.7661
  25   2.0000     -10.391005      -282.7536
  26   2.0000     -10.385551      -282.6052
  27   2.0000     -10.382718      -282.5281
  28   2.0000     -10.378705      -282.4189
  29   2.0000     -10.377184      -282.3775
  30   2.0000     -10.372517      -282.2505
  31   2.0000     -10.368901      -282.1521
  32   2.0000     -10.368768      -282.1485
  33   2.0000     -10.367106      -282.1033
  34   2.0000     -10.363970      -282.0180
  35   2.0000     -10.363827      -282.0141
  36   2.0000     -10.363060      -281.9932
  37   2.0000     -10.360407      -281.9210
  38   2.0000     -10.359849      -281.9058
  39   2.0000     -10.353122      -281.7228
  40   2.0000     -10.352726      -281.7120
  41   2.0000     -10.351225      -281.6712
  42   2.0000     -10.350508      -281.6516
  43   2.0000     -10.348864      -281.6069
  44   2.0000     -10.348411      -281.5946
  45   2.0000     -10.348358      -281.5931
  46   2.0000     -10.346366      -281.5389
  47   2.0000     -10.346345      -281.5384
  48   2.0000     -10.346014      -281.5293
  49   2.0000     -10.345549      -281.5167
  50   2.0000     -10.345065      -281.5035
  51   2.0000     -10.344181      -281.4795
  52   2.0000     -10.341368      -281.4029
  53   2.0000     -10.340934      -281.3911
  54   2.0000     -10.340766      -281.3865
  55   2.0000     -10.340195      -281.3710
  56   2.0000     -10.339991      -281.3655
  57   2.0000     -10.339668      -281.3567
  58   2.0000     -10.336506      -281.2706
  59   2.0000     -10.336380      -281.2672
  60   2.0000     -10.333698      -281.1942
  61   2.0000     -10.333434      -281.1870
  62   2.0000     -10.333014      -281.1756
  63   2.0000     -10.331441      -281.1328
  64   2.0000     -10.330588      -281.1096
  65   2.0000     -10.329674      -281.0847
  66   2.0000     -10.328172      -281.0438
  67   2.0000     -10.327769      -281.0329
  68   2.0000     -10.326272      -280.9922
  69   2.0000     -10.325828      -280.9801
  70   2.0000     -10.324584      -280.9462
  71   2.0000     -10.324284      -280.9380
  72   2.0000     -10.323563      -280.9184
  73   2.0000     -10.323148      -280.9071
  74   2.0000     -10.322887      -280.9000
  75   2.0000     -10.322075      -280.8779
  76   2.0000     -10.321300      -280.8569
  77   2.0000     -10.321071      -280.8506
  78   2.0000     -10.320434      -280.8333
  79   2.0000     -10.320117      -280.8247
  80   2.0000     -10.318642      -280.7845
  81   2.0000     -10.313770      -280.6520
  82   2.0000     -10.313401      -280.6419
  83   2.0000     -10.313265      -280.6382
  84   2.0000     -10.297532      -280.2101
  85   2.0000     -10.295077      -280.1433
  86   2.0000     -10.290053      -280.0066
  87   2.0000     -10.287477      -279.9365
  88   2.0000      -8.109092      -220.6596
  89   2.0000      -8.106268      -220.5828
  90   2.0000      -8.105863      -220.5717
  91   2.0000      -8.105606      -220.5648
  92   2.0000      -6.078261      -165.3979
  93   2.0000      -6.075424      -165.3207
  94   2.0000      -6.074986      -165.3088
  95   2.0000      -6.074784      -165.3033
  96   2.0000      -6.074105      -165.2848
  97   2.0000      -6.071523      -165.2145
  98   2.0000      -6.071306      -165.2086
  99   2.0000      -6.070827      -165.1956
 100   2.0000      -6.070621      -165.1900
 101   2.0000      -6.068734      -165.1386
 102   2.0000      -6.068361      -165.1285
 103   2.0000      -6.068133      -165.1223
 104   2.0000      -1.324208       -36.0335
 105   2.0000      -1.323125       -36.0041
 106   2.0000      -1.201097       -32.6835
 107   2.0000      -1.197872       -32.5958
 108   2.0000      -1.156115       -31.4595
 109   2.0000      -1.155726       -31.4489
 110   2.0000      -1.116349       -30.3774
 111   2.0000      -1.111634       -30.2491
 112   2.0000      -1.068306       -29.0701
 113   2.0000      -1.065665       -28.9982
 114   2.0000      -1.045006       -28.4361
 115   2.0000      -1.042092       -28.3568
 116   2.0000      -1.041385       -28.3375
 117   2.0000      -1.036892       -28.2153
 118   2.0000      -1.034435       -28.1484
 119   2.0000      -1.027368       -27.9561
 120   2.0000      -1.026180       -27.9238
 121   2.0000      -1.023129       -27.8408
 122   2.0000      -1.022368       -27.8200
 123   2.0000      -1.020286       -27.7634
 124   2.0000      -1.019343       -27.7377
 125   2.0000      -1.016360       -27.6566
 126   2.0000      -1.009113       -27.4594
 127   2.0000      -1.007639       -27.4193
 128   2.0000      -1.001866       -27.2622
 129   2.0000      -0.993502       -27.0346
 130   2.0000      -0.983791       -26.7703
 131   2.0000      -0.982231       -26.7279
 132   2.0000      -0.976379       -26.5686
 133   2.0000      -0.974357       -26.5136
 134   2.0000      -0.945417       -25.7261
 135   2.0000      -0.938033       -25.5252
 136   2.0000      -0.929598       -25.2957
 137   2.0000      -0.924214       -25.1492
 138   2.0000      -0.922674       -25.1072
 139   2.0000      -0.910164       -24.7668
 140   2.0000      -0.906810       -24.6755
 141   2.0000      -0.900975       -24.5168
 142   2.0000      -0.898589       -24.4518
 143   2.0000      -0.891752       -24.2658
 144   2.0000      -0.887641       -24.1539
 145   2.0000      -0.879729       -23.9387
 146   2.0000      -0.878129       -23.8951
 147   2.0000      -0.873439       -23.7675
 148   2.0000      -0.855282       -23.2734
 149   2.0000      -0.848958       -23.1013
 150   2.0000      -0.834249       -22.7011
 151   2.0000      -0.831936       -22.6381
 152   2.0000      -0.814420       -22.1615
 153   2.0000      -0.807583       -21.9754
 154   2.0000      -0.807217       -21.9655
 155   2.0000      -0.799523       -21.7561
 156   2.0000      -0.796442       -21.6723
 157   2.0000      -0.789674       -21.4881
 158   2.0000      -0.777822       -21.1656
 159   2.0000      -0.758961       -20.6524
 160   2.0000      -0.754889       -20.5416
 161   2.0000      -0.752293       -20.4709
 162   2.0000      -0.745226       -20.2786
 163   2.0000      -0.737273       -20.0622
 164   2.0000      -0.724762       -19.7218
 165   2.0000      -0.723286       -19.6816
 166   2.0000      -0.720022       -19.5928
 167   2.0000      -0.715366       -19.4661
 168   2.0000      -0.713688       -19.4204
 169   2.0000      -0.713095       -19.4043
 170   2.0000      -0.704961       -19.1830
 171   2.0000      -0.704691       -19.1756
 172   2.0000      -0.702907       -19.1271
 173   2.0000      -0.696424       -18.9507
 174   2.0000      -0.691092       -18.8056
 175   2.0000      -0.687122       -18.6976
 176   2.0000      -0.682256       -18.5651
 177   2.0000      -0.674365       -18.3504
 178   2.0000      -0.669002       -18.2045
 179   2.0000      -0.666419       -18.1342
 180   2.0000      -0.657769       -17.8988
 181   2.0000      -0.656264       -17.8579
 182   2.0000      -0.655782       -17.8447
 183   2.0000      -0.649768       -17.6811
 184   2.0000      -0.647813       -17.6279
 185   2.0000      -0.642199       -17.4751
 186   2.0000      -0.639803       -17.4099
 187   2.0000      -0.638579       -17.3766
 188   2.0000      -0.633033       -17.2257
 189   2.0000      -0.623197       -16.9580
 190   2.0000      -0.616778       -16.7834
 191   2.0000      -0.612052       -16.6548
 192   2.0000      -0.610149       -16.6030
 193   2.0000      -0.601822       -16.3764
 194   2.0000      -0.598159       -16.2767
 195   2.0000      -0.595624       -16.2078
 196   2.0000      -0.584413       -15.9027
 197   2.0000      -0.581927       -15.8350
 198   2.0000      -0.580959       -15.8087
 199   2.0000      -0.576655       -15.6916
 200   2.0000      -0.574531       -15.6338
 201   2.0000      -0.571716       -15.5572
 202   2.0000      -0.570131       -15.5141
 203   2.0000      -0.568707       -15.4753
 204   2.0000      -0.568262       -15.4632
 205   2.0000      -0.567547       -15.4437
 206   2.0000      -0.565171       -15.3791
 207   2.0000      -0.565105       -15.3773
 208   2.0000      -0.562891       -15.3171
 209   2.0000      -0.559583       -15.2270
 210   2.0000      -0.553528       -15.0623
 211   2.0000      -0.550610       -14.9829
 212   2.0000      -0.549659       -14.9570
 213   2.0000      -0.548648       -14.9295
 214   2.0000      -0.546819       -14.8797
 215   2.0000      -0.541315       -14.7299
 216   2.0000      -0.540821       -14.7165
 217   2.0000      -0.535432       -14.5699
 218   2.0000      -0.533111       -14.5067
 219   2.0000      -0.531469       -14.4620
 220   2.0000      -0.530866       -14.4456
 221   2.0000      -0.527845       -14.3634
 222   2.0000      -0.526784       -14.3345
 223   2.0000      -0.525245       -14.2927
 224   2.0000      -0.523024       -14.2322
 225   2.0000      -0.521685       -14.1958
 226   2.0000      -0.519858       -14.1461
 227   2.0000      -0.518367       -14.1055
 228   2.0000      -0.515132       -14.0175
 229   2.0000      -0.512421       -13.9437
 230   2.0000      -0.511032       -13.9059
 231   2.0000      -0.509764       -13.8714
 232   2.0000      -0.508582       -13.8392
 233   2.0000      -0.504809       -13.7366
 234   2.0000      -0.503876       -13.7112
 235   2.0000      -0.501235       -13.6393
 236   2.0000      -0.500918       -13.6307
 237   2.0000      -0.495397       -13.4804
 238   2.0000      -0.491635       -13.3781
 239   2.0000      -0.489123       -13.3097
 240   2.0000      -0.486866       -13.2483
 241   2.0000      -0.484942       -13.1960
 242   2.0000      -0.484419       -13.1817
 243   2.0000      -0.481153       -13.0928
 244   2.0000      -0.480062       -13.0631
 245   2.0000      -0.478049       -13.0084
 246   2.0000      -0.477034       -12.9807
 247   2.0000      -0.474637       -12.9155
 248   2.0000      -0.473795       -12.8926
 249   2.0000      -0.472106       -12.8467
 250   2.0000      -0.471840       -12.8394
 251   2.0000      -0.471280       -12.8242
 252   2.0000      -0.470821       -12.8117
 253   2.0000      -0.469630       -12.7793
 254   2.0000      -0.466046       -12.6818
 255   2.0000      -0.465559       -12.6685
 256   2.0000      -0.464829       -12.6486
 257   2.0000      -0.464490       -12.6394
 258   2.0000      -0.463967       -12.6252
 259   2.0000      -0.462328       -12.5806
 260   2.0000      -0.459343       -12.4994
 261   2.0000      -0.458202       -12.4683
 262   2.0000      -0.457753       -12.4561
 263   2.0000      -0.456395       -12.4191
 264   2.0000      -0.454013       -12.3543
 265   2.0000      -0.453920       -12.3518
 266   2.0000      -0.453233       -12.3331
 267   2.0000      -0.452294       -12.3076
 268   2.0000      -0.449348       -12.2274
 269   2.0000      -0.447727       -12.1833
 270   2.0000      -0.445452       -12.1214
 271   2.0000      -0.443445       -12.0668
 272   2.0000      -0.441888       -12.0244
 273   2.0000      -0.440935       -11.9985
 274   2.0000      -0.440318       -11.9817
 275   2.0000      -0.439445       -11.9579
 276   2.0000      -0.437705       -11.9106
 277   2.0000      -0.437312       -11.8999
 278   2.0000      -0.433835       -11.8053
 279   2.0000      -0.426113       -11.5951
 280   2.0000      -0.425854       -11.5881
 281   2.0000      -0.422893       -11.5075
 282   2.0000      -0.421425       -11.4675
 283   2.0000      -0.416050       -11.3213
 284   2.0000      -0.408747       -11.1226
 285   2.0000      -0.406061       -11.0495
 286   2.0000      -0.402615       -10.9557
 287   2.0000      -0.392781       -10.6881
 288   2.0000      -0.377083       -10.2609
 289   2.0000      -0.375902       -10.2288
 290   2.0000      -0.374120       -10.1803
 291   2.0000      -0.370906       -10.0929
 292   2.0000      -0.370508       -10.0820
 293   2.0000      -0.364998        -9.9321
 294   2.0000      -0.364566        -9.9203
 295   2.0000      -0.362435        -9.8624
 296   2.0000      -0.360379        -9.8064
 297   2.0000      -0.355394        -9.6708
 298   2.0000      -0.344047        -9.3620
 299   2.0000      -0.342317        -9.3149
 300   2.0000      -0.340611        -9.2685
 301   2.0000      -0.336907        -9.1677
 302   2.0000      -0.329394        -8.9633
 303   2.0000      -0.313002        -8.5172
 304   2.0000      -0.308113        -8.3842
 305   2.0000      -0.280452        -7.6315
 306   2.0000      -0.258780        -7.0418
 307   0.0000      -0.142252        -3.8709
 308   0.0000      -0.128364        -3.4930
 309   0.0000      -0.113878        -3.0988
 310   0.0000      -0.109953        -2.9920
 311   0.0000      -0.107960        -2.9377

MULLIKEN ATOMIC CHARGES
-----------------------
   0 C :   -0.081937
   1 C :    0.008141
   2 C :    0.168464
   3 O :   -0.151478
   4 O :   -0.132880
   5 C :   -0.040935
   6 C :   -0.220314
   7 N :    0.124495
   8 C :   -0.032023
   9 C :   -0.001681
  10 C :    0.071684
  11 C :    0.313378
  12 C :   -0.340307
  13 C :   -0.192693
  14 N :    0.179873
  15 C :   -0.195476
  16 N :    0.161679
  17 C :   -0.096555
  18 C :    0.162040
  19 O :   -0.141003
  20 C :    0.041757
  21 C :   -0.116691
  22 C :    0.006427
  23 C :   -0.009369
  24 C :   -0.074113
  25 S :    0.213541
  26 C :   -0.105545
  27 C :    0.034976
  28 C :    0.307132
  29 C :   -0.291334
  30 C :   -0.190295
  31 N :    0.179918
  32 C :   -0.191034
  33 N :    0.197986
  34 C :   -0.047399
  35 C :   -0.051240
  36 S :    0.201710
  37 C :    0.102906
  38 C :   -0.096892
  39 C :    0.015104
  40 C :    0.261053
  41 C :   -0.096567
  42 F :   -0.169125
  43 C :    0.006962
  44 C :   -0.081171
  45 C :    0.108545
  46 C :   -0.076516
  47 C :    0.260856
  48 F :   -0.168457
  49 C :    0.006310
  50 C :    0.048566
  51 C :   -0.069110
  52 C :   -0.028513
  53 C :    0.016710
  54 C :   -0.111521
  55 S :    0.208099
  56 C :   -0.064631
  57 C :   -0.005835
  58 C :    0.300377
  59 C :   -0.278434
  60 C :   -0.180752
  61 N :    0.168674
  62 C :   -0.183827
  63 N :    0.178266
  64 C :    0.002412
  65 C :   -0.113124
  66 S :    0.221939
  67 C :    0.093516
  68 C :   -0.150308
  69 C :    0.143923
  70 O :   -0.126936
  71 C :    0.017274
  72 C :    0.021724
  73 C :   -0.082455
  74 C :    0.004040
  75 C :   -0.075087
  76 C :   -0.034040
  77 C :   -0.156537
  78 N :    0.144703
  79 C :    0.184382
  80 O :   -0.147160
  81 O :   -0.142418
  82 C :    0.259164
  83 C :   -0.311946
  84 C :   -0.191744
  85 N :    0.176628
  86 C :   -0.169417
  87 N :    0.149684
  88 H :    0.034018
  89 H :    0.176320
  90 H :    0.019756
  91 H :    0.012730
  92 H :    0.039252
  93 H :    0.013158
  94 H :   -0.002643
  95 H :   -0.005967
  96 H :   -0.007201
  97 H :   -0.012893
  98 H :   -0.003444
  99 H :   -0.011812
 100 H :    0.013552
 101 H :    0.024801
 102 H :    0.025132
 103 H :    0.015441
 104 H :    0.018712
 105 H :    0.192895
Sum of atomic charges:   -0.0000000

LOEWDIN ATOMIC CHARGES
----------------------
   0 C :    0.039100
   1 C :   -0.033890
   2 C :    0.081660
   3 O :   -0.136185
   4 O :   -0.010602
   5 C :   -0.053948
   6 C :   -0.039026
   7 N :   -0.027202
   8 C :    0.048321
   9 C :   -0.031054
  10 C :    0.003106
  11 C :    0.067704
  12 C :   -0.124259
  13 C :   -0.026255
  14 N :   -0.026374
  15 C :   -0.022708
  16 N :   -0.041721
  17 C :   -0.105253
  18 C :    0.085138
  19 O :   -0.128084
  20 C :    0.048712
  21 C :   -0.178325
  22 C :    0.024284
  23 C :   -0.074042
  24 C :   -0.151082
  25 S :    0.499453
  26 C :   -0.196328
  27 C :   -0.045415
  28 C :    0.073023
  29 C :   -0.088924
  30 C :   -0.016225
  31 N :   -0.025010
  32 C :   -0.022114
  33 N :   -0.012009
  34 C :   -0.015319
  35 C :   -0.141098
  36 S :    0.493458
  37 C :   -0.024542
  38 C :   -0.045406
  39 C :   -0.002372
  40 C :    0.086927
  41 C :   -0.069269
  42 F :   -0.044760
  43 C :    0.007577
  44 C :   -0.049075
  45 C :    0.002984
  46 C :   -0.056918
  47 C :    0.085000
  48 F :   -0.045325
  49 C :    0.001146
  50 C :   -0.034933
  51 C :   -0.149598
  52 C :   -0.021310
  53 C :   -0.048837
  54 C :   -0.192989
  55 S :    0.490583
  56 C :   -0.150879
  57 C :   -0.066934
  58 C :    0.080366
  59 C :   -0.093073
  60 C :   -0.010779
  61 N :   -0.030727
  62 C :   -0.016908
  63 N :   -0.024387
  64 C :    0.015492
  65 C :   -0.184176
  66 S :    0.503278
  67 C :    0.050138
  68 C :   -0.100737
  69 C :    0.084168
  70 O :   -0.128103
  71 C :   -0.034017
  72 C :    0.003278
  73 C :   -0.001509
  74 C :   -0.034700
  75 C :   -0.024036
  76 C :    0.050380
  77 C :   -0.034644
  78 N :   -0.022607
  79 C :    0.079980
  80 O :   -0.118882
  81 O :   -0.013147
  82 C :    0.062327
  83 C :   -0.130443
  84 C :   -0.016287
  85 N :   -0.034943
  86 C :   -0.014574
  87 N :   -0.049073
  88 H :    0.051109
  89 H :    0.082883
  90 H :    0.053397
  91 H :    0.043914
  92 H :    0.044431
  93 H :    0.044319
  94 H :    0.026405
  95 H :    0.027548
  96 H :    0.026838
  97 H :    0.030295
  98 H :    0.037741
  99 H :    0.030451
 100 H :    0.042213
 101 H :    0.042628
 102 H :    0.048225
 103 H :    0.038800
 104 H :    0.054025
 105 H :    0.100545

  Mayer bond orders larger than 0.100000
B(  0-C ,  1-C ) :   1.3809 B(  0-C , 10-C ) :   1.3188 B(  0-C , 88-H ) :   0.9842
B(  1-C ,  2-C ) :   0.8517 B(  1-C ,  5-C ) :   1.3392 B(  2-C ,  3-O ) :   2.1726
B(  2-C ,  4-O ) :   1.2837 B(  4-O , 89-H ) :   0.9384 B(  5-C ,  6-C ) :   1.0560
B(  5-C ,  8-C ) :   1.3522 B(  6-C ,  7-N ) :   2.9754 B(  8-C ,  9-C ) :   1.3733
B(  8-C , 90-H ) :   1.0124 B(  9-C , 10-C ) :   1.3320 B(  9-C , 18-C ) :   0.9307
B( 10-C , 11-C ) :   0.9731 B( 11-C , 12-C ) :   1.6381 B( 11-C , 17-C ) :   1.0895
B( 12-C , 13-C ) :   1.1411 B( 12-C , 15-C ) :   1.1429 B( 13-C , 14-N ) :   2.9740
B( 15-C , 16-N ) :   2.9724 B( 17-C , 18-C ) :   0.9522 B( 17-C , 20-C ) :   1.5581
B( 18-C , 19-O ) :   2.1838 B( 20-C , 21-C ) :   1.2455 B( 20-C , 91-H ) :   0.9123
B( 21-C , 22-C ) :   1.3752 B( 21-C , 25-S ) :   1.0668 B( 22-C , 23-C ) :   1.3410
B( 22-C , 92-H ) :   0.9705 B( 23-C , 24-C ) :   1.3577 B( 23-C , 28-C ) :   0.9985
B( 24-C , 25-S ) :   1.1726 B( 24-C , 26-C ) :   1.2245 B( 26-C , 27-C ) :   1.4001
B( 26-C , 36-S ) :   1.1123 B( 27-C , 28-C ) :   0.9876 B( 27-C , 34-C ) :   1.3179
B( 28-C , 29-C ) :   1.7212 B( 29-C , 30-C ) :   1.1369 B( 29-C , 32-C ) :   1.1354
B( 30-C , 31-N ) :   2.9888 B( 32-C , 33-N ) :   2.9952 B( 34-C , 35-C ) :   1.4215
B( 34-C , 93-H ) :   0.9976 B( 35-C , 36-S ) :   1.1160 B( 35-C , 37-C ) :   1.1305
B( 37-C , 38-C ) :   1.5474 B( 37-C , 41-C ) :   1.0164 B( 38-C , 39-C ) :   1.1346
B( 38-C , 94-H ) :   1.0106 B( 39-C , 40-C ) :   1.0257 B( 39-C , 43-C ) :   1.4459
B( 40-C , 41-C ) :   1.6677 B( 40-C , 42-F ) :   1.1343 B( 41-C , 95-H ) :   1.0080
B( 43-C , 44-C ) :   1.1311 B( 43-C , 47-C ) :   1.0169 B( 44-C , 45-C ) :   1.4937
B( 44-C , 96-H ) :   1.0222 B( 45-C , 46-C ) :   1.0117 B( 45-C , 49-C ) :   1.1627
B( 46-C , 47-C ) :   1.6756 B( 46-C , 97-H ) :   1.0113 B( 47-C , 48-F ) :   1.1294
B( 49-C , 50-C ) :   1.6195 B( 49-C , 98-H ) :   0.9793 B( 50-C , 51-C ) :   1.1353
B( 50-C , 99-H ) :   0.9594 B( 51-C , 52-C ) :   1.4228 B( 51-C , 55-S ) :   1.1189
B( 52-C , 53-C ) :   1.3305 B( 52-C ,100-H ) :   0.9901 B( 53-C , 54-C ) :   1.4093
B( 53-C , 58-C ) :   0.9935 B( 54-C , 55-S ) :   1.1178 B( 54-C , 56-C ) :   1.2173
B( 56-C , 57-C ) :   1.3894 B( 56-C , 66-S ) :   1.1621 B( 57-C , 58-C ) :   1.0041
B( 57-C , 64-C ) :   1.3758 B( 58-C , 59-C ) :   1.7191 B( 59-C , 60-C ) :   1.1334
B( 59-C , 62-C ) :   1.1322 B( 60-C , 61-N ) :   2.9796 B( 62-C , 63-N ) :   2.9890
B( 64-C , 65-C ) :   1.3701 B( 64-C ,101-H ) :   0.9775 B( 65-C , 66-S ) :   1.0802
B( 65-C , 67-C ) :   1.1695 B( 67-C , 68-C ) :   1.6327 B( 67-C ,102-H ) :   0.9288
B( 68-C , 69-C ) :   0.9524 B( 68-C , 82-C ) :   1.0558 B( 69-C , 70-O ) :   2.2760
B( 69-C , 71-C ) :   0.8980 B( 71-C , 72-C ) :   1.3479 B( 71-C , 76-C ) :   1.3577
B( 72-C , 73-C ) :   1.3902 B( 72-C , 82-C ) :   0.9865 B( 73-C , 74-C ) :   1.3275
B( 73-C ,103-H ) :   0.9687 B( 74-C , 75-C ) :   1.3965 B( 74-C , 79-C ) :   0.8673
B( 75-C , 76-C ) :   1.3656 B( 75-C , 77-C ) :   1.0679 B( 76-C ,104-H ) :   1.0155
B( 77-C , 78-N ) :   3.0388 B( 79-C , 80-O ) :   2.1674 B( 79-C , 81-O ) :   1.2592
B( 81-O ,105-H ) :   0.9435 B( 82-C , 83-C ) :   1.6527 B( 83-C , 84-C ) :   1.1673
B( 83-C , 86-C ) :   1.1279 B( 84-C , 85-N ) :   2.9938 B( 86-C , 87-N ) :   2.9951

-----------------------------------------------------------------------------
         ABSORPTION SPECTRUM VIA TRANSITION ELECTRIC DIPOLE MOMENTS
-----------------------------------------------------------------------------
State   Energy  Wavelength   fosc         T2         TX        TY        TZ
        (cm-1)    (nm)                  (au**2)     (au)      (au)      (au)
-----------------------------------------------------------------------------
   0   11047.9    905.1   1.773128564  52.83672  -5.28985   4.91557   0.83145
   1   13014.6    768.4   0.090813038   2.29717  -1.22342   0.83634   0.31773
   2   15048.5    664.5   0.313400087   6.85619   1.83372  -1.80970  -0.46759
   3   16344.1    611.8   0.004865661   0.09801  -0.28237   0.07376   0.11328
   4   18744.4    533.5   0.365087417   6.41210   2.03980  -1.48139   0.23833
   5   20143.8    496.4   0.873745669  14.27967  -2.94125   2.25208   0.74622
   6   21068.7    474.6   0.024335544   0.38026  -0.31414   0.23973   0.47340
   7   21738.9    460.0   0.132678623   2.00928   0.98922  -1.01251  -0.07453
   8   22560.1    443.3   0.139227709   2.03170   0.79505  -1.18088   0.07163
   9   23725.7    421.5   0.021857782   0.30329  -0.21863  -0.14299  -0.48482
  10   23950.5    417.5   0.328132147   4.51034  -1.27945   1.69502  -0.01641
  11   24863.1    402.2   0.051464629   0.68144  -0.37681   0.69303   0.24323
  12   25533.2    391.6   0.006065384   0.07820  -0.11906   0.22191   0.12159
  13   26235.5    381.2   0.066234814   0.83114   0.67328  -0.61436   0.01972
  14   27276.6    366.6   0.038682809   0.46688  -0.67429  -0.07769   0.07858
  15   27959.5    357.7   0.027176471   0.31999   0.20138   0.08003   0.52253
  16   28551.0    350.3   0.042272144   0.48743  -0.10652  -0.48303  -0.49271
  17   28763.6    347.7   0.007086631   0.08111   0.19254   0.00086  -0.20985
  18   29327.9    341.0   0.024434399   0.27428  -0.05013  -0.13628   0.50319
  19   29509.7    338.9   0.314068369   3.50377   0.12616   0.82945   1.67328
  20   29847.9    335.0   0.055138004   0.60815   0.17232  -0.42574  -0.63024
  21   30144.9    331.7   0.166487801   1.81821  -0.37095   0.33068  -1.25350
  22   30624.7    326.5   0.190393642   2.04671   0.96518  -0.82753   0.65599
  23   31011.6    322.5   0.093338736   0.99086   0.68671  -0.43261   0.57631
  24   31188.4    320.6   0.052622566   0.55546  -0.50996   0.43402  -0.32715
  25   31394.2    318.5   0.054881299   0.57551  -0.55586   0.05786   0.51301
  26   31601.0    316.4   0.076949638   0.80164   0.27896  -0.02417   0.85043
  27   31718.6    315.3   0.045515412   0.47241   0.12747  -0.58329   0.34049
  28   32174.5    310.8   0.011394454   0.11659  -0.11577  -0.07538   0.31225
  29   32337.6    309.2   0.009889688   0.10068   0.02471  -0.08768  -0.30395
  30   32495.7    307.7   0.182024671   1.84408  -0.59358   1.21043   0.16306
  31   32714.9    305.7   0.229669492   2.31118   1.03084  -0.81450   0.76494
  32   32824.7    304.6   0.135927457   1.36327   0.48438  -1.04194   0.20739
  33   32854.2    304.4   0.068215911   0.68355  -0.68701   0.37515   0.26614
  34   33205.1    301.2   0.175123149   1.73626   0.59857  -0.69966  -0.94258
  35   33489.0    298.6   0.074064713   0.72809   0.40989  -0.57206   0.48252
  36   33698.7    296.7   0.093490402   0.91333   0.04003  -0.91092   0.28628
  37   34000.4    294.1   0.067722729   0.65573  -0.21673  -0.51215  -0.58861
  38   34477.7    290.0   0.055941430   0.53416  -0.10083  -0.56195  -0.45630
  39   34609.5    288.9   0.635992084   6.04967  -0.83987   0.02781  -2.31160
  40   34988.9    285.8   0.057594810   0.54191   0.22391  -0.46540  -0.52458
  41   35253.2    283.7   0.218641879   2.04179   0.61965  -1.20446   0.45509
  42   35431.5    282.2   0.086347687   0.80230  -0.25045   0.84561  -0.15657
  43   35687.3    280.2   0.385795830   3.55893  -0.98112   0.86380  -1.36021
  44   35832.0    279.1   0.110736720   1.01741  -0.12901  -0.45305  -0.89192
  45   35995.0    277.8   0.240005478   2.19510  -0.02996  -1.38874   0.51537
  46   36117.5    276.9   0.156621515   1.42761  -0.29347   0.86359   0.77181
  47   36190.0    276.3   0.095326699   0.86717  -0.11028   0.83244   0.40256
  48   36496.2    274.0   0.042153895   0.38025  -0.28908  -0.32322  -0.43842
  49   36763.8    272.0   0.011873708   0.10633  -0.18710   0.17701  -0.19997
  50   37031.8    270.0   0.194683722   1.73073  -0.56680   0.71840   0.94518
  51   37223.3    268.6   0.000696066   0.00616   0.02237   0.00171   0.07518
  52   37346.1    267.8   0.005305801   0.04677   0.07049  -0.06309   0.19448
  53   37577.6    266.1   0.081427259   0.71337  -0.32788   0.08851   0.77332
  54   37783.8    264.7   0.004879932   0.04252  -0.14318   0.14773  -0.01396
  55   38090.5    262.5   0.016119817   0.13932  -0.04480  -0.07555   0.36278
  56   38193.3    261.8   0.007677571   0.06618  -0.16698  -0.17620  -0.08513
  57   38313.4    261.0   0.095804709   0.82321  -0.06865   0.04076   0.90379
  58   38368.4    260.6   0.032062461   0.27511   0.41881  -0.04296  -0.31283
  59   38871.5    257.3   0.021594924   0.18289  -0.37255   0.14218   0.15454
  60   38924.8    256.9   0.012384753   0.10475  -0.22613   0.22993   0.02725
  61   39006.6    256.4   0.004548081   0.03839   0.02771  -0.12300   0.14996
  62   39192.6    255.2   0.108220322   0.90904   0.66185  -0.68472   0.04642
  63   39239.7    254.8   0.070614781   0.59244   0.07283   0.37219   0.66979
  64   39459.5    253.4   0.006606326   0.05512   0.17102  -0.14818  -0.06254
  65   39580.1    252.7   0.056569432   0.47052   0.19076  -0.53018  -0.39120
  66   39806.7    251.2   0.022824754   0.18877  -0.30015  -0.04556   0.31081
  67   39906.9    250.6   0.067198911   0.55436  -0.53846   0.45081  -0.24736
  68   40069.8    249.6   0.016112239   0.13238  -0.07261  -0.17592   0.31009
  69   40170.3    248.9   0.003797141   0.03112  -0.03707   0.13583  -0.10628

FINAL SINGLE POINT ENERGY     -5311.762287238887

DIPOLE MOMENT
-------------
                                X             Y             Z
Electronic contribution:     -3.05952       3.10928       0.87272
Nuclear contribution   :      3.67870      -2.96614      -3.18664
                        -----------------------------------------
Total Dipole Moment    :      0.61918       0.14314      -2.31392
                        -----------------------------------------
Magnitude (a.u.)       :      2.39961
Magnitude (Debye)      :      6.09931

Rotational constants in cm-1:     0.002746     0.000087     0.000086
Rotational constants in MHz :    82.336861     2.617750     2.563954

                             ****ORCA TERMINATED NORMALLY****
TOTAL RUN TIME: 0 days 0 hours 11 minutes 59 seconds 374 msec
