                         Program Version 4.2.0 -  RELEASE  -
|  1> # ORCA input file
|  2> # SCF done       -201.147950959773          0.000602665254
|  3> ! CAM-B3LYP def2-SVP def2/J RIJCOSX Grid4 TightSCF
|  4> %maxcore 5000
|  5> %tddft
|  6>     Mode sTDDFT
|  7>     Ethresh 5.0
|  8>     maxcore 5000
|  9> end
| 10>
| 11> %pal
| 12>   nprocs 6
| 13>   end
| 14> * xyz 0 1
| 15>    C        0.79922        -3.29807         0.71775
| 16>    C       -0.06368        -3.11929        -0.31923
| 17>    C       -0.31808        -1.75222        -0.54598
| 18>    C        0.37493        -0.92569         0.34507
| 19>    S        1.32687        -1.81540         1.44732
| 20>    C        0.05826         0.43054         0.04621
| 21>    C       -0.83274         0.45352        -1.03199
| 22>    C       -1.09955        -0.92070        -1.44222
| 23>    C       -1.91426        -1.33288        -2.45631
| 24>    C       -2.62888        -0.42756        -3.26806
| 25>    N       -3.21543         0.29795        -3.93495
| 26>    C       -2.09801        -2.69705        -2.76341
| 27>    N       -2.25081        -3.80452        -3.01885
| 28>    C       -1.20985         1.74867        -1.40089
| 29>    C       -0.61125         2.70642        -0.60966
| 30>    S        0.43733         1.99730         0.61030
| 31>    C       -0.76413         4.11957        -0.68035
| 32>    C       -0.16495         5.04714         0.12454
| 33>    C       -0.52362         6.38794        -0.17276
| 34>    C       -1.43647         6.43071        -1.25920
| 35>    S       -1.81485         4.84696        -1.87613
| 36>    C       -2.00466         7.57379        -1.80572
| 37>    O       -2.84538         7.31707        -2.84657
| 38>    C       -3.47359         8.35257        -3.55620
| 39>    C       -1.64933         8.80272        -1.21966
| 40>    C       -0.73247         8.75712        -0.13761
| 41>    C       -0.15443         7.61592         0.40240
| 42>    O        0.69579         7.87253         1.43355
| 43>    C        1.38871         6.84294         2.09091
| 44>    S       -0.38007        10.33141         0.50561
| 45>    C       -1.46174        11.06592        -0.65501
| 46>    C       -2.04029        10.14421        -1.48367
| 47>    C       -1.65664        12.47879        -0.63842
| 48>    C       -2.41711        13.25107        -1.49193
| 49>    C       -2.37045        14.60344        -1.13907
| 50>    C       -1.57017        14.86212        -0.00783
| 51>    S       -0.86796        13.42086         0.61689
| 52>    C       -1.62814        16.23668         0.22452
| 53>    C       -2.46143        16.78847        -0.77161
| 54>    N       -2.90371        15.78266        -1.59316
| 55>    C       -2.62079        18.17241        -0.66696
| 56>    C       -1.91724        18.68683         0.40449
| 57>    S       -1.04250        17.44410         1.29712
| 58>    C       -1.79792        20.02002         0.87993
| 59>    C       -2.36128        21.12229         0.33555
| 60>    C       -2.19590        22.43464         0.86844
| 61>    C       -1.52110        22.83078         1.99246
| 62>    C       -1.55624        24.22475         2.21066
| 63>    C       -2.28315        24.90395         1.21803
| 64>    S       -2.91709        23.80262         0.03293
| 65>    C       -2.46283        26.28314         1.19659
| 66>    O       -3.20186        26.71944         0.14177
| 67>    C       -3.65446        28.04457         0.02206
| 68>    C       -1.85531        27.01208         2.23639
| 69>    C       -1.12592        26.31343         3.25642
| 70>    C       -0.96424        24.94041         3.27423
| 71>    O       -0.30866        24.15718         4.17059
| 72>    C        0.31696        24.70923         5.30323
| 73>    S       -0.47123        27.44491         4.42939
| 74>    C       -1.13679        28.80511         3.56629
| 75>    C       -1.82761        28.41502         2.45511
| 76>    C       -0.92079        30.12859         4.04281
| 77>    C       -1.36478        31.31316         3.48727
| 78>    C       -0.95183        32.42271         4.22763
| 79>    C       -0.19107        32.07944         5.35193
| 80>    S        0.01855        30.39114         5.50156
| 81>    C        0.17720        33.27694         6.02794
| 82>    C       -0.35176        34.36796         5.32727
| 83>    C       -1.07814        33.87479         4.17505
| 84>    C       -1.74379        34.60435         3.23102
| 85>    C       -1.80390        36.01202         3.27173
| 86>    N       -1.85604        37.15759         3.29897
| 87>    C       -2.41479        33.99248         2.15345
| 88>    N       -2.96040        33.49161         1.27703
| 89>    C       -0.03134        35.60052         5.93067
| 90>    C        0.71784        35.42401         7.05239
| 91>    S        1.05598        33.75965         7.40910
| 92>    H        1.17072        -4.22177         1.11374
| 93>    H       -0.49089        -3.92625        -0.88589
| 94>    H       -1.88453         1.99989        -2.19920
| 95>    H        0.50665         4.74229         0.90483
| 96>    H       -4.02804         7.85610        -4.35229
| 97>    H       -2.74430         9.03684        -3.99979
| 98>    H       -4.17515         8.90512        -2.92377
| 99>    H        2.00450         7.34596         2.83607
|100>    H        2.03716         6.29099         1.40418
|101>    H        0.70407         6.15661         2.59801
|102>    H       -2.73273        10.44241        -2.24610
|103>    H       -2.96950        12.85118        -2.32195
|104>    H       -3.51273        15.89125        -2.38503
|105>    H       -3.21543        18.77530        -1.32773
|106>    H       -1.18588        20.12976         1.76410
|107>    H       -2.96845        21.04167        -0.55431
|108>    H       -1.00831        22.16442         2.65950
|109>    H       -4.35202        28.02965        -0.81541
|110>    H       -2.83631        28.73140        -0.21484
|111>    H       -4.18215        28.37648         0.92036
|112>    H        0.72951        23.85734         5.84285
|113>    H       -0.39506        25.23087         5.94817
|114>    H        1.12977        25.38735         5.03028
|115>    H       -2.28751        29.14060         1.81482
|116>    H       -1.95563        31.36057         2.59164
|117>    H       -0.33465        36.56264         5.56019
|118>    H        1.10488        36.17517         7.71118
|119> *
|120>
|121>                          ****END OF INPUT****

CARTESIAN COORDINATES (ANGSTROEM)
---------------------------------
  C      0.799220   -3.298070    0.717750
  C     -0.063680   -3.119290   -0.319230
  C     -0.318080   -1.752220   -0.545980
  C      0.374930   -0.925690    0.345070
  S      1.326870   -1.815400    1.447320
  C      0.058260    0.430540    0.046210
  C     -0.832740    0.453520   -1.031990
  C     -1.099550   -0.920700   -1.442220
  C     -1.914260   -1.332880   -2.456310
  C     -2.628880   -0.427560   -3.268060
  N     -3.215430    0.297950   -3.934950
  C     -2.098010   -2.697050   -2.763410
  N     -2.250810   -3.804520   -3.018850
  C     -1.209850    1.748670   -1.400890
  C     -0.611250    2.706420   -0.609660
  S      0.437330    1.997300    0.610300
  C     -0.764130    4.119570   -0.680350
  C     -0.164950    5.047140    0.124540
  C     -0.523620    6.387940   -0.172760
  C     -1.436470    6.430710   -1.259200
  S     -1.814850    4.846960   -1.876130
  C     -2.004660    7.573790   -1.805720
  O     -2.845380    7.317070   -2.846570
  C     -3.473590    8.352570   -3.556200
  C     -1.649330    8.802720   -1.219660
  C     -0.732470    8.757120   -0.137610
  C     -0.154430    7.615920    0.402400
  O      0.695790    7.872530    1.433550
  C      1.388710    6.842940    2.090910
  S     -0.380070   10.331410    0.505610
  C     -1.461740   11.065920   -0.655010
  C     -2.040290   10.144210   -1.483670
  C     -1.656640   12.478790   -0.638420
  C     -2.417110   13.251070   -1.491930
  C     -2.370450   14.603440   -1.139070
  C     -1.570170   14.862120   -0.007830
  S     -0.867960   13.420860    0.616890
  C     -1.628140   16.236680    0.224520
  C     -2.461430   16.788470   -0.771610
  N     -2.903710   15.782660   -1.593160
  C     -2.620790   18.172410   -0.666960
  C     -1.917240   18.686830    0.404490
  S     -1.042500   17.444100    1.297120
  C     -1.797920   20.020020    0.879930
  C     -2.361280   21.122290    0.335550
  C     -2.195900   22.434640    0.868440
  C     -1.521100   22.830780    1.992460
  C     -1.556240   24.224750    2.210660
  C     -2.283150   24.903950    1.218030
  S     -2.917090   23.802620    0.032930
  C     -2.462830   26.283140    1.196590
  O     -3.201860   26.719440    0.141770
  C     -3.654460   28.044570    0.022060
  C     -1.855310   27.012080    2.236390
  C     -1.125920   26.313430    3.256420
  C     -0.964240   24.940410    3.274230
  O     -0.308660   24.157180    4.170590
  C      0.316960   24.709230    5.303230
  S     -0.471230   27.444910    4.429390
  C     -1.136790   28.805110    3.566290
  C     -1.827610   28.415020    2.455110
  C     -0.920790   30.128590    4.042810
  C     -1.364780   31.313160    3.487270
  C     -0.951830   32.422710    4.227630
  C     -0.191070   32.079440    5.351930
  S      0.018550   30.391140    5.501560
  C      0.177200   33.276940    6.027940
  C     -0.351760   34.367960    5.327270
  C     -1.078140   33.874790    4.175050
  C     -1.743790   34.604350    3.231020
  C     -1.803900   36.012020    3.271730
  N     -1.856040   37.157590    3.298970
  C     -2.414790   33.992480    2.153450
  N     -2.960400   33.491610    1.277030
  C     -0.031340   35.600520    5.930670
  C      0.717840   35.424010    7.052390
  S      1.055980   33.759650    7.409100
  H      1.170720   -4.221770    1.113740
  H     -0.490890   -3.926250   -0.885890
  H     -1.884530    1.999890   -2.199200
  H      0.506650    4.742290    0.904830
  H     -4.028040    7.856100   -4.352290
  H     -2.744300    9.036840   -3.999790
  H     -4.175150    8.905120   -2.923770
  H      2.004500    7.345960    2.836070
  H      2.037160    6.290990    1.404180
  H      0.704070    6.156610    2.598010
  H     -2.732730   10.442410   -2.246100
  H     -2.969500   12.851180   -2.321950
  H     -3.512730   15.891250   -2.385030
  H     -3.215430   18.775300   -1.327730
  H     -1.185880   20.129760    1.764100
  H     -2.968450   21.041670   -0.554310
  H     -1.008310   22.164420    2.659500
  H     -4.352020   28.029650   -0.815410
  H     -2.836310   28.731400   -0.214840
  H     -4.182150   28.376480    0.920360
  H      0.729510   23.857340    5.842850
  H     -0.395060   25.230870    5.948170
  H      1.129770   25.387350    5.030280
  H     -2.287510   29.140600    1.814820
  H     -1.955630   31.360570    2.591640
  H     -0.334650   36.562640    5.560190
  H      1.104880   36.175170    7.711180

 Total Charge           Charge          ....    0
 Multiplicity           Mult            ....    1
 Number of Electrons    NEL             ....  602
 Basis Dimension        Dim             .... 1253

ORBITAL ENERGIES
----------------

  NO   OCC          E(Eh)            E(eV)
   0   2.0000     -88.984448     -2421.3899
   1   2.0000     -88.982988     -2421.3502
   2   2.0000     -88.982064     -2421.3251
   3   2.0000     -88.981920     -2421.3211
   4   2.0000     -88.950859     -2420.4759
   5   2.0000     -88.950253     -2420.4594
   6   2.0000     -88.948296     -2420.4062
   7   2.0000     -88.943971     -2420.2885
   8   2.0000     -88.940351     -2420.1900
   9   2.0000     -88.938184     -2420.1310
  10   2.0000     -19.246908      -523.7350
  11   2.0000     -19.245537      -523.6977
  12   2.0000     -19.245122      -523.6864
  13   2.0000     -19.244754      -523.6764
  14   2.0000     -14.460922      -393.5017
  15   2.0000     -14.426641      -392.5688
  16   2.0000     -14.424959      -392.5231
  17   2.0000     -14.422987      -392.4694
  18   2.0000     -14.422383      -392.4530
  19   2.0000     -10.358075      -281.8576
  20   2.0000     -10.356213      -281.8069
  21   2.0000     -10.346507      -281.5428
  22   2.0000     -10.344075      -281.4766
  23   2.0000     -10.333883      -281.1993
  24   2.0000     -10.332298      -281.1561
  25   2.0000     -10.332297      -281.1561
  26   2.0000     -10.331289      -281.1287
  27   2.0000     -10.327678      -281.0304
  28   2.0000     -10.325838      -280.9803
  29   2.0000     -10.325577      -280.9732
  30   2.0000     -10.325429      -280.9692
  31   2.0000     -10.323921      -280.9282
  32   2.0000     -10.323510      -280.9170
  33   2.0000     -10.323454      -280.9155
  34   2.0000     -10.323354      -280.9127
  35   2.0000     -10.322842      -280.8988
  36   2.0000     -10.322650      -280.8936
  37   2.0000     -10.322477      -280.8889
  38   2.0000     -10.322193      -280.8811
  39   2.0000     -10.321168      -280.8532
  40   2.0000     -10.317657      -280.7577
  41   2.0000     -10.309274      -280.5296
  42   2.0000     -10.306481      -280.4536
  43   2.0000     -10.306208      -280.4462
  44   2.0000     -10.305812      -280.4354
  45   2.0000     -10.305688      -280.4320
  46   2.0000     -10.305528      -280.4277
  47   2.0000     -10.303014      -280.3593
  48   2.0000     -10.302002      -280.3317
  49   2.0000     -10.301854      -280.3277
  50   2.0000     -10.297222      -280.2017
  51   2.0000     -10.296235      -280.1748
  52   2.0000     -10.293986      -280.1136
  53   2.0000     -10.293973      -280.1132
  54   2.0000     -10.293277      -280.0943
  55   2.0000     -10.293127      -280.0902
  56   2.0000     -10.292903      -280.0841
  57   2.0000     -10.292229      -280.0658
  58   2.0000     -10.291680      -280.0508
  59   2.0000     -10.291147      -280.0363
  60   2.0000     -10.290218      -280.0111
  61   2.0000     -10.288310      -279.9591
  62   2.0000     -10.287963      -279.9497
  63   2.0000     -10.287524      -279.9378
  64   2.0000     -10.287207      -279.9291
  65   2.0000     -10.286147      -279.9003
  66   2.0000     -10.284133      -279.8455
  67   2.0000     -10.283542      -279.8294
  68   2.0000     -10.279926      -279.7310
  69   2.0000     -10.278788      -279.7000
  70   2.0000     -10.278461      -279.6911
  71   2.0000     -10.277373      -279.6615
  72   2.0000     -10.275255      -279.6039
  73   2.0000     -10.275176      -279.6017
  74   2.0000     -10.271085      -279.4904
  75   2.0000     -10.270609      -279.4775
  76   2.0000     -10.259871      -279.1853
  77   2.0000      -8.079036      -219.8417
  78   2.0000      -8.077977      -219.8129
  79   2.0000      -8.076958      -219.7852
  80   2.0000      -8.076354      -219.7688
  81   2.0000      -8.045791      -218.9371
  82   2.0000      -8.045672      -218.9339
  83   2.0000      -8.043354      -218.8708
  84   2.0000      -8.038879      -218.7490
  85   2.0000      -8.035738      -218.6635
  86   2.0000      -8.033442      -218.6011
  87   2.0000      -6.048317      -164.5831
  88   2.0000      -6.047228      -164.5534
  89   2.0000      -6.046243      -164.5266
  90   2.0000      -6.045622      -164.5097
  91   2.0000      -6.044068      -164.4675
  92   2.0000      -6.042810      -164.4332
  93   2.0000      -6.041760      -164.4046
  94   2.0000      -6.041514      -164.3979
  95   2.0000      -6.041433      -164.3957
  96   2.0000      -6.040586      -164.3727
  97   2.0000      -6.039600      -164.3459
  98   2.0000      -6.038705      -164.3215
  99   2.0000      -6.015643      -163.6940
 100   2.0000      -6.015539      -163.6911
 101   2.0000      -6.012938      -163.6204
 102   2.0000      -6.011331      -163.5766
 103   2.0000      -6.011318      -163.5763
 104   2.0000      -6.008955      -163.5120
 105   2.0000      -6.008654      -163.5038
 106   2.0000      -6.007167      -163.4633
 107   2.0000      -6.006548      -163.4465
 108   2.0000      -6.005467      -163.4171
 109   2.0000      -6.004831      -163.3998
 110   2.0000      -6.004491      -163.3905
 111   2.0000      -6.003016      -163.3504
 112   2.0000      -6.001276      -163.3030
 113   2.0000      -6.000067      -163.2701
 114   2.0000      -5.999008      -163.2413
 115   2.0000      -5.996977      -163.1860
 116   2.0000      -5.994872      -163.1288
 117   2.0000      -1.150605       -31.3096
 118   2.0000      -1.149173       -31.2706
 119   2.0000      -1.148398       -31.2495
 120   2.0000      -1.148003       -31.2388
 121   2.0000      -1.079683       -29.3797
 122   2.0000      -1.037619       -28.2350
 123   2.0000      -1.035649       -28.1814
 124   2.0000      -1.017098       -27.6766
 125   2.0000      -1.014305       -27.6007
 126   2.0000      -1.003387       -27.3035
 127   2.0000      -1.000312       -27.2199
 128   2.0000      -0.997013       -27.1301
 129   2.0000      -0.995240       -27.0818
 130   2.0000      -0.987351       -26.8672
 131   2.0000      -0.984322       -26.7848
 132   2.0000      -0.975151       -26.5352
 133   2.0000      -0.969708       -26.3871
 134   2.0000      -0.964565       -26.2471
 135   2.0000      -0.958033       -26.0694
 136   2.0000      -0.950043       -25.8520
 137   2.0000      -0.947611       -25.7858
 138   2.0000      -0.913972       -24.8704
 139   2.0000      -0.909793       -24.7567
 140   2.0000      -0.899180       -24.4679
 141   2.0000      -0.893010       -24.3000
 142   2.0000      -0.880131       -23.9496
 143   2.0000      -0.871980       -23.7278
 144   2.0000      -0.870154       -23.6781
 145   2.0000      -0.861823       -23.4514
 146   2.0000      -0.859964       -23.4008
 147   2.0000      -0.853819       -23.2336
 148   2.0000      -0.847471       -23.0609
 149   2.0000      -0.846302       -23.0290
 150   2.0000      -0.838669       -22.8213
 151   2.0000      -0.834755       -22.7148
 152   2.0000      -0.833428       -22.6787
 153   2.0000      -0.826857       -22.4999
 154   2.0000      -0.823771       -22.4160
 155   2.0000      -0.811841       -22.0913
 156   2.0000      -0.805855       -21.9284
 157   2.0000      -0.803039       -21.8518
 158   2.0000      -0.797997       -21.7146
 159   2.0000      -0.793953       -21.6046
 160   2.0000      -0.785935       -21.3864
 161   2.0000      -0.779211       -21.2034
 162   2.0000      -0.771479       -20.9930
 163   2.0000      -0.768046       -20.8996
 164   2.0000      -0.757367       -20.6090
 165   2.0000      -0.741199       -20.1690
 166   2.0000      -0.739368       -20.1192
 167   2.0000      -0.738017       -20.0825
 168   2.0000      -0.720154       -19.5964
 169   2.0000      -0.708085       -19.2680
 170   2.0000      -0.698418       -19.0049
 171   2.0000      -0.695588       -18.9279
 172   2.0000      -0.688745       -18.7417
 173   2.0000      -0.678188       -18.4544
 174   2.0000      -0.676805       -18.4168
 175   2.0000      -0.672071       -18.2880
 176   2.0000      -0.667872       -18.1737
 177   2.0000      -0.665387       -18.1061
 178   2.0000      -0.663903       -18.0657
 179   2.0000      -0.661604       -18.0032
 180   2.0000      -0.654812       -17.8183
 181   2.0000      -0.647735       -17.6258
 182   2.0000      -0.637970       -17.3601
 183   2.0000      -0.632419       -17.2090
 184   2.0000      -0.626553       -17.0494
 185   2.0000      -0.624922       -17.0050
 186   2.0000      -0.621435       -16.9101
 187   2.0000      -0.616648       -16.7798
 188   2.0000      -0.612728       -16.6732
 189   2.0000      -0.609972       -16.5982
 190   2.0000      -0.609234       -16.5781
 191   2.0000      -0.604879       -16.4596
 192   2.0000      -0.604220       -16.4417
 193   2.0000      -0.603407       -16.4195
 194   2.0000      -0.599340       -16.3089
 195   2.0000      -0.592321       -16.1179
 196   2.0000      -0.582518       -15.8511
 197   2.0000      -0.580524       -15.7969
 198   2.0000      -0.578262       -15.7353
 199   2.0000      -0.563901       -15.3445
 200   2.0000      -0.561247       -15.2723
 201   2.0000      -0.559898       -15.2356
 202   2.0000      -0.558678       -15.2024
 203   2.0000      -0.554245       -15.0818
 204   2.0000      -0.553407       -15.0590
 205   2.0000      -0.552152       -15.0248
 206   2.0000      -0.544284       -14.8107
 207   2.0000      -0.543615       -14.7925
 208   2.0000      -0.540178       -14.6990
 209   2.0000      -0.538170       -14.6444
 210   2.0000      -0.537843       -14.6354
 211   2.0000      -0.533477       -14.5167
 212   2.0000      -0.530014       -14.4224
 213   2.0000      -0.528375       -14.3778
 214   2.0000      -0.527273       -14.3478
 215   2.0000      -0.523792       -14.2531
 216   2.0000      -0.517971       -14.0947
 217   2.0000      -0.511353       -13.9146
 218   2.0000      -0.509059       -13.8522
 219   2.0000      -0.506714       -13.7884
 220   2.0000      -0.502456       -13.6725
 221   2.0000      -0.501387       -13.6434
 222   2.0000      -0.498294       -13.5593
 223   2.0000      -0.495336       -13.4788
 224   2.0000      -0.495146       -13.4736
 225   2.0000      -0.493112       -13.4183
 226   2.0000      -0.491347       -13.3702
 227   2.0000      -0.489969       -13.3327
 228   2.0000      -0.487106       -13.2548
 229   2.0000      -0.485351       -13.2071
 230   2.0000      -0.482757       -13.1365
 231   2.0000      -0.481799       -13.1104
 232   2.0000      -0.481145       -13.0926
 233   2.0000      -0.475375       -12.9356
 234   2.0000      -0.470320       -12.7981
 235   2.0000      -0.467828       -12.7302
 236   2.0000      -0.467039       -12.7088
 237   2.0000      -0.464348       -12.6356
 238   2.0000      -0.463248       -12.6056
 239   2.0000      -0.461101       -12.5472
 240   2.0000      -0.457951       -12.4615
 241   2.0000      -0.457770       -12.4566
 242   2.0000      -0.456444       -12.4205
 243   2.0000      -0.454345       -12.3634
 244   2.0000      -0.453598       -12.3430
 245   2.0000      -0.453458       -12.3392
 246   2.0000      -0.450491       -12.2585
 247   2.0000      -0.450018       -12.2456
 248   2.0000      -0.449497       -12.2314
 249   2.0000      -0.446175       -12.1410
 250   2.0000      -0.443607       -12.0712
 251   2.0000      -0.442131       -12.0310
 252   2.0000      -0.438989       -11.9455
 253   2.0000      -0.436751       -11.8846
 254   2.0000      -0.436466       -11.8768
 255   2.0000      -0.435997       -11.8641
 256   2.0000      -0.435316       -11.8455
 257   2.0000      -0.433989       -11.8094
 258   2.0000      -0.433417       -11.7939
 259   2.0000      -0.433295       -11.7905
 260   2.0000      -0.431956       -11.7541
 261   2.0000      -0.431547       -11.7430
 262   2.0000      -0.430231       -11.7072
 263   2.0000      -0.423821       -11.5327
 264   2.0000      -0.423238       -11.5169
 265   2.0000      -0.421195       -11.4613
 266   2.0000      -0.420083       -11.4310
 267   2.0000      -0.416162       -11.3243
 268   2.0000      -0.415548       -11.3076
 269   2.0000      -0.412265       -11.2183
 270   2.0000      -0.411104       -11.1867
 271   2.0000      -0.409133       -11.1331
 272   2.0000      -0.403707       -10.9854
 273   2.0000      -0.399976       -10.8839
 274   2.0000      -0.397827       -10.8254
 275   2.0000      -0.397722       -10.8226
 276   2.0000      -0.391543       -10.6544
 277   2.0000      -0.389488       -10.5985
 278   2.0000      -0.380468       -10.3531
 279   2.0000      -0.375623       -10.2212
 280   2.0000      -0.372075       -10.1247
 281   2.0000      -0.356638        -9.7046
 282   2.0000      -0.344523        -9.3749
 283   2.0000      -0.341785        -9.3004
 284   2.0000      -0.339758        -9.2453
 285   2.0000      -0.336201        -9.1485
 286   2.0000      -0.333293        -9.0694
 287   2.0000      -0.330523        -8.9940
 288   2.0000      -0.323825        -8.8117
 289   2.0000      -0.317854        -8.6492
 290   2.0000      -0.315935        -8.5970
 291   2.0000      -0.313413        -8.5284
 292   2.0000      -0.311807        -8.4847
 293   2.0000      -0.305040        -8.3006
 294   2.0000      -0.280244        -7.6258
 295   2.0000      -0.272679        -7.4200
 296   2.0000      -0.260911        -7.0998
 297   2.0000      -0.255113        -6.9420
 298   2.0000      -0.239600        -6.5199
 299   2.0000      -0.226463        -6.1624
 300   2.0000      -0.211800        -5.7634
 301   0.0000      -0.097488        -2.6528
 302   0.0000      -0.095184        -2.5901
 303   0.0000      -0.051986        -1.4146
 304   0.0000      -0.034752        -0.9456
 305   0.0000      -0.020102        -0.5470

MULLIKEN ATOMIC CHARGES
-----------------------
   0 C :   -0.083301
   1 C :    0.038990
   2 C :   -0.033538
   3 C :   -0.114355
   4 S :    0.174645
   5 C :   -0.101040
   6 C :    0.014526
   7 C :    0.295611
   8 C :   -0.301236
   9 C :   -0.190258
  10 N :    0.176800
  11 C :   -0.190537
  12 N :    0.169724
  13 C :   -0.062089
  14 C :   -0.046200
  15 S :    0.165313
  16 C :   -0.000373
  17 C :   -0.136833
  18 C :    0.074024
  19 C :   -0.142160
  20 S :    0.146363
  21 C :    0.131037
  22 O :   -0.315031
  23 C :    0.187128
  24 C :    0.078131
  25 C :   -0.146486
  26 C :    0.135400
  27 O :   -0.312816
  28 C :    0.184999
  29 S :    0.136758
  30 C :    0.004889
  31 C :   -0.124177
  32 C :   -0.047691
  33 C :   -0.089483
  34 C :    0.122852
  35 C :   -0.117545
  36 S :    0.137069
  37 C :   -0.123016
  38 C :    0.112320
  39 N :   -0.020106
  40 C :   -0.064672
  41 C :   -0.081360
  42 S :    0.131124
  43 C :    0.059310
  44 C :    0.041299
  45 C :   -0.038777
  46 C :   -0.064345
  47 C :    0.052967
  48 C :   -0.112877
  49 S :    0.129724
  50 C :    0.125894
  51 O :   -0.314281
  52 C :    0.186059
  53 C :    0.058488
  54 C :   -0.123877
  55 C :    0.114020
  56 O :   -0.311660
  57 C :    0.171072
  58 S :    0.052640
  59 C :    0.001087
  60 C :   -0.097050
  61 C :   -0.045340
  62 C :   -0.052919
  63 C :    0.008645
  64 C :   -0.107032
  65 S :    0.184721
  66 C :   -0.116207
  67 C :   -0.035642
  68 C :    0.300001
  69 C :   -0.299337
  70 C :   -0.191774
  71 N :    0.170112
  72 C :   -0.180419
  73 N :    0.159887
  74 C :    0.038822
  75 C :   -0.084591
  76 S :    0.176562
  77 H :    0.033083
  78 H :    0.010884
  79 H :    0.014937
  80 H :   -0.035497
  81 H :    0.037265
  82 H :    0.027559
  83 H :    0.028738
  84 H :    0.037171
  85 H :    0.028997
  86 H :    0.029043
  87 H :   -0.049687
  88 H :   -0.034267
  89 H :    0.121659
  90 H :   -0.029660
  91 H :   -0.016382
  92 H :   -0.024942
  93 H :   -0.023596
  94 H :    0.037759
  95 H :    0.035321
  96 H :    0.030048
  97 H :    0.037387
  98 H :    0.034133
  99 H :    0.035469
 100 H :   -0.038623
 101 H :    0.000500
 102 H :    0.010007
 103 H :    0.034112
Sum of atomic charges:   -0.0000000

LOEWDIN ATOMIC CHARGES
----------------------
   0 C :   -0.180626
   1 C :   -0.034218
   2 C :   -0.079338
   3 C :   -0.182448
   4 S :    0.472156
   5 C :   -0.183290
   6 C :   -0.070480
   7 C :    0.084367
   8 C :   -0.104931
   9 C :   -0.017601
  10 N :   -0.033730
  11 C :   -0.016162
  12 N :   -0.036513
  13 C :   -0.036369
  14 C :   -0.172199
  15 S :    0.468713
  16 C :   -0.175556
  17 C :   -0.073573
  18 C :   -0.075345
  19 C :   -0.171038
  20 S :    0.420638
  21 C :    0.019467
  22 O :   -0.109717
  23 C :    0.078119
  24 C :   -0.069884
  25 C :   -0.173919
  26 C :    0.021239
  27 O :   -0.108094
  28 C :    0.078352
  29 S :    0.409480
  30 C :   -0.167593
  31 C :   -0.073175
  32 C :   -0.177272
  33 C :   -0.073074
  34 C :   -0.019017
  35 C :   -0.224644
  36 S :    0.414128
  37 C :   -0.225779
  38 C :   -0.017029
  39 N :    0.057103
  40 C :   -0.074476
  41 C :   -0.159938
  42 S :    0.413801
  43 C :   -0.031398
  44 C :   -0.045485
  45 C :   -0.151631
  46 C :   -0.052884
  47 C :   -0.056447
  48 C :   -0.175960
  49 S :    0.408531
  50 C :    0.027069
  51 O :   -0.107347
  52 C :    0.079034
  53 C :   -0.075885
  54 C :   -0.183022
  55 C :    0.023388
  56 O :   -0.104195
  57 C :    0.063381
  58 S :    0.378677
  59 C :   -0.184002
  60 C :   -0.052077
  61 C :   -0.175804
  62 C :   -0.030934
  63 C :   -0.068767
  64 C :   -0.190094
  65 S :    0.470524
  66 C :   -0.179318
  67 C :   -0.082525
  68 C :    0.086393
  69 C :   -0.108365
  70 C :   -0.017148
  71 N :   -0.036017
  72 C :   -0.013521
  73 N :   -0.042840
  74 C :   -0.033606
  75 C :   -0.181410
  76 S :    0.473254
  77 H :    0.026355
  78 H :    0.042047
  79 H :    0.037986
  80 H :    0.016483
  81 H :    0.030857
  82 H :    0.016121
  83 H :    0.015519
  84 H :    0.030892
  85 H :    0.016288
  86 H :    0.015863
  87 H :    0.020798
  88 H :    0.027401
  89 H :    0.090939
  90 H :    0.028421
  91 H :    0.027742
  92 H :    0.024339
  93 H :    0.027945
  94 H :    0.031406
  95 H :    0.017066
  96 H :    0.017814
  97 H :    0.030506
  98 H :    0.011939
  99 H :    0.011657
 100 H :    0.027285
 101 H :    0.037636
 102 H :    0.041930
 103 H :    0.026659

  Mayer bond orders larger than 0.100000
B(  0-C ,  1-C ) :   1.5505 B(  0-C ,  4-S ) :   1.1455 B(  0-C , 77-H ) :   0.9651
B(  1-C ,  2-C ) :   1.2751 B(  1-C , 78-H ) :   0.9958 B(  2-C ,  3-C ) :   1.4611
B(  2-C ,  7-C ) :   1.0170 B(  3-C ,  4-S ) :   1.1356 B(  3-C ,  5-C ) :   1.1771
B(  5-C ,  6-C ) :   1.4729 B(  5-C , 15-S ) :   1.1187 B(  6-C ,  7-C ) :   0.9941
B(  6-C , 13-C ) :   1.2738 B(  7-C ,  8-C ) :   1.7092 B(  8-C ,  9-C ) :   1.1342
B(  8-C , 11-C ) :   1.1317 B(  9-C , 10-N ) :   2.9962 B( 11-C , 12-N ) :   3.0015
B( 13-C , 14-C ) :   1.4775 B( 13-C , 79-H ) :   0.9941 B( 14-C , 15-S ) :   1.1050
B( 14-C , 16-C ) :   1.1474 B( 16-C , 17-C ) :   1.5745 B( 16-C , 20-S ) :   1.0663
B( 17-C , 18-C ) :   1.1573 B( 17-C , 80-H ) :   0.9892 B( 18-C , 19-C ) :   1.3262
B( 18-C , 26-C ) :   1.2119 B( 19-C , 20-S ) :   1.0345 B( 19-C , 21-C ) :   1.4170
B( 21-C , 22-O ) :   1.2475 B( 21-C , 24-C ) :   1.2056 B( 22-O , 23-C ) :   0.9564
B( 23-C , 81-H ) :   0.9739 B( 23-C , 82-H ) :   0.9683 B( 23-C , 83-H ) :   0.9685
B( 24-C , 25-C ) :   1.3316 B( 24-C , 31-C ) :   1.1451 B( 25-C , 26-C ) :   1.4110
B( 25-C , 29-S ) :   1.0414 B( 26-C , 27-O ) :   1.2519 B( 27-O , 28-C ) :   0.9562
B( 28-C , 84-H ) :   0.9741 B( 28-C , 85-H ) :   0.9682 B( 28-C , 86-H ) :   0.9683
B( 29-S , 30-C ) :   1.0605 B( 30-C , 31-C ) :   1.6033 B( 30-C , 32-C ) :   1.1053
B( 31-C , 87-H ) :   0.9957 B( 32-C , 33-C ) :   1.5141 B( 32-C , 36-S ) :   1.0933
B( 33-C , 34-C ) :   1.2176 B( 33-C , 88-H ) :   1.0109 B( 34-C , 35-C ) :   1.4114
B( 34-C , 39-N ) :   1.1621 B( 35-C , 36-S ) :   1.0396 B( 35-C , 37-C ) :   1.3797
B( 37-C , 38-C ) :   1.4056 B( 37-C , 42-S ) :   1.0379 B( 38-C , 39-N ) :   1.1593
B( 38-C , 40-C ) :   1.2278 B( 39-N , 89-H ) :   0.9358 B( 40-C , 41-C ) :   1.4835
B( 40-C , 90-H ) :   1.0095 B( 41-C , 42-S ) :   1.0943 B( 41-C , 43-C ) :   1.1277
B( 43-C , 44-C ) :   1.7174 B( 43-C , 91-H ) :   0.9546 B( 44-C , 45-C ) :   1.1060
B( 44-C , 92-H ) :   0.9647 B( 45-C , 46-C ) :   1.5412 B( 45-C , 49-S ) :   1.0634
B( 46-C , 47-C ) :   1.1939 B( 46-C , 93-H ) :   1.0032 B( 47-C , 48-C ) :   1.3804
B( 47-C , 55-C ) :   1.2611 B( 48-C , 49-S ) :   1.0426 B( 48-C , 50-C ) :   1.3856
B( 50-C , 51-O ) :   1.2540 B( 50-C , 53-C ) :   1.2397 B( 51-O , 52-C ) :   0.9498
B( 52-C , 94-H ) :   0.9732 B( 52-C , 95-H ) :   0.9675 B( 52-C , 96-H ) :   0.9675
B( 53-C , 54-C ) :   1.2566 B( 53-C , 60-C ) :   1.1488 B( 54-C , 55-C ) :   1.4132
B( 54-C , 58-S ) :   0.9988 B( 55-C , 56-O ) :   1.2153 B( 56-O , 57-C ) :   0.9488
B( 57-C , 97-H ) :   0.9754 B( 57-C , 98-H ) :   0.9667 B( 57-C , 99-H ) :   0.9664
B( 58-S , 59-C ) :   1.0415 B( 59-C , 60-C ) :   1.6102 B( 59-C , 61-C ) :   1.1030
B( 60-C ,100-H ) :   0.9928 B( 61-C , 62-C ) :   1.4944 B( 61-C , 65-S ) :   1.1069
B( 62-C , 63-C ) :   1.2872 B( 62-C ,101-H ) :   0.9916 B( 63-C , 64-C ) :   1.4612
B( 63-C , 68-C ) :   0.9933 B( 64-C , 65-S ) :   1.1192 B( 64-C , 66-C ) :   1.1830
B( 66-C , 67-C ) :   1.4556 B( 66-C , 76-S ) :   1.1396 B( 67-C , 68-C ) :   1.0205
B( 67-C , 74-C ) :   1.2716 B( 68-C , 69-C ) :   1.7034 B( 69-C , 70-C ) :   1.1297
B( 69-C , 72-C ) :   1.1356 B( 70-C , 71-N ) :   3.0028 B( 72-C , 73-N ) :   2.9829
B( 74-C , 75-C ) :   1.5547 B( 74-C ,102-H ) :   0.9967 B( 75-C , 76-S ) :   1.1425
B( 75-C ,103-H ) :   0.9644

-----------------------------------------------------------------------------
         ABSORPTION SPECTRUM VIA TRANSITION ELECTRIC DIPOLE MOMENTS
-----------------------------------------------------------------------------
State   Energy  Wavelength   fosc         T2         TX        TY        TZ
        (cm-1)    (nm)                  (au**2)     (au)      (au)      (au)
-----------------------------------------------------------------------------
   0   11956.2    836.4   0.205213349   5.65051   0.34374   2.19850   0.83604
   1   12973.5    770.8   0.117294947   2.97643   0.19562  -1.71316   0.05706
   2   17809.6    561.5   0.137822391   2.54766   0.16329   1.49720   0.52857
   3   17895.1    558.8   0.001165095   0.02143  -0.06109   0.12036  -0.05669
   4   19923.4    501.9   0.973035156  16.07835  -0.01551  -3.93260  -0.78282
   5   20350.4    491.4   0.363789636   5.88510  -0.01197  -2.37852  -0.47705
   6   20977.8    476.7   1.997553371  31.34823  -0.33125  -5.38788  -1.48635
   7   24004.9    416.6   0.288611478   3.95813  -0.48716   1.85594  -0.52565
   8   24750.5    404.0   0.019305403   0.25679   0.17920  -0.45901   0.11827
   9   24891.5    401.7   0.008623306   0.11405  -0.04649   0.33350  -0.02577
  10   26230.3    381.2   0.126209587   1.58403   0.71739  -0.81838   0.63217
  11   27300.7    366.3   0.025053631   0.30212   0.28672   0.22226   0.41292
  12   28507.5    350.8   0.208739327   2.41057  -0.11587   1.54785  -0.03621
  13   28732.5    348.0   0.221088666   2.53319   0.04114   1.57642   0.21538
  14   28967.8    345.2   0.009962377   0.11322   0.04391  -0.32997   0.04913
  15   30166.7    331.5   0.031889741   0.34802  -0.11921  -0.53498  -0.21818
  16   30697.6    325.8   0.119727243   1.28400  -0.07714   1.12900  -0.05830
  17   31202.3    320.5   0.127693167   1.34728  -0.59865   0.66667  -0.73786
  18   31490.9    317.6   0.668448399   6.98810   0.02238  -2.64316  -0.03621
  19   31666.1    315.8   0.142512809   1.48161   0.68434  -0.00689   1.00660
  20   31833.0    314.1   0.261890290   2.70843  -0.89532   0.18198  -1.36884
  21   32058.6    311.9   0.118509185   1.21698   0.64088   0.02679   0.89752
  22   32327.3    309.3   0.177176325   1.80431  -0.81469  -0.03541  -1.06740
  23   32456.4    308.1   0.573423477   5.81636  -1.53902   0.20116  -1.84589
  24   32907.4    303.9   0.009985599   0.09990   0.14070  -0.25854   0.11514
  25   33161.3    301.6   0.345497855   3.42996  -0.42236  -1.56411  -0.89729
  26   33424.1    299.2   0.152225185   1.49935   0.73626   0.05836   0.97666
  27   33675.2    297.0   0.002418923   0.02365  -0.10134   0.02222  -0.11351
  28   34039.4    293.8   0.233494855   2.25824   0.25130  -1.46535   0.21872
  29   34223.0    292.2   0.114927832   1.10556  -0.30796   0.93012  -0.38158
  30   34547.4    289.5   0.054035975   0.51492   0.15262  -0.68359   0.15598
  31   35474.9    281.9   0.022374149   0.20764   0.14645   0.34521   0.25887
  32   35748.1    279.7   0.001338302   0.01232  -0.04836  -0.07135  -0.06997
  33   36538.3    273.7   0.017542632   0.15806   0.20904   0.22620   0.25139
  34   36764.8    272.0   0.030882790   0.27654  -0.32470   0.18818  -0.36837
  35   37045.5    269.9   0.013538795   0.12031   0.07069   0.31071   0.13703
  36   37719.0    265.1   0.355516570   3.10295  -0.22795   1.74267  -0.11872
  37   37864.5    264.1   0.060022497   0.52186   0.23543   0.52273   0.43953
  38   38256.0    261.4   0.094052128   0.80937  -0.17369  -0.80961  -0.35176
  39   38504.3    259.7   0.022149542   0.18938  -0.24636   0.04019  -0.35647
  40   39243.2    254.8   0.019096616   0.16020  -0.12275   0.37618  -0.06020
  41   39418.6    253.7   0.018414901   0.15380   0.18279  -0.32233   0.12841
  42   39759.0    251.5   0.039735764   0.32902   0.28401  -0.39069   0.30938
  43   40030.2    249.8   0.002340273   0.01925  -0.04760  -0.07013  -0.10983
  44   40144.1    249.1   0.053117021   0.43560   0.39549  -0.12879   0.51245

FINAL SINGLE POINT ENERGY     -6778.106087274927

DIPOLE MOMENT
-------------
                                X             Y             Z
Electronic contribution:      8.32694     -12.91833       8.62382
Nuclear contribution   :     -6.84156      13.19375      -6.41500
                        -----------------------------------------
Total Dipole Moment    :      1.48538       0.27542       2.20882
                        -----------------------------------------
Magnitude (a.u.)       :      2.67602
Magnitude (Debye)      :      6.80189

Rotational constants in cm-1:     0.003165     0.000089     0.000087
Rotational constants in MHz :    94.870290     2.665371     2.594022

                             ****ORCA TERMINATED NORMALLY****
TOTAL RUN TIME: 0 days 0 hours 9 minutes 38 seconds 615 msec
