                         Program Version 4.2.0 -  RELEASE  -
|  1> # ORCA input file
|  2> # SCF done       -188.125234052318          0.000942937387
|  3> ! CAM-B3LYP def2-SVP def2/J RIJCOSX Grid4 TightSCF
|  4> %maxcore 5000
|  5> %tddft
|  6>     Mode sTDDFT
|  7>     Ethresh 5.0
|  8>     maxcore 5000
|  9> end
| 10>
| 11> %pal
| 12>   nprocs 6
| 13>   end
| 14> * xyz 0 1
| 15>    C        1.34359        -1.19614        -4.56266
| 16>    C        0.54962        -0.38255        -5.31152
| 17>    C        0.31034         0.84227        -4.65857
| 18>    C        0.94410         0.91577        -3.41243
| 19>    S        1.82208        -0.50117        -3.04811
| 20>    C        0.65122         2.18088        -2.82698
| 21>    C       -0.16899         2.89768        -3.70707
| 22>    C       -0.40948         2.07970        -4.89082
| 23>    C       -1.15197         2.41876        -5.98417
| 24>    C       -1.81043         3.66170        -6.08782
| 25>    N       -2.34683         4.67183        -6.17430
| 26>    C       -1.31124         1.55046        -7.08420
| 27>    N       -1.44222         0.85084        -7.98307
| 28>    C       -0.51075         4.16266        -3.22555
| 29>    C        0.04822         4.41072        -1.98625
| 30>    S        1.00756         3.05765        -1.40531
| 31>    C       -0.06952         5.58693        -1.20176
| 32>    C        0.51842         5.85096         0.01980
| 33>    C        0.19106         7.12238         0.49413
| 34>    C       -0.65690         7.82897        -0.37504
| 35>    S       -1.04983         6.93162        -1.77458
| 36>    C       -0.92419         9.10127         0.18935
| 37>    C       -0.24458         9.20198         1.41348
| 38>    C        0.47633         7.95875         1.64791
| 39>    C        1.25404         7.64520         2.72337
| 40>    C        1.45384         8.54028         3.79564
| 41>    N        1.61690         9.26163         4.67191
| 42>    C        1.91164         6.40210         2.83473
| 43>    N        2.45109         5.39431         2.92586
| 44>    C       -0.43686        10.43045         2.04541
| 45>    C       -1.26098        11.26671         1.31495
| 46>    S       -1.80643        10.51841        -0.18061
| 47>    C       -1.66889        12.58284         1.64666
| 48>    C       -2.52930        13.39842         0.93946
| 49>    C       -2.70014        14.63228         1.56976
| 50>    C       -1.95950        14.76015         2.76787
| 51>    S       -1.05055        13.33726         3.11278
| 52>    C       -2.23274        16.02885         3.27358
| 53>    C       -3.13542        16.63881         2.37201
| 54>    N       -3.40140        15.78491         1.33481
| 55>    C       -4.30296        16.02980         0.24400
| 56>    C       -3.51400        17.92802         2.75015
| 57>    C       -2.90371        18.31028         3.92794
| 58>    S       -1.84528        17.06929         4.59183
| 59>    C       -3.05106        19.54237         4.61272
| 60>    C       -2.40358        19.95185         5.76381
| 61>    C       -2.79761        21.23011         6.15975
| 62>    C       -3.75653        21.79847         5.30654
| 63>    S       -4.16803        20.76110         4.01139
| 64>    C       -4.09497        23.08477         5.79600
| 65>    C       -3.34552        23.33312         6.95799
| 66>    C       -2.50395        22.17860         7.22484
| 67>    C       -1.62438        22.01911         8.25475
| 68>    C       -1.42391        23.01991         9.22874
| 69>    N       -1.26039        23.83237        10.02139
| 70>    C       -0.85580        20.84696         8.41599
| 71>    N       -0.22705        19.89796         8.55295
| 72>    C       -3.61553        24.58089         7.52243
| 73>    C       -4.56504        25.28000         6.80313
| 74>    S       -5.13232        24.38296         5.39947
| 75>    C       -5.09261        26.56641         7.08518
| 76>    C       -6.07248        27.25006         6.39076
| 77>    C       -6.34882        28.49140         6.96689
| 78>    C       -5.57218        28.75187         8.10271
| 79>    S       -4.50106        27.47350         8.46949
| 80>    C       -5.93290        30.03210         8.61237
| 81>    C       -6.93581        30.57119         7.79788
| 82>    C       -7.23487        29.62752         6.73787
| 83>    C       -8.15299        29.76267         5.73761
| 84>    C       -8.96731        30.90760         5.61374
| 85>    N       -9.63336        31.83501         5.50821
| 86>    C       -8.35120        28.76462         4.76102
| 87>    N       -8.51471        27.95499         3.96531
| 88>    C       -7.35526        31.84331         8.23333
| 89>    C       -6.67561        32.23492         9.34592
| 90>    S       -5.51043        31.07450         9.89536
| 91>    H        1.68885        -2.18131        -4.80429
| 92>    H        0.16123        -0.65071        -6.27693
| 93>    H       -1.12944         4.87678        -3.73882
| 94>    H        1.15325         5.14522         0.52497
| 95>    H       -0.00908        10.71975         2.98837
| 96>    H       -2.99903        13.09045         0.02272
| 97>    H       -4.27121        17.08530        -0.02480
| 98>    H       -5.33006        15.76498         0.51290
| 99>    H       -3.99968        15.43506        -0.61627
|100>    H       -4.19360        18.56551         2.21391
|101>    H       -1.68395        19.33618         6.27270
|102>    H       -3.15523        24.97168         8.41217
|103>    H       -6.55202        26.85067         5.51510
|104>    H       -8.11353        32.43720         7.75674
|105>    H       -6.78295        33.14945         9.89388
|106> *
|107>
|108>                          ****END OF INPUT****

CARTESIAN COORDINATES (ANGSTROEM)
---------------------------------
  C      1.343590   -1.196140   -4.562660
  C      0.549620   -0.382550   -5.311520
  C      0.310340    0.842270   -4.658570
  C      0.944100    0.915770   -3.412430
  S      1.822080   -0.501170   -3.048110
  C      0.651220    2.180880   -2.826980
  C     -0.168990    2.897680   -3.707070
  C     -0.409480    2.079700   -4.890820
  C     -1.151970    2.418760   -5.984170
  C     -1.810430    3.661700   -6.087820
  N     -2.346830    4.671830   -6.174300
  C     -1.311240    1.550460   -7.084200
  N     -1.442220    0.850840   -7.983070
  C     -0.510750    4.162660   -3.225550
  C      0.048220    4.410720   -1.986250
  S      1.007560    3.057650   -1.405310
  C     -0.069520    5.586930   -1.201760
  C      0.518420    5.850960    0.019800
  C      0.191060    7.122380    0.494130
  C     -0.656900    7.828970   -0.375040
  S     -1.049830    6.931620   -1.774580
  C     -0.924190    9.101270    0.189350
  C     -0.244580    9.201980    1.413480
  C      0.476330    7.958750    1.647910
  C      1.254040    7.645200    2.723370
  C      1.453840    8.540280    3.795640
  N      1.616900    9.261630    4.671910
  C      1.911640    6.402100    2.834730
  N      2.451090    5.394310    2.925860
  C     -0.436860   10.430450    2.045410
  C     -1.260980   11.266710    1.314950
  S     -1.806430   10.518410   -0.180610
  C     -1.668890   12.582840    1.646660
  C     -2.529300   13.398420    0.939460
  C     -2.700140   14.632280    1.569760
  C     -1.959500   14.760150    2.767870
  S     -1.050550   13.337260    3.112780
  C     -2.232740   16.028850    3.273580
  C     -3.135420   16.638810    2.372010
  N     -3.401400   15.784910    1.334810
  C     -4.302960   16.029800    0.244000
  C     -3.514000   17.928020    2.750150
  C     -2.903710   18.310280    3.927940
  S     -1.845280   17.069290    4.591830
  C     -3.051060   19.542370    4.612720
  C     -2.403580   19.951850    5.763810
  C     -2.797610   21.230110    6.159750
  C     -3.756530   21.798470    5.306540
  S     -4.168030   20.761100    4.011390
  C     -4.094970   23.084770    5.796000
  C     -3.345520   23.333120    6.957990
  C     -2.503950   22.178600    7.224840
  C     -1.624380   22.019110    8.254750
  C     -1.423910   23.019910    9.228740
  N     -1.260390   23.832370   10.021390
  C     -0.855800   20.846960    8.415990
  N     -0.227050   19.897960    8.552950
  C     -3.615530   24.580890    7.522430
  C     -4.565040   25.280000    6.803130
  S     -5.132320   24.382960    5.399470
  C     -5.092610   26.566410    7.085180
  C     -6.072480   27.250060    6.390760
  C     -6.348820   28.491400    6.966890
  C     -5.572180   28.751870    8.102710
  S     -4.501060   27.473500    8.469490
  C     -5.932900   30.032100    8.612370
  C     -6.935810   30.571190    7.797880
  C     -7.234870   29.627520    6.737870
  C     -8.152990   29.762670    5.737610
  C     -8.967310   30.907600    5.613740
  N     -9.633360   31.835010    5.508210
  C     -8.351200   28.764620    4.761020
  N     -8.514710   27.954990    3.965310
  C     -7.355260   31.843310    8.233330
  C     -6.675610   32.234920    9.345920
  S     -5.510430   31.074500    9.895360
  H      1.688850   -2.181310   -4.804290
  H      0.161230   -0.650710   -6.276930
  H     -1.129440    4.876780   -3.738820
  H      1.153250    5.145220    0.524970
  H     -0.009080   10.719750    2.988370
  H     -2.999030   13.090450    0.022720
  H     -4.271210   17.085300   -0.024800
  H     -5.330060   15.764980    0.512900
  H     -3.999680   15.435060   -0.616270
  H     -4.193600   18.565510    2.213910
  H     -1.683950   19.336180    6.272700
  H     -3.155230   24.971680    8.412170
  H     -6.552020   26.850670    5.515100
  H     -8.113530   32.437200    7.756740
  H     -6.782950   33.149450    9.893880

 Total Charge           Charge          ....    0
 Multiplicity           Mult            ....    1
 Number of Electrons    NEL             ....  580
 Basis Dimension        Dim             .... 1179

ORBITAL ENERGIES
----------------

  NO   OCC          E(Eh)            E(eV)
   0   2.0000     -88.990043     -2421.5422
   1   2.0000     -88.989971     -2421.5402
   2   2.0000     -88.989842     -2421.5367
   3   2.0000     -88.989656     -2421.5317
   4   2.0000     -88.987578     -2421.4751
   5   2.0000     -88.987552     -2421.4744
   6   2.0000     -88.986368     -2421.4422
   7   2.0000     -88.986300     -2421.4403
   8   2.0000     -88.963305     -2420.8146
   9   2.0000     -88.963013     -2420.8066
  10   2.0000     -14.474436      -393.8694
  11   2.0000     -14.430233      -392.6666
  12   2.0000     -14.430230      -392.6665
  13   2.0000     -14.429700      -392.6521
  14   2.0000     -14.429617      -392.6498
  15   2.0000     -14.428821      -392.6282
  16   2.0000     -14.428790      -392.6273
  17   2.0000     -14.428294      -392.6138
  18   2.0000     -14.428265      -392.6130
  19   2.0000     -10.363790      -282.0131
  20   2.0000     -10.363775      -282.0127
  21   2.0000     -10.362360      -281.9741
  22   2.0000     -10.362321      -281.9731
  23   2.0000     -10.350757      -281.6584
  24   2.0000     -10.350705      -281.6570
  25   2.0000     -10.350242      -281.6444
  26   2.0000     -10.350206      -281.6434
  27   2.0000     -10.331667      -281.1389
  28   2.0000     -10.331523      -281.1350
  29   2.0000     -10.330680      -281.1121
  30   2.0000     -10.330660      -281.1115
  31   2.0000     -10.330417      -281.1049
  32   2.0000     -10.330295      -281.1016
  33   2.0000     -10.330039      -281.0947
  34   2.0000     -10.329378      -281.0767
  35   2.0000     -10.329285      -281.0741
  36   2.0000     -10.329024      -281.0670
  37   2.0000     -10.328957      -281.0652
  38   2.0000     -10.328728      -281.0590
  39   2.0000     -10.328650      -281.0569
  40   2.0000     -10.328576      -281.0548
  41   2.0000     -10.328562      -281.0545
  42   2.0000     -10.328488      -281.0524
  43   2.0000     -10.328460      -281.0517
  44   2.0000     -10.327927      -281.0372
  45   2.0000     -10.327901      -281.0365
  46   2.0000     -10.327891      -281.0362
  47   2.0000     -10.327850      -281.0351
  48   2.0000     -10.325689      -280.9763
  49   2.0000     -10.325674      -280.9759
  50   2.0000     -10.317523      -280.7541
  51   2.0000     -10.317485      -280.7530
  52   2.0000     -10.315334      -280.6945
  53   2.0000     -10.314888      -280.6824
  54   2.0000     -10.310105      -280.5522
  55   2.0000     -10.310037      -280.5504
  56   2.0000     -10.301487      -280.3177
  57   2.0000     -10.301474      -280.3174
  58   2.0000     -10.301421      -280.3159
  59   2.0000     -10.301390      -280.3151
  60   2.0000     -10.301141      -280.3083
  61   2.0000     -10.301079      -280.3066
  62   2.0000     -10.300971      -280.3037
  63   2.0000     -10.300937      -280.3027
  64   2.0000     -10.300699      -280.2963
  65   2.0000     -10.300685      -280.2959
  66   2.0000     -10.300502      -280.2909
  67   2.0000     -10.300135      -280.2809
  68   2.0000     -10.297584      -280.2115
  69   2.0000     -10.297525      -280.2099
  70   2.0000     -10.296948      -280.1942
  71   2.0000     -10.296834      -280.1911
  72   2.0000     -10.296275      -280.1759
  73   2.0000     -10.296243      -280.1750
  74   2.0000     -10.291723      -280.0520
  75   2.0000     -10.291678      -280.0508
  76   2.0000      -8.084480      -219.9899
  77   2.0000      -8.084451      -219.9891
  78   2.0000      -8.084280      -219.9844
  79   2.0000      -8.084149      -219.9809
  80   2.0000      -8.082110      -219.9254
  81   2.0000      -8.082075      -219.9244
  82   2.0000      -8.081391      -219.9058
  83   2.0000      -8.081345      -219.9046
  84   2.0000      -8.057850      -219.2652
  85   2.0000      -8.057625      -219.2591
  86   2.0000      -6.053780      -164.7317
  87   2.0000      -6.053762      -164.7312
  88   2.0000      -6.053560      -164.7257
  89   2.0000      -6.053444      -164.7226
  90   2.0000      -6.051410      -164.6672
  91   2.0000      -6.051385      -164.6665
  92   2.0000      -6.050632      -164.6461
  93   2.0000      -6.050598      -164.6452
  94   2.0000      -6.049637      -164.6190
  95   2.0000      -6.049604      -164.6181
  96   2.0000      -6.049430      -164.6133
  97   2.0000      -6.049290      -164.6096
  98   2.0000      -6.047295      -164.5553
  99   2.0000      -6.047249      -164.5540
 100   2.0000      -6.046718      -164.5395
 101   2.0000      -6.046670      -164.5382
 102   2.0000      -6.046550      -164.5350
 103   2.0000      -6.046396      -164.5308
 104   2.0000      -6.046199      -164.5254
 105   2.0000      -6.046139      -164.5238
 106   2.0000      -6.044343      -164.4749
 107   2.0000      -6.044309      -164.4740
 108   2.0000      -6.044013      -164.4660
 109   2.0000      -6.043952      -164.4643
 110   2.0000      -6.027615      -164.0197
 111   2.0000      -6.027393      -164.0137
 112   2.0000      -6.023516      -163.9082
 113   2.0000      -6.023301      -163.9023
 114   2.0000      -6.019093      -163.7878
 115   2.0000      -6.018855      -163.7814
 116   2.0000      -1.100935       -29.9580
 117   2.0000      -1.044128       -28.4122
 118   2.0000      -1.044106       -28.4116
 119   2.0000      -1.040896       -28.3242
 120   2.0000      -1.040876       -28.3237
 121   2.0000      -1.021537       -27.7974
 122   2.0000      -1.021526       -27.7971
 123   2.0000      -1.020253       -27.7625
 124   2.0000      -1.020239       -27.7621
 125   2.0000      -1.007303       -27.4101
 126   2.0000      -1.007273       -27.4093
 127   2.0000      -1.006666       -27.3928
 128   2.0000      -1.006638       -27.3920
 129   2.0000      -1.003731       -27.3129
 130   2.0000      -1.003445       -27.3051
 131   2.0000      -0.991591       -26.9826
 132   2.0000      -0.991322       -26.9752
 133   2.0000      -0.978058       -26.6143
 134   2.0000      -0.976447       -26.5705
 135   2.0000      -0.958388       -26.0791
 136   2.0000      -0.957232       -26.0476
 137   2.0000      -0.952029       -25.9060
 138   2.0000      -0.951634       -25.8953
 139   2.0000      -0.918658       -24.9979
 140   2.0000      -0.916208       -24.9313
 141   2.0000      -0.904998       -24.6262
 142   2.0000      -0.900741       -24.5104
 143   2.0000      -0.889268       -24.1982
 144   2.0000      -0.870314       -23.6825
 145   2.0000      -0.867860       -23.6157
 146   2.0000      -0.866940       -23.5906
 147   2.0000      -0.866634       -23.5823
 148   2.0000      -0.857307       -23.3285
 149   2.0000      -0.855925       -23.2909
 150   2.0000      -0.849359       -23.1122
 151   2.0000      -0.849100       -23.1052
 152   2.0000      -0.845647       -23.0112
 153   2.0000      -0.842996       -22.9391
 154   2.0000      -0.836469       -22.7615
 155   2.0000      -0.829175       -22.5630
 156   2.0000      -0.809656       -22.0319
 157   2.0000      -0.794740       -21.6260
 158   2.0000      -0.779089       -21.2001
 159   2.0000      -0.777192       -21.1485
 160   2.0000      -0.773462       -21.0470
 161   2.0000      -0.773326       -21.0433
 162   2.0000      -0.767373       -20.8813
 163   2.0000      -0.762718       -20.7546
 164   2.0000      -0.744502       -20.2589
 165   2.0000      -0.728812       -19.8320
 166   2.0000      -0.711592       -19.3634
 167   2.0000      -0.703153       -19.1338
 168   2.0000      -0.701773       -19.0962
 169   2.0000      -0.701296       -19.0832
 170   2.0000      -0.691149       -18.8071
 171   2.0000      -0.685766       -18.6606
 172   2.0000      -0.684398       -18.6234
 173   2.0000      -0.684264       -18.6198
 174   2.0000      -0.674684       -18.3591
 175   2.0000      -0.673748       -18.3336
 176   2.0000      -0.658704       -17.9242
 177   2.0000      -0.658695       -17.9240
 178   2.0000      -0.651999       -17.7418
 179   2.0000      -0.651160       -17.7190
 180   2.0000      -0.631908       -17.1951
 181   2.0000      -0.629116       -17.1191
 182   2.0000      -0.627172       -17.0662
 183   2.0000      -0.623984       -16.9795
 184   2.0000      -0.621105       -16.9011
 185   2.0000      -0.620291       -16.8790
 186   2.0000      -0.618109       -16.8196
 187   2.0000      -0.615718       -16.7545
 188   2.0000      -0.613874       -16.7044
 189   2.0000      -0.611071       -16.6281
 190   2.0000      -0.607271       -16.5247
 191   2.0000      -0.606871       -16.5138
 192   2.0000      -0.594920       -16.1886
 193   2.0000      -0.575650       -15.6642
 194   2.0000      -0.575107       -15.6495
 195   2.0000      -0.573553       -15.6072
 196   2.0000      -0.565272       -15.3818
 197   2.0000      -0.559534       -15.2257
 198   2.0000      -0.550348       -14.9757
 199   2.0000      -0.547390       -14.8952
 200   2.0000      -0.547336       -14.8938
 201   2.0000      -0.543062       -14.7775
 202   2.0000      -0.543042       -14.7769
 203   2.0000      -0.540561       -14.7094
 204   2.0000      -0.531724       -14.4690
 205   2.0000      -0.530376       -14.4323
 206   2.0000      -0.524747       -14.2791
 207   2.0000      -0.516492       -14.0544
 208   2.0000      -0.514665       -14.0048
 209   2.0000      -0.511108       -13.9080
 210   2.0000      -0.508924       -13.8485
 211   2.0000      -0.507539       -13.8108
 212   2.0000      -0.507502       -13.8098
 213   2.0000      -0.505424       -13.7533
 214   2.0000      -0.503666       -13.7054
 215   2.0000      -0.500458       -13.6182
 216   2.0000      -0.498327       -13.5602
 217   2.0000      -0.497163       -13.5285
 218   2.0000      -0.495834       -13.4923
 219   2.0000      -0.495655       -13.4875
 220   2.0000      -0.493188       -13.4203
 221   2.0000      -0.490956       -13.3596
 222   2.0000      -0.490386       -13.3441
 223   2.0000      -0.490069       -13.3355
 224   2.0000      -0.484766       -13.1912
 225   2.0000      -0.484426       -13.1819
 226   2.0000      -0.482064       -13.1176
 227   2.0000      -0.479396       -13.0450
 228   2.0000      -0.477585       -12.9958
 229   2.0000      -0.475341       -12.9347
 230   2.0000      -0.474418       -12.9096
 231   2.0000      -0.470295       -12.7974
 232   2.0000      -0.469882       -12.7861
 233   2.0000      -0.465281       -12.6609
 234   2.0000      -0.460900       -12.5417
 235   2.0000      -0.460834       -12.5399
 236   2.0000      -0.460717       -12.5367
 237   2.0000      -0.460690       -12.5360
 238   2.0000      -0.456878       -12.4323
 239   2.0000      -0.456677       -12.4268
 240   2.0000      -0.456614       -12.4251
 241   2.0000      -0.456418       -12.4198
 242   2.0000      -0.456398       -12.4192
 243   2.0000      -0.455900       -12.4057
 244   2.0000      -0.451531       -12.2868
 245   2.0000      -0.445717       -12.1286
 246   2.0000      -0.442015       -12.0279
 247   2.0000      -0.440678       -11.9915
 248   2.0000      -0.439928       -11.9710
 249   2.0000      -0.439884       -11.9698
 250   2.0000      -0.439783       -11.9671
 251   2.0000      -0.439642       -11.9633
 252   2.0000      -0.439454       -11.9581
 253   2.0000      -0.439331       -11.9548
 254   2.0000      -0.437670       -11.9096
 255   2.0000      -0.437481       -11.9045
 256   2.0000      -0.436837       -11.8869
 257   2.0000      -0.435548       -11.8519
 258   2.0000      -0.435514       -11.8509
 259   2.0000      -0.432887       -11.7795
 260   2.0000      -0.428360       -11.6563
 261   2.0000      -0.426110       -11.5951
 262   2.0000      -0.424486       -11.5509
 263   2.0000      -0.423868       -11.5340
 264   2.0000      -0.421935       -11.4814
 265   2.0000      -0.418326       -11.3832
 266   2.0000      -0.416798       -11.3416
 267   2.0000      -0.411299       -11.1920
 268   2.0000      -0.405543       -11.0354
 269   2.0000      -0.404695       -11.0123
 270   2.0000      -0.388234       -10.5644
 271   2.0000      -0.386690       -10.5224
 272   2.0000      -0.375054       -10.2057
 273   2.0000      -0.360649        -9.8137
 274   2.0000      -0.350088        -9.5264
 275   2.0000      -0.349804        -9.5186
 276   2.0000      -0.345159        -9.3923
 277   2.0000      -0.344922        -9.3858
 278   2.0000      -0.342362        -9.3161
 279   2.0000      -0.336082        -9.1452
 280   2.0000      -0.322333        -8.7711
 281   2.0000      -0.321443        -8.7469
 282   2.0000      -0.320232        -8.7140
 283   2.0000      -0.319865        -8.7040
 284   2.0000      -0.313879        -8.5411
 285   2.0000      -0.294264        -8.0073
 286   2.0000      -0.280858        -7.6425
 287   2.0000      -0.266419        -7.2496
 288   2.0000      -0.247463        -6.7338
 289   2.0000      -0.223440        -6.0801
 290   0.0000      -0.106468        -2.8971
 291   0.0000      -0.103536        -2.8174
 292   0.0000      -0.100091        -2.7236
 293   0.0000      -0.099888        -2.7181
 294   0.0000      -0.053687        -1.4609

MULLIKEN ATOMIC CHARGES
-----------------------
   0 C :   -0.082455
   1 C :    0.039828
   2 C :   -0.036464
   3 C :   -0.116210
   4 S :    0.183644
   5 C :   -0.101665
   6 C :    0.019548
   7 C :    0.298187
   8 C :   -0.301671
   9 C :   -0.187885
  10 N :    0.169438
  11 C :   -0.187459
  12 N :    0.173208
  13 C :   -0.073485
  14 C :   -0.049492
  15 S :    0.190830
  16 C :   -0.048629
  17 C :   -0.071902
  18 C :    0.015852
  19 C :   -0.095533
  20 S :    0.188572
  21 C :   -0.103346
  22 C :    0.015095
  23 C :    0.300713
  24 C :   -0.299720
  25 C :   -0.185866
  26 N :    0.175542
  27 C :   -0.189485
  28 N :    0.172319
  29 C :   -0.068073
  30 C :   -0.042431
  31 S :    0.174094
  32 C :   -0.052769
  33 C :   -0.117354
  34 C :    0.161794
  35 C :   -0.119814
  36 S :    0.149076
  37 C :   -0.114253
  38 C :    0.163952
  39 N :   -0.168453
  40 C :    0.126442
  41 C :   -0.123304
  42 C :   -0.050920
  43 S :    0.149245
  44 C :   -0.042540
  45 C :   -0.072267
  46 C :    0.020813
  47 C :   -0.101715
  48 S :    0.173828
  49 C :   -0.098300
  50 C :    0.011464
  51 C :    0.299443
  52 C :   -0.297274
  53 C :   -0.186924
  54 N :    0.169637
  55 C :   -0.189474
  56 N :    0.177036
  57 C :   -0.066027
  58 C :   -0.050635
  59 S :    0.189298
  60 C :   -0.051379
  61 C :   -0.067071
  62 C :    0.015064
  63 C :   -0.103651
  64 S :    0.190889
  65 C :   -0.115292
  66 C :   -0.029188
  67 C :    0.296114
  68 C :   -0.298548
  69 C :   -0.191397
  70 N :    0.174278
  71 C :   -0.186057
  72 N :    0.167395
  73 C :    0.033982
  74 C :   -0.081817
  75 S :    0.183542
  76 H :    0.035684
  77 H :    0.011200
  78 H :    0.009569
  79 H :    0.010119
  80 H :    0.014404
  81 H :   -0.020276
  82 H :    0.040731
  83 H :    0.044572
  84 H :    0.039728
  85 H :   -0.019977
  86 H :    0.015086
  87 H :    0.009760
  88 H :    0.009096
  89 H :    0.012461
  90 H :    0.035875
Sum of atomic charges:   -0.0000000

LOEWDIN ATOMIC CHARGES
----------------------
   0 C :   -0.178683
   1 C :   -0.033775
   2 C :   -0.079020
   3 C :   -0.182845
   4 S :    0.479138
   5 C :   -0.181816
   6 C :   -0.069034
   7 C :    0.084689
   8 C :   -0.105137
   9 C :   -0.015520
  10 N :   -0.037647
  11 C :   -0.017041
  12 N :   -0.033644
  13 C :   -0.042298
  14 C :   -0.179816
  15 S :    0.482888
  16 C :   -0.182197
  17 C :   -0.039558
  18 C :   -0.073080
  19 C :   -0.176212
  20 S :    0.479473
  21 C :   -0.187779
  22 C :   -0.066558
  23 C :    0.083734
  24 C :   -0.101513
  25 C :   -0.017240
  26 N :   -0.030262
  27 C :   -0.015603
  28 N :   -0.034747
  29 C :   -0.041101
  30 C :   -0.171281
  31 S :    0.468173
  32 C :   -0.177974
  33 C :   -0.082542
  34 C :   -0.016113
  35 C :   -0.220010
  36 S :    0.426788
  37 C :   -0.219220
  38 C :   -0.016754
  39 N :    0.028167
  40 C :    0.040750
  41 C :   -0.082799
  42 C :   -0.178169
  43 S :    0.426926
  44 C :   -0.171180
  45 C :   -0.041300
  46 C :   -0.066780
  47 C :   -0.187365
  48 S :    0.468280
  49 C :   -0.176638
  50 C :   -0.072917
  51 C :    0.083687
  52 C :   -0.101466
  53 C :   -0.015287
  54 N :   -0.035060
  55 C :   -0.017443
  56 N :   -0.030018
  57 C :   -0.039267
  58 C :   -0.182346
  59 S :    0.479329
  60 C :   -0.179724
  61 C :   -0.041850
  62 C :   -0.069071
  63 C :   -0.181966
  64 S :    0.482892
  65 C :   -0.182675
  66 C :   -0.079006
  67 C :    0.084597
  68 C :   -0.105118
  69 C :   -0.017050
  70 N :   -0.033544
  71 C :   -0.015456
  72 N :   -0.037786
  73 C :   -0.034021
  74 C :   -0.178757
  75 S :    0.479050
  76 H :    0.027478
  77 H :    0.042329
  78 H :    0.034496
  79 H :    0.035073
  80 H :    0.036591
  81 H :    0.024742
  82 H :    0.034530
  83 H :    0.029891
  84 H :    0.035050
  85 H :    0.024920
  86 H :    0.036795
  87 H :    0.034940
  88 H :    0.034591
  89 H :    0.042562
  90 H :    0.027528

  Mayer bond orders larger than 0.100000
B(  0-C ,  1-C ) :   1.5502 B(  0-C ,  4-S ) :   1.1488 B(  0-C , 76-H ) :   0.9643
B(  1-C ,  2-C ) :   1.2759 B(  1-C , 77-H ) :   0.9957 B(  2-C ,  3-C ) :   1.4598
B(  2-C ,  7-C ) :   1.0170 B(  3-C ,  4-S ) :   1.1386 B(  3-C ,  5-C ) :   1.1787
B(  5-C ,  6-C ) :   1.4662 B(  5-C , 15-S ) :   1.1200 B(  6-C ,  7-C ) :   0.9907
B(  6-C , 13-C ) :   1.2935 B(  7-C ,  8-C ) :   1.7111 B(  8-C ,  9-C ) :   1.1360
B(  8-C , 11-C ) :   1.1273 B(  9-C , 10-N ) :   2.9898 B( 11-C , 12-N ) :   3.0035
B( 13-C , 14-C ) :   1.4667 B( 13-C , 78-H ) :   0.9873 B( 14-C , 15-S ) :   1.1105
B( 14-C , 16-C ) :   1.1638 B( 16-C , 17-C ) :   1.4679 B( 16-C , 20-S ) :   1.1015
B( 17-C , 18-C ) :   1.2938 B( 17-C , 79-H ) :   0.9869 B( 18-C , 19-C ) :   1.4460
B( 18-C , 23-C ) :   0.9962 B( 19-C , 20-S ) :   1.1198 B( 19-C , 21-C ) :   1.1862
B( 21-C , 22-C ) :   1.4556 B( 21-C , 31-S ) :   1.1081 B( 22-C , 23-C ) :   0.9909
B( 22-C , 29-C ) :   1.2917 B( 23-C , 24-C ) :   1.7154 B( 24-C , 25-C ) :   1.1299
B( 24-C , 27-C ) :   1.1357 B( 25-C , 26-N ) :   2.9939 B( 27-C , 28-N ) :   2.9911
B( 29-C , 30-C ) :   1.4580 B( 29-C , 80-H ) :   0.9895 B( 30-C , 31-S ) :   1.1067
B( 30-C , 32-C ) :   1.1781 B( 32-C , 33-C ) :   1.4751 B( 32-C , 36-S ) :   1.0995
B( 33-C , 34-C ) :   1.2334 B( 33-C , 81-H ) :   1.0021 B( 34-C , 35-C ) :   1.3943
B( 34-C , 39-N ) :   1.1471 B( 35-C , 36-S ) :   1.0299 B( 35-C , 37-C ) :   1.3940
B( 37-C , 38-C ) :   1.3919 B( 37-C , 43-S ) :   1.0311 B( 38-C , 39-N ) :   1.1510
B( 38-C , 41-C ) :   1.2351 B( 39-N , 40-C ) :   0.9685 B( 40-C , 82-H ) :   0.9718
B( 40-C , 83-H ) :   0.9738 B( 40-C , 84-H ) :   0.9723 B( 41-C , 42-C ) :   1.4733
B( 41-C , 85-H ) :   1.0030 B( 42-C , 43-S ) :   1.0985 B( 42-C , 44-C ) :   1.1770
B( 44-C , 45-C ) :   1.4598 B( 44-C , 48-S ) :   1.1053 B( 45-C , 46-C ) :   1.2912
B( 45-C , 86-H ) :   0.9899 B( 46-C , 47-C ) :   1.4506 B( 46-C , 51-C ) :   0.9925
B( 47-C , 48-S ) :   1.1097 B( 47-C , 49-C ) :   1.1870 B( 49-C , 50-C ) :   1.4487
B( 49-C , 59-S ) :   1.1190 B( 50-C , 51-C ) :   0.9964 B( 50-C , 57-C ) :   1.2917
B( 51-C , 52-C ) :   1.7144 B( 52-C , 53-C ) :   1.1323 B( 52-C , 55-C ) :   1.1338
B( 53-C , 54-N ) :   2.9910 B( 55-C , 56-N ) :   2.9938 B( 57-C , 58-C ) :   1.4672
B( 57-C , 87-H ) :   0.9874 B( 58-C , 59-S ) :   1.1026 B( 58-C , 60-C ) :   1.1637
B( 60-C , 61-C ) :   1.4666 B( 60-C , 64-S ) :   1.1114 B( 61-C , 62-C ) :   1.2907
B( 61-C , 88-H ) :   0.9883 B( 62-C , 63-C ) :   1.4681 B( 62-C , 67-C ) :   0.9914
B( 63-C , 64-S ) :   1.1195 B( 63-C , 65-C ) :   1.1803 B( 65-C , 66-C ) :   1.4548
B( 65-C , 75-S ) :   1.1394 B( 66-C , 67-C ) :   1.0194 B( 66-C , 73-C ) :   1.2739
B( 67-C , 68-C ) :   1.7093 B( 68-C , 69-C ) :   1.1314 B( 68-C , 71-C ) :   1.1330
B( 69-C , 70-N ) :   3.0029 B( 71-C , 72-N ) :   2.9904 B( 73-C , 74-C ) :   1.5494
B( 73-C , 89-H ) :   0.9971 B( 74-C , 75-S ) :   1.1481 B( 74-C , 90-H ) :   0.9646

-----------------------------------------------------------------------------
         ABSORPTION SPECTRUM VIA TRANSITION ELECTRIC DIPOLE MOMENTS
-----------------------------------------------------------------------------
State   Energy  Wavelength   fosc         T2         TX        TY        TZ
        (cm-1)    (nm)                  (au**2)     (au)      (au)      (au)
-----------------------------------------------------------------------------
   0    9862.3   1014.0   0.481832417  16.08395  -0.85549   3.62391   1.48974
   1   10392.8    962.2   0.000631329   0.02000   0.08852   0.00158   0.11027
   2   13074.5    764.8   0.199859190   5.03238   0.49386  -2.00722  -0.87152
   3   13090.7    763.9   0.004166405   0.10478  -0.21341   0.18562  -0.15742
   4   18305.7    546.3   0.001101083   0.01980  -0.07490   0.11620  -0.02625
   5   18365.3    544.5   0.268671468   4.81615   0.42568  -1.99989  -0.79710
   6   20459.8    488.8   0.282506946   4.54572   0.45038  -1.92709  -0.79321
   7   20551.8    486.6   0.000103749   0.00166   0.02845  -0.02275   0.01830
   8   22248.9    449.5   2.550627974  37.74112  -1.29501   5.55358   2.28514
   9   24189.2    413.4   0.000470334   0.00640   0.03072   0.03251   0.06633
  10   24361.5    410.5   0.185500574   2.50679  -0.31674   1.44028   0.57624
  11   25361.6    394.3   0.001459151   0.01894   0.08764  -0.03653   0.09963
  12   25750.5    388.3   0.000007981   0.00010  -0.00694  -0.00007   0.00734
  13   26229.4    381.3   0.055528499   0.69695  -0.52435   0.13726  -0.63495
  14   26700.1    374.5   0.009749507   0.12021  -0.09948   0.30059   0.14127
  15   27115.1    368.8   0.039339877   0.47764   0.43360  -0.11295   0.52618
  16   28739.4    348.0   0.038400292   0.43988   0.17513  -0.57885  -0.27229
  17   28896.2    346.1   0.016545692   0.18850  -0.26802   0.07239  -0.33381
  18   29707.5    336.6   0.363228170   4.02522  -0.63365   1.69171   0.87282
  19   30619.9    326.6   0.014712702   0.15818   0.24328  -0.06664   0.30750
  20   31047.2    322.1   0.020370477   0.21600  -0.09640   0.39592   0.22350
  21   31099.5    321.5   0.018450211   0.19531   0.28057  -0.10967   0.32336
  22   31735.8    315.1   0.493270246   5.11695   1.37798  -0.39328   1.75027
  23   31973.8    312.8   0.525119424   5.40679  -1.41416   0.41657  -1.79817
  24   32029.6    312.2   0.000263335   0.00271  -0.02788   0.02364   0.03702
  25   32190.7    310.6   0.027601666   0.28228   0.02135   0.46813   0.25035
  26   32366.4    309.0   1.457026719  14.82002   2.35134  -0.68594   2.96997
  27   32635.6    306.4   0.075093019   0.75750   0.13767   0.84856   0.13600
  28   33162.1    301.5   0.509422258   5.05722  -1.38258   0.42724  -1.72138
  29   33414.8    299.3   0.132537926   1.30580  -0.20858   1.02439   0.46144
  30   33747.3    296.3   0.079408311   0.77464  -0.53309   0.13613  -0.68697
  31   33885.3    295.1   0.302683703   2.94072   0.40756  -1.53413  -0.64888
  32   33941.6    294.6   0.009747953   0.09455  -0.16376  -0.03684  -0.25763
  33   34239.0    292.1   0.024969798   0.24009   0.10958  -0.43311  -0.20124
  34   34420.4    290.5   0.063938158   0.61153  -0.48243   0.15002  -0.59690
  35   34479.1    290.0   0.259866710   2.48125  -0.39530   1.39125   0.62403
  36   34775.1    287.6   0.016640926   0.15754   0.25025  -0.06662   0.30079
  37   35390.2    282.6   0.009048652   0.08417  -0.12476  -0.07416  -0.25121
  38   35430.1    282.2   0.308839555   2.86970  -0.43641   1.49870   0.65813
  39   35655.6    280.5   0.188506405   1.74050  -0.23989   1.20675   0.47614
  40   35743.9    279.8   0.007415003   0.06829   0.16101  -0.03433   0.20296
  41   36728.0    272.3   0.108270647   0.97049  -0.60305   0.17658  -0.75871
  42   37037.5    270.0   0.042293554   0.37593   0.09296  -0.56868  -0.20951
  43   37216.0    268.7   0.033450494   0.29590   0.12836  -0.48536  -0.20940
  44   37442.7    267.1   0.016355697   0.14381   0.23243  -0.06783   0.29186
  45   37570.0    266.2   0.009851518   0.08633   0.04114  -0.27593  -0.09218
  46   37944.0    263.5   0.027126450   0.23536  -0.29729   0.09083  -0.37246
  47   39126.3    255.6   0.000110454   0.00093   0.02305  -0.01127  -0.01646
  48   39230.9    254.9   0.000884917   0.00743  -0.05136   0.01430  -0.06770
  49   39667.1    252.1   0.020750420   0.17222   0.25023  -0.07084   0.32339
  50   39709.0    251.8   0.000809791   0.00671   0.03045  -0.07444  -0.01566
  51   39865.2    250.8   0.003146757   0.02599   0.01926   0.15339   0.04568
  52   40074.2    249.5   0.072610682   0.59650   0.47027  -0.13784   0.59695
  53   40234.8    248.5   0.008044689   0.06582  -0.15373   0.04283  -0.20089

FINAL SINGLE POINT ENERGY     -6650.921039877595

DIPOLE MOMENT
-------------
                                X             Y             Z
Electronic contribution:      7.86259      -2.28702       9.94682
Nuclear contribution   :     -8.47359       2.46697     -10.74859
                        -----------------------------------------
Total Dipole Moment    :     -0.61100       0.17995      -0.80177
                        -----------------------------------------
Magnitude (a.u.)       :      1.02398
Magnitude (Debye)      :      2.60276

Rotational constants in cm-1:     0.002500     0.000115     0.000110
Rotational constants in MHz :    74.961531     3.459140     3.308681

                             ****ORCA TERMINATED NORMALLY****
TOTAL RUN TIME: 0 days 0 hours 8 minutes 36 seconds 627 msec
