                         Program Version 4.2.0 -  RELEASE  -
|  1> # ORCA input file
|  2> # SCF done       -207.286908109161          0.000376595864
|  3> ! CAM-B3LYP def2-SVP def2/J RIJCOSX Grid4 TightSCF
|  4> %maxcore 5000
|  5> %tddft
|  6>     Mode sTDDFT
|  7>     Ethresh 5.0
|  8>     maxcore 5000
|  9> end
| 10>
| 11> %pal
| 12>   nprocs 6
| 13>   end
| 14> * xyz 0 1
| 15>    C       -1.91688         2.51442        -2.22139
| 16>    C       -2.30885         3.79618        -2.50500
| 17>    C       -3.37724         4.11705        -3.36619
| 18>    N       -4.24243         4.42903        -4.05274
| 19>    C       -1.61417         4.93071        -2.03808
| 20>    N       -1.03714         5.86606        -1.70552
| 21>    C       -2.39525         1.31185        -2.89076
| 22>    C       -1.41366         0.28804        -2.73646
| 23>    C       -1.57028        -0.94318        -3.30514
| 24>    C       -2.73838        -1.21347        -4.05341
| 25>    C       -3.73165        -0.20069        -4.19205
| 26>    C       -3.53997         1.06876        -3.60001
| 27>    C       -4.89587        -0.48799        -4.93295
| 28>    C       -5.07050        -1.71399        -5.51495
| 29>    C       -4.09089        -2.70925        -5.38112
| 30>    C       -2.95010        -2.46443        -4.66587
| 31>    C       -0.30920         0.79150        -1.90096
| 32>    O        0.72271         0.23564        -1.60160
| 33>    C       -0.75906         2.13554        -1.43649
| 34>    C       -0.14986         2.72973        -0.37919
| 35>    C       -0.65102         3.76473         0.45091
| 36>    S       -2.35774         3.98194         0.71783
| 37>    C       -2.06980         5.30524         1.80824
| 38>    C       -0.71212         5.55868         1.94069
| 39>    C        0.08227         4.66862         1.20179
| 40>    C        1.57413         4.74038         1.18295
| 41>    C        2.08665         5.49604         2.41726
| 42>    C        1.84163         4.71406         3.60854
| 43>    N        1.62524         4.10030         4.54743
| 44>    C        1.36004         6.85321         2.54029
| 45>    C        1.57561         7.61663         1.33085
| 46>    N        1.76319         8.22808         0.38459
| 47>    C       -0.14187         6.64869         2.79131
| 48>    C       -3.18912         5.92695         2.41744
| 49>    C       -4.51584         5.61184         2.17192
| 50>    C       -5.39220         6.36925         2.94335
| 51>    C       -4.73229         7.27515         3.79148
| 52>    S       -3.03536         7.19361         3.62970
| 53>    C       -5.70125         7.99299         4.53475
| 54>    C       -6.97886         7.54083         4.15244
| 55>    C       -6.82690         6.50506         3.14389
| 56>    C       -7.81563         5.79861         2.52495
| 57>    C       -7.53771         4.79518         1.57271
| 58>    N       -7.31393         3.97325         0.80529
| 59>    C       -9.18015         6.01918         2.80733
| 60>    N      -10.28884         6.19700         3.03936
| 61>    C       -8.00551         8.18619         4.83667
| 62>    C       -7.52024         9.12120         5.73656
| 63>    S       -5.76117         9.20441         5.72961
| 64>    C       -8.26871         9.97708         6.59571
| 65>    C       -7.64913        10.87048         7.43993
| 66>    C       -8.30090        11.76354         8.28312
| 67>    C       -9.75900        11.71561         8.43371
| 68>    C      -10.56843        10.91646         7.70122
| 69>    S      -10.01384         9.83455         6.49294
| 70>    C      -10.06743        12.64594         9.46512
| 71>    C       -8.89416        13.24341         9.92545
| 72>    C       -9.14087        14.18550        10.94681
| 73>    C      -10.46702        14.27338        11.23201
| 74>    S      -11.46454        13.22988        10.27717
| 75>    C       -7.77477        12.72960         9.17616
| 76>    C       -6.44438        13.15312         9.34529
| 77>    C       -5.42455        12.92606         8.45908
| 78>    C       -4.08649        13.24997         8.71107
| 79>    C       -3.05215        12.89234         7.87342
| 80>    C       -1.65159        13.20478         8.04378
| 81>    C       -1.08444        13.95968         9.04189
| 82>    C        0.29635        14.22133         9.14760
| 83>    N        1.40779        14.47058         9.29653
| 84>    C       -1.77954        14.58304        10.09703
| 85>    N       -2.26852        15.12396        10.98542
| 86>    C       -0.91825        12.58665         6.94106
| 87>    C       -1.84834        11.90389         6.10757
| 88>    C       -3.20421        12.06584         6.65951
| 89>    O       -4.22532        11.58592         6.19210
| 90>    C       -1.45970        11.23861         4.98159
| 91>    C       -0.09338        11.23793         4.61982
| 92>    C        0.84553        11.91078         5.45271
| 93>    C        0.41233        12.58120         6.62093
| 94>    C        2.20520        11.90983         5.08212
| 95>    C        2.61796        11.29077         3.93347
| 96>    C        1.69107        10.64161         3.10495
| 97>    C        0.36566        10.60893         3.44637
| 98>    H       -0.81236        -1.70328        -3.18669
| 99>    H       -4.30941         1.81711        -3.71056
|100>    H       -5.64562         0.28262        -5.03532
|101>    H       -5.96470        -1.92362        -6.08256
|102>    H       -4.24483        -3.67106        -5.84701
|103>    H       -2.19287        -3.22737        -4.55896
|104>    H        0.80611         2.30110        -0.09225
|105>    H        1.89917         5.26583         0.27895
|106>    H        2.00213         3.73503         1.15416
|107>    H        3.16769         5.65820         2.32942
|108>    H        1.78377         7.43136         3.37176
|109>    H       -0.66869         7.58707         2.59491
|110>    H       -0.29545         6.40205         3.84795
|111>    H       -4.80844         4.86158         1.45947
|112>    H       -9.05455         7.99692         4.69548
|113>    H       -6.56983        10.84319         7.43891
|114>    H      -11.64039        10.91361         7.82075
|115>    H       -8.38732        14.76628        11.44658
|116>    H      -10.94099        14.90124        11.96092
|117>    H       -6.22888        13.71401        10.24765
|118>    H       -5.63999        12.48501         7.50171
|119>    H       -3.86169        13.77945         9.62758
|120>    H       -2.18686        10.72929         4.36581
|121>    H        1.14990        13.08231         7.22703
|122>    H        2.91410        12.41805         5.71921
|123>    H        3.66025        11.30493         3.65195
|124>    H        2.02823        10.17744         2.19031
|125>    H       -0.35325        10.11706         2.80637
|126> *
|127>
|128>                          ****END OF INPUT****

CARTESIAN COORDINATES (ANGSTROEM)
---------------------------------
  C     -1.916880    2.514420   -2.221390
  C     -2.308850    3.796180   -2.505000
  C     -3.377240    4.117050   -3.366190
  N     -4.242430    4.429030   -4.052740
  C     -1.614170    4.930710   -2.038080
  N     -1.037140    5.866060   -1.705520
  C     -2.395250    1.311850   -2.890760
  C     -1.413660    0.288040   -2.736460
  C     -1.570280   -0.943180   -3.305140
  C     -2.738380   -1.213470   -4.053410
  C     -3.731650   -0.200690   -4.192050
  C     -3.539970    1.068760   -3.600010
  C     -4.895870   -0.487990   -4.932950
  C     -5.070500   -1.713990   -5.514950
  C     -4.090890   -2.709250   -5.381120
  C     -2.950100   -2.464430   -4.665870
  C     -0.309200    0.791500   -1.900960
  O      0.722710    0.235640   -1.601600
  C     -0.759060    2.135540   -1.436490
  C     -0.149860    2.729730   -0.379190
  C     -0.651020    3.764730    0.450910
  S     -2.357740    3.981940    0.717830
  C     -2.069800    5.305240    1.808240
  C     -0.712120    5.558680    1.940690
  C      0.082270    4.668620    1.201790
  C      1.574130    4.740380    1.182950
  C      2.086650    5.496040    2.417260
  C      1.841630    4.714060    3.608540
  N      1.625240    4.100300    4.547430
  C      1.360040    6.853210    2.540290
  C      1.575610    7.616630    1.330850
  N      1.763190    8.228080    0.384590
  C     -0.141870    6.648690    2.791310
  C     -3.189120    5.926950    2.417440
  C     -4.515840    5.611840    2.171920
  C     -5.392200    6.369250    2.943350
  C     -4.732290    7.275150    3.791480
  S     -3.035360    7.193610    3.629700
  C     -5.701250    7.992990    4.534750
  C     -6.978860    7.540830    4.152440
  C     -6.826900    6.505060    3.143890
  C     -7.815630    5.798610    2.524950
  C     -7.537710    4.795180    1.572710
  N     -7.313930    3.973250    0.805290
  C     -9.180150    6.019180    2.807330
  N    -10.288840    6.197000    3.039360
  C     -8.005510    8.186190    4.836670
  C     -7.520240    9.121200    5.736560
  S     -5.761170    9.204410    5.729610
  C     -8.268710    9.977080    6.595710
  C     -7.649130   10.870480    7.439930
  C     -8.300900   11.763540    8.283120
  C     -9.759000   11.715610    8.433710
  C    -10.568430   10.916460    7.701220
  S    -10.013840    9.834550    6.492940
  C    -10.067430   12.645940    9.465120
  C     -8.894160   13.243410    9.925450
  C     -9.140870   14.185500   10.946810
  C    -10.467020   14.273380   11.232010
  S    -11.464540   13.229880   10.277170
  C     -7.774770   12.729600    9.176160
  C     -6.444380   13.153120    9.345290
  C     -5.424550   12.926060    8.459080
  C     -4.086490   13.249970    8.711070
  C     -3.052150   12.892340    7.873420
  C     -1.651590   13.204780    8.043780
  C     -1.084440   13.959680    9.041890
  C      0.296350   14.221330    9.147600
  N      1.407790   14.470580    9.296530
  C     -1.779540   14.583040   10.097030
  N     -2.268520   15.123960   10.985420
  C     -0.918250   12.586650    6.941060
  C     -1.848340   11.903890    6.107570
  C     -3.204210   12.065840    6.659510
  O     -4.225320   11.585920    6.192100
  C     -1.459700   11.238610    4.981590
  C     -0.093380   11.237930    4.619820
  C      0.845530   11.910780    5.452710
  C      0.412330   12.581200    6.620930
  C      2.205200   11.909830    5.082120
  C      2.617960   11.290770    3.933470
  C      1.691070   10.641610    3.104950
  C      0.365660   10.608930    3.446370
  H     -0.812360   -1.703280   -3.186690
  H     -4.309410    1.817110   -3.710560
  H     -5.645620    0.282620   -5.035320
  H     -5.964700   -1.923620   -6.082560
  H     -4.244830   -3.671060   -5.847010
  H     -2.192870   -3.227370   -4.558960
  H      0.806110    2.301100   -0.092250
  H      1.899170    5.265830    0.278950
  H      2.002130    3.735030    1.154160
  H      3.167690    5.658200    2.329420
  H      1.783770    7.431360    3.371760
  H     -0.668690    7.587070    2.594910
  H     -0.295450    6.402050    3.847950
  H     -4.808440    4.861580    1.459470
  H     -9.054550    7.996920    4.695480
  H     -6.569830   10.843190    7.438910
  H    -11.640390   10.913610    7.820750
  H     -8.387320   14.766280   11.446580
  H    -10.940990   14.901240   11.960920
  H     -6.228880   13.714010   10.247650
  H     -5.639990   12.485010    7.501710
  H     -3.861690   13.779450    9.627580
  H     -2.186860   10.729290    4.365810
  H      1.149900   13.082310    7.227030
  H      2.914100   12.418050    5.719210
  H      3.660250   11.304930    3.651950
  H      2.028230   10.177440    2.190310
  H     -0.353250   10.117060    2.806370

 Total Charge           Charge          ....    0
 Multiplicity           Mult            ....    1
 Number of Electrons    NEL             ....  588
 Basis Dimension        Dim             .... 1322

ORBITAL ENERGIES
----------------

  NO   OCC          E(Eh)            E(eV)
   0   2.0000     -89.005475     -2421.9621
   1   2.0000     -88.997262     -2421.7386
   2   2.0000     -88.995759     -2421.6977
   3   2.0000     -88.978613     -2421.2312
   4   2.0000     -88.966527     -2420.9023
   5   2.0000     -19.216653      -522.9117
   6   2.0000     -19.214022      -522.8401
   7   2.0000     -14.437637      -392.8681
   8   2.0000     -14.437021      -392.8513
   9   2.0000     -14.425404      -392.5352
  10   2.0000     -14.424324      -392.5058
  11   2.0000     -14.416163      -392.2837
  12   2.0000     -14.415741      -392.2722
  13   2.0000     -14.408201      -392.0671
  14   2.0000     -14.405696      -391.9989
  15   2.0000     -10.372636      -282.2538
  16   2.0000     -10.368128      -282.1311
  17   2.0000     -10.363669      -282.0098
  18   2.0000     -10.359966      -281.9090
  19   2.0000     -10.352793      -281.7138
  20   2.0000     -10.352239      -281.6987
  21   2.0000     -10.349076      -281.6127
  22   2.0000     -10.344758      -281.4952
  23   2.0000     -10.343937      -281.4728
  24   2.0000     -10.342530      -281.4345
  25   2.0000     -10.342124      -281.4235
  26   2.0000     -10.341301      -281.4011
  27   2.0000     -10.340465      -281.3784
  28   2.0000     -10.337717      -281.3036
  29   2.0000     -10.337456      -281.2965
  30   2.0000     -10.337047      -281.2854
  31   2.0000     -10.335400      -281.2405
  32   2.0000     -10.332114      -281.1511
  33   2.0000     -10.330672      -281.1119
  34   2.0000     -10.325899      -280.9820
  35   2.0000     -10.323467      -280.9158
  36   2.0000     -10.323412      -280.9143
  37   2.0000     -10.322464      -280.8885
  38   2.0000     -10.318254      -280.7740
  39   2.0000     -10.317948      -280.7656
  40   2.0000     -10.317883      -280.7639
  41   2.0000     -10.315468      -280.6981
  42   2.0000     -10.314820      -280.6805
  43   2.0000     -10.314673      -280.6765
  44   2.0000     -10.313034      -280.6319
  45   2.0000     -10.312922      -280.6289
  46   2.0000     -10.311899      -280.6010
  47   2.0000     -10.311771      -280.5976
  48   2.0000     -10.311130      -280.5801
  49   2.0000     -10.310191      -280.5546
  50   2.0000     -10.309679      -280.5406
  51   2.0000     -10.309562      -280.5374
  52   2.0000     -10.308848      -280.5180
  53   2.0000     -10.307041      -280.4688
  54   2.0000     -10.306184      -280.4455
  55   2.0000     -10.304744      -280.4063
  56   2.0000     -10.304422      -280.3976
  57   2.0000     -10.302112      -280.3347
  58   2.0000     -10.298650      -280.2405
  59   2.0000     -10.298487      -280.2361
  60   2.0000     -10.298378      -280.2331
  61   2.0000     -10.298057      -280.2244
  62   2.0000     -10.297648      -280.2133
  63   2.0000     -10.297480      -280.2087
  64   2.0000     -10.297017      -280.1961
  65   2.0000     -10.295832      -280.1638
  66   2.0000     -10.295752      -280.1617
  67   2.0000     -10.292895      -280.0839
  68   2.0000     -10.290788      -280.0266
  69   2.0000     -10.288469      -279.9635
  70   2.0000     -10.287299      -279.9316
  71   2.0000     -10.286908      -279.9210
  72   2.0000     -10.286420      -279.9077
  73   2.0000     -10.286140      -279.9001
  74   2.0000     -10.286096      -279.8989
  75   2.0000     -10.286050      -279.8976
  76   2.0000     -10.285518      -279.8832
  77   2.0000     -10.285313      -279.8776
  78   2.0000     -10.285135      -279.8727
  79   2.0000     -10.284707      -279.8611
  80   2.0000     -10.284406      -279.8529
  81   2.0000     -10.283671      -279.8329
  82   2.0000     -10.273749      -279.5629
  83   2.0000      -8.098918      -220.3828
  84   2.0000      -8.092282      -220.2022
  85   2.0000      -8.089443      -220.1249
  86   2.0000      -8.073338      -219.6867
  87   2.0000      -8.061832      -219.3736
  88   2.0000      -6.068265      -165.1259
  89   2.0000      -6.063969      -165.0090
  90   2.0000      -6.061771      -164.9492
  91   2.0000      -6.061414      -164.9395
  92   2.0000      -6.058666      -164.8647
  93   2.0000      -6.057151      -164.8235
  94   2.0000      -6.054413      -164.7490
  95   2.0000      -6.054387      -164.7482
  96   2.0000      -6.051890      -164.6803
  97   2.0000      -6.042802      -164.4330
  98   2.0000      -6.038640      -164.3197
  99   2.0000      -6.035154      -164.2249
 100   2.0000      -6.031283      -164.1195
 101   2.0000      -6.027023      -164.0036
 102   2.0000      -6.023884      -163.9182
 103   2.0000      -1.131603       -30.7925
 104   2.0000      -1.126490       -30.6533
 105   2.0000      -1.054658       -28.6987
 106   2.0000      -1.034352       -28.1462
 107   2.0000      -1.029376       -28.0108
 108   2.0000      -1.022778       -27.8312
 109   2.0000      -1.020806       -27.7775
 110   2.0000      -1.015240       -27.6261
 111   2.0000      -1.014003       -27.5924
 112   2.0000      -1.010578       -27.4992
 113   2.0000      -1.009955       -27.4823
 114   2.0000      -1.004551       -27.3352
 115   2.0000      -0.999149       -27.1882
 116   2.0000      -0.993965       -27.0472
 117   2.0000      -0.993919       -27.0459
 118   2.0000      -0.985866       -26.8268
 119   2.0000      -0.985574       -26.8188
 120   2.0000      -0.973404       -26.4877
 121   2.0000      -0.968525       -26.3549
 122   2.0000      -0.967879       -26.3373
 123   2.0000      -0.964084       -26.2340
 124   2.0000      -0.943848       -25.6834
 125   2.0000      -0.932246       -25.3677
 126   2.0000      -0.925680       -25.1890
 127   2.0000      -0.922153       -25.0930
 128   2.0000      -0.915646       -24.9160
 129   2.0000      -0.907876       -24.7046
 130   2.0000      -0.899390       -24.4736
 131   2.0000      -0.895366       -24.3641
 132   2.0000      -0.885922       -24.1072
 133   2.0000      -0.885142       -24.0860
 134   2.0000      -0.882224       -24.0065
 135   2.0000      -0.878570       -23.9071
 136   2.0000      -0.878063       -23.8933
 137   2.0000      -0.872296       -23.7364
 138   2.0000      -0.864379       -23.5210
 139   2.0000      -0.860028       -23.4026
 140   2.0000      -0.846857       -23.0441
 141   2.0000      -0.839549       -22.8453
 142   2.0000      -0.829042       -22.5594
 143   2.0000      -0.826783       -22.4979
 144   2.0000      -0.826369       -22.4866
 145   2.0000      -0.808641       -22.0042
 146   2.0000      -0.803012       -21.8511
 147   2.0000      -0.793441       -21.5906
 148   2.0000      -0.786547       -21.4030
 149   2.0000      -0.777299       -21.1514
 150   2.0000      -0.769000       -20.9256
 151   2.0000      -0.763699       -20.7813
 152   2.0000      -0.759727       -20.6732
 153   2.0000      -0.756999       -20.5990
 154   2.0000      -0.742920       -20.2159
 155   2.0000      -0.739360       -20.1190
 156   2.0000      -0.724528       -19.7154
 157   2.0000      -0.710815       -19.3423
 158   2.0000      -0.708023       -19.2663
 159   2.0000      -0.703081       -19.1318
 160   2.0000      -0.702395       -19.1131
 161   2.0000      -0.699978       -19.0474
 162   2.0000      -0.692590       -18.8463
 163   2.0000      -0.691632       -18.8203
 164   2.0000      -0.685822       -18.6622
 165   2.0000      -0.678599       -18.4656
 166   2.0000      -0.677609       -18.4387
 167   2.0000      -0.667549       -18.1649
 168   2.0000      -0.666629       -18.1399
 169   2.0000      -0.660261       -17.9666
 170   2.0000      -0.649842       -17.6831
 171   2.0000      -0.645157       -17.5556
 172   2.0000      -0.639918       -17.4130
 173   2.0000      -0.635904       -17.3038
 174   2.0000      -0.629565       -17.1313
 175   2.0000      -0.628299       -17.0969
 176   2.0000      -0.627066       -17.0633
 177   2.0000      -0.623721       -16.9723
 178   2.0000      -0.615850       -16.7581
 179   2.0000      -0.614235       -16.7142
 180   2.0000      -0.608864       -16.5680
 181   2.0000      -0.607551       -16.5323
 182   2.0000      -0.605588       -16.4789
 183   2.0000      -0.604361       -16.4455
 184   2.0000      -0.594081       -16.1658
 185   2.0000      -0.589568       -16.0430
 186   2.0000      -0.583932       -15.8896
 187   2.0000      -0.578979       -15.7548
 188   2.0000      -0.573698       -15.6111
 189   2.0000      -0.567427       -15.4405
 190   2.0000      -0.565181       -15.3793
 191   2.0000      -0.561048       -15.2669
 192   2.0000      -0.557338       -15.1659
 193   2.0000      -0.554233       -15.0814
 194   2.0000      -0.550007       -14.9665
 195   2.0000      -0.549099       -14.9417
 196   2.0000      -0.546306       -14.8657
 197   2.0000      -0.546157       -14.8617
 198   2.0000      -0.542617       -14.7654
 199   2.0000      -0.541210       -14.7271
 200   2.0000      -0.537100       -14.6152
 201   2.0000      -0.535663       -14.5761
 202   2.0000      -0.533249       -14.5104
 203   2.0000      -0.532412       -14.4877
 204   2.0000      -0.529425       -14.4064
 205   2.0000      -0.527917       -14.3654
 206   2.0000      -0.526722       -14.3328
 207   2.0000      -0.521544       -14.1919
 208   2.0000      -0.521188       -14.1822
 209   2.0000      -0.518998       -14.1226
 210   2.0000      -0.517739       -14.0884
 211   2.0000      -0.515766       -14.0347
 212   2.0000      -0.513759       -13.9801
 213   2.0000      -0.512063       -13.9339
 214   2.0000      -0.511477       -13.9180
 215   2.0000      -0.507298       -13.8043
 216   2.0000      -0.505609       -13.7583
 217   2.0000      -0.503930       -13.7126
 218   2.0000      -0.502257       -13.6671
 219   2.0000      -0.501502       -13.6466
 220   2.0000      -0.498668       -13.5694
 221   2.0000      -0.494271       -13.4498
 222   2.0000      -0.491396       -13.3716
 223   2.0000      -0.489206       -13.3120
 224   2.0000      -0.488909       -13.3039
 225   2.0000      -0.484895       -13.1947
 226   2.0000      -0.482522       -13.1301
 227   2.0000      -0.481535       -13.1032
 228   2.0000      -0.480652       -13.0792
 229   2.0000      -0.474263       -12.9054
 230   2.0000      -0.471669       -12.8348
 231   2.0000      -0.468080       -12.7371
 232   2.0000      -0.466697       -12.6995
 233   2.0000      -0.465762       -12.6740
 234   2.0000      -0.464337       -12.6353
 235   2.0000      -0.463060       -12.6005
 236   2.0000      -0.460362       -12.5271
 237   2.0000      -0.458335       -12.4719
 238   2.0000      -0.454701       -12.3731
 239   2.0000      -0.452790       -12.3210
 240   2.0000      -0.450215       -12.2510
 241   2.0000      -0.450021       -12.2457
 242   2.0000      -0.449007       -12.2181
 243   2.0000      -0.447223       -12.1696
 244   2.0000      -0.446950       -12.1621
 245   2.0000      -0.445046       -12.1103
 246   2.0000      -0.444632       -12.0991
 247   2.0000      -0.443493       -12.0680
 248   2.0000      -0.441830       -12.0228
 249   2.0000      -0.441037       -12.0012
 250   2.0000      -0.439686       -11.9645
 251   2.0000      -0.438404       -11.9296
 252   2.0000      -0.436922       -11.8893
 253   2.0000      -0.435921       -11.8620
 254   2.0000      -0.434705       -11.8289
 255   2.0000      -0.433949       -11.8084
 256   2.0000      -0.432305       -11.7636
 257   2.0000      -0.430620       -11.7178
 258   2.0000      -0.430024       -11.7016
 259   2.0000      -0.428832       -11.6691
 260   2.0000      -0.426414       -11.6033
 261   2.0000      -0.425965       -11.5911
 262   2.0000      -0.422330       -11.4922
 263   2.0000      -0.420407       -11.4399
 264   2.0000      -0.418743       -11.3946
 265   2.0000      -0.418589       -11.3904
 266   2.0000      -0.415543       -11.3075
 267   2.0000      -0.413672       -11.2566
 268   2.0000      -0.413321       -11.2470
 269   2.0000      -0.409300       -11.1376
 270   2.0000      -0.408895       -11.1266
 271   2.0000      -0.405441       -11.0326
 272   2.0000      -0.402434       -10.9508
 273   2.0000      -0.398828       -10.8527
 274   2.0000      -0.383989       -10.4489
 275   2.0000      -0.383168       -10.4265
 276   2.0000      -0.374115       -10.1802
 277   2.0000      -0.371121       -10.0987
 278   2.0000      -0.358748        -9.7620
 279   2.0000      -0.356003        -9.6873
 280   2.0000      -0.348370        -9.4796
 281   2.0000      -0.337639        -9.1876
 282   2.0000      -0.335706        -9.1350
 283   2.0000      -0.334649        -9.1063
 284   2.0000      -0.329315        -8.9611
 285   2.0000      -0.320451        -8.7199
 286   2.0000      -0.319425        -8.6920
 287   2.0000      -0.313932        -8.5425
 288   2.0000      -0.310580        -8.4513
 289   2.0000      -0.295725        -8.0471
 290   2.0000      -0.293130        -7.9765
 291   2.0000      -0.288367        -7.8469
 292   2.0000      -0.265917        -7.2360
 293   2.0000      -0.239434        -6.5153
 294   0.0000      -0.116845        -3.1795
 295   0.0000      -0.100329        -2.7301
 296   0.0000      -0.096028        -2.6130
 297   0.0000      -0.062618        -1.7039
 298   0.0000      -0.057982        -1.5778

MULLIKEN ATOMIC CHARGES
-----------------------
   0 C :    0.245724
   1 C :   -0.320212
   2 C :   -0.177792
   3 N :    0.156575
   4 C :   -0.196023
   5 N :    0.172468
   6 C :    0.037137
   7 C :    0.011824
   8 C :   -0.086091
   9 C :    0.098031
  10 C :    0.096966
  11 C :   -0.081086
  12 C :   -0.019416
  13 C :    0.037560
  14 C :    0.038400
  15 C :   -0.019506
  16 C :    0.143067
  17 O :   -0.141882
  18 C :   -0.135129
  19 C :    0.030539
  20 C :   -0.151437
  21 S :    0.159219
  22 C :   -0.064739
  23 C :   -0.078272
  24 C :   -0.006442
  25 C :    0.158980
  26 C :   -0.090316
  27 C :   -0.244025
  28 N :    0.149420
  29 C :   -0.058943
  30 C :   -0.225590
  31 N :    0.137870
  32 C :    0.108179
  33 C :   -0.070403
  34 C :   -0.063712
  35 C :    0.033819
  36 C :   -0.084566
  37 S :    0.158286
  38 C :   -0.085667
  39 C :    0.008984
  40 C :    0.300195
  41 C :   -0.291174
  42 C :   -0.186428
  43 N :    0.174716
  44 C :   -0.187301
  45 N :    0.174718
  46 C :   -0.053972
  47 C :   -0.073648
  48 S :    0.233099
  49 C :   -0.013564
  50 C :   -0.100297
  51 C :    0.075596
  52 C :    0.056865
  53 C :   -0.122544
  54 S :    0.160536
  55 C :   -0.110525
  56 C :    0.062055
  57 C :    0.009273
  58 C :   -0.066527
  59 S :    0.136430
  60 C :    0.076436
  61 C :    0.007488
  62 C :   -0.038605
  63 C :   -0.016313
  64 C :   -0.097485
  65 C :    0.340280
  66 C :   -0.363527
  67 C :   -0.183754
  68 N :    0.138277
  69 C :   -0.191838
  70 N :    0.138342
  71 C :    0.043957
  72 C :    0.009573
  73 C :    0.150983
  74 O :   -0.190185
  75 C :   -0.093637
  76 C :    0.109217
  77 C :    0.092284
  78 C :   -0.085021
  79 C :   -0.015639
  80 C :    0.031234
  81 C :    0.019364
  82 C :   -0.043502
  83 H :   -0.010711
  84 H :   -0.000740
  85 H :   -0.008004
  86 H :   -0.004038
  87 H :   -0.005351
  88 H :   -0.016172
  89 H :    0.021258
  90 H :    0.071606
  91 H :    0.044362
  92 H :    0.059093
  93 H :    0.059310
  94 H :    0.051111
  95 H :    0.060120
  96 H :    0.022125
  97 H :    0.019706
  98 H :    0.011774
  99 H :    0.045759
 100 H :   -0.009371
 101 H :    0.032838
 102 H :   -0.002789
 103 H :    0.022987
 104 H :    0.007305
 105 H :   -0.035307
 106 H :   -0.009592
 107 H :   -0.008077
 108 H :   -0.005593
 109 H :    0.005088
 110 H :   -0.015928
Sum of atomic charges:   -0.0000000

LOEWDIN ATOMIC CHARGES
----------------------
   0 C :    0.060424
   1 C :   -0.138845
   2 C :   -0.019691
   3 N :   -0.047488
   4 C :   -0.030997
   5 N :   -0.050297
   6 C :   -0.022812
   7 C :   -0.057846
   8 C :    0.033361
   9 C :   -0.008781
  10 C :   -0.004526
  11 C :    0.018029
  12 C :   -0.005435
  13 C :   -0.011951
  14 C :   -0.012387
  15 C :   -0.009271
  16 C :    0.083681
  17 O :   -0.143456
  18 C :   -0.089612
  19 C :    0.044335
  20 C :   -0.180381
  21 S :    0.484212
  22 C :   -0.154475
  23 C :   -0.062200
  24 C :   -0.019629
  25 C :   -0.003367
  26 C :   -0.033776
  27 C :   -0.037697
  28 N :   -0.047140
  29 C :   -0.030856
  30 C :   -0.033299
  31 N :   -0.043504
  32 C :   -0.021422
  33 C :   -0.178668
  34 C :   -0.027261
  35 C :   -0.061622
  36 C :   -0.180526
  37 S :    0.493672
  38 C :   -0.177609
  39 C :   -0.069990
  40 C :    0.080878
  41 C :   -0.098184
  42 C :   -0.016821
  43 N :   -0.028167
  44 C :   -0.015788
  45 N :   -0.030327
  46 C :   -0.032994
  47 C :   -0.186889
  48 S :    0.538956
  49 C :   -0.163528
  50 C :   -0.031025
  51 C :    0.013005
  52 C :   -0.043389
  53 C :   -0.138154
  54 S :    0.488923
  55 C :   -0.208073
  56 C :   -0.034601
  57 C :   -0.061719
  58 C :   -0.158739
  59 S :    0.427744
  60 C :   -0.065239
  61 C :    0.047640
  62 C :   -0.058958
  63 C :    0.069735
  64 C :   -0.114146
  65 C :    0.074881
  66 C :   -0.150751
  67 C :   -0.017770
  68 N :   -0.063980
  69 C :   -0.019903
  70 N :   -0.062662
  71 C :   -0.022218
  72 C :   -0.052323
  73 C :    0.087535
  74 O :   -0.185068
  75 C :    0.020205
  76 C :   -0.010663
  77 C :   -0.007602
  78 C :    0.017797
  79 C :   -0.003872
  80 C :   -0.017420
  81 C :   -0.019171
  82 C :   -0.019832
  83 H :    0.039619
  84 H :    0.040052
  85 H :    0.035157
  86 H :    0.033520
  87 H :    0.032876
  88 H :    0.032023
  89 H :    0.047673
  90 H :    0.054967
  91 H :    0.045563
  92 H :    0.063655
  93 H :    0.063567
  94 H :    0.033013
  95 H :    0.042574
  96 H :    0.036897
  97 H :    0.035365
  98 H :    0.032688
  99 H :    0.040648
 100 H :    0.033560
 101 H :    0.026056
 102 H :    0.036692
 103 H :    0.027220
 104 H :    0.040917
 105 H :    0.029501
 106 H :    0.039072
 107 H :    0.035207
 108 H :    0.033104
 109 H :    0.033523
 110 H :    0.027065

  Mayer bond orders larger than 0.100000
B(  0-C ,  1-C ) :   1.6625 B(  0-C ,  6-C ) :   1.0028 B(  0-C , 18-C ) :   1.0273
B(  1-C ,  2-C ) :   1.1358 B(  1-C ,  4-C ) :   1.1572 B(  2-C ,  3-N ) :   2.9911
B(  4-C ,  5-N ) :   3.0112 B(  6-C ,  7-C ) :   1.2124 B(  6-C , 11-C ) :   1.4593
B(  7-C ,  8-C ) :   1.4742 B(  7-C , 16-C ) :   0.9240 B(  8-C ,  9-C ) :   1.1861
B(  8-C , 83-H ) :   1.0157 B(  9-C , 10-C ) :   1.2550 B(  9-C , 15-C ) :   1.2448
B( 10-C , 11-C ) :   1.2038 B( 10-C , 12-C ) :   1.2420 B( 11-C , 84-H ) :   0.9941
B( 12-C , 13-C ) :   1.4903 B( 12-C , 85-H ) :   0.9971 B( 13-C , 14-C ) :   1.2605
B( 13-C , 86-H ) :   0.9881 B( 14-C , 15-C ) :   1.4908 B( 14-C , 87-H ) :   0.9879
B( 15-C , 88-H ) :   0.9972 B( 16-C , 17-O ) :   2.2680 B( 16-C , 18-C ) :   0.9325
B( 18-C , 19-C ) :   1.6868 B( 19-C , 20-C ) :   1.1063 B( 19-C , 89-H ) :   0.9349
B( 20-C , 21-S ) :   1.1091 B( 20-C , 22-C ) :   0.1018 B( 20-C , 24-C ) :   1.4709
B( 21-S , 22-C ) :   1.1518 B( 22-C , 23-C ) :   1.4955 B( 22-C , 33-C ) :   1.1687
B( 23-C , 24-C ) :   1.3287 B( 23-C , 32-C ) :   1.0379 B( 24-C , 25-C ) :   1.0473
B( 25-C , 26-C ) :   1.0584 B( 25-C , 90-H ) :   0.8988 B( 25-C , 91-H ) :   0.9059
B( 26-C , 27-C ) :   1.1021 B( 26-C , 29-C ) :   1.0808 B( 26-C , 92-H ) :   0.8575
B( 27-C , 28-N ) :   3.1087 B( 29-C , 30-C ) :   1.1156 B( 29-C , 32-C ) :   1.0548
B( 29-C , 93-H ) :   0.8561 B( 30-C , 31-N ) :   3.0226 B( 32-C , 94-H ) :   0.9075
B( 32-C , 95-H ) :   0.8997 B( 33-C , 34-C ) :   1.4343 B( 33-C , 37-S ) :   1.0968
B( 34-C , 35-C ) :   1.3134 B( 34-C , 96-H ) :   0.9849 B( 35-C , 36-C ) :   1.4289
B( 35-C , 40-C ) :   0.9911 B( 36-C , 37-S ) :   1.1240 B( 36-C , 38-C ) :   1.1800
B( 38-C , 39-C ) :   1.4159 B( 38-C , 48-S ) :   1.1537 B( 39-C , 40-C ) :   1.0039
B( 39-C , 46-C ) :   1.3227 B( 40-C , 41-C ) :   1.7131 B( 41-C , 42-C ) :   1.1334
B( 41-C , 44-C ) :   1.1349 B( 42-C , 43-N ) :   2.9874 B( 44-C , 45-N ) :   2.9906
B( 46-C , 47-C ) :   1.4396 B( 46-C , 97-H ) :   0.9799 B( 47-C , 48-S ) :   1.1159
B( 47-C , 49-C ) :   1.1721 B( 49-C , 50-C ) :   1.4867 B( 49-C , 54-S ) :   1.0858
B( 50-C , 51-C ) :   1.2833 B( 50-C , 98-H ) :   0.9545 B( 51-C , 52-C ) :   1.0773
B( 51-C , 60-C ) :   1.3210 B( 52-C , 53-C ) :   1.5860 B( 52-C , 55-C ) :   1.1731
B( 53-C , 54-S ) :   1.1513 B( 53-C , 99-H ) :   0.9411 B( 55-C , 56-C ) :   1.4482
B( 55-C , 59-S ) :   1.0765 B( 56-C , 57-C ) :   1.2303 B( 56-C , 60-C ) :   1.0826
B( 57-C , 58-C ) :   1.5809 B( 57-C ,100-H ) :   0.9990 B( 58-C , 59-S ) :   1.1598
B( 58-C ,101-H ) :   0.9660 B( 60-C , 61-C ) :   1.2015 B( 61-C , 62-C ) :   1.4534
B( 61-C ,102-H ) :   0.9762 B( 62-C , 63-C ) :   1.2429 B( 62-C ,103-H ) :   0.9755
B( 63-C , 64-C ) :   1.4443 B( 63-C ,104-H ) :   0.9637 B( 64-C , 65-C ) :   1.0895
B( 64-C , 73-C ) :   0.9844 B( 65-C , 66-C ) :   1.6051 B( 65-C , 71-C ) :   0.9763
B( 66-C , 67-C ) :   1.1500 B( 66-C , 69-C ) :   1.1512 B( 67-C , 68-N ) :   2.9575
B( 69-C , 70-N ) :   2.9581 B( 71-C , 72-C ) :   1.2168 B( 71-C , 78-C ) :   1.4613
B( 72-C , 73-C ) :   0.9534 B( 72-C , 75-C ) :   1.4691 B( 73-C , 74-O ) :   2.1077
B( 75-C , 76-C ) :   1.1746 B( 75-C ,105-H ) :   1.0139 B( 76-C , 77-C ) :   1.2617
B( 76-C , 82-C ) :   1.2380 B( 77-C , 78-C ) :   1.1956 B( 77-C , 79-C ) :   1.2433
B( 78-C ,106-H ) :   0.9897 B( 79-C , 80-C ) :   1.4808 B( 79-C ,107-H ) :   0.9980
B( 80-C , 81-C ) :   1.2594 B( 80-C ,108-H ) :   0.9912 B( 81-C , 82-C ) :   1.4801
B( 81-C ,109-H ) :   0.9804 B( 82-C ,110-H ) :   0.9944

-----------------------------------------------------------------------------
         ABSORPTION SPECTRUM VIA TRANSITION ELECTRIC DIPOLE MOMENTS
-----------------------------------------------------------------------------
State   Energy  Wavelength   fosc         T2         TX        TY        TZ
        (cm-1)    (nm)                  (au**2)     (au)      (au)      (au)
-----------------------------------------------------------------------------
   0   11047.9    905.1   0.232742555   6.93540  -0.21627   1.98111   1.72158
   1   14362.5    696.3   0.491013179  11.25484  -2.41140  -2.01417  -1.17605
   2   17047.1    586.6   0.065250958   1.26012  -0.63323   0.56948   0.73132
   3   18483.8    541.0   0.770422338  13.72187  -2.15637   1.57408   2.56791
   4   22428.3    445.9   0.505315676   7.41724   2.58016  -0.40177  -0.77369
   5   22950.5    435.7   0.136039871   1.95141   1.39090   0.03119  -0.12586
   6   23569.8    424.3   0.060176379   0.84051   0.71067   0.02723   0.57855
   7   23903.9    418.3   0.023494709   0.32358   0.52154  -0.04739  -0.22209
   8   24263.5    412.1   0.131481147   1.78396  -1.19583   0.44866   0.39071
   9   25384.6    393.9   0.032955853   0.42740   0.42367   0.47221   0.15788
  10   25623.5    390.3   0.035095553   0.45091   0.59919   0.17552  -0.24712
  11   26206.6    381.6   0.304331800   3.82306  -0.85048   1.15380   1.32985
  12   26629.8    375.5   0.335081926   4.14246   0.93445  -1.37413  -1.17517
  13   27550.4    363.0   0.013741305   0.16420  -0.39778   0.07230   0.02736
  14   27676.7    361.3   0.004318747   0.05137   0.05496   0.20779  -0.07193
  15   27888.0    358.6   0.021770303   0.25699   0.31163  -0.10291  -0.38638
  16   28490.5    351.0   0.120520382   1.39263  -0.57534   0.95056   0.39756
  17   28516.2    350.7   0.114066504   1.31687  -0.98952   0.55346   0.17719
  18   28799.4    347.2   0.016649596   0.19033  -0.10030  -0.42215   0.04530
  19   29444.0    339.6   0.042007905   0.46969   0.21384  -0.58172  -0.29251
  20   29729.2    336.4   0.009316203   0.10316   0.20247  -0.07936   0.23638
  21   30162.6    331.5   0.070534629   0.76986   0.64544   0.50822   0.30818
  22   30480.1    328.1   0.052258983   0.56444   0.73822   0.08530   0.11043
  23   30875.3    323.9   0.382610778   4.07964  -0.75024  -1.40087  -1.24673
  24   31151.0    321.0   0.021744005   0.22980   0.46121   0.13003   0.01328
  25   31285.3    319.6   0.176425333   1.85651  -1.33400  -0.14580   0.23601
  26   31510.2    317.4   0.158822872   1.65935  -0.24169  -0.72421  -1.03753
  27   32020.7    312.3   0.082135598   0.84445   0.49777   0.38941   0.66711
  28   32229.3    310.3   0.049998926   0.51072  -0.48721   0.19216   0.48624
  29   32385.2    308.8   0.092613924   0.94147   0.93246   0.25456  -0.08473
  30   32502.6    307.7   0.046437208   0.47035  -0.45753  -0.37545  -0.34649
  31   32832.7    304.6   0.122016818   1.22346  -0.12116   0.95565   0.54361
  32   32937.9    303.6   0.310450025   3.10292   0.34211  -1.50473  -0.84952
  33   33087.9    302.2   0.024456474   0.24333   0.16725   0.04895  -0.46148
  34   33369.4    299.7   0.142104741   1.40196   0.26886   0.97350   0.61804
  35   33664.5    297.0   0.035292404   0.34513  -0.18158  -0.06565   0.55484
  36   33959.2    294.5   0.218191196   2.11522   0.87264  -0.70201  -0.92785
  37   34077.3    293.5   0.540564234   5.22224  -1.29025   1.14924   1.49557
  38   34286.1    291.7   0.147219328   1.41359   1.16909  -0.18642   0.10983
  39   34413.6    290.6   0.217090526   2.07676   0.90671   1.11510   0.10576
  40   34749.4    287.8   0.371199863   3.51670  -0.73077   0.89755   1.47550
  41   34828.9    287.1   0.213500298   2.01806  -1.27340  -0.51910  -0.35645
  42   34974.4    285.9   0.351091900   3.30481   0.77748   1.36705   0.91187
  43   35268.6    283.5   0.131337225   1.22596   0.99849  -0.44969  -0.16355
  44   35748.4    279.7   0.160335352   1.47655  -0.87212  -0.64282  -0.55022
  45   36234.8    276.0   0.021895921   0.19894   0.15728   0.27866   0.31072
  46   36526.8    273.8   0.020640077   0.18603  -0.28671   0.13361   0.29321
  47   36877.4    271.2   0.143179096   1.27819   1.04030   0.41075   0.16509
  48   36982.2    270.4   0.056873253   0.50628  -0.05053   0.32535   0.63077
  49   37131.5    269.3   0.063912968   0.56666  -0.29221   0.45934   0.51989
  50   37531.4    266.4   0.168159511   1.47504   0.23803  -0.68031  -0.97753
  51   37641.0    265.7   0.085794646   0.75037  -0.47933  -0.59006  -0.41526
  52   37769.3    264.8   0.001174211   0.01023  -0.06943   0.04073   0.06129
  53   38110.7    262.4   0.120272397   1.03895   0.32494   0.68575   0.68052
  54   38449.8    260.1   0.055353141   0.47394   0.23238  -0.63965   0.10390
  55   38777.2    257.9   0.050774610   0.43107   0.58694  -0.10627   0.27437
  56   39156.5    255.4   0.103863953   0.87325  -0.71788  -0.39349  -0.45063
  57   39344.2    254.2   0.033070496   0.27672  -0.18659   0.37982   0.31247
  58   39452.6    253.5   0.156035410   1.30204   0.37218   0.79725   0.72657
  59   39856.2    250.9   0.008390113   0.06930  -0.23225   0.08090  -0.09390
  60   40033.3    249.8   0.031564876   0.25957  -0.44271   0.13638   0.21209
  61   40250.6    248.4   0.118905015   0.97253  -0.84553   0.50651   0.03254

FINAL SINGLE POINT ENERGY     -5182.664299384493

DIPOLE MOMENT
-------------
                                X             Y             Z
Electronic contribution:    -28.72450       9.13036      13.64114
Nuclear contribution   :     26.95481     -11.14508     -13.83213
                        -----------------------------------------
Total Dipole Moment    :     -1.76970      -2.01472      -0.19099
                        -----------------------------------------
Magnitude (a.u.)       :      2.68838
Magnitude (Debye)      :      6.83332

Rotational constants in cm-1:     0.001016     0.000331     0.000259
Rotational constants in MHz :    30.469646     9.917310     7.755695

                             ****ORCA TERMINATED NORMALLY****
TOTAL RUN TIME: 0 days 0 hours 15 minutes 25 seconds 774 msec
