                         Program Version 4.2.0 -  RELEASE  -
|  1> # ORCA input file
|  2> # SCF done       -216.392286650024          0.000729604370
|  3> ! CAM-B3LYP def2-SVP def2/J RIJCOSX Grid4 TightSCF
|  4> %maxcore 5000
|  5> %tddft
|  6>     Mode sTDDFT
|  7>     Ethresh 5.0
|  8>     maxcore 5000
|  9> end
| 10>
| 11> %pal
| 12>   nprocs 6
| 13>   end
| 14> * xyz 0 1
| 15>    C        9.10544         1.94981        -1.94248
| 16>    C        9.00053         2.04432        -3.42752
| 17>    O        8.71273         3.03624        -4.05949
| 18>    C        9.25827         0.67626        -3.91226
| 19>    C        9.63576        -0.13670        -2.84138
| 20>    C        9.71410         0.67357        -1.63194
| 21>    C       10.45928         0.39474        -0.51752
| 22>    C       10.77150         1.37144         0.45311
| 23>    N       11.10174         2.15819         1.22122
| 24>    C       11.07056        -0.84819        -0.26068
| 25>    N       11.55934        -1.84888         0.01719
| 26>    C        9.91128        -1.49581        -3.03714
| 27>    C        9.80606        -2.01178        -4.30249
| 28>    C        9.44109        -1.21501        -5.41019
| 29>    C        9.15629         0.16920        -5.22235
| 30>    C        8.79319         0.96022        -6.33128
| 31>    C        8.71692         0.40234        -7.57764
| 32>    C        8.99610        -0.96044        -7.76865
| 33>    C        9.34954        -1.75194        -6.71039
| 34>    C        8.54371         2.90296        -1.15968
| 35>    C        8.17614         2.82964         0.21117
| 36>    C        7.88855         3.90030         1.01246
| 37>    C        7.49508         3.57026         2.33174
| 38>    C        7.45806         2.14889         2.52115
| 39>    S        7.90517         1.31799         1.04506
| 40>    C        7.08262         1.54849         3.71040
| 41>    O        7.04564         0.23093         4.02762
| 42>    C        7.71300        -0.71890         3.22902
| 43>    C        6.66186         2.41571         4.74273
| 44>    C        6.68287         3.80909         4.55479
| 45>    C        7.12568         4.42546         3.38813
| 46>    O        7.11057         5.77757         3.43405
| 47>    C        7.83369         6.57138         2.52226
| 48>    S        6.12214         4.66315         5.95985
| 49>    C        5.86896         3.14779         6.79436
| 50>    C        6.20346         2.06361         6.03230
| 51>    C        5.35127         3.12050         8.13777
| 52>    C        4.88145         4.20928         8.79924
| 53>    C        4.35664         4.08333        10.12416
| 54>    C        3.85932         5.16617        10.82631
| 55>    C        3.34197         5.03401        12.12485
| 56>    N        2.91710         4.92448        13.18671
| 57>    C        3.84306         6.45903        10.27930
| 58>    N        3.83051         7.51621         9.82916
| 59>    C        4.38405         2.76331        10.67411
| 60>    C        4.88680         1.72694         9.95449
| 61>    O        5.36289         1.88042         8.69139
| 62>    C        4.99295         0.37645        10.44070
| 63>    C        5.62460        -0.66121         9.81440
| 64>    C        5.58573        -1.86201        10.55837
| 65>    C        4.89156        -1.70523        11.77309
| 66>    S        4.30888        -0.08184        11.98409
| 67>    C        4.71571        -2.72943        12.69464
| 68>    O        4.02453        -2.38515        13.80921
| 69>    C        4.20499        -3.06307        15.03247
| 70>    C        5.25123        -3.98416        12.34309
| 71>    C        5.98855        -4.13594        11.12234
| 72>    C        6.17625        -3.09949        10.22170
| 73>    O        6.84523        -3.09655         9.04377
| 74>    C        7.60404        -4.21127         8.63504
| 75>    S        6.54785        -5.78628        10.94990
| 76>    C        5.81939        -6.25489        12.46521
| 77>    C        5.16948        -5.20326        13.05418
| 78>    C        5.89649        -7.61310        12.86674
| 79>    C        5.66358        -8.17577        14.07998
| 80>    C        5.41026        -9.64631        14.14986
| 81>    O        5.64162       -10.44696        13.27179
| 82>    C        4.78756        -9.86834        15.46597
| 83>    C        4.79114        -8.67443        16.18871
| 84>    C        5.47708        -7.64500        15.41307
| 85>    C        6.04943        -6.51269        15.93076
| 86>    C        6.93308        -5.68564        15.20849
| 87>    N        7.67770        -4.99366        14.67503
| 88>    C        5.88504        -6.07173        17.25977
| 89>    N        5.76203        -5.64000        18.31626
| 90>    C        4.21897        -8.61178        17.46581
| 91>    C        3.66364        -9.74815        17.99404
| 92>    C        3.66032       -10.97634        17.29710
| 93>    C        4.23433       -11.05058        15.99422
| 94>    C        4.22798       -12.27805        15.30091
| 95>    C        3.67716       -13.38914        15.87746
| 96>    C        3.11075       -13.32212        17.16070
| 97>    C        3.10093       -12.14365        17.85527
| 98>    H       10.18857        -2.12615        -2.20755
| 99>    H       10.00830        -3.05957        -4.47185
|100>    H        8.58045         2.00559        -6.17256
|101>    H        8.44026         1.00904        -8.42685
|102>    H        8.92917        -1.38003        -8.76149
|103>    H        9.56582        -2.80052        -6.85532
|104>    H        8.26251         3.81949        -1.66943
|105>    H        7.97764         4.89962         0.63257
|106>    H        8.75373        -0.43624         3.05089
|107>    H        7.20647        -0.87728         2.27296
|108>    H        7.68583        -1.64443         3.80284
|109>    H        8.83143         6.16661         2.33661
|110>    H        7.92367         7.54620         3.00173
|111>    H        7.28974         6.69329         1.58076
|112>    H        6.11427         1.04696         6.36613
|113>    H        4.89542         5.17508         8.31946
|114>    H        4.01352         2.59197        11.67232
|115>    H        6.11314        -0.57662         8.86198
|116>    H        3.96288        -2.33630        15.80831
|117>    H        5.23687        -3.39704        15.16236
|118>    H        3.51644        -3.90921        15.12357
|119>    H        8.10191        -3.89511         7.71916
|120>    H        6.97211        -5.07660         8.41935
|121>    H        8.35741        -4.48211         9.37847
|122>    H        4.58693        -5.33567        13.94559
|123>    H        6.11081        -8.32312        12.07311
|124>    H        4.20285        -7.68728        18.01996
|125>    H        3.21260        -9.71603        18.97524
|126>    H        4.66534       -12.31720        14.31581
|127>    H        3.67426       -14.32964        15.34724
|128>    H        2.68110       -14.21198        17.59625
|129>    H        2.66623       -12.08999        18.84285
|130> *
|131>
|132>                          ****END OF INPUT****

CARTESIAN COORDINATES (ANGSTROEM)
---------------------------------
  C      9.105440    1.949810   -1.942480
  C      9.000530    2.044320   -3.427520
  O      8.712730    3.036240   -4.059490
  C      9.258270    0.676260   -3.912260
  C      9.635760   -0.136700   -2.841380
  C      9.714100    0.673570   -1.631940
  C     10.459280    0.394740   -0.517520
  C     10.771500    1.371440    0.453110
  N     11.101740    2.158190    1.221220
  C     11.070560   -0.848190   -0.260680
  N     11.559340   -1.848880    0.017190
  C      9.911280   -1.495810   -3.037140
  C      9.806060   -2.011780   -4.302490
  C      9.441090   -1.215010   -5.410190
  C      9.156290    0.169200   -5.222350
  C      8.793190    0.960220   -6.331280
  C      8.716920    0.402340   -7.577640
  C      8.996100   -0.960440   -7.768650
  C      9.349540   -1.751940   -6.710390
  C      8.543710    2.902960   -1.159680
  C      8.176140    2.829640    0.211170
  C      7.888550    3.900300    1.012460
  C      7.495080    3.570260    2.331740
  C      7.458060    2.148890    2.521150
  S      7.905170    1.317990    1.045060
  C      7.082620    1.548490    3.710400
  O      7.045640    0.230930    4.027620
  C      7.713000   -0.718900    3.229020
  C      6.661860    2.415710    4.742730
  C      6.682870    3.809090    4.554790
  C      7.125680    4.425460    3.388130
  O      7.110570    5.777570    3.434050
  C      7.833690    6.571380    2.522260
  S      6.122140    4.663150    5.959850
  C      5.868960    3.147790    6.794360
  C      6.203460    2.063610    6.032300
  C      5.351270    3.120500    8.137770
  C      4.881450    4.209280    8.799240
  C      4.356640    4.083330   10.124160
  C      3.859320    5.166170   10.826310
  C      3.341970    5.034010   12.124850
  N      2.917100    4.924480   13.186710
  C      3.843060    6.459030   10.279300
  N      3.830510    7.516210    9.829160
  C      4.384050    2.763310   10.674110
  C      4.886800    1.726940    9.954490
  O      5.362890    1.880420    8.691390
  C      4.992950    0.376450   10.440700
  C      5.624600   -0.661210    9.814400
  C      5.585730   -1.862010   10.558370
  C      4.891560   -1.705230   11.773090
  S      4.308880   -0.081840   11.984090
  C      4.715710   -2.729430   12.694640
  O      4.024530   -2.385150   13.809210
  C      4.204990   -3.063070   15.032470
  C      5.251230   -3.984160   12.343090
  C      5.988550   -4.135940   11.122340
  C      6.176250   -3.099490   10.221700
  O      6.845230   -3.096550    9.043770
  C      7.604040   -4.211270    8.635040
  S      6.547850   -5.786280   10.949900
  C      5.819390   -6.254890   12.465210
  C      5.169480   -5.203260   13.054180
  C      5.896490   -7.613100   12.866740
  C      5.663580   -8.175770   14.079980
  C      5.410260   -9.646310   14.149860
  O      5.641620  -10.446960   13.271790
  C      4.787560   -9.868340   15.465970
  C      4.791140   -8.674430   16.188710
  C      5.477080   -7.645000   15.413070
  C      6.049430   -6.512690   15.930760
  C      6.933080   -5.685640   15.208490
  N      7.677700   -4.993660   14.675030
  C      5.885040   -6.071730   17.259770
  N      5.762030   -5.640000   18.316260
  C      4.218970   -8.611780   17.465810
  C      3.663640   -9.748150   17.994040
  C      3.660320  -10.976340   17.297100
  C      4.234330  -11.050580   15.994220
  C      4.227980  -12.278050   15.300910
  C      3.677160  -13.389140   15.877460
  C      3.110750  -13.322120   17.160700
  C      3.100930  -12.143650   17.855270
  H     10.188570   -2.126150   -2.207550
  H     10.008300   -3.059570   -4.471850
  H      8.580450    2.005590   -6.172560
  H      8.440260    1.009040   -8.426850
  H      8.929170   -1.380030   -8.761490
  H      9.565820   -2.800520   -6.855320
  H      8.262510    3.819490   -1.669430
  H      7.977640    4.899620    0.632570
  H      8.753730   -0.436240    3.050890
  H      7.206470   -0.877280    2.272960
  H      7.685830   -1.644430    3.802840
  H      8.831430    6.166610    2.336610
  H      7.923670    7.546200    3.001730
  H      7.289740    6.693290    1.580760
  H      6.114270    1.046960    6.366130
  H      4.895420    5.175080    8.319460
  H      4.013520    2.591970   11.672320
  H      6.113140   -0.576620    8.861980
  H      3.962880   -2.336300   15.808310
  H      5.236870   -3.397040   15.162360
  H      3.516440   -3.909210   15.123570
  H      8.101910   -3.895110    7.719160
  H      6.972110   -5.076600    8.419350
  H      8.357410   -4.482110    9.378470
  H      4.586930   -5.335670   13.945590
  H      6.110810   -8.323120   12.073110
  H      4.202850   -7.687280   18.019960
  H      3.212600   -9.716030   18.975240
  H      4.665340  -12.317200   14.315810
  H      3.674260  -14.329640   15.347240
  H      2.681100  -14.211980   17.596250
  H      2.666230  -12.089990   18.842850

 Total Charge           Charge          ....    0
 Multiplicity           Mult            ....    1
 Number of Electrons    NEL             ....  590
 Basis Dimension        Dim             .... 1338

ORBITAL ENERGIES
----------------

  NO   OCC          E(Eh)            E(eV)
   0   2.0000     -88.964075     -2420.8356
   1   2.0000     -88.962890     -2420.8033
   2   2.0000     -88.962773     -2420.8001
   3   2.0000     -88.961999     -2420.7791
   4   2.0000     -19.316614      -525.6318
   5   2.0000     -19.264145      -524.2040
   6   2.0000     -19.260097      -524.0939
   7   2.0000     -19.259824      -524.0865
   8   2.0000     -19.257712      -524.0290
   9   2.0000     -19.225411      -523.1500
  10   2.0000     -19.223460      -523.0969
  11   2.0000     -14.424726      -392.5167
  12   2.0000     -14.424351      -392.5065
  13   2.0000     -14.422522      -392.4568
  14   2.0000     -14.415862      -392.2756
  15   2.0000     -14.388397      -391.5282
  16   2.0000     -14.388114      -391.5205
  17   2.0000     -10.381584      -282.4972
  18   2.0000     -10.381184      -282.4864
  19   2.0000     -10.375701      -282.3372
  20   2.0000     -10.374244      -282.2975
  21   2.0000     -10.356165      -281.8056
  22   2.0000     -10.353594      -281.7356
  23   2.0000     -10.351854      -281.6883
  24   2.0000     -10.351817      -281.6873
  25   2.0000     -10.351493      -281.6785
  26   2.0000     -10.350885      -281.6619
  27   2.0000     -10.350656      -281.6557
  28   2.0000     -10.346145      -281.5329
  29   2.0000     -10.337033      -281.2850
  30   2.0000     -10.333101      -281.1780
  31   2.0000     -10.332198      -281.1534
  32   2.0000     -10.330849      -281.1167
  33   2.0000     -10.329505      -281.0801
  34   2.0000     -10.327269      -281.0193
  35   2.0000     -10.326204      -280.9903
  36   2.0000     -10.325057      -280.9591
  37   2.0000     -10.324767      -280.9512
  38   2.0000     -10.324111      -280.9333
  39   2.0000     -10.321723      -280.8683
  40   2.0000     -10.320541      -280.8362
  41   2.0000     -10.320217      -280.8274
  42   2.0000     -10.318972      -280.7935
  43   2.0000     -10.318950      -280.7929
  44   2.0000     -10.318890      -280.7913
  45   2.0000     -10.318805      -280.7890
  46   2.0000     -10.316688      -280.7314
  47   2.0000     -10.314698      -280.6772
  48   2.0000     -10.309745      -280.5424
  49   2.0000     -10.309195      -280.5275
  50   2.0000     -10.307896      -280.4921
  51   2.0000     -10.306238      -280.4470
  52   2.0000     -10.306202      -280.4460
  53   2.0000     -10.305526      -280.4276
  54   2.0000     -10.303722      -280.3785
  55   2.0000     -10.303270      -280.3662
  56   2.0000     -10.303037      -280.3599
  57   2.0000     -10.302989      -280.3586
  58   2.0000     -10.302517      -280.3458
  59   2.0000     -10.302255      -280.3386
  60   2.0000     -10.301455      -280.3168
  61   2.0000     -10.301295      -280.3125
  62   2.0000     -10.301004      -280.3046
  63   2.0000     -10.300497      -280.2908
  64   2.0000     -10.299763      -280.2708
  65   2.0000     -10.298414      -280.2341
  66   2.0000     -10.298343      -280.2322
  67   2.0000     -10.297878      -280.2195
  68   2.0000     -10.296607      -280.1849
  69   2.0000     -10.294718      -280.1335
  70   2.0000     -10.293085      -280.0891
  71   2.0000     -10.292604      -280.0760
  72   2.0000     -10.292299      -280.0677
  73   2.0000     -10.291976      -280.0589
  74   2.0000     -10.291857      -280.0557
  75   2.0000     -10.289411      -279.9891
  76   2.0000     -10.288898      -279.9751
  77   2.0000     -10.288048      -279.9520
  78   2.0000     -10.287438      -279.9354
  79   2.0000     -10.287065      -279.9253
  80   2.0000     -10.285576      -279.8847
  81   2.0000     -10.283248      -279.8214
  82   2.0000     -10.281746      -279.7805
  83   2.0000      -8.058885      -219.2934
  84   2.0000      -8.058200      -219.2748
  85   2.0000      -8.057551      -219.2571
  86   2.0000      -8.056724      -219.2346
  87   2.0000      -6.028631      -164.0474
  88   2.0000      -6.028076      -164.0323
  89   2.0000      -6.027540      -164.0177
  90   2.0000      -6.026471      -163.9886
  91   2.0000      -6.024430      -163.9331
  92   2.0000      -6.023778      -163.9153
  93   2.0000      -6.023206      -163.8998
  94   2.0000      -6.022318      -163.8756
  95   2.0000      -6.020147      -163.8165
  96   2.0000      -6.019233      -163.7917
  97   2.0000      -6.018429      -163.7698
  98   2.0000      -6.017966      -163.7572
  99   2.0000      -1.227116       -33.3915
 100   2.0000      -1.168319       -31.7916
 101   2.0000      -1.164933       -31.6994
 102   2.0000      -1.164301       -31.6822
 103   2.0000      -1.161341       -31.6017
 104   2.0000      -1.140548       -31.0359
 105   2.0000      -1.138282       -30.9742
 106   2.0000      -1.028347       -27.9827
 107   2.0000      -1.025084       -27.8939
 108   2.0000      -1.011369       -27.5208
 109   2.0000      -1.009505       -27.4700
 110   2.0000      -1.007153       -27.4060
 111   2.0000      -1.004307       -27.3286
 112   2.0000      -1.002836       -27.2885
 113   2.0000      -0.998591       -27.1730
 114   2.0000      -0.994170       -27.0527
 115   2.0000      -0.991332       -26.9755
 116   2.0000      -0.988730       -26.9047
 117   2.0000      -0.975163       -26.5355
 118   2.0000      -0.973188       -26.4818
 119   2.0000      -0.967384       -26.3239
 120   2.0000      -0.951538       -25.8927
 121   2.0000      -0.946178       -25.7468
 122   2.0000      -0.932875       -25.3848
 123   2.0000      -0.928529       -25.2666
 124   2.0000      -0.923263       -25.1233
 125   2.0000      -0.913984       -24.8708
 126   2.0000      -0.908474       -24.7208
 127   2.0000      -0.903469       -24.5846
 128   2.0000      -0.889626       -24.2080
 129   2.0000      -0.888637       -24.1810
 130   2.0000      -0.886589       -24.1253
 131   2.0000      -0.882121       -24.0037
 132   2.0000      -0.869887       -23.6708
 133   2.0000      -0.863045       -23.4847
 134   2.0000      -0.861323       -23.4378
 135   2.0000      -0.855025       -23.2664
 136   2.0000      -0.852521       -23.1983
 137   2.0000      -0.846884       -23.0449
 138   2.0000      -0.844683       -22.9850
 139   2.0000      -0.825753       -22.4699
 140   2.0000      -0.823668       -22.4132
 141   2.0000      -0.821242       -22.3471
 142   2.0000      -0.817765       -22.2525
 143   2.0000      -0.815973       -22.2038
 144   2.0000      -0.806536       -21.9470
 145   2.0000      -0.789529       -21.4842
 146   2.0000      -0.787192       -21.4206
 147   2.0000      -0.778206       -21.1761
 148   2.0000      -0.775616       -21.1056
 149   2.0000      -0.767786       -20.8925
 150   2.0000      -0.757752       -20.6195
 151   2.0000      -0.754634       -20.5346
 152   2.0000      -0.753611       -20.5068
 153   2.0000      -0.723389       -19.6844
 154   2.0000      -0.720900       -19.6167
 155   2.0000      -0.720425       -19.6038
 156   2.0000      -0.718648       -19.5554
 157   2.0000      -0.711775       -19.3684
 158   2.0000      -0.709170       -19.2975
 159   2.0000      -0.694063       -18.8864
 160   2.0000      -0.688758       -18.7421
 161   2.0000      -0.686623       -18.6840
 162   2.0000      -0.682856       -18.5815
 163   2.0000      -0.682272       -18.5656
 164   2.0000      -0.679702       -18.4956
 165   2.0000      -0.676433       -18.4067
 166   2.0000      -0.672892       -18.3103
 167   2.0000      -0.661898       -18.0112
 168   2.0000      -0.654576       -17.8119
 169   2.0000      -0.647265       -17.6130
 170   2.0000      -0.645678       -17.5698
 171   2.0000      -0.641410       -17.4537
 172   2.0000      -0.636474       -17.3193
 173   2.0000      -0.634164       -17.2565
 174   2.0000      -0.620430       -16.8828
 175   2.0000      -0.618231       -16.8229
 176   2.0000      -0.616212       -16.7680
 177   2.0000      -0.611772       -16.6472
 178   2.0000      -0.608980       -16.5712
 179   2.0000      -0.602590       -16.3973
 180   2.0000      -0.601292       -16.3620
 181   2.0000      -0.598051       -16.2738
 182   2.0000      -0.596225       -16.2241
 183   2.0000      -0.594911       -16.1884
 184   2.0000      -0.593230       -16.1426
 185   2.0000      -0.584457       -15.9039
 186   2.0000      -0.582371       -15.8471
 187   2.0000      -0.579823       -15.7778
 188   2.0000      -0.576653       -15.6915
 189   2.0000      -0.575873       -15.6703
 190   2.0000      -0.573946       -15.6179
 191   2.0000      -0.571466       -15.5504
 192   2.0000      -0.568894       -15.4804
 193   2.0000      -0.565956       -15.4004
 194   2.0000      -0.565184       -15.3795
 195   2.0000      -0.563280       -15.3276
 196   2.0000      -0.554798       -15.0968
 197   2.0000      -0.550449       -14.9785
 198   2.0000      -0.548304       -14.9201
 199   2.0000      -0.544870       -14.8267
 200   2.0000      -0.542750       -14.7690
 201   2.0000      -0.542132       -14.7522
 202   2.0000      -0.540996       -14.7213
 203   2.0000      -0.540210       -14.6998
 204   2.0000      -0.539514       -14.6809
 205   2.0000      -0.538818       -14.6620
 206   2.0000      -0.529929       -14.4201
 207   2.0000      -0.526415       -14.3245
 208   2.0000      -0.522189       -14.2095
 209   2.0000      -0.518713       -14.1149
 210   2.0000      -0.518171       -14.1002
 211   2.0000      -0.517595       -14.0845
 212   2.0000      -0.515572       -14.0294
 213   2.0000      -0.514185       -13.9917
 214   2.0000      -0.511994       -13.9321
 215   2.0000      -0.510144       -13.8817
 216   2.0000      -0.509719       -13.8702
 217   2.0000      -0.508864       -13.8469
 218   2.0000      -0.506094       -13.7715
 219   2.0000      -0.504735       -13.7345
 220   2.0000      -0.496750       -13.5173
 221   2.0000      -0.493721       -13.4348
 222   2.0000      -0.490599       -13.3499
 223   2.0000      -0.488094       -13.2817
 224   2.0000      -0.485688       -13.2162
 225   2.0000      -0.484171       -13.1750
 226   2.0000      -0.483475       -13.1560
 227   2.0000      -0.482560       -13.1311
 228   2.0000      -0.481340       -13.0979
 229   2.0000      -0.480732       -13.0814
 230   2.0000      -0.479488       -13.0475
 231   2.0000      -0.478507       -13.0208
 232   2.0000      -0.474914       -12.9231
 233   2.0000      -0.473059       -12.8726
 234   2.0000      -0.468679       -12.7534
 235   2.0000      -0.465799       -12.6750
 236   2.0000      -0.462881       -12.5956
 237   2.0000      -0.458521       -12.4770
 238   2.0000      -0.456200       -12.4138
 239   2.0000      -0.453072       -12.3287
 240   2.0000      -0.450380       -12.2555
 241   2.0000      -0.449433       -12.2297
 242   2.0000      -0.448839       -12.2135
 243   2.0000      -0.446200       -12.1417
 244   2.0000      -0.445597       -12.1253
 245   2.0000      -0.443932       -12.0800
 246   2.0000      -0.442129       -12.0310
 247   2.0000      -0.441887       -12.0244
 248   2.0000      -0.441164       -12.0047
 249   2.0000      -0.438647       -11.9362
 250   2.0000      -0.437359       -11.9012
 251   2.0000      -0.436045       -11.8654
 252   2.0000      -0.435194       -11.8422
 253   2.0000      -0.434725       -11.8295
 254   2.0000      -0.432671       -11.7736
 255   2.0000      -0.431376       -11.7383
 256   2.0000      -0.431048       -11.7294
 257   2.0000      -0.427735       -11.6393
 258   2.0000      -0.424226       -11.5438
 259   2.0000      -0.423604       -11.5269
 260   2.0000      -0.419390       -11.4122
 261   2.0000      -0.419106       -11.4045
 262   2.0000      -0.417092       -11.3497
 263   2.0000      -0.413114       -11.2414
 264   2.0000      -0.412520       -11.2252
 265   2.0000      -0.409927       -11.1547
 266   2.0000      -0.408137       -11.1060
 267   2.0000      -0.406971       -11.0742
 268   2.0000      -0.405732       -11.0405
 269   2.0000      -0.404138       -10.9972
 270   2.0000      -0.402566       -10.9544
 271   2.0000      -0.400677       -10.9030
 272   2.0000      -0.391240       -10.6462
 273   2.0000      -0.389903       -10.6098
 274   2.0000      -0.383146       -10.4259
 275   2.0000      -0.381233       -10.3739
 276   2.0000      -0.368950       -10.0397
 277   2.0000      -0.366150        -9.9634
 278   2.0000      -0.353829        -9.6282
 279   2.0000      -0.350508        -9.5378
 280   2.0000      -0.346242        -9.4217
 281   2.0000      -0.344309        -9.3691
 282   2.0000      -0.339791        -9.2462
 283   2.0000      -0.338930        -9.2227
 284   2.0000      -0.333462        -9.0740
 285   2.0000      -0.326177        -8.8757
 286   2.0000      -0.323099        -8.7920
 287   2.0000      -0.314959        -8.5705
 288   2.0000      -0.302231        -8.2241
 289   2.0000      -0.298990        -8.1359
 290   2.0000      -0.297235        -8.0882
 291   2.0000      -0.288231        -7.8432
 292   2.0000      -0.269535        -7.3344
 293   2.0000      -0.248981        -6.7751
 294   2.0000      -0.246323        -6.7028
 295   0.0000      -0.097126        -2.6429
 296   0.0000      -0.094978        -2.5845
 297   0.0000      -0.079036        -2.1507
 298   0.0000      -0.075830        -2.0634
 299   0.0000      -0.059522        -1.6197

MULLIKEN ATOMIC CHARGES
-----------------------
   0 C :   -0.115242
   1 C :    0.124068
   2 O :   -0.148535
   3 C :    0.004989
   4 C :    0.000693
   5 C :    0.243108
   6 C :   -0.323045
   7 C :   -0.202105
   8 N :    0.171507
   9 C :   -0.177469
  10 N :    0.157374
  11 C :   -0.024136
  12 C :    0.007188
  13 C :    0.078199
  14 C :    0.036731
  15 C :   -0.025533
  16 C :    0.037918
  17 C :    0.039187
  18 C :   -0.019473
  19 C :    0.035728
  20 C :   -0.037237
  21 C :   -0.028761
  22 C :    0.073187
  23 C :   -0.119413
  24 S :    0.085481
  25 C :    0.117727
  26 O :   -0.310559
  27 C :    0.165992
  28 C :    0.073178
  29 C :   -0.101598
  30 C :    0.127064
  31 O :   -0.306460
  32 C :    0.174943
  33 S :    0.166809
  34 C :   -0.056702
  35 C :   -0.056425
  36 C :    0.270667
  37 C :   -0.183894
  38 C :    0.301796
  39 C :   -0.355014
  40 C :   -0.176131
  41 N :    0.129275
  42 C :   -0.176918
  43 N :    0.126069
  44 C :   -0.178851
  45 C :    0.266169
  46 O :   -0.229485
  47 C :   -0.059479
  48 C :   -0.047845
  49 C :    0.072049
  50 C :   -0.108452
  51 S :    0.164098
  52 C :    0.136923
  53 O :   -0.313104
  54 C :    0.174977
  55 C :    0.041105
  56 C :   -0.112314
  57 C :    0.118706
  58 O :   -0.309417
  59 C :    0.165542
  60 S :    0.095627
  61 C :   -0.056457
  62 C :   -0.036266
  63 C :    0.085048
  64 C :   -0.117937
  65 C :    0.114427
  66 O :   -0.148263
  67 C :    0.016275
  68 C :   -0.010805
  69 C :    0.263140
  70 C :   -0.348743
  71 C :   -0.201164
  72 N :    0.178887
  73 C :   -0.180186
  74 N :    0.165404
  75 C :   -0.026879
  76 C :    0.011578
  77 C :    0.076351
  78 C :    0.034870
  79 C :   -0.023455
  80 C :    0.036863
  81 C :    0.040646
  82 C :   -0.018112
  83 H :    0.000052
  84 H :   -0.012054
  85 H :    0.000896
  86 H :   -0.005379
  87 H :   -0.005644
  88 H :   -0.020077
  89 H :    0.021985
  90 H :   -0.024662
  91 H :    0.043114
  92 H :    0.039559
  93 H :    0.039549
  94 H :    0.041337
  95 H :    0.046569
  96 H :    0.036342
  97 H :   -0.005241
  98 H :    0.034656
  99 H :    0.035541
 100 H :   -0.008242
 101 H :    0.047708
 102 H :    0.037253
 103 H :    0.033367
 104 H :    0.040001
 105 H :    0.038340
 106 H :    0.043565
 107 H :   -0.017864
 108 H :    0.022186
 109 H :    0.001572
 110 H :   -0.011238
 111 H :    0.000596
 112 H :   -0.004706
 113 H :   -0.004823
 114 H :   -0.019962
Sum of atomic charges:    0.0000000

LOEWDIN ATOMIC CHARGES
----------------------
   0 C :   -0.086534
   1 C :    0.088578
   2 O :   -0.140473
   3 C :   -0.033685
   4 C :   -0.002923
   5 C :    0.060000
   6 C :   -0.137587
   7 C :   -0.038561
   8 N :   -0.049352
   9 C :   -0.020962
  10 N :   -0.049454
  11 C :   -0.019190
  12 C :    0.020449
  13 C :   -0.009578
  14 C :   -0.002469
  15 C :   -0.002236
  16 C :   -0.010978
  17 C :   -0.011764
  18 C :   -0.011880
  19 C :    0.045653
  20 C :   -0.169939
  21 C :   -0.007871
  22 C :   -0.072248
  23 C :   -0.174917
  24 S :    0.427391
  25 C :    0.029127
  26 O :   -0.102000
  27 C :    0.066920
  28 C :   -0.054244
  29 C :   -0.168717
  30 C :    0.036358
  31 O :   -0.098968
  32 C :    0.082164
  33 S :    0.442421
  34 C :   -0.176166
  35 C :   -0.016974
  36 C :    0.079267
  37 C :   -0.056513
  38 C :    0.056856
  39 C :   -0.179123
  40 C :   -0.030165
  41 N :   -0.071637
  42 C :   -0.029752
  43 N :   -0.072782
  44 C :   -0.056852
  45 C :    0.079981
  46 O :    0.002578
  47 C :   -0.177817
  48 C :   -0.015631
  49 C :   -0.057142
  50 C :   -0.166475
  51 S :    0.439738
  52 C :    0.033194
  53 O :   -0.104776
  54 C :    0.081091
  55 C :   -0.066144
  56 C :   -0.177004
  57 C :    0.031009
  58 O :   -0.100710
  59 C :    0.066508
  60 S :    0.413395
  61 C :   -0.175503
  62 C :   -0.010468
  63 C :    0.047031
  64 C :   -0.083586
  65 C :    0.088282
  66 O :   -0.138715
  67 C :   -0.032328
  68 C :   -0.005688
  69 C :    0.068093
  70 C :   -0.140911
  71 C :   -0.021065
  72 N :   -0.036460
  73 C :   -0.024856
  74 N :   -0.046985
  75 C :   -0.019062
  76 C :    0.021246
  77 C :   -0.008779
  78 C :   -0.002643
  79 C :   -0.001617
  80 C :   -0.010578
  81 C :   -0.010373
  82 C :   -0.011391
  83 H :    0.039220
  84 H :    0.035869
  85 H :    0.035623
  86 H :    0.033226
  87 H :    0.032468
  88 H :    0.030669
  89 H :    0.050531
  90 H :    0.033158
  91 H :    0.019452
  92 H :    0.010510
  93 H :    0.031268
  94 H :    0.023020
  95 H :    0.034534
  96 H :    0.017072
  97 H :    0.037222
  98 H :    0.043225
  99 H :    0.043456
 100 H :    0.036501
 101 H :    0.034657
 102 H :    0.022024
 103 H :    0.015135
 104 H :    0.031814
 105 H :    0.012246
 106 H :    0.017292
 107 H :    0.030343
 108 H :    0.046042
 109 H :    0.039538
 110 H :    0.036569
 111 H :    0.035814
 112 H :    0.033452
 113 H :    0.032833
 114 H :    0.031089

  Mayer bond orders larger than 0.100000
B(  0-C ,  1-C ) :   0.9504 B(  0-C ,  5-C ) :   1.0169 B(  0-C , 19-C ) :   1.6807
B(  1-C ,  2-O ) :   2.1986 B(  1-C ,  3-C ) :   0.9403 B(  3-C ,  4-C ) :   1.4122
B(  3-C , 14-C ) :   1.2409 B(  4-C ,  5-C ) :   1.0105 B(  4-C , 11-C ) :   1.2622
B(  5-C ,  6-C ) :   1.6605 B(  6-C ,  7-C ) :   1.1464 B(  6-C ,  9-C ) :   1.1350
B(  7-C ,  8-N ) :   3.0253 B(  9-C , 10-N ) :   2.9958 B( 11-C , 12-C ) :   1.4677
B( 11-C , 83-H ) :   0.9864 B( 12-C , 13-C ) :   1.2250 B( 12-C , 84-H ) :   0.9932
B( 13-C , 14-C ) :   1.2410 B( 13-C , 18-C ) :   1.2408 B( 14-C , 15-C ) :   1.2756
B( 15-C , 16-C ) :   1.4766 B( 15-C , 85-H ) :   0.9859 B( 16-C , 17-C ) :   1.2550
B( 16-C , 86-H ) :   0.9870 B( 17-C , 18-C ) :   1.4962 B( 17-C , 87-H ) :   0.9890
B( 18-C , 88-H ) :   0.9971 B( 19-C , 20-C ) :   1.0989 B( 19-C , 89-H ) :   0.9488
B( 20-C , 21-C ) :   1.5281 B( 20-C , 24-S ) :   1.0533 B( 21-C , 22-C ) :   1.1616
B( 21-C , 90-H ) :   1.0028 B( 22-C , 23-C ) :   1.2526 B( 22-C , 30-C ) :   1.2258
B( 23-C , 24-S ) :   1.0110 B( 23-C , 25-C ) :   1.4084 B( 25-C , 26-O ) :   1.2348
B( 25-C , 28-C ) :   1.2607 B( 26-O , 27-C ) :   0.9397 B( 27-C , 91-H ) :   0.9703
B( 27-C , 92-H ) :   0.9640 B( 27-C , 93-H ) :   0.9759 B( 28-C , 29-C ) :   1.3741
B( 28-C , 35-C ) :   1.1571 B( 29-C , 30-C ) :   1.3825 B( 29-C , 33-S ) :   1.0470
B( 30-C , 31-O ) :   1.2756 B( 31-O , 32-C ) :   0.9382 B( 32-C , 94-H ) :   0.9682
B( 32-C , 95-H ) :   0.9744 B( 32-C , 96-H ) :   0.9686 B( 33-S , 34-C ) :   1.0803
B( 34-C , 35-C ) :   1.5242 B( 34-C , 36-C ) :   1.0814 B( 35-C , 97-H ) :   1.0231
B( 36-C , 37-C ) :   1.5614 B( 36-C , 46-O ) :   1.1404 B( 37-C , 38-C ) :   1.1265
B( 37-C , 98-H ) :   0.9636 B( 38-C , 39-C ) :   1.5453 B( 38-C , 44-C ) :   1.1313
B( 39-C , 40-C ) :   1.1325 B( 39-C , 42-C ) :   1.1344 B( 40-C , 41-N ) :   3.0078
B( 42-C , 43-N ) :   3.0057 B( 44-C , 45-C ) :   1.5617 B( 44-C , 99-H ) :   0.9618
B( 45-C , 46-O ) :   1.1404 B( 45-C , 47-C ) :   1.0839 B( 47-C , 48-C ) :   1.5256
B( 47-C , 51-S ) :   1.0767 B( 48-C , 49-C ) :   1.1599 B( 48-C ,100-H ) :   1.0205
B( 49-C , 50-C ) :   1.3640 B( 49-C , 57-C ) :   1.2734 B( 50-C , 51-S ) :   1.0431
B( 50-C , 52-C ) :   1.3941 B( 52-C , 53-O ) :   1.2692 B( 52-C , 55-C ) :   1.2316
B( 53-O , 54-C ) :   0.9328 B( 54-C ,101-H ) :   0.9728 B( 54-C ,102-H ) :   0.9680
B( 54-C ,103-H ) :   0.9674 B( 55-C , 56-C ) :   1.2652 B( 55-C , 62-C ) :   1.2113
B( 56-C , 57-C ) :   1.3875 B( 56-C , 60-S ) :   1.0167 B( 57-C , 58-O ) :   1.2311
B( 58-O , 59-C ) :   0.9412 B( 59-C ,104-H ) :   0.9759 B( 59-C ,105-H ) :   0.9666
B( 59-C ,106-H ) :   0.9684 B( 60-S , 61-C ) :   1.0539 B( 61-C , 62-C ) :   1.5234
B( 61-C , 63-C ) :   1.1000 B( 62-C ,107-H ) :   0.9850 B( 63-C , 64-C ) :   1.7040
B( 63-C ,108-H ) :   0.9250 B( 64-C , 65-C ) :   0.9529 B( 64-C , 69-C ) :   1.0229
B( 65-C , 66-O ) :   2.1941 B( 65-C , 67-C ) :   0.9397 B( 67-C , 68-C ) :   1.4136
B( 67-C , 78-C ) :   1.2371 B( 68-C , 69-C ) :   1.0045 B( 68-C , 75-C ) :   1.2599
B( 69-C , 70-C ) :   1.6429 B( 70-C , 71-C ) :   1.1769 B( 70-C , 73-C ) :   1.1262
B( 71-C , 72-N ) :   2.9645 B( 73-C , 74-N ) :   2.9953 B( 75-C , 76-C ) :   1.4680
B( 75-C ,109-H ) :   0.9865 B( 76-C , 77-C ) :   1.2256 B( 76-C ,110-H ) :   0.9930
B( 77-C , 78-C ) :   1.2401 B( 77-C , 82-C ) :   1.2399 B( 78-C , 79-C ) :   1.2754
B( 79-C , 80-C ) :   1.4757 B( 79-C ,111-H ) :   0.9862 B( 80-C , 81-C ) :   1.2553
B( 80-C ,112-H ) :   0.9874 B( 81-C , 82-C ) :   1.4962 B( 81-C ,113-H ) :   0.9890
B( 82-C ,114-H ) :   0.9971

-----------------------------------------------------------------------------
         ABSORPTION SPECTRUM VIA TRANSITION ELECTRIC DIPOLE MOMENTS
-----------------------------------------------------------------------------
State   Energy  Wavelength   fosc         T2         TX        TY        TZ
        (cm-1)    (nm)                  (au**2)     (au)      (au)      (au)
-----------------------------------------------------------------------------
   0   15808.4    632.6   0.252928971   5.26726   0.33761  -1.96758   1.13221
   1   17003.4    588.1   0.476345255   9.22277  -1.14021   1.49878   2.38251
   2   21315.2    469.1   0.185639564   2.86719  -0.38408   1.64845  -0.04774
   3   22517.2    444.1   0.137519332   2.01060  -0.27997   0.65449   1.22632
   4   23367.9    427.9   0.059955421   0.84467   0.02141   0.80596  -0.44118
   5   24040.0    416.0   0.317387756   4.34642   0.90141  -0.48164  -1.81711
   6   24456.0    408.9   0.647687100   8.71877  -0.80681  -1.00852   2.65532
   7   24650.1    405.7   0.604358413   8.07146   0.74630  -2.74095   0.04093
   8   25969.8    385.1   0.074100647   0.93935  -0.36432   0.66074   0.60831
   9   26587.8    376.1   0.013343296   0.16522   0.09555   0.34461   0.19322
  10   27073.4    369.4   0.071328398   0.86735  -0.87535   0.30985   0.07144
  11   27100.0    369.0   0.003891331   0.04727   0.12316  -0.17129   0.05255
  12   27817.6    359.5   0.068439196   0.80996   0.37041   0.59825   0.56111
  13   27991.0    357.3   0.259779131   3.05536   0.01926   0.93271   1.47818
  14   28941.6    345.5   0.309369741   3.51909   0.55261   0.66191  -1.66601
  15   29431.8    339.8   0.188904187   2.11300   0.19643   1.05823  -0.97702
  16   29612.5    337.7   0.274873387   3.05586   0.26647   0.95551  -1.43939
  17   29961.6    333.8   0.189802810   2.08552  -0.24104   1.22543   0.72508
  18   30382.3    329.1   0.142147445   1.54026   0.39977  -0.51294  -1.05704
  19   30535.9    327.5   0.088001842   0.94876  -0.35534   0.90672  -0.01886
  20   30788.8    324.8   0.033726593   0.36062   0.28826   0.48234   0.21185
  21   30974.4    322.8   0.026714274   0.28393  -0.44641   0.18164  -0.22728
  22   31342.8    319.1   0.285008698   2.99362   0.11878  -1.72460  -0.07249
  23   31371.2    318.8   0.059024708   0.61941   0.12500  -0.16808  -0.75864
  24   31862.6    313.8   0.323137180   3.33873   0.13354  -1.66383   0.74334
  25   32411.2    308.5   0.092921043   0.94383   0.56257  -0.15066  -0.77759
  26   32495.7    307.7   0.106829394   1.08228   0.32315  -0.95757  -0.24681
  27   32583.4    306.9   0.674431482   6.81423  -0.74259  -1.29356  -2.14231
  28   32883.6    304.1   0.254904820   2.55196  -0.80087  -0.92773   1.02464
  29   32983.9    303.2   0.099515969   0.99327   0.00605   0.58927   0.80373
  30   33447.8    299.0   0.214823139   2.11441  -0.15027  -1.13496   0.89648
  31   33729.3    296.5   0.047720775   0.46577  -0.57815  -0.33919  -0.12830
  32   34378.9    290.9   0.094731319   0.90714  -0.06516  -0.16718   0.93539
  33   34655.0    288.6   0.259759533   2.46764  -0.15948  -1.29263  -0.87824
  34   35237.7    283.8   0.141815866   1.32493  -0.17867  -0.55779   0.99090
  35   35371.2    282.7   0.046680956   0.43448  -0.51920  -0.34349  -0.21661
  36   35761.9    279.6   0.004905429   0.04516   0.01491  -0.15140  -0.14837
  37   36078.4    277.2   0.006390365   0.05831   0.15913  -0.15003   0.10237
  38   36234.8    276.0   0.044303545   0.40252  -0.03906   0.42797  -0.46673
  39   37005.3    270.2   0.028546109   0.25396  -0.28009   0.41844  -0.02023
  40   37446.3    267.0   0.040561435   0.35660   0.11470  -0.58529   0.02966
  41   37676.6    265.4   0.035439113   0.30966  -0.42851   0.24262   0.25918
  42   37941.4    263.6   0.016453241   0.14276   0.06209  -0.11155  -0.35562
  43   38197.2    261.8   0.008023399   0.06915   0.07813  -0.02808  -0.24952
  44   38273.8    261.3   0.020174511   0.17353   0.38336   0.08076  -0.14158
  45   38546.1    259.4   0.068722388   0.58694  -0.27571   0.69581   0.16364
  46   38738.2    258.1   0.017613785   0.14969   0.02399  -0.38135   0.06068
  47   38874.1    257.2   0.009883985   0.08370  -0.00871   0.13972  -0.25319
  48   39227.4    254.9   0.003920072   0.03290   0.15872   0.07036   0.05251
  49   39354.6    254.1   0.011294244   0.09448   0.04556  -0.01853  -0.30341
  50   39885.2    250.7   0.221478325   1.82808   0.27192   0.67171  -1.14147

FINAL SINGLE POINT ENERGY     -4977.263250853905

DIPOLE MOMENT
-------------
                                X             Y             Z
Electronic contribution:     -0.77607      26.04627      14.87631
Nuclear contribution   :      0.34867     -31.19366     -18.44970
                        -----------------------------------------
Total Dipole Moment    :     -0.42740      -5.14739      -3.57339
                        -----------------------------------------
Magnitude (a.u.)       :      6.28072
Magnitude (Debye)      :     15.96432

Rotational constants in cm-1:     0.000886     0.000214     0.000176
Rotational constants in MHz :    26.557938     6.407759     5.288076

                             ****ORCA TERMINATED NORMALLY****
TOTAL RUN TIME: 0 days 0 hours 12 minutes 19 seconds 5 msec
