                         Program Version 4.2.0 -  RELEASE  -
|  1> # ORCA input file
|  2> # SCF done       -195.618254042596          0.000753992968
|  3> ! CAM-B3LYP def2-SVP def2/J RIJCOSX Grid4 TightSCF
|  4> %maxcore 5000
|  5> %tddft
|  6>     Mode sTDDFT
|  7>     Ethresh 5.0
|  8>     maxcore 5000
|  9> end
| 10>
| 11> %pal
| 12>   nprocs 6
| 13>   end
| 14> * xyz 0 1
| 15>    C        5.43445        -4.88628         4.47910
| 16>    C        6.50300        -5.69097         4.76010
| 17>    F        7.67159        -5.15297         5.13197
| 18>    C        6.39088        -7.09255         4.66255
| 19>    F        7.45458        -7.85682         4.94401
| 20>    C        5.21129        -7.67038         4.28438
| 21>    C        4.09325        -6.86775         3.98609
| 22>    C        4.20451        -5.45057         4.08534
| 23>    C        3.09603        -4.62371         3.78945
| 24>    C        1.91317        -5.19598         3.40188
| 25>    C        1.81435        -6.61201         3.30287
| 26>    C        2.86404        -7.43705         3.58587
| 27>    C        0.45663        -6.97009         2.85950
| 28>    O        0.03097        -8.09764         2.68264
| 29>    C       -0.26097        -5.70412         2.67061
| 30>    C        0.62469        -4.61233         3.03171
| 31>    C        0.33387        -3.27280         3.04757
| 32>    C       -0.90804        -2.69245         2.71417
| 33>    N       -1.88515        -2.14330         2.46277
| 34>    C        1.25528        -2.27002         3.41815
| 35>    N        1.95603        -1.40781         3.70675
| 36>    C       -1.54259        -5.57891         2.19891
| 37>    C       -2.46976        -6.55879         1.81137
| 38>    C       -3.73049        -6.21372         1.31662
| 39>    C       -4.48803        -7.32055         0.98678
| 40>    C       -3.82125        -8.53648         1.23293
| 41>    S       -2.24023        -8.30367         1.86724
| 42>    C       -4.61439        -9.63336         0.88579
| 43>    C       -5.86471        -9.26209         0.37793
| 44>    S       -6.08951        -7.53655         0.32691
| 45>    C       -6.67092       -10.34461         0.01768
| 46>    C       -6.04913       -11.55053         0.25290
| 47>    S       -4.44108       -11.34427         0.92847
| 48>    C       -6.54118       -12.88631         0.02567
| 49>    C       -5.86489       -13.99108         0.55435
| 50>    C       -6.31599       -15.27417         0.35574
| 51>    F       -5.59311       -16.26896         0.90306
| 52>    C       -7.46814       -15.56457        -0.38988
| 53>    C       -8.13674       -14.46107        -0.93076
| 54>    C       -7.69018       -13.17704        -0.72468
| 55>    F       -8.40052       -12.18245        -1.28881
| 56>    C       -7.95474       -16.90283        -0.61378
| 57>    C       -7.58066       -18.07319         0.00531
| 58>    C       -8.28563       -19.17473        -0.48674
| 59>    C       -9.20295       -18.85386        -1.49359
| 60>    S       -9.20039       -17.16569        -1.82562
| 61>    C       -9.88398       -19.97741        -1.96960
| 62>    C       -9.47650       -21.15323        -1.31716
| 63>    S       -8.25776       -20.87196        -0.10732
| 64>    C      -10.10553       -22.29881        -1.78730
| 65>    C      -11.00708       -22.01986        -2.80152
| 66>    S      -11.08633       -20.29797        -3.15093
| 67>    C      -11.86888       -22.88880        -3.50478
| 68>    C      -11.81643       -24.24480        -3.63210
| 69>    C      -13.05284       -24.97355        -4.03154
| 70>    O      -14.06609       -24.48812        -4.47716
| 71>    C      -12.78965       -26.39003        -3.70621
| 72>    C      -13.63996       -27.45611        -3.76395
| 73>    C      -13.17384       -28.72853        -3.36329
| 74>    C      -11.83231       -28.86919        -2.90300
| 75>    C      -11.37776       -30.13850        -2.49270
| 76>    C      -12.21412       -31.21823        -2.54115
| 77>    C      -13.53953       -31.07885        -3.00000
| 78>    C      -14.01064       -29.86077        -3.40298
| 79>    F      -14.33713       -32.15446        -3.03620
| 80>    F      -11.78051       -32.42362        -2.15089
| 81>    C      -10.97134       -27.74847        -2.86434
| 82>    C      -11.44184       -26.52785        -3.26776
| 83>    C      -10.78694       -25.22489        -3.36659
| 84>    C       -9.43202       -25.03326        -3.45071
| 85>    C       -8.83642       -23.80778        -3.80979
| 86>    N       -8.31134       -22.83846        -4.12934
| 87>    C       -8.48260       -26.05950        -3.26834
| 88>    N       -7.67191       -26.85569        -3.10639
| 89>    H        5.53723        -3.81532         4.55936
| 90>    H        5.14157        -8.74462         4.21409
| 91>    H        3.21602        -3.55604         3.87441
| 92>    H        2.75803        -8.50810         3.50336
| 93>    H       -1.92560        -4.57183         2.08711
| 94>    H       -4.05329        -5.19384         1.21024
| 95>    H       -7.66002       -10.23944        -0.38474
| 96>    H       -4.96836       -13.84702         1.13737
| 97>    H       -9.02754       -14.60680        -1.52230
| 98>    H       -6.84271       -18.14201         0.78108
| 99>    H       -9.94810       -23.28093        -1.38070
|100>    H      -12.74111       -22.42526        -3.95650
|101>    H      -14.65473       -27.33070        -4.10952
|102>    H      -10.36489       -30.26321        -2.14286
|103>    H      -15.02770       -29.77061        -3.75100
|104>    H       -9.96304       -27.88175        -2.50586
|105> *
|106>
|107>                          ****END OF INPUT****

CARTESIAN COORDINATES (ANGSTROEM)
---------------------------------
  C      5.434450   -4.886280    4.479100
  C      6.503000   -5.690970    4.760100
  F      7.671590   -5.152970    5.131970
  C      6.390880   -7.092550    4.662550
  F      7.454580   -7.856820    4.944010
  C      5.211290   -7.670380    4.284380
  C      4.093250   -6.867750    3.986090
  C      4.204510   -5.450570    4.085340
  C      3.096030   -4.623710    3.789450
  C      1.913170   -5.195980    3.401880
  C      1.814350   -6.612010    3.302870
  C      2.864040   -7.437050    3.585870
  C      0.456630   -6.970090    2.859500
  O      0.030970   -8.097640    2.682640
  C     -0.260970   -5.704120    2.670610
  C      0.624690   -4.612330    3.031710
  C      0.333870   -3.272800    3.047570
  C     -0.908040   -2.692450    2.714170
  N     -1.885150   -2.143300    2.462770
  C      1.255280   -2.270020    3.418150
  N      1.956030   -1.407810    3.706750
  C     -1.542590   -5.578910    2.198910
  C     -2.469760   -6.558790    1.811370
  C     -3.730490   -6.213720    1.316620
  C     -4.488030   -7.320550    0.986780
  C     -3.821250   -8.536480    1.232930
  S     -2.240230   -8.303670    1.867240
  C     -4.614390   -9.633360    0.885790
  C     -5.864710   -9.262090    0.377930
  S     -6.089510   -7.536550    0.326910
  C     -6.670920  -10.344610    0.017680
  C     -6.049130  -11.550530    0.252900
  S     -4.441080  -11.344270    0.928470
  C     -6.541180  -12.886310    0.025670
  C     -5.864890  -13.991080    0.554350
  C     -6.315990  -15.274170    0.355740
  F     -5.593110  -16.268960    0.903060
  C     -7.468140  -15.564570   -0.389880
  C     -8.136740  -14.461070   -0.930760
  C     -7.690180  -13.177040   -0.724680
  F     -8.400520  -12.182450   -1.288810
  C     -7.954740  -16.902830   -0.613780
  C     -7.580660  -18.073190    0.005310
  C     -8.285630  -19.174730   -0.486740
  C     -9.202950  -18.853860   -1.493590
  S     -9.200390  -17.165690   -1.825620
  C     -9.883980  -19.977410   -1.969600
  C     -9.476500  -21.153230   -1.317160
  S     -8.257760  -20.871960   -0.107320
  C    -10.105530  -22.298810   -1.787300
  C    -11.007080  -22.019860   -2.801520
  S    -11.086330  -20.297970   -3.150930
  C    -11.868880  -22.888800   -3.504780
  C    -11.816430  -24.244800   -3.632100
  C    -13.052840  -24.973550   -4.031540
  O    -14.066090  -24.488120   -4.477160
  C    -12.789650  -26.390030   -3.706210
  C    -13.639960  -27.456110   -3.763950
  C    -13.173840  -28.728530   -3.363290
  C    -11.832310  -28.869190   -2.903000
  C    -11.377760  -30.138500   -2.492700
  C    -12.214120  -31.218230   -2.541150
  C    -13.539530  -31.078850   -3.000000
  C    -14.010640  -29.860770   -3.402980
  F    -14.337130  -32.154460   -3.036200
  F    -11.780510  -32.423620   -2.150890
  C    -10.971340  -27.748470   -2.864340
  C    -11.441840  -26.527850   -3.267760
  C    -10.786940  -25.224890   -3.366590
  C     -9.432020  -25.033260   -3.450710
  C     -8.836420  -23.807780   -3.809790
  N     -8.311340  -22.838460   -4.129340
  C     -8.482600  -26.059500   -3.268340
  N     -7.671910  -26.855690   -3.106390
  H      5.537230   -3.815320    4.559360
  H      5.141570   -8.744620    4.214090
  H      3.216020   -3.556040    3.874410
  H      2.758030   -8.508100    3.503360
  H     -1.925600   -4.571830    2.087110
  H     -4.053290   -5.193840    1.210240
  H     -7.660020  -10.239440   -0.384740
  H     -4.968360  -13.847020    1.137370
  H     -9.027540  -14.606800   -1.522300
  H     -6.842710  -18.142010    0.781080
  H     -9.948100  -23.280930   -1.380700
  H    -12.741110  -22.425260   -3.956500
  H    -14.654730  -27.330700   -4.109520
  H    -10.364890  -30.263210   -2.142860
  H    -15.027700  -29.770610   -3.751000
  H     -9.963040  -27.881750   -2.505860

 Total Charge           Charge          ....    0
 Multiplicity           Mult            ....    1
 Number of Electrons    NEL             ....  546
 Basis Dimension        Dim             .... 1140

ORBITAL ENERGIES
----------------

  NO   OCC          E(Eh)            E(eV)
   0   2.0000     -88.978632     -2421.2317
   1   2.0000     -88.977790     -2421.2087
   2   2.0000     -88.976867     -2421.1836
   3   2.0000     -88.972465     -2421.0639
   4   2.0000     -88.971788     -2421.0454
   5   2.0000     -88.970427     -2421.0084
   6   2.0000     -24.802484      -674.9099
   7   2.0000     -24.802214      -674.9025
   8   2.0000     -24.799625      -674.8321
   9   2.0000     -24.799229      -674.8213
  10   2.0000     -24.799050      -674.8165
  11   2.0000     -24.798091      -674.7904
  12   2.0000     -19.224270      -523.1190
  13   2.0000     -19.217655      -522.9390
  14   2.0000     -14.419406      -392.3720
  15   2.0000     -14.419402      -392.3719
  16   2.0000     -14.418348      -392.3432
  17   2.0000     -14.415636      -392.2694
  18   2.0000     -10.382841      -282.5315
  19   2.0000     -10.382414      -282.5199
  20   2.0000     -10.382341      -282.5179
  21   2.0000     -10.381501      -282.4950
  22   2.0000     -10.379607      -282.4435
  23   2.0000     -10.379252      -282.4338
  24   2.0000     -10.372522      -282.2507
  25   2.0000     -10.369188      -282.1599
  26   2.0000     -10.346761      -281.5497
  27   2.0000     -10.345996      -281.5289
  28   2.0000     -10.343938      -281.4729
  29   2.0000     -10.342939      -281.4457
  30   2.0000     -10.330145      -281.0975
  31   2.0000     -10.329533      -281.0809
  32   2.0000     -10.329118      -281.0696
  33   2.0000     -10.327355      -281.0216
  34   2.0000     -10.326575      -281.0004
  35   2.0000     -10.324717      -280.9498
  36   2.0000     -10.323189      -280.9083
  37   2.0000     -10.322459      -280.8884
  38   2.0000     -10.322368      -280.8859
  39   2.0000     -10.322145      -280.8798
  40   2.0000     -10.321583      -280.8645
  41   2.0000     -10.321316      -280.8573
  42   2.0000     -10.320410      -280.8326
  43   2.0000     -10.320108      -280.8244
  44   2.0000     -10.319872      -280.8180
  45   2.0000     -10.319835      -280.8170
  46   2.0000     -10.319262      -280.8014
  47   2.0000     -10.319183      -280.7992
  48   2.0000     -10.318990      -280.7940
  49   2.0000     -10.316257      -280.7196
  50   2.0000     -10.312476      -280.6167
  51   2.0000     -10.312084      -280.6061
  52   2.0000     -10.311429      -280.5883
  53   2.0000     -10.311096      -280.5792
  54   2.0000     -10.310345      -280.5587
  55   2.0000     -10.310258      -280.5564
  56   2.0000     -10.308771      -280.5159
  57   2.0000     -10.308343      -280.5043
  58   2.0000     -10.304913      -280.4109
  59   2.0000     -10.304708      -280.4054
  60   2.0000     -10.304697      -280.4051
  61   2.0000     -10.304475      -280.3990
  62   2.0000     -10.303956      -280.3849
  63   2.0000     -10.303128      -280.3624
  64   2.0000     -10.302694      -280.3505
  65   2.0000     -10.302089      -280.3341
  66   2.0000     -10.301960      -280.3306
  67   2.0000     -10.301164      -280.3089
  68   2.0000     -10.300983      -280.3040
  69   2.0000     -10.299730      -280.2699
  70   2.0000     -10.298543      -280.2376
  71   2.0000     -10.298453      -280.2352
  72   2.0000     -10.295818      -280.1635
  73   2.0000     -10.294550      -280.1289
  74   2.0000      -8.073909      -219.7022
  75   2.0000      -8.072840      -219.6731
  76   2.0000      -8.071968      -219.6494
  77   2.0000      -8.067743      -219.5344
  78   2.0000      -8.065686      -219.4785
  79   2.0000      -8.064786      -219.4540
  80   2.0000      -6.043372      -164.4485
  81   2.0000      -6.042388      -164.4217
  82   2.0000      -6.041503      -164.3977
  83   2.0000      -6.039344      -164.3389
  84   2.0000      -6.038335      -164.3114
  85   2.0000      -6.037451      -164.2874
  86   2.0000      -6.037389      -164.2857
  87   2.0000      -6.035550      -164.2357
  88   2.0000      -6.035486      -164.2339
  89   2.0000      -6.034558      -164.2087
  90   2.0000      -6.034396      -164.2043
  91   2.0000      -6.033635      -164.1836
  92   2.0000      -6.033594      -164.1824
  93   2.0000      -6.031586      -164.1278
  94   2.0000      -6.029890      -164.0817
  95   2.0000      -6.028675      -164.0486
  96   2.0000      -6.026524      -163.9901
  97   2.0000      -6.026431      -163.9875
  98   2.0000      -1.322404       -35.9844
  99   2.0000      -1.321674       -35.9646
 100   2.0000      -1.317235       -35.8438
 101   2.0000      -1.316924       -35.8353
 102   2.0000      -1.307540       -35.5800
 103   2.0000      -1.306812       -35.5602
 104   2.0000      -1.140271       -31.0283
 105   2.0000      -1.133518       -30.8446
 106   2.0000      -1.036385       -28.2015
 107   2.0000      -1.032991       -28.1091
 108   2.0000      -1.022916       -27.8349
 109   2.0000      -1.021619       -27.7997
 110   2.0000      -1.006456       -27.3871
 111   2.0000      -1.006165       -27.3791
 112   2.0000      -1.004289       -27.3281
 113   2.0000      -0.998471       -27.1698
 114   2.0000      -0.996192       -27.1078
 115   2.0000      -0.995231       -27.0816
 116   2.0000      -0.984923       -26.8011
 117   2.0000      -0.982995       -26.7486
 118   2.0000      -0.980492       -26.6805
 119   2.0000      -0.949891       -25.8479
 120   2.0000      -0.941367       -25.6159
 121   2.0000      -0.932365       -25.3710
 122   2.0000      -0.930261       -25.3137
 123   2.0000      -0.907016       -24.6812
 124   2.0000      -0.905715       -24.6458
 125   2.0000      -0.900750       -24.5107
 126   2.0000      -0.894993       -24.3540
 127   2.0000      -0.893856       -24.3231
 128   2.0000      -0.886768       -24.1302
 129   2.0000      -0.885311       -24.0906
 130   2.0000      -0.868892       -23.6437
 131   2.0000      -0.864224       -23.5167
 132   2.0000      -0.855871       -23.2894
 133   2.0000      -0.851803       -23.1788
 134   2.0000      -0.848156       -23.0795
 135   2.0000      -0.842615       -22.9287
 136   2.0000      -0.841626       -22.9018
 137   2.0000      -0.826674       -22.4949
 138   2.0000      -0.818838       -22.2817
 139   2.0000      -0.808904       -22.0114
 140   2.0000      -0.799000       -21.7419
 141   2.0000      -0.793163       -21.5831
 142   2.0000      -0.774490       -21.0749
 143   2.0000      -0.770023       -20.9534
 144   2.0000      -0.767918       -20.8961
 145   2.0000      -0.756554       -20.5869
 146   2.0000      -0.740874       -20.1602
 147   2.0000      -0.736236       -20.0340
 148   2.0000      -0.730961       -19.8905
 149   2.0000      -0.720814       -19.6143
 150   2.0000      -0.719760       -19.5857
 151   2.0000      -0.714479       -19.4420
 152   2.0000      -0.707917       -19.2634
 153   2.0000      -0.691669       -18.8213
 154   2.0000      -0.688113       -18.7245
 155   2.0000      -0.685029       -18.6406
 156   2.0000      -0.677935       -18.4475
 157   2.0000      -0.671791       -18.2804
 158   2.0000      -0.668041       -18.1783
 159   2.0000      -0.664700       -18.0874
 160   2.0000      -0.660005       -17.9597
 161   2.0000      -0.656315       -17.8592
 162   2.0000      -0.652601       -17.7582
 163   2.0000      -0.648913       -17.6578
 164   2.0000      -0.644891       -17.5484
 165   2.0000      -0.644259       -17.5312
 166   2.0000      -0.642211       -17.4755
 167   2.0000      -0.636069       -17.3083
 168   2.0000      -0.633044       -17.2260
 169   2.0000      -0.629891       -17.1402
 170   2.0000      -0.618183       -16.8216
 171   2.0000      -0.615240       -16.7415
 172   2.0000      -0.613437       -16.6925
 173   2.0000      -0.608608       -16.5611
 174   2.0000      -0.594517       -16.1776
 175   2.0000      -0.591438       -16.0938
 176   2.0000      -0.586887       -15.9700
 177   2.0000      -0.586675       -15.9642
 178   2.0000      -0.586157       -15.9501
 179   2.0000      -0.582391       -15.8477
 180   2.0000      -0.579678       -15.7739
 181   2.0000      -0.579316       -15.7640
 182   2.0000      -0.576961       -15.6999
 183   2.0000      -0.572197       -15.5703
 184   2.0000      -0.567047       -15.4301
 185   2.0000      -0.563570       -15.3355
 186   2.0000      -0.560730       -15.2582
 187   2.0000      -0.556246       -15.1362
 188   2.0000      -0.554685       -15.0937
 189   2.0000      -0.550506       -14.9800
 190   2.0000      -0.548458       -14.9243
 191   2.0000      -0.547762       -14.9054
 192   2.0000      -0.545098       -14.8329
 193   2.0000      -0.543874       -14.7996
 194   2.0000      -0.543583       -14.7916
 195   2.0000      -0.538847       -14.6628
 196   2.0000      -0.537394       -14.6232
 197   2.0000      -0.534362       -14.5407
 198   2.0000      -0.533909       -14.5284
 199   2.0000      -0.532277       -14.4840
 200   2.0000      -0.530476       -14.4350
 201   2.0000      -0.529707       -14.4140
 202   2.0000      -0.528657       -14.3855
 203   2.0000      -0.524620       -14.2756
 204   2.0000      -0.520765       -14.1707
 205   2.0000      -0.517253       -14.0752
 206   2.0000      -0.515311       -14.0223
 207   2.0000      -0.512296       -13.9403
 208   2.0000      -0.506840       -13.7918
 209   2.0000      -0.505736       -13.7618
 210   2.0000      -0.503695       -13.7062
 211   2.0000      -0.500266       -13.6129
 212   2.0000      -0.498299       -13.5594
 213   2.0000      -0.495866       -13.4932
 214   2.0000      -0.494752       -13.4629
 215   2.0000      -0.492599       -13.4043
 216   2.0000      -0.491819       -13.3831
 217   2.0000      -0.488587       -13.2951
 218   2.0000      -0.485704       -13.2167
 219   2.0000      -0.484353       -13.1799
 220   2.0000      -0.480941       -13.0871
 221   2.0000      -0.477969       -13.0062
 222   2.0000      -0.471107       -12.8195
 223   2.0000      -0.470124       -12.7927
 224   2.0000      -0.467221       -12.7137
 225   2.0000      -0.466200       -12.6860
 226   2.0000      -0.463510       -12.6127
 227   2.0000      -0.463253       -12.6058
 228   2.0000      -0.461862       -12.5679
 229   2.0000      -0.454638       -12.3713
 230   2.0000      -0.453304       -12.3350
 231   2.0000      -0.451868       -12.2959
 232   2.0000      -0.449010       -12.2182
 233   2.0000      -0.448178       -12.1956
 234   2.0000      -0.447734       -12.1835
 235   2.0000      -0.445812       -12.1312
 236   2.0000      -0.445173       -12.1138
 237   2.0000      -0.438130       -11.9221
 238   2.0000      -0.436003       -11.8643
 239   2.0000      -0.433768       -11.8034
 240   2.0000      -0.431586       -11.7441
 241   2.0000      -0.431305       -11.7364
 242   2.0000      -0.429684       -11.6923
 243   2.0000      -0.429149       -11.6777
 244   2.0000      -0.426935       -11.6175
 245   2.0000      -0.424958       -11.5637
 246   2.0000      -0.422587       -11.4992
 247   2.0000      -0.419604       -11.4180
 248   2.0000      -0.413055       -11.2398
 249   2.0000      -0.411617       -11.2007
 250   2.0000      -0.407267       -11.0823
 251   2.0000      -0.400752       -10.9050
 252   2.0000      -0.400419       -10.8960
 253   2.0000      -0.392737       -10.6869
 254   2.0000      -0.388899       -10.5825
 255   2.0000      -0.386188       -10.5087
 256   2.0000      -0.372810       -10.1447
 257   2.0000      -0.363774        -9.8988
 258   2.0000      -0.348096        -9.4722
 259   2.0000      -0.346654        -9.4329
 260   2.0000      -0.342975        -9.3328
 261   2.0000      -0.338983        -9.2242
 262   2.0000      -0.337920        -9.1953
 263   2.0000      -0.335750        -9.1362
 264   2.0000      -0.320206        -8.7132
 265   2.0000      -0.319375        -8.6906
 266   2.0000      -0.315417        -8.5829
 267   2.0000      -0.303735        -8.2651
 268   2.0000      -0.301446        -8.2028
 269   2.0000      -0.297726        -8.1015
 270   2.0000      -0.295447        -8.0395
 271   2.0000      -0.274344        -7.4653
 272   2.0000      -0.255085        -6.9412
 273   0.0000      -0.103983        -2.8295
 274   0.0000      -0.097765        -2.6603
 275   0.0000      -0.066141        -1.7998
 276   0.0000      -0.062120        -1.6904
 277   0.0000      -0.053544        -1.4570

MULLIKEN ATOMIC CHARGES
-----------------------
   0 C :   -0.112661
   1 C :    0.243358
   2 F :   -0.170688
   3 C :    0.240110
   4 F :   -0.171245
   5 C :   -0.109946
   6 C :    0.119562
   7 C :    0.117692
   8 C :   -0.089822
   9 C :    0.050487
  10 C :   -0.001624
  11 C :   -0.085927
  12 C :    0.169422
  13 O :   -0.181354
  14 C :   -0.096505
  15 C :    0.334456
  16 C :   -0.358543
  17 C :   -0.185089
  18 N :    0.142674
  19 C :   -0.181943
  20 N :    0.145511
  21 C :   -0.023215
  22 C :   -0.052922
  23 C :   -0.055088
  24 C :    0.005039
  25 C :   -0.048679
  26 S :    0.210663
  27 C :   -0.080248
  28 C :   -0.017408
  29 S :    0.167999
  30 C :   -0.046562
  31 C :   -0.069515
  32 S :    0.143433
  33 C :    0.097288
  34 C :   -0.113036
  35 C :    0.225694
  36 F :   -0.185443
  37 C :    0.097390
  38 C :   -0.113339
  39 C :    0.226482
  40 F :   -0.185666
  41 C :   -0.066331
  42 C :   -0.052113
  43 C :   -0.018851
  44 C :   -0.072684
  45 S :    0.140720
  46 C :   -0.053276
  47 C :   -0.043816
  48 S :    0.176617
  49 C :    0.014713
  50 C :   -0.118802
  51 S :    0.178172
  52 C :    0.089738
  53 C :   -0.141595
  54 C :    0.139141
  55 O :   -0.140936
  56 C :    0.012789
  57 C :   -0.080466
  58 C :    0.109515
  59 C :    0.109197
  60 C :   -0.103638
  61 C :    0.240396
  62 C :    0.238372
  63 C :   -0.101614
  64 F :   -0.171745
  65 F :   -0.170809
  66 C :   -0.080970
  67 C :    0.035863
  68 C :    0.266538
  69 C :   -0.340553
  70 C :   -0.206209
  71 N :    0.177972
  72 C :   -0.172938
  73 N :    0.153167
  74 H :    0.009324
  75 H :    0.000072
  76 H :   -0.006465
  77 H :   -0.010067
  78 H :    0.009372
  79 H :    0.011319
  80 H :    0.001455
  81 H :    0.007187
  82 H :    0.006225
  83 H :    0.003421
  84 H :    0.006236
  85 H :    0.024699
  86 H :   -0.009006
  87 H :    0.006203
  88 H :   -0.000949
  89 H :   -0.005380
Sum of atomic charges:   -0.0000000

LOEWDIN ATOMIC CHARGES
----------------------
   0 C :   -0.029224
   1 C :    0.066471
   2 F :   -0.048589
   3 C :    0.067551
   4 F :   -0.049238
   5 C :   -0.033751
   6 C :   -0.008990
   7 C :   -0.006595
   8 C :    0.017709
   9 C :   -0.021979
  10 C :   -0.051581
  11 C :    0.029106
  12 C :    0.084440
  13 O :   -0.167679
  14 C :   -0.113418
  15 C :    0.077642
  16 C :   -0.144146
  17 C :   -0.020766
  18 N :   -0.055280
  19 C :   -0.017283
  20 N :   -0.055766
  21 C :    0.059552
  22 C :   -0.179002
  23 C :   -0.020015
  24 C :   -0.196462
  25 C :   -0.200909
  26 S :    0.497665
  27 C :   -0.222286
  28 C :   -0.177436
  29 S :    0.409107
  30 C :   -0.058873
  31 C :   -0.145916
  32 S :    0.440837
  33 C :   -0.056921
  34 C :   -0.039665
  35 C :    0.089151
  36 F :   -0.057012
  37 C :   -0.055439
  38 C :   -0.040594
  39 C :    0.089456
  40 F :   -0.057508
  41 C :   -0.148136
  42 C :   -0.056867
  43 C :   -0.180269
  44 C :   -0.218561
  45 S :    0.437134
  46 C :   -0.194809
  47 C :   -0.188090
  48 S :    0.421351
  49 C :   -0.019856
  50 C :   -0.178336
  51 S :    0.453879
  52 C :    0.050748
  53 C :   -0.098057
  54 C :    0.082354
  55 O :   -0.142814
  56 C :   -0.053934
  57 C :    0.030642
  58 C :   -0.009696
  59 C :   -0.006099
  60 C :   -0.030371
  61 C :    0.066811
  62 C :    0.066936
  63 C :   -0.032591
  64 F :   -0.049161
  65 F :   -0.048429
  66 C :    0.013224
  67 C :   -0.020435
  68 C :    0.064993
  69 C :   -0.142510
  70 C :   -0.020453
  71 N :   -0.038840
  72 C :   -0.020601
  73 N :   -0.052335
  74 H :    0.048122
  75 H :    0.044768
  76 H :    0.040069
  77 H :    0.040156
  78 H :    0.051326
  79 H :    0.042997
  80 H :    0.035325
  81 H :    0.035202
  82 H :    0.035245
  83 H :    0.035692
  84 H :    0.038824
  85 H :    0.046880
  86 H :    0.040792
  87 H :    0.047271
  88 H :    0.044852
  89 H :    0.039290

  Mayer bond orders larger than 0.100000
B(  0-C ,  1-C ) :   1.4387 B(  0-C ,  5-C ) :   0.1086 B(  0-C ,  7-C ) :   1.1883
B(  0-C , 74-H ) :   1.0077 B(  1-C ,  2-F ) :   1.1346 B(  1-C ,  3-C ) :   1.1926
B(  3-C ,  4-F ) :   1.1338 B(  3-C ,  5-C ) :   1.4414 B(  5-C ,  6-C ) :   1.1921
B(  5-C , 75-H ) :   1.0079 B(  6-C ,  7-C ) :   1.2567 B(  6-C , 11-C ) :   1.1843
B(  7-C ,  8-C ) :   1.2126 B(  8-C ,  9-C ) :   1.4524 B(  8-C , 76-H ) :   0.9906
B(  9-C , 10-C ) :   1.2219 B(  9-C , 15-C ) :   0.9793 B( 10-C , 11-C ) :   1.4697
B( 10-C , 12-C ) :   0.9567 B( 11-C , 77-H ) :   1.0177 B( 12-C , 13-O ) :   2.1281
B( 12-C , 14-C ) :   0.9795 B( 14-C , 15-C ) :   1.0844 B( 14-C , 21-C ) :   1.4791
B( 15-C , 16-C ) :   1.6202 B( 16-C , 17-C ) :   1.1428 B( 16-C , 19-C ) :   1.1493
B( 17-C , 18-N ) :   2.9562 B( 19-C , 20-N ) :   2.9581 B( 21-C , 22-C ) :   1.2794
B( 21-C , 78-H ) :   0.9393 B( 22-C , 23-C ) :   1.3641 B( 22-C , 26-S ) :   1.0677
B( 23-C , 24-C ) :   1.3303 B( 23-C , 79-H ) :   1.0131 B( 24-C , 25-C ) :   1.3779
B( 24-C , 29-S ) :   1.0347 B( 25-C , 26-S ) :   1.0637 B( 25-C , 27-C ) :   1.3137
B( 27-C , 28-C ) :   1.4532 B( 27-C , 32-S ) :   1.0707 B( 28-C , 29-S ) :   1.0536
B( 28-C , 30-C ) :   1.2488 B( 30-C , 31-C ) :   1.5352 B( 30-C , 80-H ) :   0.9996
B( 31-C , 32-S ) :   1.1033 B( 31-C , 33-C ) :   1.0921 B( 33-C , 34-C ) :   1.2710
B( 33-C , 39-C ) :   1.3030 B( 34-C , 35-C ) :   1.4093 B( 34-C , 81-H ) :   0.9823
B( 35-C , 36-F ) :   1.1034 B( 35-C , 37-C ) :   1.3030 B( 37-C , 38-C ) :   1.2723
B( 37-C , 41-C ) :   1.0919 B( 38-C , 39-C ) :   1.4080 B( 38-C , 82-H ) :   0.9827
B( 39-C , 40-F ) :   1.1036 B( 41-C , 42-C ) :   1.5390 B( 41-C , 45-S ) :   1.0976
B( 42-C , 43-C ) :   1.2427 B( 42-C , 83-H ) :   1.0015 B( 43-C , 44-C ) :   1.4592
B( 43-C , 48-S ) :   1.0582 B( 44-C , 45-S ) :   1.0712 B( 44-C , 46-C ) :   1.3090
B( 46-C , 47-C ) :   1.4266 B( 46-C , 51-S ) :   1.0999 B( 47-C , 48-S ) :   1.0478
B( 47-C , 49-C ) :   1.3407 B( 49-C , 50-C ) :   1.4462 B( 49-C , 84-H ) :   0.9881
B( 50-C , 51-S ) :   1.0760 B( 50-C , 52-C ) :   1.1511 B( 52-C , 53-C ) :   1.6507
B( 52-C , 85-H ) :   0.9271 B( 53-C , 54-C ) :   0.9462 B( 53-C , 68-C ) :   1.0458
B( 54-C , 55-O ) :   2.2706 B( 54-C , 56-C ) :   0.9151 B( 56-C , 57-C ) :   1.4785
B( 56-C , 67-C ) :   1.2220 B( 57-C , 58-C ) :   1.1920 B( 57-C , 86-H ) :   1.0155
B( 58-C , 59-C ) :   1.2572 B( 58-C , 63-C ) :   1.1959 B( 59-C , 60-C ) :   1.1898
B( 59-C , 66-C ) :   1.2160 B( 60-C , 61-C ) :   1.4418 B( 60-C , 63-C ) :   0.1084
B( 60-C , 87-H ) :   1.0061 B( 61-C , 62-C ) :   1.1918 B( 61-C , 65-F ) :   1.1344
B( 62-C , 63-C ) :   1.4429 B( 62-C , 64-F ) :   1.1327 B( 63-C , 88-H ) :   1.0061
B( 66-C , 67-C ) :   1.4561 B( 66-C , 89-H ) :   0.9938 B( 67-C , 68-C ) :   0.9960
B( 68-C , 69-C ) :   1.6437 B( 69-C , 70-C ) :   1.1660 B( 69-C , 72-C ) :   1.1297
B( 70-C , 71-N ) :   3.0067 B( 72-C , 73-N ) :   2.9859

-----------------------------------------------------------------------------
         ABSORPTION SPECTRUM VIA TRANSITION ELECTRIC DIPOLE MOMENTS
-----------------------------------------------------------------------------
State   Energy  Wavelength   fosc         T2         TX        TY        TZ
        (cm-1)    (nm)                  (au**2)     (au)      (au)      (au)
-----------------------------------------------------------------------------
   0   18339.6    545.3   2.695758349  48.39129   3.19326   5.84231   2.01538
   1   20319.3    492.1   0.462516188   7.49367  -2.55906  -0.81689  -0.52685
   2   26024.2    384.3   0.000542289   0.00686   0.00007  -0.06385  -0.05276
   3   26066.1    383.6   0.080569011   1.01758   0.54126  -0.78812   0.32169
   4   26593.9    376.0   0.207604757   2.56999  -0.95422  -1.23222  -0.37559
   5   26953.1    371.0   0.025022675   0.30563   0.33181  -0.41348  -0.15676
   6   27324.3    366.0   0.050101502   0.60364   0.29855   0.70546   0.12972
   7   27574.3    362.7   0.172807025   2.06316   0.60923   1.26092  -0.31950
   8   28558.0    350.2   0.176001447   2.02892   0.72009  -1.20548   0.23917
   9   28845.0    346.7   0.000776982   0.00887   0.02488   0.00547   0.09066
  10   28983.2    345.0   0.063544955   0.72179   0.76206   0.09059   0.36448
  11   29571.4    338.2   0.319760758   3.55982   1.37445   1.22801   0.40336
  12   30075.3    332.5   0.120778849   1.32208   0.83362  -0.74471   0.26938
  13   30370.0    329.3   0.179806980   1.94911  -0.75155  -1.17621  -0.02830
  14   30856.8    324.1   0.193244041   2.06172   0.33056   1.35721   0.33232
  15   33655.3    297.1   0.113631113   1.11153  -0.06792  -1.01932   0.26059
  16   33789.9    295.9   0.058621782   0.57115   0.62493   0.39740  -0.15058
  17   33898.8    295.0   0.011694073   0.11357   0.17278   0.21604   0.19246
  18   34005.2    294.1   0.059945487   0.58035   0.37456  -0.66216   0.03996
  19   34079.2    293.4   0.016920988   0.16346  -0.32903   0.22304  -0.07383
  20   34374.3    290.9   0.250365046   2.39782  -1.49086  -0.40590  -0.10196
  21   34735.1    287.9   0.656839819   6.22538   2.16608  -1.08377   0.59910
  22   35348.1    282.9   0.223885368   2.08514   0.14910  -1.42578   0.17338
  23   35404.5    282.4   0.327822819   3.04829   1.42838   1.00352  -0.03088
  24   35512.0    281.6   0.129933718   1.20454   0.01957   1.06219  -0.27554
  25   35928.8    278.3   0.121864574   1.11663   0.16883   1.03739  -0.10934
  26   36587.2    273.3   0.087731968   0.78941   0.55232  -0.69446   0.04566
  27   36874.0    271.2   0.059571145   0.53185   0.47590  -0.43410   0.34195
  28   37246.3    268.5   0.013936684   0.12318  -0.25686  -0.17312  -0.16503
  29   37567.4    266.2   0.007861996   0.06890   0.21712  -0.14468  -0.02864
  30   37759.5    264.8   0.023813711   0.20762   0.13965   0.26899   0.34024
  31   38029.6    263.0   0.028574582   0.24736  -0.00106  -0.43776   0.23606
  32   38301.4    261.1   0.013819574   0.11878  -0.04470  -0.34162  -0.00888
  33   38611.1    259.0   0.024626466   0.20997  -0.16323  -0.37478  -0.20706
  34   38817.5    257.6   0.073324198   0.62186   0.75773   0.08458   0.20137
  35   38951.2    256.7   0.100654032   0.85072   0.80698  -0.20555   0.39655
  36   39536.5    252.9   0.167618792   1.39573   0.79352   0.84717   0.21992
  37   39570.0    252.7   0.099928187   0.83138   0.29587  -0.86246   0.00013
  38   40103.6    249.4   0.060858123   0.49959   0.47554  -0.14497   0.50243
  39   40267.8    248.3   0.014639966   0.11969   0.25049  -0.21394   0.10570

FINAL SINGLE POINT ENERGY     -5496.668442290389

DIPOLE MOMENT
-------------
                                X             Y             Z
Electronic contribution:      7.01142      -8.36084       2.98989
Nuclear contribution   :     -8.56347       7.04104      -2.38653
                        -----------------------------------------
Total Dipole Moment    :     -1.55205      -1.31980       0.60336
                        -----------------------------------------
Magnitude (a.u.)       :      2.12480
Magnitude (Debye)      :      5.40081

Rotational constants in cm-1:     0.001968     0.000132     0.000125
Rotational constants in MHz :    58.991660     3.964728     3.740007

                             ****ORCA TERMINATED NORMALLY****
TOTAL RUN TIME: 0 days 0 hours 8 minutes 21 seconds 20 msec
