                         Program Version 4.2.0 -  RELEASE  -
|  1> # ORCA input file
|  2> # SCF done       -200.249005868009          0.000627149602
|  3> ! CAM-B3LYP def2-SVP def2/J RIJCOSX Grid4 TightSCF
|  4> %maxcore 5000
|  5> %tddft
|  6>     Mode sTDDFT
|  7>     Ethresh 5.0
|  8>     maxcore 5000
|  9> end
| 10>
| 11> %pal
| 12>   nprocs 6
| 13>   end
| 14> * xyz 0 1
| 15>    C        2.82722        -6.30321         9.82110
| 16>    C        2.78875        -6.89288        11.05359
| 17>    F        3.61983        -6.48542        12.02061
| 18>    C        1.87788        -7.93452        11.32286
| 19>    F        1.86349        -8.49410        12.53909
| 20>    C        1.01734        -8.37197        10.35511
| 21>    C        1.03344        -7.78483         9.07512
| 22>    C        1.95393        -6.73174         8.80129
| 23>    C        1.99062        -6.12879         7.52287
| 24>    C        1.13476        -6.56677         6.54660
| 25>    C        0.22075        -7.62019         6.83029
| 26>    C        0.15890        -8.22007         8.05496
| 27>    C       -0.56986        -7.91024         5.62336
| 28>    O       -1.45611        -8.73881         5.52113
| 29>    C       -0.06872        -7.00827         4.57749
| 30>    C        0.95217        -6.15231         5.15713
| 31>    C        1.62123        -5.12505         4.54563
| 32>    C        2.59597        -4.32754         5.18346
| 33>    N        3.39432        -3.64258         5.64246
| 34>    C        1.43870        -4.69896         3.21290
| 35>    N        1.34818        -4.28944         2.14367
| 36>    C       -0.46403        -7.01644         3.26659
| 37>    C       -1.41783        -7.81261         2.60790
| 38>    C       -1.62449        -7.70721         1.23110
| 39>    C       -2.59173        -8.58367         0.77646
| 40>    C       -3.15477        -9.36392         1.80346
| 41>    S       -2.46341        -9.02294         3.34133
| 42>    C       -4.11890       -10.24699         1.30615
| 43>    C       -4.27938       -10.14729        -0.08235
| 44>    S       -3.25045        -8.94042        -0.79928
| 45>    C       -5.21856       -11.03919        -0.60106
| 46>    C       -5.78534       -11.81208         0.38905
| 47>    S       -5.15937       -11.44378         1.97920
| 48>    C       -6.76789       -12.84627         0.21561
| 49>    C       -7.39507       -13.47894         1.24132
| 50>    C       -8.35257       -14.50917         0.98416
| 51>    C       -9.03136       -15.15772         1.99942
| 52>    C       -9.96863       -16.16852         1.73137
| 53>    N      -10.73281       -16.99397         1.49871
| 54>    C       -8.82478       -14.83455         3.35042
| 55>    N       -8.65372       -14.56483         4.45372
| 56>    C       -8.55539       -14.82796        -0.39485
| 57>    C       -7.88809       -14.15219        -1.36622
| 58>    O       -7.01371       -13.14758        -1.08840
| 59>    C       -8.01548       -14.42844        -2.77044
| 60>    C       -7.38186       -13.77023        -3.80081
| 61>    C       -7.70746       -14.32061        -5.04178
| 62>    C       -8.58964       -15.40594        -4.95652
| 63>    S       -9.02942       -15.74153        -3.32526
| 64>    C       -8.87451       -15.95244        -6.21057
| 65>    C       -8.21670       -15.27506        -7.24696
| 66>    S       -7.23559       -13.95744        -6.67542
| 67>    C       -8.48434       -15.79570        -8.51099
| 68>    C       -9.30564       -16.90406        -8.45287
| 69>    S       -9.81379       -17.26231        -6.80651
| 70>    C       -9.77970       -17.64533        -9.56605
| 71>    C      -10.25146       -18.91761        -9.60559
| 72>    C      -11.11230       -19.35082       -10.74438
| 73>    O      -11.26167       -18.77631       -11.79622
| 74>    C      -11.77661       -20.58264       -10.27310
| 75>    C      -12.76330       -21.30890       -10.87586
| 76>    C      -13.27401       -22.45090       -10.21938
| 77>    C      -12.75281       -22.81812        -8.94417
| 78>    C      -13.27266       -23.95485        -8.29287
| 79>    C      -14.26137       -24.69322        -8.88018
| 80>    C      -14.77562       -24.32961       -10.14155
| 81>    C      -14.29275       -23.23270       -10.79840
| 82>    F      -15.74566       -25.07050       -10.69202
| 83>    F      -14.75342       -25.77297        -8.26091
| 84>    C      -11.72568       -22.05196        -8.34754
| 85>    C      -11.24140       -20.95349        -9.00574
| 86>    C      -10.17886       -20.01439        -8.66042
| 87>    C       -9.14279       -20.27017        -7.80316
| 88>    C       -7.99023       -19.46065        -7.72029
| 89>    N       -7.02039       -18.84928        -7.66539
| 90>    C       -9.06880       -21.41765        -6.98680
| 91>    N       -8.97244       -22.32956        -6.29729
| 92>    H        3.53044        -5.50714         9.63241
| 93>    H        0.32629        -9.17015        10.57650
| 94>    H        2.70087        -5.33692         7.34943
| 95>    H       -0.54513        -9.01682         8.24076
| 96>    H        0.03321        -6.32145         2.60077
| 97>    H       -1.07821        -7.01983         0.61104
| 98>    H       -5.48065       -11.12022        -1.63899
| 99>    H       -7.17251       -13.20250         2.25983
|100>    H       -9.24262       -15.61512        -0.66239
|101>    H       -6.71712       -12.94035        -3.65345
|102>    H       -8.07126       -15.41763        -9.42776
|103>    H       -9.83912       -17.09742       -10.50202
|104>    H      -13.14957       -21.01613       -11.84024
|105>    H      -12.88807       -24.24913        -7.32891
|106>    H      -14.69676       -22.96785       -11.76291
|107>    H      -11.35376       -22.34465        -7.37846
|108> *
|109>
|110>                          ****END OF INPUT****

CARTESIAN COORDINATES (ANGSTROEM)
---------------------------------
  C      2.827220   -6.303210    9.821100
  C      2.788750   -6.892880   11.053590
  F      3.619830   -6.485420   12.020610
  C      1.877880   -7.934520   11.322860
  F      1.863490   -8.494100   12.539090
  C      1.017340   -8.371970   10.355110
  C      1.033440   -7.784830    9.075120
  C      1.953930   -6.731740    8.801290
  C      1.990620   -6.128790    7.522870
  C      1.134760   -6.566770    6.546600
  C      0.220750   -7.620190    6.830290
  C      0.158900   -8.220070    8.054960
  C     -0.569860   -7.910240    5.623360
  O     -1.456110   -8.738810    5.521130
  C     -0.068720   -7.008270    4.577490
  C      0.952170   -6.152310    5.157130
  C      1.621230   -5.125050    4.545630
  C      2.595970   -4.327540    5.183460
  N      3.394320   -3.642580    5.642460
  C      1.438700   -4.698960    3.212900
  N      1.348180   -4.289440    2.143670
  C     -0.464030   -7.016440    3.266590
  C     -1.417830   -7.812610    2.607900
  C     -1.624490   -7.707210    1.231100
  C     -2.591730   -8.583670    0.776460
  C     -3.154770   -9.363920    1.803460
  S     -2.463410   -9.022940    3.341330
  C     -4.118900  -10.246990    1.306150
  C     -4.279380  -10.147290   -0.082350
  S     -3.250450   -8.940420   -0.799280
  C     -5.218560  -11.039190   -0.601060
  C     -5.785340  -11.812080    0.389050
  S     -5.159370  -11.443780    1.979200
  C     -6.767890  -12.846270    0.215610
  C     -7.395070  -13.478940    1.241320
  C     -8.352570  -14.509170    0.984160
  C     -9.031360  -15.157720    1.999420
  C     -9.968630  -16.168520    1.731370
  N    -10.732810  -16.993970    1.498710
  C     -8.824780  -14.834550    3.350420
  N     -8.653720  -14.564830    4.453720
  C     -8.555390  -14.827960   -0.394850
  C     -7.888090  -14.152190   -1.366220
  O     -7.013710  -13.147580   -1.088400
  C     -8.015480  -14.428440   -2.770440
  C     -7.381860  -13.770230   -3.800810
  C     -7.707460  -14.320610   -5.041780
  C     -8.589640  -15.405940   -4.956520
  S     -9.029420  -15.741530   -3.325260
  C     -8.874510  -15.952440   -6.210570
  C     -8.216700  -15.275060   -7.246960
  S     -7.235590  -13.957440   -6.675420
  C     -8.484340  -15.795700   -8.510990
  C     -9.305640  -16.904060   -8.452870
  S     -9.813790  -17.262310   -6.806510
  C     -9.779700  -17.645330   -9.566050
  C    -10.251460  -18.917610   -9.605590
  C    -11.112300  -19.350820  -10.744380
  O    -11.261670  -18.776310  -11.796220
  C    -11.776610  -20.582640  -10.273100
  C    -12.763300  -21.308900  -10.875860
  C    -13.274010  -22.450900  -10.219380
  C    -12.752810  -22.818120   -8.944170
  C    -13.272660  -23.954850   -8.292870
  C    -14.261370  -24.693220   -8.880180
  C    -14.775620  -24.329610  -10.141550
  C    -14.292750  -23.232700  -10.798400
  F    -15.745660  -25.070500  -10.692020
  F    -14.753420  -25.772970   -8.260910
  C    -11.725680  -22.051960   -8.347540
  C    -11.241400  -20.953490   -9.005740
  C    -10.178860  -20.014390   -8.660420
  C     -9.142790  -20.270170   -7.803160
  C     -7.990230  -19.460650   -7.720290
  N     -7.020390  -18.849280   -7.665390
  C     -9.068800  -21.417650   -6.986800
  N     -8.972440  -22.329560   -6.297290
  H      3.530440   -5.507140    9.632410
  H      0.326290   -9.170150   10.576500
  H      2.700870   -5.336920    7.349430
  H     -0.545130   -9.016820    8.240760
  H      0.033210   -6.321450    2.600770
  H     -1.078210   -7.019830    0.611040
  H     -5.480650  -11.120220   -1.638990
  H     -7.172510  -13.202500    2.259830
  H     -9.242620  -15.615120   -0.662390
  H     -6.717120  -12.940350   -3.653450
  H     -8.071260  -15.417630   -9.427760
  H     -9.839120  -17.097420  -10.502020
  H    -13.149570  -21.016130  -11.840240
  H    -12.888070  -24.249130   -7.328910
  H    -14.696760  -22.967850  -11.762910
  H    -11.353760  -22.344650   -7.378460

 Total Charge           Charge          ....    0
 Multiplicity           Mult            ....    1
 Number of Electrons    NEL             ....  562
 Basis Dimension        Dim             .... 1182

ORBITAL ENERGIES
----------------

  NO   OCC          E(Eh)            E(eV)
   0   2.0000     -88.993289     -2421.6305
   1   2.0000     -88.992639     -2421.6128
   2   2.0000     -88.986845     -2421.4552
   3   2.0000     -88.984205     -2421.3833
   4   2.0000     -88.981431     -2421.3078
   5   2.0000     -88.980962     -2421.2951
   6   2.0000     -24.802479      -674.9098
   7   2.0000     -24.802370      -674.9068
   8   2.0000     -24.801707      -674.8888
   9   2.0000     -24.801559      -674.8847
  10   2.0000     -19.333050      -526.0790
  11   2.0000     -19.231724      -523.3218
  12   2.0000     -19.224300      -523.1198
  13   2.0000     -14.425889      -392.5484
  14   2.0000     -14.423867      -392.4934
  15   2.0000     -14.421732      -392.4353
  16   2.0000     -14.421691      -392.4342
  17   2.0000     -14.400287      -391.8517
  18   2.0000     -14.400180      -391.8488
  19   2.0000     -10.397690      -282.9355
  20   2.0000     -10.397641      -282.9342
  21   2.0000     -10.386176      -282.6222
  22   2.0000     -10.385973      -282.6167
  23   2.0000     -10.385498      -282.6038
  24   2.0000     -10.385470      -282.6030
  25   2.0000     -10.379589      -282.4430
  26   2.0000     -10.376103      -282.3481
  27   2.0000     -10.353271      -281.7268
  28   2.0000     -10.350854      -281.6611
  29   2.0000     -10.350620      -281.6547
  30   2.0000     -10.350049      -281.6391
  31   2.0000     -10.342587      -281.4361
  32   2.0000     -10.341814      -281.4151
  33   2.0000     -10.341234      -281.3993
  34   2.0000     -10.337710      -281.3034
  35   2.0000     -10.336876      -281.2807
  36   2.0000     -10.335517      -281.2437
  37   2.0000     -10.334998      -281.2296
  38   2.0000     -10.334929      -281.2277
  39   2.0000     -10.332945      -281.1737
  40   2.0000     -10.332763      -281.1688
  41   2.0000     -10.332743      -281.1682
  42   2.0000     -10.332700      -281.1671
  43   2.0000     -10.329923      -281.0915
  44   2.0000     -10.328597      -281.0554
  45   2.0000     -10.328506      -281.0529
  46   2.0000     -10.326805      -281.0067
  47   2.0000     -10.325767      -280.9784
  48   2.0000     -10.324630      -280.9475
  49   2.0000     -10.323624      -280.9201
  50   2.0000     -10.322638      -280.8933
  51   2.0000     -10.319842      -280.8172
  52   2.0000     -10.319384      -280.8047
  53   2.0000     -10.317475      -280.7528
  54   2.0000     -10.316247      -280.7193
  55   2.0000     -10.316221      -280.7186
  56   2.0000     -10.315909      -280.7102
  57   2.0000     -10.315829      -280.7080
  58   2.0000     -10.315641      -280.7029
  59   2.0000     -10.314793      -280.6798
  60   2.0000     -10.313735      -280.6510
  61   2.0000     -10.313026      -280.6317
  62   2.0000     -10.312595      -280.6200
  63   2.0000     -10.309479      -280.5352
  64   2.0000     -10.309213      -280.5279
  65   2.0000     -10.309040      -280.5232
  66   2.0000     -10.308653      -280.5127
  67   2.0000     -10.308587      -280.5109
  68   2.0000     -10.308319      -280.5036
  69   2.0000     -10.305842      -280.4362
  70   2.0000     -10.305794      -280.4349
  71   2.0000     -10.305049      -280.4146
  72   2.0000     -10.304908      -280.4108
  73   2.0000     -10.303796      -280.3805
  74   2.0000     -10.303693      -280.3777
  75   2.0000     -10.300778      -280.2984
  76   2.0000     -10.299964      -280.2763
  77   2.0000      -8.088055      -220.0872
  78   2.0000      -8.087473      -220.0713
  79   2.0000      -8.081523      -219.9094
  80   2.0000      -8.079396      -219.8516
  81   2.0000      -8.076690      -219.7779
  82   2.0000      -8.073866      -219.7011
  83   2.0000      -6.057664      -164.8374
  84   2.0000      -6.057031      -164.8202
  85   2.0000      -6.053561      -164.7258
  86   2.0000      -6.052914      -164.7082
  87   2.0000      -6.051140      -164.6599
  88   2.0000      -6.049544      -164.6165
  89   2.0000      -6.049124      -164.6050
  90   2.0000      -6.049054      -164.6031
  91   2.0000      -6.047000      -164.5472
  92   2.0000      -6.046460      -164.5326
  93   2.0000      -6.045271      -164.5002
  94   2.0000      -6.043599      -164.4547
  95   2.0000      -6.043033      -164.4393
  96   2.0000      -6.042614      -164.4279
  97   2.0000      -6.040350      -164.3663
  98   2.0000      -6.038974      -164.3288
  99   2.0000      -6.037528      -164.2895
 100   2.0000      -6.035544      -164.2355
 101   2.0000      -1.325312       -36.0636
 102   2.0000      -1.325250       -36.0619
 103   2.0000      -1.310417       -35.6583
 104   2.0000      -1.310337       -35.6561
 105   2.0000      -1.242300       -33.8047
 106   2.0000      -1.147757       -31.2320
 107   2.0000      -1.140223       -31.0270
 108   2.0000      -1.048080       -28.5197
 109   2.0000      -1.044779       -28.4299
 110   2.0000      -1.028234       -27.9797
 111   2.0000      -1.027845       -27.9691
 112   2.0000      -1.011763       -27.5315
 113   2.0000      -1.011514       -27.5247
 114   2.0000      -1.010180       -27.4884
 115   2.0000      -1.006735       -27.3946
 116   2.0000      -1.002149       -27.2699
 117   2.0000      -1.001552       -27.2536
 118   2.0000      -1.000349       -27.2209
 119   2.0000      -0.988359       -26.8946
 120   2.0000      -0.988064       -26.8866
 121   2.0000      -0.979434       -26.6517
 122   2.0000      -0.967362       -26.3233
 123   2.0000      -0.965984       -26.2858
 124   2.0000      -0.954242       -25.9663
 125   2.0000      -0.938684       -25.5429
 126   2.0000      -0.936758       -25.4905
 127   2.0000      -0.928060       -25.2538
 128   2.0000      -0.913281       -24.8516
 129   2.0000      -0.912750       -24.8372
 130   2.0000      -0.899399       -24.4739
 131   2.0000      -0.898912       -24.4606
 132   2.0000      -0.894944       -24.3527
 133   2.0000      -0.893107       -24.3027
 134   2.0000      -0.887282       -24.1442
 135   2.0000      -0.875974       -23.8365
 136   2.0000      -0.871746       -23.7214
 137   2.0000      -0.863868       -23.5070
 138   2.0000      -0.860451       -23.4141
 139   2.0000      -0.846431       -23.0326
 140   2.0000      -0.846408       -23.0319
 141   2.0000      -0.835753       -22.7420
 142   2.0000      -0.828422       -22.5425
 143   2.0000      -0.819175       -22.2909
 144   2.0000      -0.812561       -22.1109
 145   2.0000      -0.806024       -21.9330
 146   2.0000      -0.799896       -21.7663
 147   2.0000      -0.777066       -21.1450
 148   2.0000      -0.775764       -21.1096
 149   2.0000      -0.772049       -21.0085
 150   2.0000      -0.766618       -20.8607
 151   2.0000      -0.744581       -20.2611
 152   2.0000      -0.743382       -20.2285
 153   2.0000      -0.728715       -19.8293
 154   2.0000      -0.724865       -19.7246
 155   2.0000      -0.722828       -19.6691
 156   2.0000      -0.718794       -19.5594
 157   2.0000      -0.701216       -19.0810
 158   2.0000      -0.697011       -18.9666
 159   2.0000      -0.692003       -18.8304
 160   2.0000      -0.691137       -18.8068
 161   2.0000      -0.681817       -18.5532
 162   2.0000      -0.678147       -18.4533
 163   2.0000      -0.675247       -18.3744
 164   2.0000      -0.669059       -18.2060
 165   2.0000      -0.664953       -18.0943
 166   2.0000      -0.660077       -17.9616
 167   2.0000      -0.657783       -17.8992
 168   2.0000      -0.656043       -17.8518
 169   2.0000      -0.648920       -17.6580
 170   2.0000      -0.648194       -17.6383
 171   2.0000      -0.647307       -17.6141
 172   2.0000      -0.641146       -17.4465
 173   2.0000      -0.631922       -17.1955
 174   2.0000      -0.630637       -17.1605
 175   2.0000      -0.621913       -16.9231
 176   2.0000      -0.620399       -16.8819
 177   2.0000      -0.608663       -16.5626
 178   2.0000      -0.604246       -16.4424
 179   2.0000      -0.599124       -16.3030
 180   2.0000      -0.598104       -16.2752
 181   2.0000      -0.595197       -16.1961
 182   2.0000      -0.592041       -16.1103
 183   2.0000      -0.589753       -16.0480
 184   2.0000      -0.589730       -16.0474
 185   2.0000      -0.589005       -16.0276
 186   2.0000      -0.585565       -15.9340
 187   2.0000      -0.583746       -15.8845
 188   2.0000      -0.579786       -15.7768
 189   2.0000      -0.578791       -15.7497
 190   2.0000      -0.569857       -15.5066
 191   2.0000      -0.561636       -15.2829
 192   2.0000      -0.559329       -15.2201
 193   2.0000      -0.558257       -15.1909
 194   2.0000      -0.551252       -15.0003
 195   2.0000      -0.551204       -14.9990
 196   2.0000      -0.550627       -14.9833
 197   2.0000      -0.548299       -14.9200
 198   2.0000      -0.546005       -14.8576
 199   2.0000      -0.545008       -14.8304
 200   2.0000      -0.544091       -14.8055
 201   2.0000      -0.541350       -14.7309
 202   2.0000      -0.539471       -14.6798
 203   2.0000      -0.536989       -14.6122
 204   2.0000      -0.536187       -14.5904
 205   2.0000      -0.533163       -14.5081
 206   2.0000      -0.530456       -14.4344
 207   2.0000      -0.528466       -14.3803
 208   2.0000      -0.521756       -14.1977
 209   2.0000      -0.521415       -14.1884
 210   2.0000      -0.514987       -14.0135
 211   2.0000      -0.513874       -13.9832
 212   2.0000      -0.510752       -13.8983
 213   2.0000      -0.507752       -13.8166
 214   2.0000      -0.506920       -13.7940
 215   2.0000      -0.505908       -13.7665
 216   2.0000      -0.502896       -13.6845
 217   2.0000      -0.500308       -13.6141
 218   2.0000      -0.499566       -13.5939
 219   2.0000      -0.498592       -13.5674
 220   2.0000      -0.495798       -13.4913
 221   2.0000      -0.491314       -13.3693
 222   2.0000      -0.490574       -13.3492
 223   2.0000      -0.489475       -13.3193
 224   2.0000      -0.486003       -13.2248
 225   2.0000      -0.483936       -13.1686
 226   2.0000      -0.480303       -13.0697
 227   2.0000      -0.475951       -12.9513
 228   2.0000      -0.474672       -12.9165
 229   2.0000      -0.470855       -12.8126
 230   2.0000      -0.469800       -12.7839
 231   2.0000      -0.467231       -12.7140
 232   2.0000      -0.467076       -12.7098
 233   2.0000      -0.458165       -12.4673
 234   2.0000      -0.457792       -12.4572
 235   2.0000      -0.453187       -12.3319
 236   2.0000      -0.452896       -12.3239
 237   2.0000      -0.451120       -12.2756
 238   2.0000      -0.450761       -12.2658
 239   2.0000      -0.449834       -12.2406
 240   2.0000      -0.447159       -12.1678
 241   2.0000      -0.442127       -12.0309
 242   2.0000      -0.440900       -11.9975
 243   2.0000      -0.438291       -11.9265
 244   2.0000      -0.437218       -11.8973
 245   2.0000      -0.436241       -11.8707
 246   2.0000      -0.435053       -11.8384
 247   2.0000      -0.434865       -11.8333
 248   2.0000      -0.433849       -11.8056
 249   2.0000      -0.432966       -11.7816
 250   2.0000      -0.430866       -11.7245
 251   2.0000      -0.427326       -11.6281
 252   2.0000      -0.421169       -11.4606
 253   2.0000      -0.420119       -11.4320
 254   2.0000      -0.417663       -11.3652
 255   2.0000      -0.416136       -11.3236
 256   2.0000      -0.414334       -11.2746
 257   2.0000      -0.414175       -11.2703
 258   2.0000      -0.408954       -11.1282
 259   2.0000      -0.408253       -11.1091
 260   2.0000      -0.404816       -11.0156
 261   2.0000      -0.401895       -10.9361
 262   2.0000      -0.394529       -10.7357
 263   2.0000      -0.392025       -10.6675
 264   2.0000      -0.382540       -10.4094
 265   2.0000      -0.373424       -10.1614
 266   2.0000      -0.359094        -9.7714
 267   2.0000      -0.357762        -9.7352
 268   2.0000      -0.352942        -9.6040
 269   2.0000      -0.346171        -9.4198
 270   2.0000      -0.343880        -9.3574
 271   2.0000      -0.334086        -9.0909
 272   2.0000      -0.324339        -8.8257
 273   2.0000      -0.322844        -8.7850
 274   2.0000      -0.310080        -8.4377
 275   2.0000      -0.308450        -8.3934
 276   2.0000      -0.307701        -8.3730
 277   2.0000      -0.304917        -8.2972
 278   2.0000      -0.296147        -8.0586
 279   2.0000      -0.275872        -7.5069
 280   2.0000      -0.271879        -7.3982
 281   0.0000      -0.111024        -3.0211
 282   0.0000      -0.107880        -2.9356
 283   0.0000      -0.077757        -2.1159
 284   0.0000      -0.070048        -1.9061
 285   0.0000      -0.064071        -1.7435

MULLIKEN ATOMIC CHARGES
-----------------------
   0 C :   -0.114287
   1 C :    0.246936
   2 F :   -0.168910
   3 C :    0.242126
   4 F :   -0.169364
   5 C :   -0.108861
   6 C :    0.118585
   7 C :    0.118494
   8 C :   -0.086887
   9 C :    0.046086
  10 C :   -0.001249
  11 C :   -0.082715
  12 C :    0.172429
  13 O :   -0.177189
  14 C :   -0.093402
  15 C :    0.330958
  16 C :   -0.348677
  17 C :   -0.183339
  18 N :    0.149777
  19 C :   -0.191122
  20 N :    0.148497
  21 C :   -0.018725
  22 C :   -0.053461
  23 C :   -0.051637
  24 C :    0.002275
  25 C :   -0.052194
  26 S :    0.221371
  27 C :   -0.075798
  28 C :   -0.012985
  29 S :    0.173007
  30 C :   -0.031185
  31 C :   -0.091753
  32 S :    0.189224
  33 C :    0.267837
  34 C :   -0.175876
  35 C :    0.290940
  36 C :   -0.343502
  37 C :   -0.177890
  38 N :    0.129506
  39 C :   -0.175917
  40 N :    0.131617
  41 C :   -0.180547
  42 C :    0.270532
  43 O :   -0.237693
  44 C :   -0.091097
  45 C :   -0.031943
  46 C :   -0.017077
  47 C :   -0.063286
  48 S :    0.183714
  49 C :   -0.066250
  50 C :   -0.015406
  51 S :    0.180294
  52 C :    0.016863
  53 C :   -0.097749
  54 S :    0.180319
  55 C :    0.049707
  56 C :   -0.133576
  57 C :    0.141951
  58 O :   -0.137422
  59 C :    0.007928
  60 C :   -0.075899
  61 C :    0.109350
  62 C :    0.109131
  63 C :   -0.102174
  64 C :    0.241751
  65 C :    0.237490
  66 C :   -0.099589
  67 F :   -0.170325
  68 F :   -0.168637
  69 C :   -0.076581
  70 C :    0.040598
  71 C :    0.245894
  72 C :   -0.316634
  73 C :   -0.202354
  74 N :    0.173961
  75 C :   -0.175490
  76 N :    0.161532
  77 H :    0.008888
  78 H :    0.001859
  79 H :   -0.005437
  80 H :   -0.007379
  81 H :    0.011714
  82 H :    0.012400
  83 H :   -0.006193
  84 H :    0.036788
  85 H :    0.037559
  86 H :   -0.006411
  87 H :    0.002242
  88 H :    0.031665
  89 H :   -0.007597
  90 H :    0.006996
  91 H :    0.000407
  92 H :   -0.001525
Sum of atomic charges:   -0.0000000

LOEWDIN ATOMIC CHARGES
----------------------
   0 C :   -0.028826
   1 C :    0.067803
   2 F :   -0.047088
   3 C :    0.068732
   4 F :   -0.047291
   5 C :   -0.032405
   6 C :   -0.008415
   7 C :   -0.005952
   8 C :    0.019173
   9 C :   -0.022998
  10 C :   -0.052951
  11 C :    0.032088
  12 C :    0.085832
  13 O :   -0.163571
  14 C :   -0.105863
  15 C :    0.077107
  16 C :   -0.139567
  17 C :   -0.017510
  18 N :   -0.051125
  19 C :   -0.021149
  20 N :   -0.051896
  21 C :    0.059096
  22 C :   -0.174287
  23 C :   -0.023517
  24 C :   -0.192147
  25 C :   -0.206940
  26 S :    0.505738
  27 C :   -0.209537
  28 C :   -0.182710
  29 S :    0.412263
  30 C :   -0.042311
  31 C :   -0.179360
  32 S :    0.466472
  33 C :    0.076243
  34 C :   -0.056068
  35 C :    0.054458
  36 C :   -0.174477
  37 C :   -0.030058
  38 N :   -0.067316
  39 C :   -0.030551
  40 N :   -0.067103
  41 C :   -0.057573
  42 C :    0.077202
  43 O :   -0.005037
  44 C :   -0.180996
  45 C :   -0.039571
  46 C :   -0.186194
  47 C :   -0.205434
  48 S :    0.462760
  49 C :   -0.198387
  50 C :   -0.186377
  51 S :    0.425470
  52 C :   -0.018860
  53 C :   -0.168531
  54 S :    0.464005
  55 C :    0.050715
  56 C :   -0.092228
  57 C :    0.083973
  58 O :   -0.138414
  59 C :   -0.055336
  60 C :    0.032673
  61 C :   -0.009102
  62 C :   -0.004912
  63 C :   -0.029316
  64 C :    0.068252
  65 C :    0.067960
  66 C :   -0.032077
  67 F :   -0.047756
  68 F :   -0.046645
  69 C :    0.015689
  70 C :   -0.020377
  71 C :    0.059025
  72 C :   -0.135249
  73 C :   -0.034237
  74 N :   -0.045582
  75 C :   -0.019929
  76 N :   -0.044556
  77 H :    0.048249
  78 H :    0.045704
  79 H :    0.040405
  80 H :    0.041384
  81 H :    0.051826
  82 H :    0.043488
  83 H :    0.037716
  84 H :    0.042987
  85 H :    0.042753
  86 H :    0.037851
  87 H :    0.042343
  88 H :    0.053546
  89 H :    0.041276
  90 H :    0.047830
  91 H :    0.045236
  92 H :    0.040342

  Mayer bond orders larger than 0.100000
B(  0-C ,  1-C ) :   1.4387 B(  0-C ,  5-C ) :   0.1086 B(  0-C ,  7-C ) :   1.1872
B(  0-C , 77-H ) :   1.0086 B(  1-C ,  2-F ) :   1.1369 B(  1-C ,  3-C ) :   1.1901
B(  3-C ,  4-F ) :   1.1361 B(  3-C ,  5-C ) :   1.4412 B(  5-C ,  6-C ) :   1.1903
B(  5-C , 78-H ) :   1.0089 B(  6-C ,  7-C ) :   1.2557 B(  6-C , 11-C ) :   1.1859
B(  7-C ,  8-C ) :   1.2139 B(  8-C ,  9-C ) :   1.4505 B(  8-C , 79-H ) :   0.9910
B(  9-C , 10-C ) :   1.2206 B(  9-C , 15-C ) :   0.9815 B( 10-C , 11-C ) :   1.4653
B( 10-C , 12-C ) :   0.9592 B( 11-C , 80-H ) :   1.0188 B( 12-C , 13-O ) :   2.1298
B( 12-C , 14-C ) :   0.9740 B( 14-C , 15-C ) :   1.0747 B( 14-C , 21-C ) :   1.5080
B( 15-C , 16-C ) :   1.6296 B( 16-C , 17-C ) :   1.1471 B( 16-C , 19-C ) :   1.1421
B( 17-C , 18-N ) :   2.9609 B( 19-C , 20-N ) :   2.9600 B( 21-C , 22-C ) :   1.2576
B( 21-C , 81-H ) :   0.9395 B( 22-C , 23-C ) :   1.3808 B( 22-C , 26-S ) :   1.0779
B( 23-C , 24-C ) :   1.3205 B( 23-C , 82-H ) :   1.0123 B( 24-C , 25-C ) :   1.3880
B( 24-C , 29-S ) :   1.0382 B( 25-C , 26-S ) :   1.0621 B( 25-C , 27-C ) :   1.3127
B( 27-C , 28-C ) :   1.4497 B( 27-C , 32-S ) :   1.0810 B( 28-C , 29-S ) :   1.0505
B( 28-C , 30-C ) :   1.2575 B( 30-C , 31-C ) :   1.4905 B( 30-C , 83-H ) :   1.0119
B( 31-C , 32-S ) :   1.1141 B( 31-C , 33-C ) :   1.1003 B( 33-C , 34-C ) :   1.5589
B( 33-C , 43-O ) :   1.1363 B( 34-C , 35-C ) :   1.1339 B( 34-C , 84-H ) :   0.9597
B( 35-C , 36-C ) :   1.5495 B( 35-C , 41-C ) :   1.1359 B( 36-C , 37-C ) :   1.1325
B( 36-C , 39-C ) :   1.1315 B( 37-C , 38-N ) :   3.0049 B( 39-C , 40-N ) :   3.0059
B( 41-C , 42-C ) :   1.5575 B( 41-C , 85-H ) :   0.9583 B( 42-C , 43-O ) :   1.1334
B( 42-C , 44-C ) :   1.1062 B( 44-C , 45-C ) :   1.4943 B( 44-C , 48-S ) :   1.1072
B( 45-C , 46-C ) :   1.2531 B( 45-C , 86-H ) :   1.0130 B( 46-C , 47-C ) :   1.4475
B( 46-C , 51-S ) :   1.0590 B( 47-C , 48-S ) :   1.0812 B( 47-C , 49-C ) :   1.3200
B( 49-C , 50-C ) :   1.4323 B( 49-C , 54-S ) :   1.0917 B( 50-C , 51-S ) :   1.0504
B( 50-C , 52-C ) :   1.2816 B( 52-C , 53-C ) :   1.4658 B( 52-C , 87-H ) :   1.0048
B( 53-C , 54-S ) :   1.0910 B( 53-C , 55-C ) :   1.1194 B( 55-C , 56-C ) :   1.6694
B( 55-C , 88-H ) :   0.9469 B( 56-C , 57-C ) :   0.9341 B( 56-C , 71-C ) :   1.0259
B( 57-C , 58-O ) :   2.2780 B( 57-C , 59-C ) :   0.9202 B( 59-C , 60-C ) :   1.4746
B( 59-C , 70-C ) :   1.2200 B( 60-C , 61-C ) :   1.1988 B( 60-C , 89-H ) :   1.0150
B( 61-C , 62-C ) :   1.2551 B( 61-C , 66-C ) :   1.1932 B( 62-C , 63-C ) :   1.1903
B( 62-C , 69-C ) :   1.2168 B( 63-C , 64-C ) :   1.4438 B( 63-C , 66-C ) :   0.1081
B( 63-C , 90-H ) :   1.0060 B( 64-C , 65-C ) :   1.1899 B( 64-C , 68-F ) :   1.1370
B( 65-C , 66-C ) :   1.4455 B( 65-C , 67-F ) :   1.1347 B( 66-C , 91-H ) :   1.0061
B( 69-C , 70-C ) :   1.4573 B( 69-C , 92-H ) :   0.9941 B( 70-C , 71-C ) :   1.0005
B( 71-C , 72-C ) :   1.6710 B( 72-C , 73-C ) :   1.1504 B( 72-C , 75-C ) :   1.1351
B( 73-C , 74-N ) :   3.0235 B( 75-C , 76-N ) :   2.9912

-----------------------------------------------------------------------------
         ABSORPTION SPECTRUM VIA TRANSITION ELECTRIC DIPOLE MOMENTS
-----------------------------------------------------------------------------
State   Energy  Wavelength   fosc         T2         TX        TY        TZ
        (cm-1)    (nm)                  (au**2)     (au)      (au)      (au)
-----------------------------------------------------------------------------
   0   19876.0    503.1   2.130294655  35.28474  -2.54795  -3.82822  -3.75997
   1   20729.1    482.4   0.652629794  10.36481   2.81790   1.36423   0.75042
   2   24680.3    405.2   0.063841612   0.85159  -0.15709  -0.06891  -0.90673
   3   25133.6    397.9   0.145687627   1.90829  -0.08831   0.34465  -1.33480
   4   26130.3    382.7   0.125859762   1.58569   0.94298   0.82533   0.12370
   5   26428.2    378.4   0.126134524   1.57124  -0.38897  -0.57474   1.04385
   6   26889.0    371.9   0.005522585   0.06762   0.24465  -0.08223   0.03162
   7   27322.1    366.0   0.035993545   0.43370   0.46239   0.19298   0.42737
   8   27785.4    359.9   0.233018709   2.76089  -0.50976  -0.14307  -1.57498
   9   28348.6    352.8   0.017552198   0.20383  -0.37111   0.14106  -0.21497
  10   28534.0    350.5   0.005627779   0.06493  -0.14879   0.02788  -0.20498
  11   28684.5    348.6   0.033235606   0.38144   0.13026   0.03977  -0.60241
  12   29473.9    339.3   0.014492205   0.16187   0.02937   0.13729  -0.37704
  13   29564.7    338.2   0.062322929   0.69398  -0.24717   0.03406   0.79482
  14   29750.1    336.1   0.034627124   0.38318  -0.36911  -0.40576  -0.28688
  15   30321.8    329.8   0.655771254   7.11989  -0.08569   0.58862  -2.60117
  16   30692.7    325.8   0.331070319   3.55108   1.19522   1.42788   0.28928
  17   31402.9    318.4   0.212907934   2.23202   1.09295   0.93650  -0.40055
  18   32219.2    310.4   0.072118315   0.73690   0.52320   0.68048  -0.00992
  19   32870.1    304.2   0.043686716   0.43755  -0.23425  -0.39601   0.47524
  20   33103.3    302.1   0.015536586   0.15451   0.06127  -0.10680   0.37330
  21   33820.0    295.7   0.213230035   2.07563  -0.14988   0.65037  -1.27679
  22   34077.3    293.5   0.481491159   4.65156   1.63232   0.69433   1.22678
  23   34153.4    292.8   0.482285402   4.64886   0.33060   0.92888  -1.91749
  24   34430.9    290.4   0.072161612   0.68998  -0.06052  -0.33253   0.75877
  25   35039.2    285.4   0.078745056   0.73985  -0.64026  -0.57364  -0.02932
  26   35171.1    284.3   0.212634943   1.99033  -1.07718  -0.89235  -0.18364
  27   35558.0    281.2   0.054417217   0.50382   0.03185  -0.29116   0.64655
  28   35863.8    278.8   0.038779034   0.35597   0.32981   0.39429  -0.30288
  29   36258.1    275.8   0.099620629   0.90452  -0.17672  -0.63279   0.68766
  30   36557.3    273.5   0.174062883   1.56750  -0.91695  -0.84888   0.07819
  31   36819.4    271.6   0.335781958   3.00231   0.89031   1.14674  -0.94586
  32   37034.5    270.0   0.006526301   0.05801   0.05568   0.06672   0.22464
  33   37471.1    266.9   0.020347003   0.17876   0.12451   0.09695   0.39225
  34   37506.2    266.6   0.121892441   1.06991   0.16598   0.23215  -0.99422
  35   37782.1    264.7   0.088290031   0.76931   0.17855   0.05349   0.85707
  36   37875.3    264.0   0.039769455   0.34568   0.42384   0.36563  -0.17986
  37   38022.1    263.0   0.002308250   0.01999   0.03263   0.00086  -0.13755
  38   38373.9    260.6   0.020445643   0.17540  -0.09455  -0.21098   0.34922
  39   38601.8    259.1   0.023818580   0.20313  -0.33722   0.05344  -0.29422
  40   38764.7    258.0   0.006389129   0.05426   0.07218  -0.17457   0.13629
  41   38919.4    256.9   0.098274573   0.83129  -0.47178  -0.69893   0.34670
  42   39418.3    253.7   0.144696612   1.20847  -0.56433  -0.78617  -0.52147
  43   39680.2    252.0   0.268982148   2.23164   0.31772  -0.75031   1.25209
  44   40320.2    248.0   0.077778653   0.63506   0.08188   0.52570  -0.59329

FINAL SINGLE POINT ENERGY     -5557.749654057673

DIPOLE MOMENT
-------------
                                X             Y             Z
Electronic contribution:     -2.24005      -9.42623      11.21214
Nuclear contribution   :      2.05872      10.57489     -13.92314
                        -----------------------------------------
Total Dipole Moment    :     -0.18132       1.14866      -2.71101
                        -----------------------------------------
Magnitude (a.u.)       :      2.94989
Magnitude (Debye)      :      7.49803

Rotational constants in cm-1:     0.001937     0.000146     0.000140
Rotational constants in MHz :    58.071581     4.391534     4.184347

                             ****ORCA TERMINATED NORMALLY****
TOTAL RUN TIME: 0 days 0 hours 9 minutes 0 seconds 243 msec
