                         Program Version 4.2.0 -  RELEASE  -
|  1> # ORCA input file
|  2> # SCF done       -213.548929099975          0.000536270525
|  3> ! CAM-B3LYP def2-SVP def2/J RIJCOSX Grid4 TightSCF
|  4> %maxcore 5000
|  5> %tddft
|  6>     Mode sTDDFT
|  7>     Ethresh 5.0
|  8>     maxcore 5000
|  9> end
| 10>
| 11> %pal
| 12>   nprocs 6
| 13>   end
| 14> * xyz 0 1
| 15>    C      -14.93875        -6.51028        -3.80788
| 16>    C      -16.08826        -6.08115        -3.20550
| 17>    F      -17.21937        -5.97019        -3.91478
| 18>    C      -16.09982        -5.75091        -1.83577
| 19>    F      -17.24084        -5.33288        -1.27067
| 20>    C      -14.96113        -5.85474        -1.08678
| 21>    C      -13.76129        -6.29393        -1.67857
| 22>    C      -13.74770        -6.62689        -3.06390
| 23>    C      -12.55390        -7.06905        -3.68025
| 24>    C      -11.41012        -7.17273        -2.93399
| 25>    C      -11.43494        -6.84278        -1.55034
| 26>    C      -12.57125        -6.41618        -0.92695
| 27>    C      -10.09927        -7.07233        -0.97125
| 28>    O       -9.79686        -6.97959         0.20520
| 29>    C       -9.25057        -7.53996        -2.07944
| 30>    C      -10.05394        -7.58790        -3.28577
| 31>    C       -9.62094        -7.89211        -4.54991
| 32>    C       -8.29289        -8.21275        -4.90338
| 33>    N       -7.23530        -8.46246        -5.27419
| 34>    C      -10.45419        -7.89749        -5.68853
| 35>    N      -11.07994        -7.92268        -6.65047
| 36>    C       -7.96617        -8.00848        -1.95109
| 37>    C       -7.09077        -7.85862        -0.86431
| 38>    C       -6.97868        -6.90981         0.14772
| 39>    C       -5.87532        -7.11130         1.01717
| 40>    C       -5.71811        -6.00016         1.88904
| 41>    C       -6.65015        -5.02355         1.72290
| 42>    S       -7.80947        -5.43997         0.48215
| 43>    C       -6.75307        -3.74200         2.46373
| 44>    F       -4.68590        -5.85387         2.73572
| 45>    C       -5.15701        -8.27059         0.71828
| 46>    S       -5.74712        -8.98841        -0.74250
| 47>    C       -4.13353        -8.90227         1.47465
| 48>    C       -3.17030        -9.73563         0.86265
| 49>    C       -2.10989       -10.36392         1.59806
| 50>    N       -1.21388       -11.11610         0.93280
| 51>    C       -1.32996       -11.27212        -0.34862
| 52>    C       -2.38583       -10.65979        -1.07075
| 53>    N       -3.25905        -9.91753        -0.47001
| 54>    F       -2.50380       -10.82714        -2.38117
| 55>    F       -0.42488       -12.02388        -0.96609
| 56>    C       -2.00083       -10.23532         3.00391
| 57>    C       -3.02120        -9.47352         3.62263
| 58>    C       -4.06253        -8.81193         2.88093
| 59>    N       -4.93519        -8.21307         3.69095
| 60>    S       -4.47501        -8.40438         5.20907
| 61>    N       -3.16333        -9.29489         4.93460
| 62>    C       -0.97585       -10.81116         3.79373
| 63>    C        0.20809       -11.46268         3.46056
| 64>    C        1.00075       -11.82300         4.57878
| 65>    C        2.20963       -12.44181         4.17353
| 66>    C        2.35011       -12.55787         2.82642
| 67>    S        0.96295       -11.91075         1.97265
| 68>    C        3.48861       -13.15113         2.08511
| 69>    F        3.12857       -12.88169         5.04837
| 70>    C        0.43969       -11.45291         5.80390
| 71>    S       -1.10238       -10.68115         5.52778
| 72>    C        0.95312       -11.73174         7.08186
| 73>    C        0.52182       -11.25736         8.28958
| 74>    C        0.79401       -12.03907         9.52574
| 75>    O        1.59644       -12.93171         9.66370
| 76>    C       -0.18239       -11.53493        10.51685
| 77>    C       -0.44429       -11.99646        11.77422
| 78>    C       -1.45649       -11.37221        12.53826
| 79>    C       -2.18356       -10.28113        11.97924
| 80>    C       -3.19704        -9.66946        12.74395
| 81>    C       -3.47312       -10.11638        14.00552
| 82>    C       -2.75195       -11.19348        14.55852
| 83>    C       -1.76462       -11.80914        13.84130
| 84>    F       -3.04467       -11.61125        15.79740
| 85>    F       -4.43662        -9.53238        14.73036
| 86>    C       -1.88390        -9.81871        10.67725
| 87>    C       -0.89357       -10.43336         9.96008
| 88>    C       -0.34316       -10.15310         8.63691
| 89>    C       -0.42003        -8.94708         7.98806
| 90>    C        0.39911        -8.61242         6.88939
| 91>    N        1.09552        -8.29140         6.03530
| 92>    C       -1.27379        -7.89866         8.37771
| 93>    N       -1.98552        -7.03427         8.63253
| 94>    H      -14.94738        -6.75850        -4.85774
| 95>    H      -14.98658        -5.59932        -0.03900
| 96>    H      -12.57930        -7.31913        -4.72840
| 97>    H      -12.56180        -6.17493         0.12503
| 98>    H       -7.56447        -8.60389        -2.76162
| 99>    H       -5.91548        -3.64309         3.15017
|100>    H       -7.68245        -3.70547         3.03119
|101>    H       -6.75138        -2.90063         1.77212
|102>    H        4.20613       -13.57863         2.78164
|103>    H        3.98709       -12.38954         1.48585
|104>    H        3.13653       -13.92742         1.40733
|105>    H        1.72901       -12.48997         7.13040
|106>    H        0.11230       -12.82647        12.18194
|107>    H       -3.75582        -8.84114        12.33718
|108>    H       -1.22215       -12.63247        14.27897
|109>    H       -2.45113        -8.99510        10.27357
|110> *
|111>
|112>                          ****END OF INPUT****

CARTESIAN COORDINATES (ANGSTROEM)
---------------------------------
  C    -14.938750   -6.510280   -3.807880
  C    -16.088260   -6.081150   -3.205500
  F    -17.219370   -5.970190   -3.914780
  C    -16.099820   -5.750910   -1.835770
  F    -17.240840   -5.332880   -1.270670
  C    -14.961130   -5.854740   -1.086780
  C    -13.761290   -6.293930   -1.678570
  C    -13.747700   -6.626890   -3.063900
  C    -12.553900   -7.069050   -3.680250
  C    -11.410120   -7.172730   -2.933990
  C    -11.434940   -6.842780   -1.550340
  C    -12.571250   -6.416180   -0.926950
  C    -10.099270   -7.072330   -0.971250
  O     -9.796860   -6.979590    0.205200
  C     -9.250570   -7.539960   -2.079440
  C    -10.053940   -7.587900   -3.285770
  C     -9.620940   -7.892110   -4.549910
  C     -8.292890   -8.212750   -4.903380
  N     -7.235300   -8.462460   -5.274190
  C    -10.454190   -7.897490   -5.688530
  N    -11.079940   -7.922680   -6.650470
  C     -7.966170   -8.008480   -1.951090
  C     -7.090770   -7.858620   -0.864310
  C     -6.978680   -6.909810    0.147720
  C     -5.875320   -7.111300    1.017170
  C     -5.718110   -6.000160    1.889040
  C     -6.650150   -5.023550    1.722900
  S     -7.809470   -5.439970    0.482150
  C     -6.753070   -3.742000    2.463730
  F     -4.685900   -5.853870    2.735720
  C     -5.157010   -8.270590    0.718280
  S     -5.747120   -8.988410   -0.742500
  C     -4.133530   -8.902270    1.474650
  C     -3.170300   -9.735630    0.862650
  C     -2.109890  -10.363920    1.598060
  N     -1.213880  -11.116100    0.932800
  C     -1.329960  -11.272120   -0.348620
  C     -2.385830  -10.659790   -1.070750
  N     -3.259050   -9.917530   -0.470010
  F     -2.503800  -10.827140   -2.381170
  F     -0.424880  -12.023880   -0.966090
  C     -2.000830  -10.235320    3.003910
  C     -3.021200   -9.473520    3.622630
  C     -4.062530   -8.811930    2.880930
  N     -4.935190   -8.213070    3.690950
  S     -4.475010   -8.404380    5.209070
  N     -3.163330   -9.294890    4.934600
  C     -0.975850  -10.811160    3.793730
  C      0.208090  -11.462680    3.460560
  C      1.000750  -11.823000    4.578780
  C      2.209630  -12.441810    4.173530
  C      2.350110  -12.557870    2.826420
  S      0.962950  -11.910750    1.972650
  C      3.488610  -13.151130    2.085110
  F      3.128570  -12.881690    5.048370
  C      0.439690  -11.452910    5.803900
  S     -1.102380  -10.681150    5.527780
  C      0.953120  -11.731740    7.081860
  C      0.521820  -11.257360    8.289580
  C      0.794010  -12.039070    9.525740
  O      1.596440  -12.931710    9.663700
  C     -0.182390  -11.534930   10.516850
  C     -0.444290  -11.996460   11.774220
  C     -1.456490  -11.372210   12.538260
  C     -2.183560  -10.281130   11.979240
  C     -3.197040   -9.669460   12.743950
  C     -3.473120  -10.116380   14.005520
  C     -2.751950  -11.193480   14.558520
  C     -1.764620  -11.809140   13.841300
  F     -3.044670  -11.611250   15.797400
  F     -4.436620   -9.532380   14.730360
  C     -1.883900   -9.818710   10.677250
  C     -0.893570  -10.433360    9.960080
  C     -0.343160  -10.153100    8.636910
  C     -0.420030   -8.947080    7.988060
  C      0.399110   -8.612420    6.889390
  N      1.095520   -8.291400    6.035300
  C     -1.273790   -7.898660    8.377710
  N     -1.985520   -7.034270    8.632530
  H    -14.947380   -6.758500   -4.857740
  H    -14.986580   -5.599320   -0.039000
  H    -12.579300   -7.319130   -4.728400
  H    -12.561800   -6.174930    0.125030
  H     -7.564470   -8.603890   -2.761620
  H     -5.915480   -3.643090    3.150170
  H     -7.682450   -3.705470    3.031190
  H     -6.751380   -2.900630    1.772120
  H      4.206130  -13.578630    2.781640
  H      3.987090  -12.389540    1.485850
  H      3.136530  -13.927420    1.407330
  H      1.729010  -12.489970    7.130400
  H      0.112300  -12.826470   12.181940
  H     -3.755820   -8.841140   12.337180
  H     -1.222150  -12.632470   14.278970
  H     -2.451130   -8.995100   10.273570

 Total Charge           Charge          ....    0
 Multiplicity           Mult            ....    1
 Number of Electrons    NEL             ....  576
 Basis Dimension        Dim             .... 1206

ORBITAL ENERGIES
----------------

  NO   OCC          E(Eh)            E(eV)
   0   2.0000     -89.053368     -2423.2653
   1   2.0000     -88.978824     -2421.2369
   2   2.0000     -88.975005     -2421.1330
   3   2.0000     -88.965426     -2420.8723
   4   2.0000     -88.964791     -2420.8550
   5   2.0000     -24.830868      -675.6823
   6   2.0000     -24.828932      -675.6296
   7   2.0000     -24.798168      -674.7925
   8   2.0000     -24.797972      -674.7871
   9   2.0000     -24.797434      -674.7725
  10   2.0000     -24.796212      -674.7392
  11   2.0000     -24.794210      -674.6848
  12   2.0000     -24.791105      -674.6003
  13   2.0000     -19.216450      -522.9062
  14   2.0000     -19.213558      -522.8275
  15   2.0000     -14.474205      -393.8632
  16   2.0000     -14.470477      -393.7617
  17   2.0000     -14.461248      -393.5106
  18   2.0000     -14.460850      -393.4997
  19   2.0000     -14.418781      -392.3550
  20   2.0000     -14.415852      -392.2753
  21   2.0000     -14.414818      -392.2471
  22   2.0000     -14.412663      -392.1885
  23   2.0000     -10.447132      -284.2809
  24   2.0000     -10.446523      -284.2643
  25   2.0000     -10.381191      -282.4866
  26   2.0000     -10.380839      -282.4770
  27   2.0000     -10.380260      -282.4612
  28   2.0000     -10.379240      -282.4335
  29   2.0000     -10.365923      -282.0711
  30   2.0000     -10.365751      -282.0664
  31   2.0000     -10.364297      -282.0269
  32   2.0000     -10.362744      -281.9846
  33   2.0000     -10.361780      -281.9584
  34   2.0000     -10.361569      -281.9526
  35   2.0000     -10.352482      -281.7054
  36   2.0000     -10.352055      -281.6937
  37   2.0000     -10.342800      -281.4419
  38   2.0000     -10.341999      -281.4201
  39   2.0000     -10.341579      -281.4087
  40   2.0000     -10.340943      -281.3914
  41   2.0000     -10.340876      -281.3896
  42   2.0000     -10.340693      -281.3846
  43   2.0000     -10.335638      -281.2470
  44   2.0000     -10.330942      -281.1192
  45   2.0000     -10.324474      -280.9432
  46   2.0000     -10.324361      -280.9401
  47   2.0000     -10.323227      -280.9093
  48   2.0000     -10.322015      -280.8763
  49   2.0000     -10.321942      -280.8743
  50   2.0000     -10.321478      -280.8617
  51   2.0000     -10.320509      -280.8353
  52   2.0000     -10.318598      -280.7833
  53   2.0000     -10.317836      -280.7626
  54   2.0000     -10.315022      -280.6860
  55   2.0000     -10.311273      -280.5840
  56   2.0000     -10.310792      -280.5709
  57   2.0000     -10.310565      -280.5647
  58   2.0000     -10.310014      -280.5498
  59   2.0000     -10.308957      -280.5210
  60   2.0000     -10.308510      -280.5088
  61   2.0000     -10.308038      -280.4960
  62   2.0000     -10.307903      -280.4923
  63   2.0000     -10.307075      -280.4698
  64   2.0000     -10.305472      -280.4262
  65   2.0000     -10.302099      -280.3344
  66   2.0000     -10.301945      -280.3302
  67   2.0000     -10.301025      -280.3052
  68   2.0000     -10.300921      -280.3023
  69   2.0000     -10.300539      -280.2919
  70   2.0000     -10.300092      -280.2798
  71   2.0000     -10.299897      -280.2744
  72   2.0000     -10.299331      -280.2591
  73   2.0000     -10.299205      -280.2556
  74   2.0000     -10.297171      -280.2003
  75   2.0000     -10.293391      -280.0974
  76   2.0000     -10.291356      -280.0420
  77   2.0000     -10.285026      -279.8698
  78   2.0000     -10.284736      -279.8619
  79   2.0000      -8.144290      -221.6174
  80   2.0000      -8.072982      -219.6770
  81   2.0000      -8.068296      -219.5495
  82   2.0000      -8.059567      -219.3120
  83   2.0000      -8.059152      -219.3007
  84   2.0000      -6.115356      -166.4073
  85   2.0000      -6.107529      -166.1943
  86   2.0000      -6.107155      -166.1841
  87   2.0000      -6.042427      -164.4228
  88   2.0000      -6.038015      -164.3027
  89   2.0000      -6.037886      -164.2992
  90   2.0000      -6.035053      -164.2221
  91   2.0000      -6.033274      -164.1737
  92   2.0000      -6.030218      -164.0906
  93   2.0000      -6.029266      -164.0647
  94   2.0000      -6.029083      -164.0597
  95   2.0000      -6.024886      -163.9455
  96   2.0000      -6.024606      -163.9379
  97   2.0000      -6.020993      -163.8395
  98   2.0000      -6.020277      -163.8201
  99   2.0000      -1.358955       -36.9791
 100   2.0000      -1.344729       -36.5919
 101   2.0000      -1.320968       -35.9454
 102   2.0000      -1.319679       -35.9103
 103   2.0000      -1.306210       -35.5438
 104   2.0000      -1.306149       -35.5421
 105   2.0000      -1.304837       -35.5064
 106   2.0000      -1.303735       -35.4764
 107   2.0000      -1.151794       -31.3419
 108   2.0000      -1.131704       -30.7952
 109   2.0000      -1.131502       -30.7897
 110   2.0000      -1.129493       -30.7351
 111   2.0000      -1.058453       -28.8020
 112   2.0000      -1.028616       -27.9901
 113   2.0000      -1.025883       -27.9157
 114   2.0000      -1.019119       -27.7316
 115   2.0000      -1.018946       -27.7269
 116   2.0000      -1.005377       -27.3577
 117   2.0000      -1.004055       -27.3217
 118   2.0000      -1.003318       -27.3017
 119   2.0000      -0.994367       -27.0581
 120   2.0000      -0.994101       -27.0509
 121   2.0000      -0.989598       -26.9283
 122   2.0000      -0.981417       -26.7057
 123   2.0000      -0.980632       -26.6843
 124   2.0000      -0.963485       -26.2178
 125   2.0000      -0.958962       -26.0947
 126   2.0000      -0.933896       -25.4126
 127   2.0000      -0.931148       -25.3378
 128   2.0000      -0.920245       -25.0411
 129   2.0000      -0.908334       -24.7170
 130   2.0000      -0.899808       -24.4850
 131   2.0000      -0.898826       -24.4583
 132   2.0000      -0.893477       -24.3127
 133   2.0000      -0.891326       -24.2542
 134   2.0000      -0.886976       -24.1358
 135   2.0000      -0.876580       -23.8530
 136   2.0000      -0.864262       -23.5178
 137   2.0000      -0.859021       -23.3751
 138   2.0000      -0.853364       -23.2212
 139   2.0000      -0.847415       -23.0593
 140   2.0000      -0.840383       -22.8680
 141   2.0000      -0.838883       -22.8272
 142   2.0000      -0.830667       -22.6036
 143   2.0000      -0.816825       -22.2269
 144   2.0000      -0.814341       -22.1594
 145   2.0000      -0.798265       -21.7219
 146   2.0000      -0.793624       -21.5956
 147   2.0000      -0.788379       -21.4529
 148   2.0000      -0.785240       -21.3675
 149   2.0000      -0.769291       -20.9335
 150   2.0000      -0.766339       -20.8531
 151   2.0000      -0.764100       -20.7922
 152   2.0000      -0.763520       -20.7764
 153   2.0000      -0.745994       -20.2995
 154   2.0000      -0.736550       -20.0425
 155   2.0000      -0.725980       -19.7549
 156   2.0000      -0.717800       -19.5323
 157   2.0000      -0.715570       -19.4717
 158   2.0000      -0.708466       -19.2784
 159   2.0000      -0.705116       -19.1872
 160   2.0000      -0.694485       -18.8979
 161   2.0000      -0.692363       -18.8402
 162   2.0000      -0.685037       -18.6408
 163   2.0000      -0.683863       -18.6088
 164   2.0000      -0.682224       -18.5642
 165   2.0000      -0.676572       -18.4105
 166   2.0000      -0.668652       -18.1949
 167   2.0000      -0.666058       -18.1244
 168   2.0000      -0.662352       -18.0235
 169   2.0000      -0.661296       -17.9948
 170   2.0000      -0.655661       -17.8414
 171   2.0000      -0.652957       -17.7678
 172   2.0000      -0.648546       -17.6478
 173   2.0000      -0.643032       -17.4978
 174   2.0000      -0.641184       -17.4475
 175   2.0000      -0.639955       -17.4141
 176   2.0000      -0.636345       -17.3158
 177   2.0000      -0.634051       -17.2534
 178   2.0000      -0.629085       -17.1183
 179   2.0000      -0.620105       -16.8739
 180   2.0000      -0.615316       -16.7436
 181   2.0000      -0.612930       -16.6787
 182   2.0000      -0.608118       -16.5477
 183   2.0000      -0.602264       -16.3884
 184   2.0000      -0.592464       -16.1218
 185   2.0000      -0.585801       -15.9405
 186   2.0000      -0.585571       -15.9342
 187   2.0000      -0.585263       -15.9258
 188   2.0000      -0.584233       -15.8978
 189   2.0000      -0.583038       -15.8653
 190   2.0000      -0.580988       -15.8095
 191   2.0000      -0.577649       -15.7186
 192   2.0000      -0.573660       -15.6101
 193   2.0000      -0.573583       -15.6080
 194   2.0000      -0.567862       -15.4523
 195   2.0000      -0.567264       -15.4360
 196   2.0000      -0.565164       -15.3789
 197   2.0000      -0.557007       -15.1569
 198   2.0000      -0.555534       -15.1169
 199   2.0000      -0.552616       -15.0375
 200   2.0000      -0.551642       -15.0109
 201   2.0000      -0.547288       -14.8925
 202   2.0000      -0.545895       -14.8546
 203   2.0000      -0.543357       -14.7855
 204   2.0000      -0.539733       -14.6869
 205   2.0000      -0.537491       -14.6259
 206   2.0000      -0.536251       -14.5921
 207   2.0000      -0.535612       -14.5748
 208   2.0000      -0.533321       -14.5124
 209   2.0000      -0.531246       -14.4559
 210   2.0000      -0.529971       -14.4212
 211   2.0000      -0.528814       -14.3898
 212   2.0000      -0.526271       -14.3206
 213   2.0000      -0.523845       -14.2545
 214   2.0000      -0.522345       -14.2137
 215   2.0000      -0.519854       -14.1460
 216   2.0000      -0.517645       -14.0858
 217   2.0000      -0.514033       -13.9875
 218   2.0000      -0.513848       -13.9825
 219   2.0000      -0.512244       -13.9389
 220   2.0000      -0.511047       -13.9063
 221   2.0000      -0.510240       -13.8843
 222   2.0000      -0.508890       -13.8476
 223   2.0000      -0.505729       -13.7616
 224   2.0000      -0.503257       -13.6943
 225   2.0000      -0.501698       -13.6519
 226   2.0000      -0.497327       -13.5330
 227   2.0000      -0.495920       -13.4947
 228   2.0000      -0.495357       -13.4793
 229   2.0000      -0.491706       -13.3800
 230   2.0000      -0.490204       -13.3391
 231   2.0000      -0.488301       -13.2873
 232   2.0000      -0.483930       -13.1684
 233   2.0000      -0.482221       -13.1219
 234   2.0000      -0.481620       -13.1055
 235   2.0000      -0.473045       -12.8722
 236   2.0000      -0.470247       -12.7961
 237   2.0000      -0.468382       -12.7453
 238   2.0000      -0.467432       -12.7195
 239   2.0000      -0.463901       -12.6234
 240   2.0000      -0.462472       -12.5845
 241   2.0000      -0.459652       -12.5078
 242   2.0000      -0.456919       -12.4334
 243   2.0000      -0.453745       -12.3470
 244   2.0000      -0.452265       -12.3068
 245   2.0000      -0.449583       -12.2338
 246   2.0000      -0.446600       -12.1526
 247   2.0000      -0.445899       -12.1335
 248   2.0000      -0.445410       -12.1202
 249   2.0000      -0.443460       -12.0672
 250   2.0000      -0.442958       -12.0535
 251   2.0000      -0.439162       -11.9502
 252   2.0000      -0.438039       -11.9196
 253   2.0000      -0.435465       -11.8496
 254   2.0000      -0.428910       -11.6712
 255   2.0000      -0.428077       -11.6486
 256   2.0000      -0.426460       -11.6046
 257   2.0000      -0.425474       -11.5777
 258   2.0000      -0.423385       -11.5209
 259   2.0000      -0.419649       -11.4192
 260   2.0000      -0.417014       -11.3475
 261   2.0000      -0.414143       -11.2694
 262   2.0000      -0.411697       -11.2029
 263   2.0000      -0.409721       -11.1491
 264   2.0000      -0.406394       -11.0585
 265   2.0000      -0.404495       -11.0069
 266   2.0000      -0.393514       -10.7081
 267   2.0000      -0.391641       -10.6571
 268   2.0000      -0.387177       -10.5356
 269   2.0000      -0.385854       -10.4996
 270   2.0000      -0.376727       -10.2513
 271   2.0000      -0.373451       -10.1621
 272   2.0000      -0.371956       -10.1214
 273   2.0000      -0.365114        -9.9353
 274   2.0000      -0.355675        -9.6784
 275   2.0000      -0.344578        -9.3765
 276   2.0000      -0.340014        -9.2523
 277   2.0000      -0.328289        -8.9332
 278   2.0000      -0.327563        -8.9134
 279   2.0000      -0.322162        -8.7665
 280   2.0000      -0.316071        -8.6007
 281   2.0000      -0.312113        -8.4930
 282   2.0000      -0.310128        -8.4390
 283   2.0000      -0.305367        -8.3095
 284   2.0000      -0.300288        -8.1712
 285   2.0000      -0.298527        -8.1233
 286   2.0000      -0.275788        -7.5046
 287   2.0000      -0.245532        -6.6813
 288   0.0000      -0.137582        -3.7438
 289   0.0000      -0.092596        -2.5197
 290   0.0000      -0.086567        -2.3556
 291   0.0000      -0.060089        -1.6351
 292   0.0000      -0.056476        -1.5368

MULLIKEN ATOMIC CHARGES
-----------------------
   0 C :   -0.109294
   1 C :    0.240304
   2 F :   -0.172045
   3 C :    0.238162
   4 F :   -0.172918
   5 C :   -0.105399
   6 C :    0.117952
   7 C :    0.113345
   8 C :   -0.087201
   9 C :    0.049157
  10 C :    0.003083
  11 C :   -0.087753
  12 C :    0.129864
  13 O :   -0.164811
  14 C :   -0.093331
  15 C :    0.317000
  16 C :   -0.348386
  17 C :   -0.203449
  18 N :    0.162081
  19 C :   -0.185113
  20 N :    0.148008
  21 C :    0.012962
  22 C :   -0.144445
  23 C :   -0.018109
  24 C :    0.120913
  25 C :    0.223332
  26 C :   -0.306865
  27 S :    0.196266
  28 C :    0.115528
  29 F :   -0.185553
  30 C :   -0.216699
  31 S :    0.209713
  32 C :    0.129085
  33 C :   -0.064436
  34 C :   -0.038890
  35 N :   -0.046371
  36 C :    0.171349
  37 C :    0.161702
  38 N :   -0.017200
  39 F :   -0.127450
  40 F :   -0.137452
  41 C :    0.181924
  42 C :   -0.021486
  43 C :   -0.005089
  44 N :   -0.259947
  45 S :    0.575849
  46 N :   -0.335403
  47 C :   -0.219570
  48 C :   -0.021971
  49 C :    0.132187
  50 C :    0.225235
  51 C :   -0.283634
  52 S :    0.161086
  53 C :    0.116040
  54 F :   -0.182235
  55 C :   -0.109916
  56 S :    0.184718
  57 C :    0.026069
  58 C :   -0.137789
  59 C :    0.140370
  60 O :   -0.139053
  61 C :    0.012052
  62 C :   -0.083552
  63 C :    0.112685
  64 C :    0.113840
  65 C :   -0.111348
  66 C :    0.244504
  67 C :    0.238431
  68 C :   -0.104671
  69 F :   -0.172327
  70 F :   -0.172328
  71 C :   -0.085539
  72 C :    0.041730
  73 C :    0.249510
  74 C :   -0.313257
  75 C :   -0.206708
  76 N :    0.164574
  77 C :   -0.174035
  78 N :    0.140551
  79 H :    0.007027
  80 H :   -0.002174
  81 H :   -0.007157
  82 H :   -0.013948
  83 H :    0.019592
  84 H :    0.035671
  85 H :    0.041881
  86 H :    0.037833
  87 H :    0.036322
  88 H :    0.044553
  89 H :    0.038408
  90 H :    0.028701
  91 H :   -0.009303
  92 H :    0.003257
  93 H :   -0.000708
  94 H :   -0.008084
Sum of atomic charges:   -0.0000000

LOEWDIN ATOMIC CHARGES
----------------------
   0 C :   -0.029244
   1 C :    0.064987
   2 F :   -0.049834
   3 C :    0.066923
   4 F :   -0.050400
   5 C :   -0.034694
   6 C :   -0.008696
   7 C :   -0.008248
   8 C :    0.017071
   9 C :   -0.023387
  10 C :   -0.048896
  11 C :    0.024436
  12 C :    0.064970
  13 O :   -0.162685
  14 C :   -0.102285
  15 C :    0.075591
  16 C :   -0.140405
  17 C :   -0.024469
  18 N :   -0.050490
  19 C :   -0.017396
  20 N :   -0.054960
  21 C :    0.036713
  22 C :   -0.191521
  23 C :   -0.160365
  24 C :   -0.078962
  25 C :    0.030210
  26 C :   -0.189396
  27 S :    0.476608
  28 C :   -0.056397
  29 F :   -0.059479
  30 C :   -0.138529
  31 S :    0.506340
  32 C :   -0.048041
  33 C :   -0.007248
  34 C :   -0.003454
  35 N :   -0.050984
  36 C :    0.064121
  37 C :    0.066815
  38 N :   -0.051739
  39 F :   -0.017246
  40 F :   -0.022822
  41 C :   -0.041349
  42 C :   -0.045793
  43 C :   -0.040047
  44 N :   -0.262419
  45 S :    0.697865
  46 N :   -0.306203
  47 C :   -0.156459
  48 C :   -0.176227
  49 C :   -0.060493
  50 C :    0.027295
  51 C :   -0.186606
  52 S :    0.451674
  53 C :   -0.056341
  54 F :   -0.059913
  55 C :   -0.179728
  56 S :    0.536247
  57 C :    0.051493
  58 C :   -0.097573
  59 C :    0.081133
  60 O :   -0.141544
  61 C :   -0.052130
  62 C :    0.029083
  63 C :   -0.009900
  64 C :   -0.006260
  65 C :   -0.031956
  66 C :    0.066285
  67 C :    0.065832
  68 C :   -0.032775
  69 F :   -0.049993
  70 F :   -0.049958
  71 C :    0.009662
  72 C :   -0.018052
  73 C :    0.059284
  74 C :   -0.147134
  75 C :   -0.038965
  76 N :   -0.049566
  77 C :   -0.018245
  78 N :   -0.062949
  79 H :    0.047483
  80 H :    0.044015
  81 H :    0.039590
  82 H :    0.038661
  83 H :    0.044497
  84 H :    0.042834
  85 H :    0.042497
  86 H :    0.040483
  87 H :    0.043189
  88 H :    0.044222
  89 H :    0.041627
  90 H :    0.051648
  91 H :    0.040553
  92 H :    0.046075
  93 H :    0.044780
  94 H :    0.038055

  Mayer bond orders larger than 0.100000
B(  0-C ,  1-C ) :   1.4398 B(  0-C ,  5-C ) :   0.1085 B(  0-C ,  7-C ) :   1.1910
B(  0-C , 79-H ) :   1.0062 B(  1-C ,  2-F ) :   1.1337 B(  1-C ,  3-C ) :   1.1934
B(  3-C ,  4-F ) :   1.1318 B(  3-C ,  5-C ) :   1.4406 B(  5-C ,  6-C ) :   1.1944
B(  5-C , 80-H ) :   1.0065 B(  6-C ,  7-C ) :   1.2581 B(  6-C , 11-C ) :   1.1840
B(  7-C ,  8-C ) :   1.2127 B(  8-C ,  9-C ) :   1.4552 B(  8-C , 81-H ) :   0.9893
B(  9-C , 10-C ) :   1.2199 B(  9-C , 15-C ) :   0.9822 B( 10-C , 11-C ) :   1.4766
B( 10-C , 12-C ) :   0.9339 B( 11-C , 82-H ) :   1.0159 B( 12-C , 13-O ) :   2.1687
B( 12-C , 14-C ) :   0.9823 B( 14-C , 15-C ) :   1.0811 B( 14-C , 21-C ) :   1.5283
B( 15-C , 16-C ) :   1.6301 B( 16-C , 17-C ) :   1.1422 B( 16-C , 19-C ) :   1.1482
B( 17-C , 18-N ) :   2.9848 B( 19-C , 20-N ) :   2.9624 B( 21-C , 22-C ) :   1.2495
B( 21-C , 83-H ) :   0.9236 B( 22-C , 23-C ) :   1.4152 B( 22-C , 31-S ) :   1.0814
B( 23-C , 24-C ) :   1.2509 B( 23-C , 27-S ) :   1.1077 B( 24-C , 25-C ) :   1.1007
B( 24-C , 30-C ) :   1.3562 B( 25-C , 26-C ) :   1.6301 B( 25-C , 29-F ) :   1.1389
B( 26-C , 27-S ) :   1.0733 B( 26-C , 28-C ) :   1.0682 B( 28-C , 84-H ) :   0.9559
B( 28-C , 85-H ) :   0.9481 B( 28-C , 86-H ) :   0.9479 B( 30-C , 31-S ) :   1.1776
B( 30-C , 32-C ) :   1.1340 B( 32-C , 33-C ) :   1.2989 B( 32-C , 41-C ) :   0.1222
B( 32-C , 43-C ) :   1.2212 B( 33-C , 34-C ) :   1.1245 B( 33-C , 38-N ) :   1.4090
B( 34-C , 35-N ) :   1.4293 B( 34-C , 41-C ) :   1.2665 B( 35-N , 36-C ) :   1.6039
B( 36-C , 37-C ) :   1.1220 B( 36-C , 40-F ) :   1.1725 B( 37-C , 38-N ) :   1.6560
B( 37-C , 39-F ) :   1.1964 B( 41-C , 42-C ) :   1.1857 B( 41-C , 47-C ) :   1.2154
B( 42-C , 43-C ) :   1.1165 B( 42-C , 46-N ) :   1.4718 B( 43-C , 44-N ) :   1.5078
B( 44-N , 45-S ) :   1.3043 B( 44-N , 46-N ) :   0.1491 B( 45-S , 46-N ) :   1.2630
B( 47-C , 48-C ) :   1.4355 B( 47-C , 56-S ) :   1.1694 B( 48-C , 49-C ) :   1.2658
B( 48-C , 52-S ) :   1.0658 B( 49-C , 50-C ) :   1.1129 B( 49-C , 55-C ) :   1.3307
B( 50-C , 51-C ) :   1.6270 B( 50-C , 54-F ) :   1.1368 B( 51-C , 52-S ) :   1.0415
B( 51-C , 53-C ) :   1.0661 B( 53-C , 87-H ) :   0.9563 B( 53-C , 88-H ) :   0.9474
B( 53-C , 89-H ) :   0.9467 B( 55-C , 56-S ) :   1.0674 B( 55-C , 57-C ) :   1.1987
B( 57-C , 58-C ) :   1.5828 B( 57-C , 90-H ) :   0.9478 B( 58-C , 59-C ) :   0.9469
B( 58-C , 73-C ) :   1.0490 B( 59-C , 60-O ) :   2.2739 B( 59-C , 61-C ) :   0.9148
B( 61-C , 62-C ) :   1.4755 B( 61-C , 72-C ) :   1.2224 B( 62-C , 63-C ) :   1.1917
B( 62-C , 91-H ) :   1.0173 B( 63-C , 64-C ) :   1.2614 B( 63-C , 68-C ) :   1.1909
B( 64-C , 65-C ) :   1.1901 B( 64-C , 71-C ) :   1.2068 B( 65-C , 66-C ) :   1.4395
B( 65-C , 68-C ) :   0.1092 B( 65-C , 92-H ) :   1.0081 B( 66-C , 67-C ) :   1.1924
B( 66-C , 70-F ) :   1.1327 B( 67-C , 68-C ) :   1.4421 B( 67-C , 69-F ) :   1.1330
B( 68-C , 93-H ) :   1.0081 B( 71-C , 72-C ) :   1.4606 B( 71-C , 94-H ) :   0.9951
B( 72-C , 73-C ) :   1.0045 B( 73-C , 74-C ) :   1.6394 B( 74-C , 75-C ) :   1.1448
B( 74-C , 77-C ) :   1.1435 B( 75-C , 76-N ) :   3.0237 B( 77-C , 78-N ) :   2.9781

-----------------------------------------------------------------------------
         ABSORPTION SPECTRUM VIA TRANSITION ELECTRIC DIPOLE MOMENTS
-----------------------------------------------------------------------------
State   Energy  Wavelength   fosc         T2         TX        TY        TZ
        (cm-1)    (nm)                  (au**2)     (au)      (au)      (au)
-----------------------------------------------------------------------------
   0    8687.8   1151.0   0.766738485  29.05463  -3.57136   1.42279  -3.77832
   1   14767.1    677.2   0.069034211   1.53902  -0.97581   0.65301   0.40050
   2   18153.9    550.8   0.187810858   3.40585   0.50029  -0.66131  -1.64871
   3   19569.6    511.0   0.425459917   7.15735   2.05693  -0.14641   1.70439
   4   20066.7    498.3   0.082634432   1.35569   1.09852  -0.37780   0.07877
   5   20900.2    478.5   0.081321112   1.28094   0.48581   0.03488   1.02162
   6   21778.8    459.2   0.036603766   0.55331  -0.10353  -0.70246  -0.22167
   7   22359.6    447.2   0.018992459   0.27964  -0.24961   0.39521  -0.24726
   8   23950.5    417.5   0.008819383   0.12123   0.24037  -0.25084   0.02298
   9   24788.1    403.4   0.003885074   0.05160  -0.03830   0.05319   0.21749
  10   25164.7    397.4   0.039462346   0.51626   0.43035  -0.57080   0.07245
  11   25506.0    392.1   0.189572637   2.44686   1.26942  -0.91205   0.05991
  12   26269.1    380.7   0.042466319   0.53220   0.10368  -0.45772   0.55852
  13   26347.8    379.5   0.021358249   0.26687   0.35016   0.37735  -0.04312
  14   26752.1    373.8   0.051844395   0.63800  -0.66334   0.09902   0.43378
  15   27076.2    369.3   0.033164693   0.40324   0.16787   0.43866   0.42737
  16   27131.1    368.6   0.062942876   0.76376  -0.79634   0.35823  -0.03565
  17   27394.2    365.0   0.038971084   0.46834   0.68298   0.01778  -0.03959
  18   27970.1    357.5   0.314081957   3.69678  -0.70459   0.40395   1.74275
  19   28084.4    356.1   0.065576807   0.76871   0.22853  -0.27008   0.80221
  20   28808.0    347.1   0.044391747   0.50730   0.35725   0.27207   0.55285
  21   29238.9    342.0   0.154362247   1.73802   0.62070  -0.11911  -1.15696
  22   29739.6    336.3   0.057143081   0.63256  -0.47051   0.32309   0.55389
  23   30185.6    331.3   0.119324125   1.30138  -0.62816   0.55163   0.77620
  24   30591.1    326.9   0.019541885   0.21030  -0.31984   0.31418   0.09643
  25   30842.7    324.2   0.243684502   2.60106  -0.58910  -0.51053   1.41187
  26   30990.4    322.7   0.198473561   2.10839  -1.34008   0.17285   0.53170
  27   31204.3    320.5   0.187385133   1.97695  -1.14506   0.10171  -0.80960
  28   31572.7    316.7   0.058178343   0.60663   0.25640   0.13003  -0.72387
  29   31756.9    314.9   0.032101583   0.33279  -0.31187   0.45828   0.15970
  30   32055.5    312.0   0.005116232   0.05254   0.16754  -0.05654  -0.14587
  31   32687.2    305.9   0.041815024   0.42114   0.24887   0.34556   0.48969
  32   32802.0    304.9   0.066635307   0.66877  -0.47866   0.59077   0.30108
  33   33138.8    301.8   0.072760811   0.72283   0.00656  -0.57961   0.62197
  34   33839.8    295.5   0.080175175   0.77999  -0.41373   0.06958  -0.77716
  35   34565.8    289.3   0.014532661   0.13841  -0.35817  -0.08004   0.06102
  36   34690.1    288.3   0.020227291   0.19196   0.34397   0.14537  -0.22915
  37   34908.7    286.5   0.066166396   0.62399  -0.59890   0.50853   0.08193
  38   35213.7    284.0   0.017958264   0.16789  -0.38044   0.07698   0.13126
  39   35311.9    283.2   0.248731533   2.31892  -1.14618   0.37810   0.92857
  40   35701.5    280.1   0.052073660   0.48018  -0.33901  -0.27618   0.53757
  41   35743.5    279.8   0.076482875   0.70444  -0.27426   0.06158   0.79084
  42   35942.3    278.2   0.625732546   5.73138  -0.53419  -0.85332   2.17207
  43   36068.7    277.2   0.213393848   1.94772  -0.40632   0.33877   1.29146
  44   36287.2    275.6   0.039306075   0.35660   0.56102  -0.10596  -0.17500
  45   36519.3    273.8   0.015651547   0.14109  -0.17151  -0.05381  -0.32983
  46   36875.7    271.2   0.335882358   2.99863  -1.62158   0.49528   0.35185
  47   37075.3    269.7   0.052161547   0.46317   0.48155  -0.38465  -0.28866
  48   37173.3    269.0   0.052169157   0.46202  -0.08041  -0.06130  -0.67216
  49   37336.5    267.8   0.007163682   0.06317   0.21428  -0.11783  -0.05803
  50   37469.8    266.9   0.010330938   0.09077  -0.23334   0.09344   0.16611
  51   37602.4    265.9   0.073522923   0.64370   0.19733   0.27464   0.72755
  52   37686.4    265.3   0.039329882   0.34357  -0.29124  -0.38138  -0.33659
  53   38046.9    262.8   0.300926118   2.60385  -0.91380   1.03940   0.82975
  54   38330.8    260.9   0.014332080   0.12309   0.04447  -0.21285  -0.27534
  55   38693.3    258.4   0.035175446   0.29928   0.39561  -0.12804  -0.35549
  56   38764.4    258.0   0.011723239   0.09956   0.21985  -0.21344   0.07530
  57   39070.5    255.9   0.078208451   0.65899  -0.04434  -0.52431  -0.61816
  58   39203.0    255.1   0.032074958   0.26935  -0.18306  -0.07826  -0.47929
  59   39638.6    252.3   0.021255947   0.17654  -0.06257   0.35223  -0.22036
  60   39805.7    251.2   0.003201074   0.02647   0.10959  -0.10066  -0.06581
  61   39993.0    250.0   0.018712190   0.15403  -0.05601   0.36783  -0.12488

FINAL SINGLE POINT ENERGY     -5516.777198866946

DIPOLE MOMENT
-------------
                                X             Y             Z
Electronic contribution:     -6.85610      -6.41965      -2.02180
Nuclear contribution   :      6.70234       5.76738       3.36100
                        -----------------------------------------
Total Dipole Moment    :     -0.15376      -0.65227       1.33920
                        -----------------------------------------
Magnitude (a.u.)       :      1.49752
Magnitude (Debye)      :      3.80639

Rotational constants in cm-1:     0.001060     0.000290     0.000239
Rotational constants in MHz :    31.766940     8.687406     7.168686

                             ****ORCA TERMINATED NORMALLY****
TOTAL RUN TIME: 0 days 0 hours 12 minutes 16 seconds 346 msec
