                         Program Version 4.2.0 -  RELEASE  -
|  1> # ORCA input file
|  2> # SCF done       -248.321797117010          0.000422782394
|  3> ! CAM-B3LYP def2-SVP def2/J RIJCOSX Grid4 TightSCF
|  4> %maxcore 5000
|  5> %tddft
|  6>     Mode sTDDFT
|  7>     Ethresh 5.0
|  8>     maxcore 5000
|  9> end
| 10>
| 11> %pal
| 12>   nprocs 6
| 13>   end
| 14> * xyz 0 1
| 15>    C       11.56793         6.77881         7.99277
| 16>    C       10.24460         6.50193         8.18021
| 17>    C        9.70084         6.11583         9.48339
| 18>    O       10.35207         6.07888        10.50421
| 19>    C        8.26718         5.75095         9.41763
| 20>    C        7.50317         5.87129         8.22466
| 21>    C        6.20343         5.46252         8.40953
| 22>    S        5.89019         4.92836        10.01341
| 23>    C        7.51639         5.25681        10.45724
| 24>    C        7.96551         4.97648        11.85821
| 25>    F        8.36432         6.07389        12.50484
| 26>    F        6.95706         4.45701        12.58301
| 27>    F        8.96001         4.08608        11.91001
| 28>    C        5.09816         5.41890         7.40005
| 29>    F        4.74851         6.62699         6.95294
| 30>    F        5.39451         4.65989         6.34080
| 31>    F        3.98675         4.88491         7.94259
| 32>    C        8.05583         6.37657         6.94777
| 33>    O        7.33399         6.56702         5.97868
| 34>    C        9.47594         6.61052         6.97636
| 35>    C       10.26371         6.95142         5.87160
| 36>    S       11.93645         7.15086         6.36962
| 37>    C        9.96574         7.08432         4.50103
| 38>    C       10.94292         7.21780         3.50465
| 39>    C       10.41000         7.24415         2.23733
| 40>    C        9.00668         7.16244         2.25378
| 41>    S        8.34437         7.03164         3.82462
| 42>    C        8.54512         7.09520         0.92512
| 43>    C        9.64222         7.11269         0.05151
| 44>    C       10.93518         7.26878         0.81949
| 45>    C       11.61079         8.60498         0.49677
| 46>    C       11.88899         6.10208         0.55373
| 47>    C        9.27974         6.91084        -1.26578
| 48>    C        7.90356         6.74397        -1.41561
| 49>    S        7.05141         6.89893         0.11229
| 50>    C        7.17406         6.32579        -2.55949
| 51>    C        7.75883         5.81696        -3.74511
| 52>    C        6.97783         5.08876        -4.70760
| 53>    N        7.58290         4.54928        -5.78364
| 54>    C        8.85616         4.70690        -5.95147
| 55>    C        9.62222         5.43698        -5.01048
| 56>    N        9.08387         5.95663        -3.95516
| 57>    F       10.93282         5.61755        -5.18155
| 58>    F        9.41606         4.17065        -7.03282
| 59>    C        5.58944         4.85628        -4.56243
| 60>    C        4.97244         5.55206        -3.49473
| 61>    C        5.76133         6.25286        -2.51326
| 62>    N        5.00269         6.78009        -1.55458
| 63>    S        3.46161         6.45111        -1.85368
| 64>    N        3.67247         5.60660        -3.20442
| 65>    C        4.91215         3.87234        -5.32403
| 66>    C        3.57065         3.51160        -5.20058
| 67>    C        3.27591         2.34821        -5.88045
| 68>    C        4.39040         1.81156        -6.54373
| 69>    S        5.79862         2.77945        -6.36735
| 70>    C        4.03764         0.54821        -7.05997
| 71>    C        2.70592         0.26994        -6.72754
| 72>    C        2.08292         1.42949        -5.99032
| 73>    C        1.58658         0.99453        -4.60904
| 74>    C        0.94990         2.06956        -6.79759
| 75>    C        2.32133        -1.01974        -7.04756
| 76>    C        3.35278        -1.74908        -7.61987
| 77>    S        4.80924        -0.77736        -7.82109
| 78>    C        3.38974        -3.11762        -7.99281
| 79>    C        2.74973        -4.22494        -7.43642
| 80>    C        1.92963        -4.22126        -6.23649
| 81>    O        1.58772        -3.23561        -5.61068
| 82>    C        1.53272        -5.58029        -5.78671
| 83>    C        1.83989        -6.77436        -6.49289
| 84>    C        1.33216        -7.88596        -5.86428
| 85>    S        0.48456        -7.51033        -4.41870
| 86>    C        0.80492        -5.83666        -4.64872
| 87>    C        0.29688        -4.85767        -3.63577
| 88>    F        1.27197        -4.15184        -3.05705
| 89>    F       -0.58785        -3.99303        -4.14100
| 90>    F       -0.33999        -5.50099        -2.63838
| 91>    C        1.45136        -9.31589        -6.29330
| 92>    F        2.71895        -9.73311        -6.34759
| 93>    F        0.82554       -10.12528        -5.41848
| 94>    F        0.89249        -9.54758        -7.48297
| 95>    C        2.63935        -6.77463        -7.73906
| 96>    O        2.89335        -7.77826        -8.36738
| 97>    C        3.11165        -5.43818        -8.10666
| 98>    C        3.99825        -5.23926        -9.12761
| 99>    S        4.43670        -3.60182        -9.30561
|100>    H       12.33468         6.76798         8.74253
|101>    H       11.99217         7.26019         3.73869
|102>    H       10.92810         9.42947         0.68800
|103>    H       11.90352         8.62923        -0.54962
|104>    H       12.49644         8.73409         1.11379
|105>    H       11.40581         5.15726         0.79127
|106>    H       12.78204         6.20141         1.16544
|107>    H       12.17960         6.09111        -0.49340
|108>    H        9.94964         6.85696        -2.10221
|109>    H        2.88763         4.08148        -4.59917
|110>    H        2.40194         0.56296        -4.03379
|111>    H        0.80657         0.24530        -4.71227
|112>    H        1.19049         1.85029        -4.06869
|113>    H        1.30509         2.36645        -7.78174
|114>    H        0.57853         2.95028        -6.28021
|115>    H        0.13447         1.36108        -6.91773
|116>    H        1.34717        -1.43049        -6.86801
|117>    H        4.41357        -5.99570        -9.76452
|118> *
|119>
|120>                          ****END OF INPUT****

CARTESIAN COORDINATES (ANGSTROEM)
---------------------------------
  C     11.567930    6.778810    7.992770
  C     10.244600    6.501930    8.180210
  C      9.700840    6.115830    9.483390
  O     10.352070    6.078880   10.504210
  C      8.267180    5.750950    9.417630
  C      7.503170    5.871290    8.224660
  C      6.203430    5.462520    8.409530
  S      5.890190    4.928360   10.013410
  C      7.516390    5.256810   10.457240
  C      7.965510    4.976480   11.858210
  F      8.364320    6.073890   12.504840
  F      6.957060    4.457010   12.583010
  F      8.960010    4.086080   11.910010
  C      5.098160    5.418900    7.400050
  F      4.748510    6.626990    6.952940
  F      5.394510    4.659890    6.340800
  F      3.986750    4.884910    7.942590
  C      8.055830    6.376570    6.947770
  O      7.333990    6.567020    5.978680
  C      9.475940    6.610520    6.976360
  C     10.263710    6.951420    5.871600
  S     11.936450    7.150860    6.369620
  C      9.965740    7.084320    4.501030
  C     10.942920    7.217800    3.504650
  C     10.410000    7.244150    2.237330
  C      9.006680    7.162440    2.253780
  S      8.344370    7.031640    3.824620
  C      8.545120    7.095200    0.925120
  C      9.642220    7.112690    0.051510
  C     10.935180    7.268780    0.819490
  C     11.610790    8.604980    0.496770
  C     11.888990    6.102080    0.553730
  C      9.279740    6.910840   -1.265780
  C      7.903560    6.743970   -1.415610
  S      7.051410    6.898930    0.112290
  C      7.174060    6.325790   -2.559490
  C      7.758830    5.816960   -3.745110
  C      6.977830    5.088760   -4.707600
  N      7.582900    4.549280   -5.783640
  C      8.856160    4.706900   -5.951470
  C      9.622220    5.436980   -5.010480
  N      9.083870    5.956630   -3.955160
  F     10.932820    5.617550   -5.181550
  F      9.416060    4.170650   -7.032820
  C      5.589440    4.856280   -4.562430
  C      4.972440    5.552060   -3.494730
  C      5.761330    6.252860   -2.513260
  N      5.002690    6.780090   -1.554580
  S      3.461610    6.451110   -1.853680
  N      3.672470    5.606600   -3.204420
  C      4.912150    3.872340   -5.324030
  C      3.570650    3.511600   -5.200580
  C      3.275910    2.348210   -5.880450
  C      4.390400    1.811560   -6.543730
  S      5.798620    2.779450   -6.367350
  C      4.037640    0.548210   -7.059970
  C      2.705920    0.269940   -6.727540
  C      2.082920    1.429490   -5.990320
  C      1.586580    0.994530   -4.609040
  C      0.949900    2.069560   -6.797590
  C      2.321330   -1.019740   -7.047560
  C      3.352780   -1.749080   -7.619870
  S      4.809240   -0.777360   -7.821090
  C      3.389740   -3.117620   -7.992810
  C      2.749730   -4.224940   -7.436420
  C      1.929630   -4.221260   -6.236490
  O      1.587720   -3.235610   -5.610680
  C      1.532720   -5.580290   -5.786710
  C      1.839890   -6.774360   -6.492890
  C      1.332160   -7.885960   -5.864280
  S      0.484560   -7.510330   -4.418700
  C      0.804920   -5.836660   -4.648720
  C      0.296880   -4.857670   -3.635770
  F      1.271970   -4.151840   -3.057050
  F     -0.587850   -3.993030   -4.141000
  F     -0.339990   -5.500990   -2.638380
  C      1.451360   -9.315890   -6.293300
  F      2.718950   -9.733110   -6.347590
  F      0.825540  -10.125280   -5.418480
  F      0.892490   -9.547580   -7.482970
  C      2.639350   -6.774630   -7.739060
  O      2.893350   -7.778260   -8.367380
  C      3.111650   -5.438180   -8.106660
  C      3.998250   -5.239260   -9.127610
  S      4.436700   -3.601820   -9.305610
  H     12.334680    6.767980    8.742530
  H     11.992170    7.260190    3.738690
  H     10.928100    9.429470    0.688000
  H     11.903520    8.629230   -0.549620
  H     12.496440    8.734090    1.113790
  H     11.405810    5.157260    0.791270
  H     12.782040    6.201410    1.165440
  H     12.179600    6.091110   -0.493400
  H      9.949640    6.856960   -2.102210
  H      2.887630    4.081480   -4.599170
  H      2.401940    0.562960   -4.033790
  H      0.806570    0.245300   -4.712270
  H      1.190490    1.850290   -4.068690
  H      1.305090    2.366450   -7.781740
  H      0.578530    2.950280   -6.280210
  H      0.134470    1.361080   -6.917730
  H      1.347170   -1.430490   -6.868010
  H      4.413570   -5.995700   -9.764520

 Total Charge           Charge          ....    0
 Multiplicity           Mult            ....    1
 Number of Electrons    NEL             ....  672
 Basis Dimension        Dim             .... 1316

ORBITAL ENERGIES
----------------

  NO   OCC          E(Eh)            E(eV)
   0   2.0000     -89.038146     -2422.8511
   1   2.0000     -89.007576     -2422.0193
   2   2.0000     -89.007437     -2422.0155
   3   2.0000     -88.982090     -2421.3258
   4   2.0000     -88.981556     -2421.3112
   5   2.0000     -88.967969     -2420.9415
   6   2.0000     -88.964049     -2420.8349
   7   2.0000     -88.959038     -2420.6985
   8   2.0000     -88.957651     -2420.6608
   9   2.0000     -24.814405      -675.2343
  10   2.0000     -24.812902      -675.1934
  11   2.0000     -24.805473      -674.9912
  12   2.0000     -24.805437      -674.9903
  13   2.0000     -24.805267      -674.9856
  14   2.0000     -24.805022      -674.9790
  15   2.0000     -24.797410      -674.7718
  16   2.0000     -24.797299      -674.7688
  17   2.0000     -24.797284      -674.7684
  18   2.0000     -24.797214      -674.7665
  19   2.0000     -24.797113      -674.7637
  20   2.0000     -24.797033      -674.7616
  21   2.0000     -24.796785      -674.7548
  22   2.0000     -24.796674      -674.7518
  23   2.0000     -19.219631      -522.9927
  24   2.0000     -19.219175      -522.9803
  25   2.0000     -19.218684      -522.9670
  26   2.0000     -19.215953      -522.8927
  27   2.0000     -14.454629      -393.3305
  28   2.0000     -14.452105      -393.2618
  29   2.0000     -14.448703      -393.1692
  30   2.0000     -14.448266      -393.1573
  31   2.0000     -10.529898      -286.5331
  32   2.0000     -10.529882      -286.5327
  33   2.0000     -10.529855      -286.5319
  34   2.0000     -10.529825      -286.5311
  35   2.0000     -10.428917      -283.7853
  36   2.0000     -10.427599      -283.7494
  37   2.0000     -10.378518      -282.4138
  38   2.0000     -10.378381      -282.4101
  39   2.0000     -10.378371      -282.4098
  40   2.0000     -10.378246      -282.4064
  41   2.0000     -10.343516      -281.4614
  42   2.0000     -10.343373      -281.4575
  43   2.0000     -10.342788      -281.4416
  44   2.0000     -10.342563      -281.4354
  45   2.0000     -10.342003      -281.4202
  46   2.0000     -10.340846      -281.3887
  47   2.0000     -10.340354      -281.3753
  48   2.0000     -10.337878      -281.3080
  49   2.0000     -10.336368      -281.2669
  50   2.0000     -10.334880      -281.2264
  51   2.0000     -10.319158      -280.7986
  52   2.0000     -10.318039      -280.7681
  53   2.0000     -10.317003      -280.7399
  54   2.0000     -10.316253      -280.7195
  55   2.0000     -10.315961      -280.7116
  56   2.0000     -10.315729      -280.7052
  57   2.0000     -10.313808      -280.6530
  58   2.0000     -10.311836      -280.5993
  59   2.0000     -10.309436      -280.5340
  60   2.0000     -10.309425      -280.5337
  61   2.0000     -10.309254      -280.5291
  62   2.0000     -10.307705      -280.4869
  63   2.0000     -10.306782      -280.4618
  64   2.0000     -10.299398      -280.2609
  65   2.0000     -10.299134      -280.2537
  66   2.0000     -10.297948      -280.2214
  67   2.0000     -10.297404      -280.2066
  68   2.0000     -10.296599      -280.1847
  69   2.0000     -10.296583      -280.1843
  70   2.0000     -10.296166      -280.1729
  71   2.0000     -10.295340      -280.1504
  72   2.0000     -10.292252      -280.0664
  73   2.0000     -10.287986      -279.9503
  74   2.0000     -10.281800      -279.7820
  75   2.0000     -10.276687      -279.6429
  76   2.0000     -10.275092      -279.5995
  77   2.0000     -10.273537      -279.5572
  78   2.0000     -10.273314      -279.5511
  79   2.0000     -10.273068      -279.5444
  80   2.0000     -10.272637      -279.5327
  81   2.0000     -10.265861      -279.3483
  82   2.0000     -10.265695      -279.3438
  83   2.0000     -10.263722      -279.2901
  84   2.0000     -10.259957      -279.1876
  85   2.0000      -8.129476      -221.2143
  86   2.0000      -8.102465      -220.4793
  87   2.0000      -8.102356      -220.4763
  88   2.0000      -8.078262      -219.8207
  89   2.0000      -8.077382      -219.7967
  90   2.0000      -8.063033      -219.4063
  91   2.0000      -8.056843      -219.2379
  92   2.0000      -8.052558      -219.1212
  93   2.0000      -8.051655      -219.0967
  94   2.0000      -6.100666      -166.0076
  95   2.0000      -6.092857      -165.7951
  96   2.0000      -6.092063      -165.7735
  97   2.0000      -6.071572      -165.2159
  98   2.0000      -6.071468      -165.2131
  99   2.0000      -6.067130      -165.0950
 100   2.0000      -6.067012      -165.0918
 101   2.0000      -6.065190      -165.0422
 102   2.0000      -6.065060      -165.0387
 103   2.0000      -6.047362      -164.5571
 104   2.0000      -6.046649      -164.5377
 105   2.0000      -6.042988      -164.4381
 106   2.0000      -6.042235      -164.4176
 107   2.0000      -6.040800      -164.3785
 108   2.0000      -6.039707      -164.3488
 109   2.0000      -6.032396      -164.1498
 110   2.0000      -6.028330      -164.0392
 111   2.0000      -6.026329      -163.9848
 112   2.0000      -6.025003      -163.9487
 113   2.0000      -6.022119      -163.8702
 114   2.0000      -6.021841      -163.8626
 115   2.0000      -6.021105      -163.8426
 116   2.0000      -6.018935      -163.7835
 117   2.0000      -6.017618      -163.7477
 118   2.0000      -6.016721      -163.7233
 119   2.0000      -6.014619      -163.6661
 120   2.0000      -6.013731      -163.6419
 121   2.0000      -1.392873       -37.9020
 122   2.0000      -1.392700       -37.8973
 123   2.0000      -1.392536       -37.8928
 124   2.0000      -1.392405       -37.8893
 125   2.0000      -1.341241       -36.4970
 126   2.0000      -1.327194       -36.1148
 127   2.0000      -1.294983       -35.2383
 128   2.0000      -1.294859       -35.2349
 129   2.0000      -1.294448       -35.2237
 130   2.0000      -1.294310       -35.2200
 131   2.0000      -1.292462       -35.1697
 132   2.0000      -1.292201       -35.1626
 133   2.0000      -1.291993       -35.1569
 134   2.0000      -1.291887       -35.1540
 135   2.0000      -1.140126       -31.0244
 136   2.0000      -1.138999       -30.9937
 137   2.0000      -1.136969       -30.9385
 138   2.0000      -1.136953       -30.9381
 139   2.0000      -1.135793       -30.9065
 140   2.0000      -1.111925       -30.2570
 141   2.0000      -1.037745       -28.2385
 142   2.0000      -1.030093       -28.0303
 143   2.0000      -1.029831       -28.0231
 144   2.0000      -1.016759       -27.6674
 145   2.0000      -1.015666       -27.6377
 146   2.0000      -1.005722       -27.3671
 147   2.0000      -1.005520       -27.3616
 148   2.0000      -0.993506       -27.0347
 149   2.0000      -0.981158       -26.6987
 150   2.0000      -0.969595       -26.3840
 151   2.0000      -0.959138       -26.0995
 152   2.0000      -0.928284       -25.2599
 153   2.0000      -0.922754       -25.1094
 154   2.0000      -0.915655       -24.9162
 155   2.0000      -0.914528       -24.8856
 156   2.0000      -0.901109       -24.5204
 157   2.0000      -0.900768       -24.5111
 158   2.0000      -0.886843       -24.1322
 159   2.0000      -0.882223       -24.0065
 160   2.0000      -0.878190       -23.8968
 161   2.0000      -0.872802       -23.7502
 162   2.0000      -0.859070       -23.3765
 163   2.0000      -0.858400       -23.3582
 164   2.0000      -0.849540       -23.1171
 165   2.0000      -0.837681       -22.7945
 166   2.0000      -0.830754       -22.6060
 167   2.0000      -0.830109       -22.5884
 168   2.0000      -0.822721       -22.3874
 169   2.0000      -0.821163       -22.3450
 170   2.0000      -0.817827       -22.2542
 171   2.0000      -0.817721       -22.2513
 172   2.0000      -0.813134       -22.1265
 173   2.0000      -0.800175       -21.7739
 174   2.0000      -0.794369       -21.6159
 175   2.0000      -0.783381       -21.3169
 176   2.0000      -0.777674       -21.1616
 177   2.0000      -0.773818       -21.0567
 178   2.0000      -0.772982       -21.0339
 179   2.0000      -0.761999       -20.7350
 180   2.0000      -0.756700       -20.5908
 181   2.0000      -0.744274       -20.2527
 182   2.0000      -0.743796       -20.2397
 183   2.0000      -0.741596       -20.1799
 184   2.0000      -0.739301       -20.1174
 185   2.0000      -0.727796       -19.8043
 186   2.0000      -0.716852       -19.5065
 187   2.0000      -0.716666       -19.5015
 188   2.0000      -0.712234       -19.3809
 189   2.0000      -0.705316       -19.1926
 190   2.0000      -0.699078       -19.0229
 191   2.0000      -0.696778       -18.9603
 192   2.0000      -0.693245       -18.8642
 193   2.0000      -0.679389       -18.4871
 194   2.0000      -0.675721       -18.3873
 195   2.0000      -0.674696       -18.3594
 196   2.0000      -0.674533       -18.3550
 197   2.0000      -0.674278       -18.3480
 198   2.0000      -0.674122       -18.3438
 199   2.0000      -0.673948       -18.3391
 200   2.0000      -0.673818       -18.3355
 201   2.0000      -0.671079       -18.2610
 202   2.0000      -0.670916       -18.2566
 203   2.0000      -0.668239       -18.1837
 204   2.0000      -0.659726       -17.9521
 205   2.0000      -0.646677       -17.5970
 206   2.0000      -0.635476       -17.2922
 207   2.0000      -0.635137       -17.2830
 208   2.0000      -0.633141       -17.2286
 209   2.0000      -0.628490       -17.1021
 210   2.0000      -0.627290       -17.0694
 211   2.0000      -0.623980       -16.9794
 212   2.0000      -0.622557       -16.9406
 213   2.0000      -0.621673       -16.9166
 214   2.0000      -0.619867       -16.8674
 215   2.0000      -0.616568       -16.7777
 216   2.0000      -0.611886       -16.6503
 217   2.0000      -0.607103       -16.5201
 218   2.0000      -0.601480       -16.3671
 219   2.0000      -0.596183       -16.2230
 220   2.0000      -0.595724       -16.2105
 221   2.0000      -0.586385       -15.9563
 222   2.0000      -0.580342       -15.7919
 223   2.0000      -0.573524       -15.6064
 224   2.0000      -0.569039       -15.4843
 225   2.0000      -0.564170       -15.3518
 226   2.0000      -0.561092       -15.2681
 227   2.0000      -0.558646       -15.2015
 228   2.0000      -0.558203       -15.1895
 229   2.0000      -0.556649       -15.1472
 230   2.0000      -0.553328       -15.0568
 231   2.0000      -0.551770       -15.0144
 232   2.0000      -0.551154       -14.9977
 233   2.0000      -0.550988       -14.9931
 234   2.0000      -0.550864       -14.9898
 235   2.0000      -0.547341       -14.8939
 236   2.0000      -0.545720       -14.8498
 237   2.0000      -0.545100       -14.8329
 238   2.0000      -0.544454       -14.8153
 239   2.0000      -0.544092       -14.8055
 240   2.0000      -0.542462       -14.7611
 241   2.0000      -0.540966       -14.7204
 242   2.0000      -0.536659       -14.6032
 243   2.0000      -0.529896       -14.4192
 244   2.0000      -0.528939       -14.3932
 245   2.0000      -0.528680       -14.3861
 246   2.0000      -0.526255       -14.3201
 247   2.0000      -0.522756       -14.2249
 248   2.0000      -0.518601       -14.1118
 249   2.0000      -0.517380       -14.0786
 250   2.0000      -0.516849       -14.0642
 251   2.0000      -0.514699       -14.0057
 252   2.0000      -0.514419       -13.9981
 253   2.0000      -0.513359       -13.9692
 254   2.0000      -0.512112       -13.9353
 255   2.0000      -0.511834       -13.9277
 256   2.0000      -0.511407       -13.9161
 257   2.0000      -0.509205       -13.8562
 258   2.0000      -0.508764       -13.8442
 259   2.0000      -0.506963       -13.7952
 260   2.0000      -0.505645       -13.7593
 261   2.0000      -0.505173       -13.7465
 262   2.0000      -0.504169       -13.7191
 263   2.0000      -0.503569       -13.7028
 264   2.0000      -0.500262       -13.6128
 265   2.0000      -0.498470       -13.5641
 266   2.0000      -0.496735       -13.5169
 267   2.0000      -0.495825       -13.4921
 268   2.0000      -0.493618       -13.4320
 269   2.0000      -0.491416       -13.3721
 270   2.0000      -0.490758       -13.3542
 271   2.0000      -0.487828       -13.2745
 272   2.0000      -0.484630       -13.1875
 273   2.0000      -0.484445       -13.1824
 274   2.0000      -0.484079       -13.1725
 275   2.0000      -0.482665       -13.1340
 276   2.0000      -0.482420       -13.1273
 277   2.0000      -0.482018       -13.1164
 278   2.0000      -0.481512       -13.1026
 279   2.0000      -0.478678       -13.0255
 280   2.0000      -0.475469       -12.9382
 281   2.0000      -0.474521       -12.9124
 282   2.0000      -0.471551       -12.8316
 283   2.0000      -0.471124       -12.8199
 284   2.0000      -0.470373       -12.7995
 285   2.0000      -0.470233       -12.7957
 286   2.0000      -0.469280       -12.7698
 287   2.0000      -0.466548       -12.6954
 288   2.0000      -0.464840       -12.6489
 289   2.0000      -0.464101       -12.6288
 290   2.0000      -0.461407       -12.5555
 291   2.0000      -0.460535       -12.5318
 292   2.0000      -0.457360       -12.4454
 293   2.0000      -0.454980       -12.3806
 294   2.0000      -0.453014       -12.3271
 295   2.0000      -0.450744       -12.2654
 296   2.0000      -0.447956       -12.1895
 297   2.0000      -0.446794       -12.1579
 298   2.0000      -0.438284       -11.9263
 299   2.0000      -0.435259       -11.8440
 300   2.0000      -0.430521       -11.7151
 301   2.0000      -0.426689       -11.6108
 302   2.0000      -0.423682       -11.5290
 303   2.0000      -0.423214       -11.5162
 304   2.0000      -0.418704       -11.3935
 305   2.0000      -0.418315       -11.3829
 306   2.0000      -0.414961       -11.2917
 307   2.0000      -0.409861       -11.1529
 308   2.0000      -0.404304       -11.0017
 309   2.0000      -0.402829       -10.9615
 310   2.0000      -0.397115       -10.8061
 311   2.0000      -0.387871       -10.5545
 312   2.0000      -0.376759       -10.2521
 313   2.0000      -0.371303       -10.1037
 314   2.0000      -0.364789        -9.9264
 315   2.0000      -0.361761        -9.8440
 316   2.0000      -0.360401        -9.8070
 317   2.0000      -0.360170        -9.8007
 318   2.0000      -0.348782        -9.4908
 319   2.0000      -0.348485        -9.4828
 320   2.0000      -0.347755        -9.4629
 321   2.0000      -0.347707        -9.4616
 322   2.0000      -0.346637        -9.4325
 323   2.0000      -0.344006        -9.3609
 324   2.0000      -0.343335        -9.3426
 325   2.0000      -0.340508        -9.2657
 326   2.0000      -0.340052        -9.2533
 327   2.0000      -0.338897        -9.2218
 328   2.0000      -0.324235        -8.8229
 329   2.0000      -0.323997        -8.8164
 330   2.0000      -0.320726        -8.7274
 331   2.0000      -0.317652        -8.6438
 332   2.0000      -0.315476        -8.5845
 333   2.0000      -0.287827        -7.8322
 334   2.0000      -0.253443        -6.8965
 335   2.0000      -0.217889        -5.9291
 336   0.0000      -0.112631        -3.0648
 337   0.0000      -0.070238        -1.9113
 338   0.0000      -0.068151        -1.8545
 339   0.0000      -0.061978        -1.6865
 340   0.0000      -0.061667        -1.6781

MULLIKEN ATOMIC CHARGES
-----------------------
   0 C :   -0.088005
   1 C :   -0.030894
   2 C :    0.141478
   3 O :   -0.130904
   4 C :    0.043889
   5 C :    0.066684
   6 C :   -0.347113
   7 S :    0.278338
   8 C :   -0.338883
   9 C :    0.565527
  10 F :   -0.143526
  11 F :   -0.168332
  12 F :   -0.146000
  13 C :    0.570650
  14 F :   -0.143775
  15 F :   -0.148039
  16 F :   -0.169245
  17 C :    0.135204
  18 O :   -0.191421
  19 C :    0.040221
  20 C :   -0.119870
  21 S :    0.148269
  22 C :   -0.079500
  23 C :   -0.089327
  24 C :    0.035271
  25 C :   -0.065792
  26 S :    0.214077
  27 C :   -0.062941
  28 C :    0.035332
  29 C :   -0.103354
  30 C :    0.112976
  31 C :    0.100302
  32 C :   -0.059333
  33 C :   -0.177184
  34 S :    0.172718
  35 C :    0.191565
  36 C :   -0.065768
  37 C :   -0.084047
  38 N :   -0.040145
  39 C :    0.148857
  40 C :    0.134403
  41 N :    0.004841
  42 F :   -0.147220
  43 F :   -0.140540
  44 C :    0.175645
  45 C :    0.001494
  46 C :   -0.049822
  47 N :   -0.314757
  48 S :    0.539280
  49 N :   -0.292793
  50 C :   -0.176141
  51 C :   -0.049210
  52 C :    0.030205
  53 C :   -0.054995
  54 S :    0.164466
  55 C :   -0.080617
  56 C :   -0.014237
  57 C :   -0.114762
  58 C :    0.098351
  59 C :    0.115662
  60 C :    0.045885
  61 C :   -0.122341
  62 S :    0.147770
  63 C :   -0.150544
  64 C :    0.075251
  65 C :    0.125956
  66 O :   -0.159154
  67 C :    0.055623
  68 C :    0.044230
  69 C :   -0.339566
  70 S :    0.277646
  71 C :   -0.348353
  72 C :    0.570832
  73 F :   -0.145806
  74 F :   -0.148097
  75 F :   -0.168765
  76 C :    0.564071
  77 F :   -0.145469
  78 F :   -0.167195
  79 F :   -0.143317
  80 C :    0.146001
  81 O :   -0.131442
  82 C :   -0.043361
  83 C :   -0.094658
  84 S :    0.173612
  85 H :    0.044725
  86 H :   -0.010606
  87 H :    0.020542
  88 H :    0.013842
  89 H :    0.008099
  90 H :    0.021318
  91 H :    0.007479
  92 H :    0.014569
  93 H :   -0.006003
  94 H :   -0.009184
  95 H :    0.023509
  96 H :    0.024388
  97 H :    0.010481
  98 H :    0.016726
  99 H :    0.012670
 100 H :    0.012417
 101 H :   -0.005098
 102 H :    0.044107
Sum of atomic charges:   -0.0000000

LOEWDIN ATOMIC CHARGES
----------------------
   0 C :   -0.133208
   1 C :   -0.097696
   2 C :    0.074921
   3 O :   -0.131581
   4 C :   -0.067987
   5 C :   -0.060758
   6 C :   -0.209508
   7 S :    0.557008
   8 C :   -0.207230
   9 C :    0.145031
  10 F :   -0.043083
  11 F :   -0.068663
  12 F :   -0.044979
  13 C :    0.144742
  14 F :   -0.043623
  15 F :   -0.046397
  16 F :   -0.069927
  17 C :    0.074451
  18 O :   -0.167108
  19 C :   -0.118222
  20 C :   -0.115920
  21 S :    0.475529
  22 C :   -0.203164
  23 C :   -0.049196
  24 C :   -0.036136
  25 C :   -0.193019
  26 S :    0.517212
  27 C :   -0.196376
  28 C :   -0.034860
  29 C :   -0.035546
  30 C :   -0.023799
  31 C :   -0.025651
  32 C :   -0.041539
  33 C :   -0.157461
  34 S :    0.475929
  35 C :   -0.050620
  36 C :   -0.010992
  37 C :   -0.018006
  38 N :   -0.052661
  39 C :    0.056794
  40 C :    0.054664
  41 N :   -0.031708
  42 F :   -0.035959
  43 F :   -0.029638
  44 C :   -0.047949
  45 C :   -0.038726
  46 C :   -0.049223
  47 N :   -0.296181
  48 S :    0.664148
  49 N :   -0.281224
  50 C :   -0.161289
  51 C :   -0.037728
  52 C :   -0.033672
  53 C :   -0.195795
  54 S :    0.467563
  55 C :   -0.181909
  56 C :   -0.038085
  57 C :   -0.035777
  58 C :   -0.023391
  59 C :   -0.022940
  60 C :   -0.010416
  61 C :   -0.202408
  62 S :    0.430094
  63 C :   -0.133275
  64 C :   -0.108490
  65 C :    0.076509
  66 O :   -0.138349
  67 C :   -0.062391
  68 C :   -0.068976
  69 C :   -0.207614
  70 S :    0.556611
  71 C :   -0.209450
  72 C :    0.144263
  73 F :   -0.045088
  74 F :   -0.047042
  75 F :   -0.069632
  76 C :    0.144387
  77 F :   -0.044673
  78 F :   -0.068380
  79 F :   -0.043015
  80 C :    0.075639
  81 O :   -0.130469
  82 C :   -0.097722
  83 C :   -0.136461
  84 S :    0.477281
  85 H :    0.037909
  86 H :    0.022131
  87 H :    0.030084
  88 H :    0.025300
  89 H :    0.022556
  90 H :    0.029772
  91 H :    0.022350
  92 H :    0.025499
  93 H :    0.028934
  94 H :    0.028922
  95 H :    0.031391
  96 H :    0.028823
  97 H :    0.023357
  98 H :    0.028785
  99 H :    0.024906
 100 H :    0.024704
 101 H :    0.034324
 102 H :    0.037438

  Mayer bond orders larger than 0.100000
B(  0-C ,  1-C ) :   1.5836 B(  0-C , 21-S ) :   1.1519 B(  0-C , 85-H ) :   0.9647
B(  1-C ,  2-C ) :   0.9713 B(  1-C , 19-C ) :   1.1676 B(  2-C ,  3-O ) :   2.2555
B(  2-C ,  4-C ) :   0.9188 B(  4-C ,  5-C ) :   1.2269 B(  4-C ,  8-C ) :   1.5855
B(  5-C ,  6-C ) :   1.5768 B(  5-C , 17-C ) :   0.9525 B(  6-C ,  7-S ) :   1.1850
B(  6-C , 13-C ) :   0.9321 B(  7-S ,  8-C ) :   1.1903 B(  8-C ,  9-C ) :   0.9294
B(  9-C , 10-F ) :   1.1884 B(  9-C , 11-F ) :   1.1473 B(  9-C , 12-F ) :   1.1848
B( 13-C , 14-F ) :   1.1884 B( 13-C , 15-F ) :   1.1821 B( 13-C , 16-F ) :   1.1456
B( 17-C , 18-O ) :   2.0741 B( 17-C , 19-C ) :   1.0394 B( 19-C , 20-C ) :   1.4120
B( 20-C , 21-S ) :   1.1608 B( 20-C , 22-C ) :   1.2467 B( 22-C , 23-C ) :   1.3510
B( 22-C , 26-S ) :   1.1101 B( 23-C , 24-C ) :   1.3993 B( 23-C , 86-H ) :   0.9930
B( 24-C , 25-C ) :   1.4523 B( 24-C , 29-C ) :   0.9314 B( 25-C , 26-S ) :   1.0749
B( 25-C , 27-C ) :   1.1856 B( 27-C , 28-C ) :   1.4703 B( 27-C , 34-S ) :   1.0731
B( 28-C , 29-C ) :   0.9351 B( 28-C , 32-C ) :   1.3105 B( 29-C , 30-C ) :   1.0291
B( 29-C , 31-C ) :   1.0465 B( 30-C , 87-H ) :   0.9627 B( 30-C , 88-H ) :   0.9653
B( 30-C , 89-H ) :   0.9648 B( 31-C , 90-H ) :   0.9651 B( 31-C , 91-H ) :   0.9633
B( 31-C , 92-H ) :   0.9637 B( 32-C , 33-C ) :   1.3994 B( 32-C , 93-H ) :   1.0008
B( 33-C , 34-S ) :   1.1059 B( 33-C , 35-C ) :   1.1975 B( 35-C , 36-C ) :   1.2904
B( 35-C , 44-C ) :   0.1120 B( 35-C , 46-C ) :   1.1714 B( 36-C , 37-C ) :   1.1260
B( 36-C , 41-N ) :   1.4246 B( 37-C , 38-N ) :   1.3906 B( 37-C , 44-C ) :   1.2703
B( 38-N , 39-C ) :   1.6517 B( 39-C , 40-C ) :   1.1131 B( 39-C , 43-F ) :   1.1817
B( 40-C , 41-N ) :   1.6655 B( 40-C , 42-F ) :   1.1674 B( 44-C , 45-C ) :   1.1965
B( 44-C , 50-C ) :   1.2075 B( 45-C , 46-C ) :   1.1159 B( 45-C , 49-N ) :   1.5088
B( 46-C , 47-N ) :   1.4905 B( 47-N , 48-S ) :   1.2710 B( 47-N , 49-N ) :   0.1491
B( 48-S , 49-N ) :   1.2686 B( 50-C , 51-C ) :   1.4065 B( 50-C , 54-S ) :   1.0979
B( 51-C , 52-C ) :   1.3179 B( 51-C , 94-H ) :   0.9933 B( 52-C , 53-C ) :   1.4742
B( 52-C , 57-C ) :   0.9404 B( 53-C , 54-S ) :   1.0585 B( 53-C , 55-C ) :   1.1890
B( 55-C , 56-C ) :   1.4877 B( 55-C , 62-S ) :   1.0992 B( 56-C , 57-C ) :   0.9368
B( 56-C , 60-C ) :   1.3445 B( 57-C , 58-C ) :   1.0482 B( 57-C , 59-C ) :   1.0280
B( 58-C , 95-H ) :   0.9647 B( 58-C , 96-H ) :   0.9628 B( 58-C , 97-H ) :   0.9628
B( 59-C , 98-H ) :   0.9625 B( 59-C , 99-H ) :   0.9652 B( 59-C ,100-H ) :   0.9654
B( 60-C , 61-C ) :   1.4582 B( 60-C ,101-H ) :   0.9878 B( 61-C , 62-S ) :   1.0827
B( 61-C , 63-C ) :   1.1405 B( 63-C , 64-C ) :   1.4670 B( 63-C , 84-S ) :   1.1726
B( 64-C , 65-C ) :   1.0043 B( 64-C , 82-C ) :   1.1750 B( 65-C , 66-O ) :   2.1557
B( 65-C , 67-C ) :   0.9394 B( 67-C , 68-C ) :   1.2213 B( 67-C , 71-C ) :   1.5825
B( 68-C , 69-C ) :   1.5843 B( 68-C , 80-C ) :   0.9173 B( 69-C , 70-S ) :   1.1902
B( 69-C , 76-C ) :   0.9295 B( 70-S , 71-C ) :   1.1856 B( 71-C , 72-C ) :   0.9320
B( 72-C , 73-F ) :   1.1855 B( 72-C , 74-F ) :   1.1807 B( 72-C , 75-F ) :   1.1460
B( 76-C , 77-F ) :   1.1850 B( 76-C , 78-F ) :   1.1490 B( 76-C , 79-F ) :   1.1883
B( 80-C , 81-O ) :   2.2537 B( 80-C , 82-C ) :   0.9712 B( 82-C , 83-C ) :   1.5724
B( 83-C , 84-S ) :   1.1611 B( 83-C ,102-H ) :   0.9652

-----------------------------------------------------------------------------
         ABSORPTION SPECTRUM VIA TRANSITION ELECTRIC DIPOLE MOMENTS
-----------------------------------------------------------------------------
State   Energy  Wavelength   fosc         T2         TX        TY        TZ
        (cm-1)    (nm)                  (au**2)     (au)      (au)      (au)
-----------------------------------------------------------------------------
   0    8148.3   1227.3   0.692934647  27.99637  -2.18991  -2.79922  -3.91982
   1   16793.4    595.5   0.266271497   5.21989   0.24325   1.73790  -1.46302
   2   18624.9    536.9   0.625933705  11.06394   0.52227   1.37949   2.98131
   3   19195.7    520.9   0.446753573   7.66194  -0.77295  -2.41199   1.11660
   4   22619.4    442.1   0.020850594   0.30347   0.48910   0.13796   0.21265
   5   23155.1    431.9   0.014625902   0.20795   0.04038  -0.25299  -0.37724
   6   23936.5    417.8   0.070944241   0.97573   0.35605   0.56494   0.72788
   7   24547.2    407.4   0.016282725   0.21837  -0.05903   0.31826   0.33705
   8   25916.2    385.9   0.512797503   6.51403  -1.27677  -1.11372  -1.90880
   9   26784.5    373.3   0.002903433   0.03569   0.14233   0.10909  -0.05941
  10   27024.8    370.0   0.008637681   0.10522   0.31327   0.05039   0.06744
  11   27071.1    369.4   0.027450620   0.33383  -0.25973   0.51310   0.05558
  12   27963.0    357.6   0.145054706   1.70775  -0.02253   0.58558  -1.16804
  13   28246.9    354.0   0.137473519   1.60223   0.00161  -1.25586  -0.15823
  14   29707.1    336.6   0.051930585   0.57549  -0.52198  -0.27037   0.47951
  15   29888.6    334.6   0.029966944   0.33007  -0.42647  -0.15908   0.35055
  16   30452.5    328.4   0.021385720   0.23119  -0.01011   0.45809   0.14575
  17   30685.8    325.9   0.000941928   0.01011   0.06776   0.06586   0.03429
  18   31176.0    320.8   0.004182146   0.04416  -0.10721  -0.00497   0.18068
  19   31325.3    319.2   0.026014008   0.27339   0.42600   0.18200  -0.24247
  20   31396.9    318.5   0.006655068   0.06978   0.04163   0.07207  -0.25071
  21   31578.2    316.7   0.021226416   0.22129  -0.05794  -0.45657   0.09737
  22   31733.0    315.1   0.004903367   0.05087  -0.17383  -0.01423   0.14300
  23   32012.2    312.4   0.002508608   0.02580   0.05370   0.07189   0.13321
  24   32432.3    308.3   0.020769484   0.21083  -0.26104  -0.03859   0.37576
  25   32814.1    304.7   0.018917919   0.18980   0.04321   0.43253   0.02911
  26   33113.8    302.0   0.024318960   0.24178  -0.43902   0.19733   0.10047
  27   34031.1    293.8   0.371439460   3.59326  -1.57883   0.54532   0.89621
  28   34434.5    290.4   0.017275890   0.16517  -0.33621   0.06391  -0.21919
  29   34719.4    288.0   0.003288870   0.03119   0.10372   0.10741   0.09430
  30   35311.5    283.2   0.065543823   0.61107  -0.53471   0.17174   0.54374
  31   35587.0    281.0   0.039234127   0.36295  -0.09502  -0.32594   0.49768
  32   35847.9    279.0   0.042287613   0.38835  -0.13048  -0.13148   0.59501
  33   36181.7    276.4   0.369408464   3.36119   1.34973  -0.71952  -1.01080
  34   36399.5    274.7   0.079365697   0.71782  -0.72720  -0.40303  -0.16297
  35   37088.4    269.6   0.020016578   0.17768   0.00365   0.01958  -0.42104
  36   37704.5    265.2   0.009428151   0.08232   0.24815  -0.10505  -0.09852
  37   37785.1    264.7   0.009922700   0.08645   0.25347   0.04186   0.14302
  38   38150.8    262.1   0.060599750   0.52293  -0.67100  -0.06961  -0.26046
  39   38165.1    262.0   0.021261710   0.18340  -0.25207   0.14958   0.31224
  40   38580.3    259.2   0.030178922   0.25752   0.38441  -0.10329  -0.31477
  41   38631.0    258.9   0.015854239   0.13511   0.30116   0.02526  -0.20922
  42   39082.2    255.9   0.023192551   0.19536   0.43044   0.03011  -0.09581
  43   39172.3    255.3   0.002243062   0.01885   0.13332  -0.03279   0.00107
  44   39200.5    255.1   0.011608074   0.09749  -0.16552  -0.12997  -0.23064
  45   39502.9    253.1   0.031068032   0.25892  -0.36555   0.01428   0.35368
  46   39703.7    251.9   0.036619758   0.30364   0.52565   0.10881   0.12448
  47   39724.9    251.7   0.001698302   0.01407  -0.09485  -0.06951   0.01569
  48   39827.3    251.1   0.002321002   0.01919  -0.05541  -0.03120  -0.12305
  49   40111.3    249.3   0.003027825   0.02485  -0.09692  -0.01349  -0.12359

FINAL SINGLE POINT ENERGY     -7564.346143813491

DIPOLE MOMENT
-------------
                                X             Y             Z
Electronic contribution:    -31.52440     -59.09604      50.81328
Nuclear contribution   :     32.35497      60.70294     -52.04374
                        -----------------------------------------
Total Dipole Moment    :      0.83057       1.60690      -1.23046
                        -----------------------------------------
Magnitude (a.u.)       :      2.18769
Magnitude (Debye)      :      5.56068

Rotational constants in cm-1:     0.000665     0.000183     0.000155
Rotational constants in MHz :    19.935356     5.473811     4.657913

                             ****ORCA TERMINATED NORMALLY****
TOTAL RUN TIME: 0 days 0 hours 11 minutes 41 seconds 925 msec
