                         Program Version 4.2.0 -  RELEASE  -
|  1> # ORCA input file
|  2> # SCF done       -184.613724569559          0.000443490667
|  3> ! CAM-B3LYP def2-SVP def2/J RIJCOSX Grid4 TightSCF
|  4> %maxcore 5000
|  5> %tddft
|  6>     Mode sTDDFT
|  7>     Ethresh 5.0
|  8>     maxcore 5000
|  9> end
| 10>
| 11> %pal
| 12>   nprocs 6
| 13>   end
| 14> * xyz 0 1
| 15>    C        2.49782         0.22088        -3.63565
| 16>    C        1.22171         0.07936        -3.12052
| 17>    F        0.35208         1.08648        -3.24239
| 18>    C        0.82561        -1.09047        -2.48693
| 19>    F       -0.43333        -1.17613        -2.03956
| 20>    C        1.70082        -2.17782        -2.33698
| 21>    C        2.98635        -2.01595        -2.87558
| 22>    C        3.37301        -0.84247        -3.50635
| 23>    F        4.61193        -0.73619        -3.99552
| 24>    F        3.87978        -3.01057        -2.76747
| 25>    C        1.29786        -3.39659        -1.66983
| 26>    C        0.29350        -3.54977        -0.73371
| 27>    C        0.17313        -4.87356        -0.31000
| 28>    C        1.09050        -5.73400        -0.94268
| 29>    S        2.10880        -4.91372        -2.02943
| 30>    C        0.89422        -7.05102        -0.45766
| 31>    C       -0.15255        -7.01824         0.48669
| 32>    C       -0.63605        -5.65075         0.61245
| 33>    C       -1.62853        -5.20346         1.43369
| 34>    C       -2.34304        -6.07094         2.28749
| 35>    N       -2.92859        -6.76878         2.98381
| 36>    C       -2.00234        -3.84406         1.49897
| 37>    N       -2.30725        -2.74130         1.56863
| 38>    C       -0.41932        -8.26376         1.03566
| 39>    C        0.41530        -9.24832         0.51751
| 40>    S        1.54289        -8.61827        -0.67216
| 41>    C        0.42801       -10.62004         0.87488
| 42>    C        1.33805       -11.52475         0.27865
| 43>    C        1.41905       -12.92042         0.63478
| 44>    N        2.27499       -13.71170        -0.02785
| 45>    C        3.04282       -13.21031        -0.96253
| 46>    C        3.00157       -11.81273        -1.27740
| 47>    N        2.15452       -11.02911        -0.65844
| 48>    C        3.85698       -11.26552        -2.26526
| 49>    N        4.55747       -10.84934        -3.06996
| 50>    C        3.90829       -14.06831        -1.68928
| 51>    N        4.60898       -14.72400        -2.31331
| 52>    C        0.59151       -13.46764         1.64731
| 53>    C       -0.34782       -12.57291         2.20713
| 54>    C       -0.43702       -11.18186         1.83994
| 55>    N       -1.39980       -10.55964         2.52234
| 56>    S       -2.11530       -11.59507         3.51050
| 57>    N       -1.24795       -12.89398         3.13771
| 58>    C        0.66627       -14.81126         2.10334
| 59>    C        1.60776       -15.78151         1.77976
| 60>    C        1.36754       -16.97991         2.43729
| 61>    C        0.22735       -16.93162         3.26466
| 62>    S       -0.52901       -15.40223         3.25080
| 63>    C        0.06809       -18.20099         3.87405
| 64>    C        1.10115       -19.04911         3.43391
| 65>    C        1.96467       -18.30470         2.53321
| 66>    C        3.11371       -18.73125         1.93645
| 67>    C        3.62031       -20.03590         2.11888
| 68>    N        4.04008       -21.09166         2.27072
| 69>    C        3.89388       -17.87789         1.12561
| 70>    N        4.54010       -17.18073         0.48538
| 71>    C        1.01700       -20.33096         3.97899
| 72>    C       -0.06004       -20.45955         4.83387
| 73>    S       -0.98095       -18.96906         4.97056
| 74>    C       -0.46653       -21.63819         5.56729
| 75>    C       -1.23039       -21.55665         6.74130
| 76>    F       -1.59759       -20.35436         7.21101
| 77>    C       -1.60746       -22.68837         7.44915
| 78>    F       -2.32855       -22.55498         8.56670
| 79>    C       -1.24831       -23.95279         7.01873
| 80>    C       -0.50479       -24.05741         5.85671
| 81>    C       -0.12163       -22.93081         5.14196
| 82>    F        0.56807       -23.10115         4.00752
| 83>    F       -0.15628       -25.26759         5.41088
| 84>    H        2.79955         1.13071        -4.12647
| 85>    H       -0.30837        -2.74093        -0.36353
| 86>    H       -1.16843        -8.48264         1.77408
| 87>    H        2.41451       -15.59394         1.09639
| 88>    H        1.71553       -21.12054         3.77377
| 89>    H       -1.54224       -24.83036         7.56937
| 90> *
| 91>
| 92>                          ****END OF INPUT****

CARTESIAN COORDINATES (ANGSTROEM)
---------------------------------
  C      2.497820    0.220880   -3.635650
  C      1.221710    0.079360   -3.120520
  F      0.352080    1.086480   -3.242390
  C      0.825610   -1.090470   -2.486930
  F     -0.433330   -1.176130   -2.039560
  C      1.700820   -2.177820   -2.336980
  C      2.986350   -2.015950   -2.875580
  C      3.373010   -0.842470   -3.506350
  F      4.611930   -0.736190   -3.995520
  F      3.879780   -3.010570   -2.767470
  C      1.297860   -3.396590   -1.669830
  C      0.293500   -3.549770   -0.733710
  C      0.173130   -4.873560   -0.310000
  C      1.090500   -5.734000   -0.942680
  S      2.108800   -4.913720   -2.029430
  C      0.894220   -7.051020   -0.457660
  C     -0.152550   -7.018240    0.486690
  C     -0.636050   -5.650750    0.612450
  C     -1.628530   -5.203460    1.433690
  C     -2.343040   -6.070940    2.287490
  N     -2.928590   -6.768780    2.983810
  C     -2.002340   -3.844060    1.498970
  N     -2.307250   -2.741300    1.568630
  C     -0.419320   -8.263760    1.035660
  C      0.415300   -9.248320    0.517510
  S      1.542890   -8.618270   -0.672160
  C      0.428010  -10.620040    0.874880
  C      1.338050  -11.524750    0.278650
  C      1.419050  -12.920420    0.634780
  N      2.274990  -13.711700   -0.027850
  C      3.042820  -13.210310   -0.962530
  C      3.001570  -11.812730   -1.277400
  N      2.154520  -11.029110   -0.658440
  C      3.856980  -11.265520   -2.265260
  N      4.557470  -10.849340   -3.069960
  C      3.908290  -14.068310   -1.689280
  N      4.608980  -14.724000   -2.313310
  C      0.591510  -13.467640    1.647310
  C     -0.347820  -12.572910    2.207130
  C     -0.437020  -11.181860    1.839940
  N     -1.399800  -10.559640    2.522340
  S     -2.115300  -11.595070    3.510500
  N     -1.247950  -12.893980    3.137710
  C      0.666270  -14.811260    2.103340
  C      1.607760  -15.781510    1.779760
  C      1.367540  -16.979910    2.437290
  C      0.227350  -16.931620    3.264660
  S     -0.529010  -15.402230    3.250800
  C      0.068090  -18.200990    3.874050
  C      1.101150  -19.049110    3.433910
  C      1.964670  -18.304700    2.533210
  C      3.113710  -18.731250    1.936450
  C      3.620310  -20.035900    2.118880
  N      4.040080  -21.091660    2.270720
  C      3.893880  -17.877890    1.125610
  N      4.540100  -17.180730    0.485380
  C      1.017000  -20.330960    3.978990
  C     -0.060040  -20.459550    4.833870
  S     -0.980950  -18.969060    4.970560
  C     -0.466530  -21.638190    5.567290
  C     -1.230390  -21.556650    6.741300
  F     -1.597590  -20.354360    7.211010
  C     -1.607460  -22.688370    7.449150
  F     -2.328550  -22.554980    8.566700
  C     -1.248310  -23.952790    7.018730
  C     -0.504790  -24.057410    5.856710
  C     -0.121630  -22.930810    5.141960
  F      0.568070  -23.101150    4.007520
  F     -0.156280  -25.267590    5.410880
  H      2.799550    1.130710   -4.126470
  H     -0.308370   -2.740930   -0.363530
  H     -1.168430   -8.482640    1.774080
  H      2.414510  -15.593940    1.096390
  H      1.715530  -21.120540    3.773770
  H     -1.542240  -24.830360    7.569370

 Total Charge           Charge          ....    0
 Multiplicity           Mult            ....    1
 Number of Electrons    NEL             ....  504
 Basis Dimension        Dim             .... 1016

ORBITAL ENERGIES
----------------

  NO   OCC          E(Eh)            E(eV)
   0   2.0000     -89.061300     -2423.4812
   1   2.0000     -88.993985     -2421.6494
   2   2.0000     -88.993714     -2421.6421
   3   2.0000     -88.989462     -2421.5264
   4   2.0000     -88.989227     -2421.5200
   5   2.0000     -24.815596      -675.2667
   6   2.0000     -24.814345      -675.2326
   7   2.0000     -24.809906      -675.1119
   8   2.0000     -24.809568      -675.1027
   9   2.0000     -24.804831      -674.9738
  10   2.0000     -24.803589      -674.9400
  11   2.0000     -24.803085      -674.9262
  12   2.0000     -24.802415      -674.9080
  13   2.0000     -14.478396      -393.9772
  14   2.0000     -14.472777      -393.8243
  15   2.0000     -14.469511      -393.7354
  16   2.0000     -14.469364      -393.7314
  17   2.0000     -14.440040      -392.9335
  18   2.0000     -14.432654      -392.7325
  19   2.0000     -14.431411      -392.6987
  20   2.0000     -14.430546      -392.6751
  21   2.0000     -14.429339      -392.6423
  22   2.0000     -14.428056      -392.6074
  23   2.0000     -10.395286      -282.8701
  24   2.0000     -10.392653      -282.7985
  25   2.0000     -10.389524      -282.7133
  26   2.0000     -10.388823      -282.6942
  27   2.0000     -10.388682      -282.6904
  28   2.0000     -10.388508      -282.6857
  29   2.0000     -10.388239      -282.6783
  30   2.0000     -10.387701      -282.6637
  31   2.0000     -10.387563      -282.6599
  32   2.0000     -10.386983      -282.6442
  33   2.0000     -10.365349      -282.0555
  34   2.0000     -10.364503      -282.0325
  35   2.0000     -10.362028      -281.9651
  36   2.0000     -10.360245      -281.9166
  37   2.0000     -10.358572      -281.8711
  38   2.0000     -10.357523      -281.8425
  39   2.0000     -10.353338      -281.7286
  40   2.0000     -10.351877      -281.6889
  41   2.0000     -10.335399      -281.2405
  42   2.0000     -10.335316      -281.2382
  43   2.0000     -10.335042      -281.2308
  44   2.0000     -10.335001      -281.2297
  45   2.0000     -10.334373      -281.2126
  46   2.0000     -10.334317      -281.2111
  47   2.0000     -10.334248      -281.2092
  48   2.0000     -10.333551      -281.1902
  49   2.0000     -10.333233      -281.1816
  50   2.0000     -10.331983      -281.1475
  51   2.0000     -10.331547      -281.1357
  52   2.0000     -10.330727      -281.1134
  53   2.0000     -10.330229      -281.0998
  54   2.0000     -10.329370      -281.0764
  55   2.0000     -10.329317      -281.0750
  56   2.0000     -10.328935      -281.0646
  57   2.0000     -10.327873      -281.0357
  58   2.0000     -10.324785      -280.9517
  59   2.0000     -10.311132      -280.5802
  60   2.0000     -10.310435      -280.5612
  61   2.0000     -10.306419      -280.4519
  62   2.0000     -10.306283      -280.4482
  63   2.0000     -10.305752      -280.4338
  64   2.0000     -10.305740      -280.4335
  65   2.0000     -10.303216      -280.3648
  66   2.0000     -10.303214      -280.3647
  67   2.0000     -10.302598      -280.3479
  68   2.0000     -10.301096      -280.3071
  69   2.0000      -8.152201      -221.8327
  70   2.0000      -8.088410      -220.0968
  71   2.0000      -8.088018      -220.0862
  72   2.0000      -8.082800      -219.9442
  73   2.0000      -8.081683      -219.9138
  74   2.0000      -6.123272      -166.6227
  75   2.0000      -6.115468      -166.4104
  76   2.0000      -6.115039      -166.3987
  77   2.0000      -6.057669      -164.8375
  78   2.0000      -6.057266      -164.8266
  79   2.0000      -6.053300      -164.7187
  80   2.0000      -6.052863      -164.7068
  81   2.0000      -6.052226      -164.6894
  82   2.0000      -6.051252      -164.6629
  83   2.0000      -6.050865      -164.6524
  84   2.0000      -6.050543      -164.6437
  85   2.0000      -6.047630      -164.5644
  86   2.0000      -6.046421      -164.5315
  87   2.0000      -6.045198      -164.4982
  88   2.0000      -6.044139      -164.4694
  89   2.0000      -1.335508       -36.3410
  90   2.0000      -1.334459       -36.3125
  91   2.0000      -1.331478       -36.2314
  92   2.0000      -1.330939       -36.2167
  93   2.0000      -1.317283       -35.8451
  94   2.0000      -1.316194       -35.8155
  95   2.0000      -1.314581       -35.7716
  96   2.0000      -1.313941       -35.7541
  97   2.0000      -1.158714       -31.5302
  98   2.0000      -1.135268       -30.8922
  99   2.0000      -1.062744       -28.9187
 100   2.0000      -1.046593       -28.4793
 101   2.0000      -1.046050       -28.4645
 102   2.0000      -1.024010       -27.8647
 103   2.0000      -1.022638       -27.8274
 104   2.0000      -1.021460       -27.7953
 105   2.0000      -1.017639       -27.6914
 106   2.0000      -1.009592       -27.4724
 107   2.0000      -1.008735       -27.4491
 108   2.0000      -1.007743       -27.4221
 109   2.0000      -1.006146       -27.3786
 110   2.0000      -1.003663       -27.3111
 111   2.0000      -0.996626       -27.1196
 112   2.0000      -0.989658       -26.9300
 113   2.0000      -0.982576       -26.7372
 114   2.0000      -0.960257       -26.1299
 115   2.0000      -0.956507       -26.0279
 116   2.0000      -0.925554       -25.1856
 117   2.0000      -0.922333       -25.0980
 118   2.0000      -0.917507       -24.9666
 119   2.0000      -0.903506       -24.5856
 120   2.0000      -0.889480       -24.2040
 121   2.0000      -0.883923       -24.0528
 122   2.0000      -0.869813       -23.6688
 123   2.0000      -0.864262       -23.5178
 124   2.0000      -0.861738       -23.4491
 125   2.0000      -0.861007       -23.4292
 126   2.0000      -0.857207       -23.3258
 127   2.0000      -0.856888       -23.3171
 128   2.0000      -0.848229       -23.0815
 129   2.0000      -0.820904       -22.3379
 130   2.0000      -0.819610       -22.3027
 131   2.0000      -0.799760       -21.7626
 132   2.0000      -0.788324       -21.4514
 133   2.0000      -0.779880       -21.2216
 134   2.0000      -0.773443       -21.0464
 135   2.0000      -0.756227       -20.5780
 136   2.0000      -0.751401       -20.4467
 137   2.0000      -0.739920       -20.1343
 138   2.0000      -0.738914       -20.1069
 139   2.0000      -0.732463       -19.9313
 140   2.0000      -0.718235       -19.5442
 141   2.0000      -0.708627       -19.2827
 142   2.0000      -0.704151       -19.1609
 143   2.0000      -0.702566       -19.1178
 144   2.0000      -0.700973       -19.0744
 145   2.0000      -0.688420       -18.7329
 146   2.0000      -0.685850       -18.6629
 147   2.0000      -0.681671       -18.5492
 148   2.0000      -0.675523       -18.3819
 149   2.0000      -0.672729       -18.3059
 150   2.0000      -0.668202       -18.1827
 151   2.0000      -0.663855       -18.0644
 152   2.0000      -0.662576       -18.0296
 153   2.0000      -0.657901       -17.9024
 154   2.0000      -0.646863       -17.6020
 155   2.0000      -0.644402       -17.5351
 156   2.0000      -0.639136       -17.3918
 157   2.0000      -0.635185       -17.2843
 158   2.0000      -0.630635       -17.1605
 159   2.0000      -0.628829       -17.1113
 160   2.0000      -0.624797       -17.0016
 161   2.0000      -0.618990       -16.8436
 162   2.0000      -0.617452       -16.8017
 163   2.0000      -0.614129       -16.7113
 164   2.0000      -0.607737       -16.5374
 165   2.0000      -0.605500       -16.4765
 166   2.0000      -0.604210       -16.4414
 167   2.0000      -0.594638       -16.1809
 168   2.0000      -0.593337       -16.1455
 169   2.0000      -0.589039       -16.0286
 170   2.0000      -0.585021       -15.9192
 171   2.0000      -0.584215       -15.8973
 172   2.0000      -0.576211       -15.6795
 173   2.0000      -0.572103       -15.5677
 174   2.0000      -0.571380       -15.5481
 175   2.0000      -0.566811       -15.4237
 176   2.0000      -0.565783       -15.3957
 177   2.0000      -0.561627       -15.2826
 178   2.0000      -0.559763       -15.2319
 179   2.0000      -0.555268       -15.1096
 180   2.0000      -0.552993       -15.0477
 181   2.0000      -0.552421       -15.0321
 182   2.0000      -0.551297       -15.0015
 183   2.0000      -0.548103       -14.9146
 184   2.0000      -0.547174       -14.8894
 185   2.0000      -0.544791       -14.8245
 186   2.0000      -0.532233       -14.4828
 187   2.0000      -0.530306       -14.4304
 188   2.0000      -0.524009       -14.2590
 189   2.0000      -0.521578       -14.1928
 190   2.0000      -0.511072       -13.9070
 191   2.0000      -0.507985       -13.8230
 192   2.0000      -0.507106       -13.7990
 193   2.0000      -0.505806       -13.7637
 194   2.0000      -0.503517       -13.7014
 195   2.0000      -0.501392       -13.6436
 196   2.0000      -0.500885       -13.6298
 197   2.0000      -0.499569       -13.5940
 198   2.0000      -0.497335       -13.5332
 199   2.0000      -0.496911       -13.5216
 200   2.0000      -0.495202       -13.4751
 201   2.0000      -0.486858       -13.2481
 202   2.0000      -0.485147       -13.2015
 203   2.0000      -0.482729       -13.1357
 204   2.0000      -0.477453       -12.9922
 205   2.0000      -0.476637       -12.9700
 206   2.0000      -0.476351       -12.9622
 207   2.0000      -0.475271       -12.9328
 208   2.0000      -0.466712       -12.6999
 209   2.0000      -0.465007       -12.6535
 210   2.0000      -0.463463       -12.6115
 211   2.0000      -0.462551       -12.5867
 212   2.0000      -0.461960       -12.5706
 213   2.0000      -0.459980       -12.5167
 214   2.0000      -0.458522       -12.4770
 215   2.0000      -0.457404       -12.4466
 216   2.0000      -0.455933       -12.4066
 217   2.0000      -0.455075       -12.3832
 218   2.0000      -0.451987       -12.2992
 219   2.0000      -0.449450       -12.2302
 220   2.0000      -0.446548       -12.1512
 221   2.0000      -0.442295       -12.0355
 222   2.0000      -0.441613       -12.0169
 223   2.0000      -0.440568       -11.9885
 224   2.0000      -0.439858       -11.9691
 225   2.0000      -0.438744       -11.9388
 226   2.0000      -0.437545       -11.9062
 227   2.0000      -0.433059       -11.7841
 228   2.0000      -0.431836       -11.7509
 229   2.0000      -0.428025       -11.6471
 230   2.0000      -0.427659       -11.6372
 231   2.0000      -0.426320       -11.6008
 232   2.0000      -0.418599       -11.3907
 233   2.0000      -0.411808       -11.2059
 234   2.0000      -0.409263       -11.1366
 235   2.0000      -0.405655       -11.0384
 236   2.0000      -0.391260       -10.6467
 237   2.0000      -0.387304       -10.5391
 238   2.0000      -0.385840       -10.4992
 239   2.0000      -0.365095        -9.9347
 240   2.0000      -0.363656        -9.8956
 241   2.0000      -0.361646        -9.8409
 242   2.0000      -0.349326        -9.5056
 243   2.0000      -0.348766        -9.4904
 244   2.0000      -0.347548        -9.4573
 245   2.0000      -0.327030        -8.8989
 246   2.0000      -0.326166        -8.8754
 247   2.0000      -0.324216        -8.8224
 248   2.0000      -0.321970        -8.7612
 249   2.0000      -0.314699        -8.5634
 250   2.0000      -0.283328        -7.7097
 251   2.0000      -0.245842        -6.6897
 252   0.0000      -0.139719        -3.8020
 253   0.0000      -0.104148        -2.8340
 254   0.0000      -0.100819        -2.7434
 255   0.0000      -0.063816        -1.7365
 256   0.0000      -0.052011        -1.4153

MULLIKEN ATOMIC CHARGES
-----------------------
   0 C :   -0.146069
   1 C :    0.249495
   2 F :   -0.170265
   3 C :    0.163940
   4 F :   -0.163161
   5 C :   -0.006332
   6 C :    0.152523
   7 C :    0.251457
   8 F :   -0.170339
   9 F :   -0.171677
  10 C :   -0.097891
  11 C :   -0.023741
  12 C :    0.001326
  13 C :   -0.106817
  14 S :    0.225776
  15 C :   -0.060383
  16 C :    0.036401
  17 C :    0.308553
  18 C :   -0.302984
  19 C :   -0.187791
  20 N :    0.170625
  21 C :   -0.193204
  22 N :    0.178266
  23 C :   -0.067089
  24 C :   -0.174737
  25 S :    0.210197
  26 C :    0.189128
  27 C :   -0.060738
  28 C :   -0.072357
  29 N :    0.052121
  30 C :   -0.121858
  31 C :   -0.093501
  32 N :   -0.015495
  33 C :   -0.236343
  34 N :    0.250291
  35 C :   -0.218413
  36 N :    0.256138
  37 C :    0.205176
  38 C :   -0.025541
  39 C :   -0.006367
  40 N :   -0.276413
  41 S :    0.581523
  42 N :   -0.335039
  43 C :   -0.185116
  44 C :   -0.057242
  45 C :    0.041015
  46 C :   -0.069822
  47 S :    0.208352
  48 C :   -0.106119
  49 C :    0.002676
  50 C :    0.305117
  51 C :   -0.295502
  52 C :   -0.191423
  53 N :    0.178979
  54 C :   -0.192043
  55 N :    0.183222
  56 C :   -0.024178
  57 C :   -0.099791
  58 S :    0.216623
  59 C :   -0.007182
  60 C :    0.152554
  61 F :   -0.172846
  62 C :    0.250531
  63 F :   -0.171157
  64 C :   -0.148698
  65 C :    0.250031
  66 C :    0.165716
  67 F :   -0.162339
  68 F :   -0.169556
  69 H :    0.020221
  70 H :    0.017925
  71 H :    0.021180
  72 H :    0.020810
  73 H :    0.019054
  74 H :    0.020618
Sum of atomic charges:   -0.0000000

LOEWDIN ATOMIC CHARGES
----------------------
   0 C :   -0.059653
   1 C :    0.060998
   2 F :   -0.045490
   3 C :    0.058316
   4 F :   -0.037463
   5 C :   -0.077099
   6 C :    0.047195
   7 C :    0.059946
   8 F :   -0.046145
   9 F :   -0.049581
  10 C :   -0.167806
  11 C :   -0.017344
  12 C :   -0.068339
  13 C :   -0.181416
  14 S :    0.506023
  15 C :   -0.175372
  16 C :   -0.073795
  17 C :    0.081104
  18 C :   -0.103365
  19 C :   -0.015459
  20 N :   -0.035959
  21 C :   -0.019138
  22 N :   -0.029804
  23 C :   -0.006907
  24 C :   -0.169626
  25 S :    0.513327
  26 C :   -0.035985
  27 C :   -0.014767
  28 C :   -0.005673
  29 N :    0.010956
  30 C :   -0.019866
  31 C :   -0.020198
  32 N :   -0.019204
  33 C :   -0.039277
  34 N :    0.002990
  35 C :   -0.040546
  36 N :    0.012206
  37 C :   -0.041264
  38 C :   -0.045509
  39 C :   -0.037737
  40 N :   -0.266885
  41 S :    0.698263
  42 N :   -0.303484
  43 C :   -0.166354
  44 C :   -0.007341
  45 C :   -0.070895
  46 C :   -0.178362
  47 S :    0.512077
  48 C :   -0.181512
  49 C :   -0.068038
  50 C :    0.078548
  51 C :   -0.099078
  52 C :   -0.018327
  53 N :   -0.028670
  54 C :   -0.018422
  55 N :   -0.024550
  56 C :   -0.016660
  57 C :   -0.168971
  58 S :    0.498252
  59 C :   -0.076669
  60 C :    0.046489
  61 F :   -0.051192
  62 C :    0.059519
  63 F :   -0.047031
  64 C :   -0.060205
  65 C :    0.061168
  66 C :    0.058318
  67 F :   -0.036833
  68 F :   -0.045017
  69 H :    0.055759
  70 H :    0.040495
  71 H :    0.038079
  72 H :    0.037595
  73 H :    0.040880
  74 H :    0.055777

  Mayer bond orders larger than 0.100000
B(  0-C ,  1-C ) :   1.3205 B(  0-C ,  5-C ) :   0.1206 B(  0-C ,  7-C ) :   1.3199
B(  0-C , 69-H ) :   1.0200 B(  1-C ,  2-F ) :   1.1247 B(  1-C ,  3-C ) :   1.3089
B(  3-C ,  4-F ) :   1.1503 B(  3-C ,  5-C ) :   1.2931 B(  5-C ,  6-C ) :   1.2829
B(  5-C , 10-C ) :   1.0592 B(  6-C ,  7-C ) :   1.3122 B(  6-C ,  9-F ) :   1.1444
B(  7-C ,  8-F ) :   1.1268 B( 10-C , 11-C ) :   1.4828 B( 10-C , 14-S ) :   1.1125
B( 11-C , 12-C ) :   1.2929 B( 11-C , 70-H ) :   0.9932 B( 12-C , 13-C ) :   1.4212
B( 12-C , 17-C ) :   0.9975 B( 13-C , 14-S ) :   1.1301 B( 13-C , 15-C ) :   1.1973
B( 15-C , 16-C ) :   1.4056 B( 15-C , 25-S ) :   1.0913 B( 16-C , 17-C ) :   0.9893
B( 16-C , 23-C ) :   1.2830 B( 17-C , 18-C ) :   1.7089 B( 18-C , 19-C ) :   1.1411
B( 18-C , 21-C ) :   1.1321 B( 19-C , 20-N ) :   2.9849 B( 21-C , 22-N ) :   2.9958
B( 23-C , 24-C ) :   1.4051 B( 23-C , 71-H ) :   0.9840 B( 24-C , 25-S ) :   1.0835
B( 24-C , 26-C ) :   1.2136 B( 26-C , 27-C ) :   1.2479 B( 26-C , 37-C ) :   0.1225
B( 26-C , 39-C ) :   1.2014 B( 27-C , 28-C ) :   1.1026 B( 27-C , 32-N ) :   1.3972
B( 28-C , 29-N ) :   1.4515 B( 28-C , 37-C ) :   1.2573 B( 29-N , 30-C ) :   1.7272
B( 30-C , 31-C ) :   1.2110 B( 30-C , 35-C ) :   1.1583 B( 31-C , 32-N ) :   1.6939
B( 31-C , 33-C ) :   1.1585 B( 33-C , 34-N ) :   3.0414 B( 35-C , 36-N ) :   3.0331
B( 37-C , 38-C ) :   1.1921 B( 37-C , 43-C ) :   1.1929 B( 38-C , 39-C ) :   1.1090
B( 38-C , 42-N ) :   1.4723 B( 39-C , 40-N ) :   1.5136 B( 40-N , 41-S ) :   1.2920
B( 40-N , 42-N ) :   0.1495 B( 41-S , 42-N ) :   1.2722 B( 43-C , 44-C ) :   1.4034
B( 43-C , 47-S ) :   1.0952 B( 44-C , 45-C ) :   1.2800 B( 44-C , 72-H ) :   0.9854
B( 45-C , 46-C ) :   1.4037 B( 45-C , 50-C ) :   0.9900 B( 46-C , 47-S ) :   1.1059
B( 46-C , 48-C ) :   1.1938 B( 48-C , 49-C ) :   1.4259 B( 48-C , 58-S ) :   1.1272
B( 49-C , 50-C ) :   0.9950 B( 49-C , 56-C ) :   1.2915 B( 50-C , 51-C ) :   1.7159
B( 51-C , 52-C ) :   1.1325 B( 51-C , 54-C ) :   1.1349 B( 52-C , 53-N ) :   2.9949
B( 54-C , 55-N ) :   2.9912 B( 56-C , 57-C ) :   1.4864 B( 56-C , 73-H ) :   0.9929
B( 57-C , 58-S ) :   1.1099 B( 57-C , 59-C ) :   1.0577 B( 59-C , 60-C ) :   1.2829
B( 59-C , 64-C ) :   0.1209 B( 59-C , 66-C ) :   1.2933 B( 60-C , 61-F ) :   1.1436
B( 60-C , 62-C ) :   1.3129 B( 62-C , 63-F ) :   1.1261 B( 62-C , 64-C ) :   1.3186
B( 64-C , 65-C ) :   1.3207 B( 64-C , 74-H ) :   1.0205 B( 65-C , 66-C ) :   1.3081
B( 65-C , 68-F ) :   1.1251 B( 66-C , 67-F ) :   1.1520

-----------------------------------------------------------------------------
         ABSORPTION SPECTRUM VIA TRANSITION ELECTRIC DIPOLE MOMENTS
-----------------------------------------------------------------------------
State   Energy  Wavelength   fosc         T2         TX        TY        TZ
        (cm-1)    (nm)                  (au**2)     (au)      (au)      (au)
-----------------------------------------------------------------------------
   0    7791.8   1283.4   0.559411100  23.63581   0.06216  -4.64570   1.43157
   1   13882.8    720.3   0.001793229   0.04252  -0.05965  -0.03629   0.19403
   2   14270.6    700.7   0.042798238   0.98732   0.17845   0.87366  -0.43840
   3   17039.1    586.9   0.007057463   0.13636   0.12154  -0.14790  -0.31577
   4   22902.9    436.6   0.191005574   2.74556   0.45671   1.27809  -0.95051
   5   23486.0    425.8   0.009655383   0.13534  -0.18237   0.20687   0.24350
   6   23854.5    419.2   0.180861491   2.49604  -0.41613   1.52261  -0.06730
   7   23973.8    417.1   0.028880708   0.39659   0.18045   0.57654  -0.17784
   8   24090.0    415.1   0.065650326   0.89717   0.04290  -0.89559   0.30536
   9   25229.7    396.4   0.034602183   0.45151  -0.03087  -0.63270   0.22415
  10   25334.7    394.7   0.012507521   0.16253   0.14024   0.37026  -0.07594
  11   25778.4    387.9   0.169872827   2.16942   0.35963   1.23934  -0.71002
  12   28729.9    348.1   1.495485324  17.13654  -0.13639  -3.91222   1.34627
  13   29724.6    336.4   0.141163096   1.56344  -0.24908  -1.05623   0.62111
  14   29882.8    334.6   0.000923720   0.01018   0.04850   0.01255   0.08756
  15   30053.8    332.7   0.337693309   3.69912  -1.05254  -1.03528   1.23268
  16   30394.5    329.0   0.027846413   0.30161  -0.29699   0.17517   0.42746
  17   30578.1    327.0   0.049326776   0.53107  -0.41414   0.24120   0.54897
  18   30941.9    323.2   0.043829593   0.46633  -0.26319  -0.55216   0.30361
  19   31452.6    317.9   0.017179953   0.17982  -0.29275   0.16475   0.25881
  20   31706.4    315.4   0.018312732   0.19014  -0.41566   0.13016  -0.02064
  21   32446.4    308.2   0.471666750   4.78568  -1.67864   0.75701   1.18101
  22   32507.2    307.6   0.777084378   7.86981  -2.07791   1.20369   1.45026
  23   32977.5    303.2   0.066465147   0.66352   0.43561  -0.24581  -0.64292
  24   33211.4    301.1   0.353807879   3.50716   1.43609  -0.95233  -0.73340
  25   33483.8    298.7   0.172366810   1.69471   0.99358   0.15766  -0.82622
  26   34001.9    294.1   0.347523173   3.36478  -1.22595  -0.70518   1.16814
  27   34536.7    289.5   0.002554359   0.02435  -0.11212   0.06926   0.08355
  28   34642.8    288.7   0.009405647   0.08938  -0.04743  -0.22614   0.18972
  29   34786.5    287.5   0.011379853   0.10770  -0.05047  -0.30713   0.10402
  30   34902.3    286.5   0.173543098   1.63693  -0.59024  -0.75325   0.84920
  31   35130.5    284.7   0.216095400   2.02506  -1.02475  -0.28871   0.94424
  32   35238.0    283.8   0.123120455   1.15026   0.09355   1.02565  -0.29925
  33   35986.8    277.9   0.110635510   1.01211   0.34680   0.79048  -0.51671
  34   37805.1    264.5   0.000393018   0.00342   0.03355  -0.04659   0.01126
  35   38207.0    261.7   0.000498821   0.00430   0.00014   0.05911   0.02835
  36   38540.4    259.5   0.017424310   0.14884  -0.23063  -0.04317   0.30625
  37   38833.8    257.5   0.030620693   0.25959   0.35470   0.11806  -0.34617
  38   39018.1    256.3   0.004286796   0.03617  -0.16886   0.03708   0.07926
  39   39257.1    254.7   0.014247001   0.11948  -0.17175  -0.27407   0.12192
  40   39533.6    252.9   0.001876136   0.01562   0.09335   0.06365   0.05345
  41   40040.7    249.7   0.002627114   0.02160   0.06575  -0.04181   0.12461

FINAL SINGLE POINT ENERGY     -5089.190695819530

DIPOLE MOMENT
-------------
                                X             Y             Z
Electronic contribution:     -2.55470       0.78265       2.20642
Nuclear contribution   :      0.64802      -0.49765      -0.79264
                        -----------------------------------------
Total Dipole Moment    :     -1.90667       0.28500       1.41377
                        -----------------------------------------
Magnitude (a.u.)       :      2.39069
Magnitude (Debye)      :      6.07664

Rotational constants in cm-1:     0.002524     0.000267     0.000243
Rotational constants in MHz :    75.663569     8.015674     7.289322

                             ****ORCA TERMINATED NORMALLY****
TOTAL RUN TIME: 0 days 0 hours 13 minutes 55 seconds 881 msec
