                         Program Version 4.2.0 -  RELEASE  -
|  1> # ORCA input file
|  2> # SCF done       -194.440140615820          0.000370143240
|  3> ! CAM-B3LYP def2-SVP def2/J RIJCOSX Grid4 TightSCF
|  4> %maxcore 5000
|  5> %tddft
|  6>     Mode sTDDFT
|  7>     Ethresh 5.0
|  8>     maxcore 5000
|  9> end
| 10>
| 11> %pal
| 12>   nprocs 6
| 13>   end
| 14> * xyz 0 1
| 15>    C       -7.93751        -6.65369         9.36384
| 16>    C       -6.89560        -5.71907         9.53140
| 17>    C       -6.03895        -5.87013        10.65408
| 18>    C       -6.29831        -6.88164        11.60277
| 19>    C       -7.36238        -7.74110        11.42883
| 20>    C       -8.16741        -7.63551        10.29390
| 21>    C       -5.43084        -7.04341        12.78423
| 22>    O       -5.63197        -7.89020        13.63023
| 23>    N       -4.35897        -6.17245        12.88371
| 24>    C       -3.47505        -6.30040        14.03004
| 25>    C       -4.03199        -5.17771        11.97851
| 26>    O       -3.05555        -4.47952        12.15983
| 27>    C       -4.91947        -5.02879        10.81443
| 28>    C       -4.63927        -4.06712         9.86472
| 29>    C       -5.48360        -3.89213         8.77550
| 30>    C       -6.61982        -4.66728         8.60596
| 31>    C       -7.49902        -4.38001         7.49269
| 32>    C       -8.87512        -4.38462         7.44876
| 33>    C       -9.36665        -4.01135         6.19205
| 34>    C       -8.34347        -3.71657         5.27724
| 35>    S       -6.79042        -3.88744         5.96131
| 36>    C       -8.93108        -3.35845         4.04009
| 37>    C      -10.33231        -3.42514         4.16826
| 38>    C      -10.64821        -3.86994         5.52087
| 39>    C      -11.87550        -4.17435         6.02946
| 40>    C      -13.06258        -4.12933         5.26523
| 41>    N      -14.03519        -4.14856         4.66000
| 42>    C      -12.03049        -4.63017         7.35653
| 43>    N      -12.14723        -5.00811         8.43281
| 44>    C      -11.00493        -3.06561         3.00541
| 45>    C      -10.12008        -2.74386         1.98317
| 46>    S       -8.43720        -2.88177         2.47955
| 47>    C      -10.44356        -2.35661         0.66944
| 48>    C      -11.71214        -2.06673         0.14880
| 49>    C      -11.68326        -1.72220        -1.24898
| 50>    N      -12.79987        -1.38624        -1.89932
| 51>    C      -13.91552        -1.37271        -1.20437
| 52>    C      -15.15247        -0.96441        -1.92025
| 53>    O      -15.13881        -0.52257        -3.04778
| 54>    C      -16.39614        -1.11891        -1.14327
| 55>    C      -16.42185        -1.43204         0.15587
| 56>    C      -15.20915        -1.65925         0.96327
| 57>    O      -15.23989        -1.77520         2.16826
| 58>    C      -13.94356        -1.71107         0.18536
| 59>    N      -12.85598        -2.05663         0.83743
| 60>    C      -10.39190        -1.74526        -1.79319
| 61>    S       -9.24043        -2.17296        -0.56736
| 62>    C      -10.00993        -1.46456        -3.11822
| 63>    C      -10.84515        -1.27544        -4.21280
| 64>    C      -10.11887        -1.02299        -5.37169
| 65>    C       -8.72678        -0.99700        -5.15669
| 66>    S       -8.30649        -1.31997        -3.53653
| 67>    C       -8.08400        -0.69124        -6.37932
| 68>    C       -9.06027        -0.52626        -7.37346
| 69>    C      -10.36921        -0.75853        -6.78400
| 70>    C      -11.56628        -0.78776        -7.43483
| 71>    C      -11.66178        -0.51142        -8.81571
| 72>    N      -11.73266        -0.28299        -9.93728
| 73>    C      -12.77881        -1.14857        -6.80632
| 74>    N      -13.76848        -1.48363        -6.33631
| 75>    C       -8.51067        -0.21926        -8.62268
| 76>    C       -7.13483        -0.14558        -8.58831
| 77>    S       -6.50377        -0.46757        -6.97845
| 78>    C       -6.22015         0.14621        -9.66663
| 79>    C       -6.68993         0.36936       -10.97686
| 80>    C       -5.82430         0.64216       -12.00557
| 81>    C       -4.44607         0.70485       -11.77395
| 82>    C       -3.95403         0.48649       -10.46941
| 83>    C       -4.85241         0.21075        -9.43784
| 84>    C       -2.54596         0.55841       -10.26673
| 85>    C       -1.69784         0.82647       -11.29423
| 86>    C       -2.18559         1.05514       -12.66178
| 87>    O       -1.50439         1.29658       -13.63215
| 88>    N       -3.56373         0.97119       -12.77755
| 89>    C       -0.30369         0.89388       -11.07358
| 90>    N        0.82116         0.94170       -10.86196
| 91>    H       -8.54922        -6.61279         8.47664
| 92>    H       -7.54074        -8.50450        12.17074
| 93>    H       -8.97300        -8.33803        10.14546
| 94>    H       -3.83211        -7.12465        14.64206
| 95>    H       -3.48007        -5.37241        14.60142
| 96>    H       -2.45842        -6.49178        13.68744
| 97>    H       -3.76658        -3.44550         9.99471
| 98>    H       -5.26674        -3.11237         8.05951
| 99>    H       -9.49042        -4.59856         8.30350
|100>    H      -12.07074        -3.02104         2.86889
|101>    H      -17.30615        -0.92540        -1.69495
|102>    H      -17.35338        -1.50263         0.70098
|103>    H      -11.91600        -1.31982        -4.12439
|104>    H       -9.09535        -0.05367        -9.50813
|105>    H       -7.74738         0.32357       -11.17973
|106>    H       -6.20163         0.80954       -13.00333
|107>    H       -4.46126         0.04591        -8.44430
|108>    H       -2.15550         0.39457        -9.27158
|109>    H       -3.92544         1.12596       -13.71236
|110> *
|111>
|112>                          ****END OF INPUT****

CARTESIAN COORDINATES (ANGSTROEM)
---------------------------------
  C     -7.937510   -6.653690    9.363840
  C     -6.895600   -5.719070    9.531400
  C     -6.038950   -5.870130   10.654080
  C     -6.298310   -6.881640   11.602770
  C     -7.362380   -7.741100   11.428830
  C     -8.167410   -7.635510   10.293900
  C     -5.430840   -7.043410   12.784230
  O     -5.631970   -7.890200   13.630230
  N     -4.358970   -6.172450   12.883710
  C     -3.475050   -6.300400   14.030040
  C     -4.031990   -5.177710   11.978510
  O     -3.055550   -4.479520   12.159830
  C     -4.919470   -5.028790   10.814430
  C     -4.639270   -4.067120    9.864720
  C     -5.483600   -3.892130    8.775500
  C     -6.619820   -4.667280    8.605960
  C     -7.499020   -4.380010    7.492690
  C     -8.875120   -4.384620    7.448760
  C     -9.366650   -4.011350    6.192050
  C     -8.343470   -3.716570    5.277240
  S     -6.790420   -3.887440    5.961310
  C     -8.931080   -3.358450    4.040090
  C    -10.332310   -3.425140    4.168260
  C    -10.648210   -3.869940    5.520870
  C    -11.875500   -4.174350    6.029460
  C    -13.062580   -4.129330    5.265230
  N    -14.035190   -4.148560    4.660000
  C    -12.030490   -4.630170    7.356530
  N    -12.147230   -5.008110    8.432810
  C    -11.004930   -3.065610    3.005410
  C    -10.120080   -2.743860    1.983170
  S     -8.437200   -2.881770    2.479550
  C    -10.443560   -2.356610    0.669440
  C    -11.712140   -2.066730    0.148800
  C    -11.683260   -1.722200   -1.248980
  N    -12.799870   -1.386240   -1.899320
  C    -13.915520   -1.372710   -1.204370
  C    -15.152470   -0.964410   -1.920250
  O    -15.138810   -0.522570   -3.047780
  C    -16.396140   -1.118910   -1.143270
  C    -16.421850   -1.432040    0.155870
  C    -15.209150   -1.659250    0.963270
  O    -15.239890   -1.775200    2.168260
  C    -13.943560   -1.711070    0.185360
  N    -12.855980   -2.056630    0.837430
  C    -10.391900   -1.745260   -1.793190
  S     -9.240430   -2.172960   -0.567360
  C    -10.009930   -1.464560   -3.118220
  C    -10.845150   -1.275440   -4.212800
  C    -10.118870   -1.022990   -5.371690
  C     -8.726780   -0.997000   -5.156690
  S     -8.306490   -1.319970   -3.536530
  C     -8.084000   -0.691240   -6.379320
  C     -9.060270   -0.526260   -7.373460
  C    -10.369210   -0.758530   -6.784000
  C    -11.566280   -0.787760   -7.434830
  C    -11.661780   -0.511420   -8.815710
  N    -11.732660   -0.282990   -9.937280
  C    -12.778810   -1.148570   -6.806320
  N    -13.768480   -1.483630   -6.336310
  C     -8.510670   -0.219260   -8.622680
  C     -7.134830   -0.145580   -8.588310
  S     -6.503770   -0.467570   -6.978450
  C     -6.220150    0.146210   -9.666630
  C     -6.689930    0.369360  -10.976860
  C     -5.824300    0.642160  -12.005570
  C     -4.446070    0.704850  -11.773950
  C     -3.954030    0.486490  -10.469410
  C     -4.852410    0.210750   -9.437840
  C     -2.545960    0.558410  -10.266730
  C     -1.697840    0.826470  -11.294230
  C     -2.185590    1.055140  -12.661780
  O     -1.504390    1.296580  -13.632150
  N     -3.563730    0.971190  -12.777550
  C     -0.303690    0.893880  -11.073580
  N      0.821160    0.941700  -10.861960
  H     -8.549220   -6.612790    8.476640
  H     -7.540740   -8.504500   12.170740
  H     -8.973000   -8.338030   10.145460
  H     -3.832110   -7.124650   14.642060
  H     -3.480070   -5.372410   14.601420
  H     -2.458420   -6.491780   13.687440
  H     -3.766580   -3.445500    9.994710
  H     -5.266740   -3.112370    8.059510
  H     -9.490420   -4.598560    8.303500
  H    -12.070740   -3.021040    2.868890
  H    -17.306150   -0.925400   -1.694950
  H    -17.353380   -1.502630    0.700980
  H    -11.916000   -1.319820   -4.124390
  H     -9.095350   -0.053670   -9.508130
  H     -7.747380    0.323570  -11.179730
  H     -6.201630    0.809540  -13.003330
  H     -4.461260    0.045910   -8.444300
  H     -2.155500    0.394570   -9.271580
  H     -3.925440    1.125960  -13.712360

 Total Charge           Charge          ....    0
 Multiplicity           Mult            ....    1
 Number of Electrons    NEL             ....  544
 Basis Dimension        Dim             .... 1179

ORBITAL ENERGIES
----------------

  NO   OCC          E(Eh)            E(eV)
   0   2.0000     -89.006727     -2421.9962
   1   2.0000     -88.999342     -2421.7952
   2   2.0000     -88.999032     -2421.7868
   3   2.0000     -88.996755     -2421.7248
   4   2.0000     -88.996023     -2421.7049
   5   2.0000     -19.228411      -523.2317
   6   2.0000     -19.228371      -523.2306
   7   2.0000     -19.197770      -522.3979
   8   2.0000     -19.196835      -522.3724
   9   2.0000     -19.196469      -522.3625
  10   2.0000     -14.481846      -394.0711
  11   2.0000     -14.457428      -393.4066
  12   2.0000     -14.454292      -393.3213
  13   2.0000     -14.454099      -393.3160
  14   2.0000     -14.436664      -392.8416
  15   2.0000     -14.435150      -392.8004
  16   2.0000     -14.430454      -392.6726
  17   2.0000     -14.429657      -392.6509
  18   2.0000     -14.406807      -392.0292
  19   2.0000     -10.399080      -282.9734
  20   2.0000     -10.386313      -282.6259
  21   2.0000     -10.384794      -282.5846
  22   2.0000     -10.377438      -282.3845
  23   2.0000     -10.377213      -282.3783
  24   2.0000     -10.370721      -282.2017
  25   2.0000     -10.369754      -282.1754
  26   2.0000     -10.357480      -281.8414
  27   2.0000     -10.356819      -281.8234
  28   2.0000     -10.355822      -281.7962
  29   2.0000     -10.345623      -281.5187
  30   2.0000     -10.345363      -281.5116
  31   2.0000     -10.343831      -281.4699
  32   2.0000     -10.343625      -281.4644
  33   2.0000     -10.340893      -281.3900
  34   2.0000     -10.340611      -281.3823
  35   2.0000     -10.340528      -281.3801
  36   2.0000     -10.339747      -281.3588
  37   2.0000     -10.338548      -281.3262
  38   2.0000     -10.338284      -281.3190
  39   2.0000     -10.337321      -281.2928
  40   2.0000     -10.337251      -281.2909
  41   2.0000     -10.336963      -281.2831
  42   2.0000     -10.335230      -281.2359
  43   2.0000     -10.332711      -281.1674
  44   2.0000     -10.332516      -281.1620
  45   2.0000     -10.330063      -281.0953
  46   2.0000     -10.329363      -281.0763
  47   2.0000     -10.329307      -281.0747
  48   2.0000     -10.328490      -281.0525
  49   2.0000     -10.316612      -280.7293
  50   2.0000     -10.315315      -280.6940
  51   2.0000     -10.314377      -280.6685
  52   2.0000     -10.311758      -280.5972
  53   2.0000     -10.311607      -280.5931
  54   2.0000     -10.310166      -280.5539
  55   2.0000     -10.310146      -280.5533
  56   2.0000     -10.309935      -280.5476
  57   2.0000     -10.309841      -280.5450
  58   2.0000     -10.309464      -280.5348
  59   2.0000     -10.309093      -280.5247
  60   2.0000     -10.307336      -280.4769
  61   2.0000     -10.307011      -280.4680
  62   2.0000     -10.306848      -280.4636
  63   2.0000     -10.306780      -280.4617
  64   2.0000     -10.305511      -280.4272
  65   2.0000     -10.304871      -280.4098
  66   2.0000     -10.304475      -280.3990
  67   2.0000     -10.303587      -280.3749
  68   2.0000     -10.295629      -280.1583
  69   2.0000     -10.294504      -280.1277
  70   2.0000     -10.294470      -280.1268
  71   2.0000     -10.293739      -280.1069
  72   2.0000     -10.292770      -280.0805
  73   2.0000     -10.292276      -280.0671
  74   2.0000     -10.289854      -280.0012
  75   2.0000     -10.287831      -279.9461
  76   2.0000      -8.101693      -220.4583
  77   2.0000      -8.094155      -220.2532
  78   2.0000      -8.093794      -220.2433
  79   2.0000      -8.091310      -220.1757
  80   2.0000      -8.090606      -220.1566
  81   2.0000      -6.070773      -165.1941
  82   2.0000      -6.066653      -165.0820
  83   2.0000      -6.064300      -165.0180
  84   2.0000      -6.063443      -164.9947
  85   2.0000      -6.063095      -164.9852
  86   2.0000      -6.060541      -164.9157
  87   2.0000      -6.059870      -164.8975
  88   2.0000      -6.059304      -164.8820
  89   2.0000      -6.058938      -164.8721
  90   2.0000      -6.056405      -164.8032
  91   2.0000      -6.056394      -164.8029
  92   2.0000      -6.056060      -164.7938
  93   2.0000      -6.055605      -164.7814
  94   2.0000      -6.053718      -164.7301
  95   2.0000      -6.053037      -164.7115
  96   2.0000      -1.148687       -31.2574
  97   2.0000      -1.146778       -31.2054
  98   2.0000      -1.146284       -31.1920
  99   2.0000      -1.141510       -31.0621
 100   2.0000      -1.124754       -30.6061
 101   2.0000      -1.105524       -30.0828
 102   2.0000      -1.069179       -29.0939
 103   2.0000      -1.051649       -28.6168
 104   2.0000      -1.050923       -28.5971
 105   2.0000      -1.032842       -28.1051
 106   2.0000      -1.027155       -27.9503
 107   2.0000      -1.026642       -27.9364
 108   2.0000      -1.025544       -27.9065
 109   2.0000      -1.020957       -27.7817
 110   2.0000      -1.010530       -27.4979
 111   2.0000      -1.009543       -27.4711
 112   2.0000      -1.007804       -27.4237
 113   2.0000      -1.001148       -27.2426
 114   2.0000      -0.993171       -27.0256
 115   2.0000      -0.990859       -26.9626
 116   2.0000      -0.980627       -26.6842
 117   2.0000      -0.964451       -26.2440
 118   2.0000      -0.960889       -26.1471
 119   2.0000      -0.942393       -25.6438
 120   2.0000      -0.941548       -25.6208
 121   2.0000      -0.939407       -25.5626
 122   2.0000      -0.925000       -25.1705
 123   2.0000      -0.918392       -24.9907
 124   2.0000      -0.902800       -24.5664
 125   2.0000      -0.887352       -24.1461
 126   2.0000      -0.883396       -24.0384
 127   2.0000      -0.879669       -23.9370
 128   2.0000      -0.875153       -23.8141
 129   2.0000      -0.872058       -23.7299
 130   2.0000      -0.862770       -23.4772
 131   2.0000      -0.861118       -23.4322
 132   2.0000      -0.859957       -23.4006
 133   2.0000      -0.850999       -23.1568
 134   2.0000      -0.845941       -23.0192
 135   2.0000      -0.818499       -22.2725
 136   2.0000      -0.808297       -21.9949
 137   2.0000      -0.802829       -21.8461
 138   2.0000      -0.797421       -21.6989
 139   2.0000      -0.787984       -21.4421
 140   2.0000      -0.782987       -21.3062
 141   2.0000      -0.781486       -21.2653
 142   2.0000      -0.775532       -21.1033
 143   2.0000      -0.768131       -20.9019
 144   2.0000      -0.760350       -20.6902
 145   2.0000      -0.757102       -20.6018
 146   2.0000      -0.747524       -20.3412
 147   2.0000      -0.729978       -19.8637
 148   2.0000      -0.722931       -19.6719
 149   2.0000      -0.720004       -19.5923
 150   2.0000      -0.715386       -19.4666
 151   2.0000      -0.707704       -19.2576
 152   2.0000      -0.701004       -19.0753
 153   2.0000      -0.696629       -18.9562
 154   2.0000      -0.689879       -18.7726
 155   2.0000      -0.683482       -18.5985
 156   2.0000      -0.681353       -18.5406
 157   2.0000      -0.675640       -18.3851
 158   2.0000      -0.671884       -18.2829
 159   2.0000      -0.667047       -18.1513
 160   2.0000      -0.663023       -18.0418
 161   2.0000      -0.653504       -17.7828
 162   2.0000      -0.646650       -17.5962
 163   2.0000      -0.639035       -17.3890
 164   2.0000      -0.627901       -17.0861
 165   2.0000      -0.627455       -17.0739
 166   2.0000      -0.621744       -16.9185
 167   2.0000      -0.620371       -16.8812
 168   2.0000      -0.616654       -16.7800
 169   2.0000      -0.613094       -16.6831
 170   2.0000      -0.608314       -16.5531
 171   2.0000      -0.604781       -16.4569
 172   2.0000      -0.601686       -16.3727
 173   2.0000      -0.596313       -16.2265
 174   2.0000      -0.594317       -16.1722
 175   2.0000      -0.586042       -15.9470
 176   2.0000      -0.573520       -15.6063
 177   2.0000      -0.572208       -15.5706
 178   2.0000      -0.571804       -15.5596
 179   2.0000      -0.569757       -15.5039
 180   2.0000      -0.563956       -15.3460
 181   2.0000      -0.561663       -15.2836
 182   2.0000      -0.561429       -15.2773
 183   2.0000      -0.559144       -15.2151
 184   2.0000      -0.557132       -15.1603
 185   2.0000      -0.553421       -15.0594
 186   2.0000      -0.551386       -15.0040
 187   2.0000      -0.547953       -14.9105
 188   2.0000      -0.544342       -14.8123
 189   2.0000      -0.537205       -14.6181
 190   2.0000      -0.531247       -14.4560
 191   2.0000      -0.530273       -14.4295
 192   2.0000      -0.528277       -14.3751
 193   2.0000      -0.526941       -14.3388
 194   2.0000      -0.525125       -14.2894
 195   2.0000      -0.521168       -14.1817
 196   2.0000      -0.518988       -14.1224
 197   2.0000      -0.512481       -13.9453
 198   2.0000      -0.511578       -13.9207
 199   2.0000      -0.509989       -13.8775
 200   2.0000      -0.508997       -13.8505
 201   2.0000      -0.507718       -13.8157
 202   2.0000      -0.507055       -13.7977
 203   2.0000      -0.503985       -13.7141
 204   2.0000      -0.502614       -13.6768
 205   2.0000      -0.501137       -13.6366
 206   2.0000      -0.499320       -13.5872
 207   2.0000      -0.498626       -13.5683
 208   2.0000      -0.495671       -13.4879
 209   2.0000      -0.492910       -13.4128
 210   2.0000      -0.491158       -13.3651
 211   2.0000      -0.489117       -13.3095
 212   2.0000      -0.486555       -13.2398
 213   2.0000      -0.484529       -13.1847
 214   2.0000      -0.482415       -13.1272
 215   2.0000      -0.481932       -13.1140
 216   2.0000      -0.481330       -13.0977
 217   2.0000      -0.478405       -13.0181
 218   2.0000      -0.477954       -13.0058
 219   2.0000      -0.467847       -12.7308
 220   2.0000      -0.466149       -12.6846
 221   2.0000      -0.464885       -12.6502
 222   2.0000      -0.464293       -12.6341
 223   2.0000      -0.463177       -12.6037
 224   2.0000      -0.462881       -12.5956
 225   2.0000      -0.459095       -12.4926
 226   2.0000      -0.458653       -12.4806
 227   2.0000      -0.457709       -12.4549
 228   2.0000      -0.456053       -12.4098
 229   2.0000      -0.450983       -12.2719
 230   2.0000      -0.449370       -12.2280
 231   2.0000      -0.443712       -12.0740
 232   2.0000      -0.443154       -12.0588
 233   2.0000      -0.442247       -12.0341
 234   2.0000      -0.441847       -12.0233
 235   2.0000      -0.441298       -12.0083
 236   2.0000      -0.440257       -11.9800
 237   2.0000      -0.440183       -11.9780
 238   2.0000      -0.435258       -11.8440
 239   2.0000      -0.431011       -11.7284
 240   2.0000      -0.429459       -11.6862
 241   2.0000      -0.428451       -11.6587
 242   2.0000      -0.427812       -11.6414
 243   2.0000      -0.423493       -11.5238
 244   2.0000      -0.413743       -11.2585
 245   2.0000      -0.412933       -11.2365
 246   2.0000      -0.412519       -11.2252
 247   2.0000      -0.409998       -11.1566
 248   2.0000      -0.403158       -10.9705
 249   2.0000      -0.393003       -10.6942
 250   2.0000      -0.383089       -10.4244
 251   2.0000      -0.374664       -10.1951
 252   2.0000      -0.369517       -10.0551
 253   2.0000      -0.366474        -9.9723
 254   2.0000      -0.359738        -9.7890
 255   2.0000      -0.357762        -9.7352
 256   2.0000      -0.356516        -9.7013
 257   2.0000      -0.354297        -9.6409
 258   2.0000      -0.352404        -9.5894
 259   2.0000      -0.347746        -9.4626
 260   2.0000      -0.344884        -9.3848
 261   2.0000      -0.341403        -9.2900
 262   2.0000      -0.340263        -9.2590
 263   2.0000      -0.338211        -9.2032
 264   2.0000      -0.332814        -9.0563
 265   2.0000      -0.332432        -9.0459
 266   2.0000      -0.326986        -8.8977
 267   2.0000      -0.325900        -8.8682
 268   2.0000      -0.314619        -8.5612
 269   2.0000      -0.295135        -8.0310
 270   2.0000      -0.275028        -7.4839
 271   2.0000      -0.240588        -6.5467
 272   0.0000      -0.120686        -3.2840
 273   0.0000      -0.108300        -2.9470
 274   0.0000      -0.095146        -2.5891
 275   0.0000      -0.088019        -2.3951
 276   0.0000      -0.068213        -1.8562

MULLIKEN ATOMIC CHARGES
-----------------------
   0 C :   -0.035005
   1 C :    0.073097
   2 C :    0.149617
   3 C :   -0.073700
   4 C :   -0.004910
   5 C :    0.044227
   6 C :    0.152347
   7 O :   -0.193517
   8 N :   -0.269630
   9 C :    0.140430
  10 C :    0.142678
  11 O :   -0.196498
  12 C :   -0.054407
  13 C :   -0.013312
  14 C :   -0.036733
  15 C :    0.106839
  16 C :   -0.131941
  17 C :   -0.015753
  18 C :   -0.007162
  19 C :   -0.096297
  20 S :    0.192830
  21 C :   -0.098282
  22 C :    0.030960
  23 C :    0.299031
  24 C :   -0.293522
  25 C :   -0.194980
  26 N :    0.200417
  27 C :   -0.192216
  28 N :    0.173197
  29 C :   -0.065026
  30 C :   -0.086306
  31 S :    0.174605
  32 C :   -0.113488
  33 C :    0.020945
  34 C :    0.023230
  35 N :    0.064958
  36 C :   -0.119484
  37 C :    0.139565
  38 O :   -0.094729
  39 C :   -0.015906
  40 C :   -0.012772
  41 C :    0.139103
  42 O :   -0.096506
  43 C :   -0.113333
  44 N :    0.065588
  45 C :   -0.110357
  46 S :    0.191067
  47 C :   -0.089452
  48 C :   -0.058566
  49 C :    0.025469
  50 C :   -0.093871
  51 S :    0.173766
  52 C :   -0.090335
  53 C :    0.012783
  54 C :    0.302919
  55 C :   -0.296002
  56 C :   -0.184565
  57 N :    0.164114
  58 C :   -0.195319
  59 N :    0.203262
  60 C :   -0.046929
  61 C :   -0.061897
  62 S :    0.156715
  63 C :    0.163242
  64 C :   -0.022187
  65 C :   -0.007446
  66 C :    0.089614
  67 C :    0.041926
  68 C :   -0.119366
  69 C :    0.087633
  70 C :   -0.223740
  71 C :    0.130888
  72 O :   -0.163002
  73 N :   -0.030505
  74 C :   -0.139632
  75 N :    0.126743
  76 H :   -0.009722
  77 H :    0.009893
  78 H :   -0.000711
  79 H :    0.053975
  80 H :    0.035844
  81 H :    0.035129
  82 H :    0.006949
  83 H :   -0.010484
  84 H :    0.019472
  85 H :    0.031007
  86 H :    0.021360
  87 H :    0.021979
  88 H :    0.031012
  89 H :    0.002130
  90 H :   -0.002785
  91 H :   -0.024130
  92 H :   -0.012088
  93 H :    0.009418
  94 H :    0.136530
Sum of atomic charges:   -0.0000000

LOEWDIN ATOMIC CHARGES
----------------------
   0 C :    0.007601
   1 C :   -0.013145
   2 C :    0.006041
   3 C :   -0.066253
   4 C :    0.036928
   5 C :   -0.018853
   6 C :    0.089461
   7 O :   -0.181161
   8 N :   -0.029156
   9 C :    0.037830
  10 C :    0.086213
  11 O :   -0.181529
  12 C :   -0.065341
  13 C :    0.031788
  14 C :   -0.030309
  15 C :   -0.016065
  16 C :   -0.156250
  17 C :   -0.030199
  18 C :   -0.069807
  19 C :   -0.182322
  20 S :    0.483734
  21 C :   -0.179809
  22 C :   -0.065126
  23 C :    0.077388
  24 C :   -0.093261
  25 C :   -0.024893
  26 N :   -0.011486
  27 C :   -0.014939
  28 N :   -0.032148
  29 C :   -0.007670
  30 C :   -0.184070
  31 S :    0.459751
  32 C :   -0.192041
  33 C :   -0.044485
  34 C :   -0.044579
  35 N :    0.007466
  36 C :   -0.038788
  37 C :    0.054795
  38 O :   -0.091470
  39 C :   -0.012292
  40 C :   -0.011887
  41 C :    0.054993
  42 O :   -0.090804
  43 C :   -0.038154
  44 N :    0.007602
  45 C :   -0.191339
  46 S :    0.484583
  47 C :   -0.184878
  48 C :   -0.006937
  49 C :   -0.066280
  50 C :   -0.178417
  51 S :    0.459395
  52 C :   -0.182206
  53 C :   -0.066361
  54 C :    0.078447
  55 C :   -0.093448
  56 C :   -0.012810
  57 N :   -0.035579
  58 C :   -0.024731
  59 N :   -0.011266
  60 C :   -0.033618
  61 C :   -0.154017
  62 S :    0.471064
  63 C :   -0.052904
  64 C :    0.019047
  65 C :   -0.040386
  66 C :    0.052290
  67 C :   -0.058786
  68 C :   -0.003025
  69 C :    0.066725
  70 C :   -0.109031
  71 C :    0.071276
  72 O :   -0.187505
  73 N :    0.049053
  74 C :   -0.024782
  75 N :   -0.040388
  76 H :    0.033840
  77 H :    0.041701
  78 H :    0.036185
  79 H :    0.033018
  80 H :    0.030967
  81 H :    0.030594
  82 H :    0.042134
  83 H :    0.024974
  84 H :    0.042631
  85 H :    0.045460
  86 H :    0.046687
  87 H :    0.046807
  88 H :    0.045704
  89 H :    0.037738
  90 H :    0.038533
  91 H :    0.035032
  92 H :    0.022929
  93 H :    0.047429
  94 H :    0.101152

  Mayer bond orders larger than 0.100000
B(  0-C ,  1-C ) :   1.2496 B(  0-C ,  5-C ) :   1.4734 B(  0-C , 76-H ) :   0.9865
B(  1-C ,  2-C ) :   1.2622 B(  1-C , 15-C ) :   1.2275 B(  2-C ,  3-C ) :   1.2293
B(  2-C , 12-C ) :   1.2253 B(  3-C ,  4-C ) :   1.4967 B(  3-C ,  6-C ) :   0.9295
B(  4-C ,  5-C ) :   1.2427 B(  4-C , 77-H ) :   0.9927 B(  5-C , 78-H ) :   0.9891
B(  6-C ,  7-O ) :   2.1642 B(  6-C ,  8-N ) :   1.0837 B(  8-N ,  9-C ) :   0.9358
B(  8-N , 10-C ) :   1.0837 B(  9-C , 79-H ) :   0.9545 B(  9-C , 80-H ) :   0.9756
B(  9-C , 81-H ) :   0.9743 B( 10-C , 11-O ) :   2.1678 B( 10-C , 12-C ) :   0.9337
B( 12-C , 13-C ) :   1.4739 B( 13-C , 14-C ) :   1.2595 B( 13-C , 82-H ) :   0.9936
B( 14-C , 15-C ) :   1.4360 B( 14-C , 83-H ) :   0.9900 B( 15-C , 16-C ) :   1.0235
B( 16-C , 17-C ) :   1.4834 B( 16-C , 20-S ) :   1.1167 B( 17-C , 18-C ) :   1.2735
B( 17-C , 84-H ) :   0.9961 B( 18-C , 19-C ) :   1.4469 B( 18-C , 23-C ) :   0.9994
B( 19-C , 20-S ) :   1.1193 B( 19-C , 21-C ) :   1.1943 B( 21-C , 22-C ) :   1.4321
B( 21-C , 31-S ) :   1.1238 B( 22-C , 23-C ) :   0.9825 B( 22-C , 29-C ) :   1.2675
B( 23-C , 24-C ) :   1.7187 B( 24-C , 25-C ) :   1.1321 B( 24-C , 27-C ) :   1.1363
B( 25-C , 26-N ) :   3.0054 B( 27-C , 28-N ) :   2.9887 B( 29-C , 30-C ) :   1.4583
B( 29-C , 85-H ) :   0.9910 B( 30-C , 31-S ) :   1.0799 B( 30-C , 32-C ) :   1.1841
B( 32-C , 33-C ) :   1.3745 B( 32-C , 45-C ) :   0.1539 B( 32-C , 46-S ) :   1.1512
B( 33-C , 34-C ) :   1.1823 B( 33-C , 44-N ) :   1.4414 B( 34-C , 35-N ) :   1.4418
B( 34-C , 45-C ) :   1.3741 B( 35-N , 36-C ) :   1.7173 B( 36-C , 37-C ) :   0.8901
B( 36-C , 43-C ) :   1.0865 B( 37-C , 38-O ) :   2.2460 B( 37-C , 39-C ) :   1.0242
B( 39-C , 40-C ) :   1.6902 B( 39-C , 86-H ) :   0.9957 B( 40-C , 41-C ) :   1.0232
B( 40-C , 87-H ) :   0.9957 B( 41-C , 42-O ) :   2.2430 B( 41-C , 43-C ) :   0.8893
B( 43-C , 44-N ) :   1.7179 B( 45-C , 46-S ) :   1.1501 B( 45-C , 47-C ) :   1.1813
B( 47-C , 48-C ) :   1.4582 B( 47-C , 51-S ) :   1.0786 B( 48-C , 49-C ) :   1.2704
B( 48-C , 88-H ) :   0.9912 B( 49-C , 50-C ) :   1.4305 B( 49-C , 54-C ) :   0.9832
B( 50-C , 51-S ) :   1.1235 B( 50-C , 52-C ) :   1.1899 B( 52-C , 53-C ) :   1.4539
B( 52-C , 62-S ) :   1.1150 B( 53-C , 54-C ) :   1.0023 B( 53-C , 60-C ) :   1.2694
B( 54-C , 55-C ) :   1.7171 B( 55-C , 56-C ) :   1.1351 B( 55-C , 58-C ) :   1.1322
B( 56-C , 57-N ) :   2.9844 B( 58-C , 59-N ) :   3.0068 B( 60-C , 61-C ) :   1.5029
B( 60-C , 89-H ) :   0.9874 B( 61-C , 62-S ) :   1.1033 B( 61-C , 63-C ) :   1.0663
B( 63-C , 64-C ) :   1.2884 B( 63-C , 68-C ) :   1.3546 B( 64-C , 65-C ) :   1.4478
B( 64-C , 90-H ) :   0.9906 B( 65-C , 66-C ) :   1.2842 B( 65-C , 91-H ) :   0.9914
B( 66-C , 67-C ) :   1.2996 B( 66-C , 73-N ) :   1.2031 B( 67-C , 68-C ) :   1.3005
B( 67-C , 69-C ) :   1.1249 B( 68-C , 92-H ) :   0.9899 B( 69-C , 70-C ) :   1.6465
B( 69-C , 93-H ) :   0.9860 B( 70-C , 71-C ) :   0.9490 B( 70-C , 74-C ) :   1.1097
B( 71-C , 72-O ) :   2.2460 B( 71-C , 73-N ) :   1.0832 B( 73-N , 94-H ) :   0.9015
B( 74-C , 75-N ) :   3.0443

-----------------------------------------------------------------------------
         ABSORPTION SPECTRUM VIA TRANSITION ELECTRIC DIPOLE MOMENTS
-----------------------------------------------------------------------------
State   Energy  Wavelength   fosc         T2         TX        TY        TZ
        (cm-1)    (nm)                  (au**2)     (au)      (au)      (au)
-----------------------------------------------------------------------------
   0   10388.0    962.6   0.620824503  19.67483  -0.36064  -1.12383   4.27572
   1   12155.9    822.6   0.061144437   1.65595  -1.06666   0.28518  -0.66096
   2   14395.3    694.7   0.215311746   4.92406   0.15985   0.54201  -2.14586
   3   18130.7    551.6   0.154248824   2.80081   1.64669  -0.29870   0.00084
   4   19724.9    507.0   0.066291718   1.10642   1.04463  -0.11048   0.05444
   5   21780.5    459.1   0.031650867   0.47840  -0.01573  -0.14722   0.67563
   6   24725.5    404.4   0.937251586  12.47922  -1.29363   1.00113  -3.13105
   7   24793.1    403.3   0.009514062   0.12633  -0.02378  -0.10902  -0.33746
   8   25073.3    398.8   0.294463857   3.86631   1.00504   0.32817  -1.65786
   9   25939.2    385.5   0.000566449   0.00719   0.05713  -0.01251   0.06139
  10   26273.3    380.6   0.094862619   1.18865  -0.95679  -0.19281   0.48584
  11   26656.4    375.1   0.133288571   1.64614  -1.27834  -0.06176  -0.09045
  12   26683.8    374.8   0.001526080   0.01883   0.03691   0.12749   0.03480
  13   27648.0    361.7   0.384502246   4.57837   1.23562   0.41987  -1.69568
  14   28475.7    351.2   0.386753427   4.47131   0.72755   0.48627  -1.92498
  15   28843.7    346.7   0.031787333   0.36281  -0.45912  -0.07665   0.38229
  16   29941.7    334.0   0.096548164   1.06156  -0.99746  -0.17171   0.19275
  17   30166.7    331.5   0.095665923   1.04401  -0.93717  -0.21099   0.34815
  18   30740.8    325.3   0.214381939   2.29588   0.78220  -0.16966   1.28657
  19   30762.6    325.1   0.026774537   0.28653   0.34227  -0.04209   0.40941
  20   31020.0    322.4   0.293762728   3.11767  -1.74332  -0.20039   0.19578
  21   31250.0    320.0   0.000804062   0.00847   0.04279   0.02800   0.07653
  22   31891.0    313.6   0.058385912   0.60272   0.62178   0.11484  -0.45047
  23   32360.3    309.0   0.034616504   0.35217   0.13392  -0.19785   0.54322
  24   32807.7    304.8   0.099506656   0.99851   0.83863  -0.30513   0.44956
  25   32942.8    303.6   0.558465445   5.58099  -2.20258   0.04823  -0.85283
  26   33272.6    300.5   0.154893052   1.53257  -1.08196   0.07143   0.59735
  27   33509.7    298.4   0.017650941   0.17341  -0.38203   0.02097  -0.16439
  28   33604.0    297.6   0.048822842   0.47831  -0.59548  -0.10870   0.33451
  29   33758.3    296.2   0.234485055   2.28670   1.49412   0.23291   0.00780
  30   33795.8    295.9   0.007798535   0.07597  -0.24958  -0.00258  -0.11692
  31   33962.8    294.4   0.037012613   0.35877   0.45671   0.27285  -0.27522
  32   34338.5    291.2   0.026710123   0.25608   0.48247  -0.01811   0.15156
  33   34401.0    290.7   0.130925486   1.25294   1.05398  -0.06148   0.37185
  34   34500.7    289.8   0.142477258   1.35954   0.72048   0.37366  -0.83715
  35   34579.7    289.2   0.221221713   2.10611  -1.06754  -0.19411   0.96374
  36   35154.5    284.5   0.001536011   0.01438  -0.06191   0.10236  -0.00861
  37   35370.5    282.7   0.003314830   0.03085  -0.04368   0.11527  -0.12513
  38   35654.6    280.5   0.006838855   0.06315   0.23974   0.04715  -0.05870
  39   35677.5    280.3   0.007322330   0.06757  -0.23333  -0.11455  -0.00009
  40   35741.1    279.8   0.127657539   1.17586  -1.07202   0.08864  -0.13700
  41   36034.3    277.5   0.058112347   0.53092  -0.05658  -0.16861   0.70660
  42   36603.1    273.2   0.238949664   2.14914  -1.13359   0.46173  -0.80679
  43   37165.9    269.1   0.034157691   0.30257  -0.26905  -0.07443  -0.47396
  44   37391.3    267.4   0.040354192   0.35530   0.42285   0.06583  -0.41492
  45   37453.9    267.0   0.001073327   0.00943   0.00681  -0.09602  -0.01297
  46   37572.7    266.2   0.072744467   0.63739  -0.74718   0.07513  -0.27104
  47   37914.6    263.8   0.002160700   0.01876   0.04500   0.10794   0.07132
  48   37977.7    263.3   0.114662972   0.99396  -0.19610  -0.30792   0.92773
  49   38063.2    262.7   0.030869251   0.26699   0.02976   0.12838  -0.49962
  50   38192.7    261.8   0.047684331   0.41103   0.53002   0.07193  -0.35346
  51   38263.8    261.3   0.092185009   0.79314   0.75571   0.14041  -0.44981
  52   38352.8    260.7   0.009418318   0.08084  -0.18013  -0.03390   0.21737
  53   38620.4    258.9   0.008504131   0.07249  -0.23445  -0.01229  -0.13181
  54   38738.2    258.1   0.042651461   0.36247  -0.22897   0.16100  -0.53303
  55   38751.6    258.1   0.001660372   0.01411   0.03171  -0.04452   0.10544
  56   38819.1    257.6   0.000122014   0.00103  -0.02198  -0.01185   0.02028
  57   39174.5    255.3   0.015980766   0.13430   0.13193   0.09925  -0.32717
  58   39292.8    254.5   0.007963139   0.06672  -0.04010   0.00418  -0.25513
  59   39345.8    254.2   0.001348092   0.01128   0.09495   0.02413   0.04100
  60   39842.5    251.0   0.059791826   0.49405  -0.29259   0.24768  -0.58915
  61   39906.9    250.6   0.031057036   0.25620   0.44826  -0.09712   0.21410
  62   39965.0    250.2   0.024176035   0.19915   0.26248   0.33847  -0.12526
  63   40036.1    249.8   0.086958017   0.71505   0.78937   0.01713  -0.30273
  64   40112.5    249.3   0.018622827   0.15284  -0.19950  -0.27297   0.19629

FINAL SINGLE POINT ENERGY     -5038.897962799145

DIPOLE MOMENT
-------------
                                X             Y             Z
Electronic contribution:    -16.20614      11.15962     -30.73079
Nuclear contribution   :     15.71738     -11.10386      30.20002
                        -----------------------------------------
Total Dipole Moment    :     -0.48876       0.05576      -0.53076
                        -----------------------------------------
Magnitude (a.u.)       :      0.72367
Magnitude (Debye)      :      1.83944

Rotational constants in cm-1:     0.001011     0.000229     0.000188
Rotational constants in MHz :    30.305280     6.855586     5.644285

                             ****ORCA TERMINATED NORMALLY****
TOTAL RUN TIME: 0 days 0 hours 8 minutes 53 seconds 608 msec
