                         Program Version 4.2.0 -  RELEASE  -
|  1> # ORCA input file
|  2> # SCF done       -201.146016372522          0.000597575371
|  3> ! CAM-B3LYP def2-SVP def2/J RIJCOSX Grid4 TightSCF
|  4> %maxcore 5000
|  5> %tddft
|  6>     Mode sTDDFT
|  7>     Ethresh 5.0
|  8>     maxcore 5000
|  9> end
| 10>
| 11> %pal
| 12>   nprocs 6
| 13>   end
| 14> * xyz 0 1
| 15>    C      -10.30122        -1.94456         0.63272
| 16>    C      -10.03550        -2.44172         1.88339
| 17>    C      -10.65799        -3.58478         2.42693
| 18>    N      -11.12807        -4.50590         2.92578
| 19>    C       -9.11143        -1.90594         2.80475
| 20>    N       -8.38237        -1.54407         3.61536
| 21>    C      -11.25347        -2.51523        -0.31757
| 22>    C      -11.22649        -1.74655        -1.50772
| 23>    C      -12.01379        -2.02745        -2.59702
| 24>    C      -12.87777        -3.12397        -2.50716
| 25>    C      -12.90189        -3.88677        -1.31529
| 26>    C      -12.10169        -3.60187        -0.21490
| 27>    S      -14.04376        -5.19250        -1.41616
| 28>    C      -14.46724        -4.70248        -3.03517
| 29>    C      -13.78963        -3.61771        -3.47976
| 30>   Br      -15.76430        -5.66846        -3.98414
| 31>    C      -10.25527        -0.65119        -1.34975
| 32>    O       -9.97172         0.19136        -2.18043
| 33>    C       -9.70343        -0.78513         0.00287
| 34>    C       -8.78572         0.07199         0.55413
| 35>    C       -8.19836         1.21825         0.00377
| 36>    C       -7.29757         1.98963         0.76193
| 37>    O       -6.95390         1.71138         2.04086
| 38>    C       -6.33136         2.81568         2.67864
| 39>    C       -5.27952         3.47832         1.77766
| 40>    C       -4.58894         4.65037         2.45286
| 41>    O       -5.90641         3.97009         0.59138
| 42>    C       -6.81059         3.09995         0.08299
| 43>    C       -7.33590         3.21696        -1.20522
| 44>    S       -8.43386         1.92433        -1.58627
| 45>    C       -7.01478         4.27317        -2.06722
| 46>    C       -7.48084         4.51805        -3.36758
| 47>    C       -6.95215         5.73092        -3.93737
| 48>    N       -7.27160         6.09120        -5.17943
| 49>    C       -8.10149         5.31446        -5.83893
| 50>    C       -8.45884         5.74530        -7.21427
| 51>    O       -8.04379         6.77125        -7.71269
| 52>    C       -9.37166         4.83909        -7.93177
| 53>    C       -9.87361         3.72182        -7.39776
| 54>    C       -9.57577         3.25545        -6.02912
| 55>    O      -10.06144         2.24031        -5.58146
| 56>    C       -8.64123         4.11979        -5.26391
| 57>    N       -8.32103         3.73767        -4.04567
| 58>    C       -6.09119         6.40922        -3.06009
| 59>    S       -5.93068         5.53002        -1.56972
| 60>    C       -5.43321         7.64439        -3.20759
| 61>    C       -5.61231         8.65038        -4.15215
| 62>    O       -6.45441         8.57472        -5.19530
| 63>    C       -6.20168         9.56068        -6.17826
| 64>    C       -6.00478        10.94011        -5.54091
| 65>    C       -5.73504        12.02275        -6.57151
| 66>    O       -4.88355        10.90496        -4.65060
| 67>    C       -4.82557         9.79388        -3.89594
| 68>    C       -4.04108         9.69937        -2.74680
| 69>    S       -4.24823         8.12306        -2.02385
| 70>    C       -3.15921        10.68429        -2.26734
| 71>    C       -2.54788        10.75573        -1.04832
| 72>    C       -2.79346        10.04237         0.18421
| 73>    C       -4.01906         9.63254         0.64781
| 74>    C       -4.21327         8.91049         1.83883
| 75>    N       -4.41661         8.27133         2.77163
| 76>    C       -5.22506         9.96025        -0.00654
| 77>    N       -6.22433        10.27500        -0.47627
| 78>    C       -1.56789        10.10317         0.97159
| 79>    C       -0.68969        11.03641         0.36382
| 80>    C       -1.30143        11.54484        -0.88438
| 81>    O       -0.85832        12.38071        -1.63802
| 82>    C        0.52991        11.35781         0.90710
| 83>    C        0.90418        10.72059         2.09559
| 84>    C        0.02452         9.78223         2.68603
| 85>    C       -1.21508         9.46455         2.14412
| 86>    S        0.69180         9.10984         4.14265
| 87>    C        2.12166        10.08848         3.94478
| 88>    C        2.10307        10.87699         2.84429
| 89>   Br        3.50326         9.97303         5.20775
| 90>    H      -11.96418        -1.41844        -3.48594
| 91>    H      -12.16026        -4.21474         0.66882
| 92>    H      -13.92538        -3.18103        -4.45225
| 93>    H       -8.44897        -0.12350         1.56566
| 94>    H       -5.87274         2.41881         3.58420
| 95>    H       -7.09194         3.56051         2.94620
| 96>    H       -4.54544         2.71270         1.48256
| 97>    H       -5.31516         5.40273         2.74708
| 98>    H       -3.89146         5.10846         1.75763
| 99>    H       -4.04818         4.31168         3.33084
|100>    H       -9.62172         5.14318        -8.93946
|101>    H      -10.54564         3.08497        -7.95746
|102>    H       -7.06542         9.54149        -6.84215
|103>    H       -5.30137         9.29119        -6.74616
|104>    H       -6.89781        11.18455        -4.94683
|105>    H       -4.87050        11.75823        -7.17449
|106>    H       -5.53146        12.96250        -6.06640
|107>    H       -6.59876        12.14293        -7.21772
|108>    H       -2.87577        11.44295        -2.98979
|109>    H        1.17627        12.07942         0.43280
|110>    H       -1.85570         8.74315         2.62447
|111>    H        2.90113        11.54217         2.56944
|112> *
|113>
|114>                          ****END OF INPUT****

CARTESIAN COORDINATES (ANGSTROEM)
---------------------------------
  C    -10.301220   -1.944560    0.632720
  C    -10.035500   -2.441720    1.883390
  C    -10.657990   -3.584780    2.426930
  N    -11.128070   -4.505900    2.925780
  C     -9.111430   -1.905940    2.804750
  N     -8.382370   -1.544070    3.615360
  C    -11.253470   -2.515230   -0.317570
  C    -11.226490   -1.746550   -1.507720
  C    -12.013790   -2.027450   -2.597020
  C    -12.877770   -3.123970   -2.507160
  C    -12.901890   -3.886770   -1.315290
  C    -12.101690   -3.601870   -0.214900
  S    -14.043760   -5.192500   -1.416160
  C    -14.467240   -4.702480   -3.035170
  C    -13.789630   -3.617710   -3.479760
  Br   -15.764300   -5.668460   -3.984140
  C    -10.255270   -0.651190   -1.349750
  O     -9.971720    0.191360   -2.180430
  C     -9.703430   -0.785130    0.002870
  C     -8.785720    0.071990    0.554130
  C     -8.198360    1.218250    0.003770
  C     -7.297570    1.989630    0.761930
  O     -6.953900    1.711380    2.040860
  C     -6.331360    2.815680    2.678640
  C     -5.279520    3.478320    1.777660
  C     -4.588940    4.650370    2.452860
  O     -5.906410    3.970090    0.591380
  C     -6.810590    3.099950    0.082990
  C     -7.335900    3.216960   -1.205220
  S     -8.433860    1.924330   -1.586270
  C     -7.014780    4.273170   -2.067220
  C     -7.480840    4.518050   -3.367580
  C     -6.952150    5.730920   -3.937370
  N     -7.271600    6.091200   -5.179430
  C     -8.101490    5.314460   -5.838930
  C     -8.458840    5.745300   -7.214270
  O     -8.043790    6.771250   -7.712690
  C     -9.371660    4.839090   -7.931770
  C     -9.873610    3.721820   -7.397760
  C     -9.575770    3.255450   -6.029120
  O    -10.061440    2.240310   -5.581460
  C     -8.641230    4.119790   -5.263910
  N     -8.321030    3.737670   -4.045670
  C     -6.091190    6.409220   -3.060090
  S     -5.930680    5.530020   -1.569720
  C     -5.433210    7.644390   -3.207590
  C     -5.612310    8.650380   -4.152150
  O     -6.454410    8.574720   -5.195300
  C     -6.201680    9.560680   -6.178260
  C     -6.004780   10.940110   -5.540910
  C     -5.735040   12.022750   -6.571510
  O     -4.883550   10.904960   -4.650600
  C     -4.825570    9.793880   -3.895940
  C     -4.041080    9.699370   -2.746800
  S     -4.248230    8.123060   -2.023850
  C     -3.159210   10.684290   -2.267340
  C     -2.547880   10.755730   -1.048320
  C     -2.793460   10.042370    0.184210
  C     -4.019060    9.632540    0.647810
  C     -4.213270    8.910490    1.838830
  N     -4.416610    8.271330    2.771630
  C     -5.225060    9.960250   -0.006540
  N     -6.224330   10.275000   -0.476270
  C     -1.567890   10.103170    0.971590
  C     -0.689690   11.036410    0.363820
  C     -1.301430   11.544840   -0.884380
  O     -0.858320   12.380710   -1.638020
  C      0.529910   11.357810    0.907100
  C      0.904180   10.720590    2.095590
  C      0.024520    9.782230    2.686030
  C     -1.215080    9.464550    2.144120
  S      0.691800    9.109840    4.142650
  C      2.121660   10.088480    3.944780
  C      2.103070   10.876990    2.844290
  Br     3.503260    9.973030    5.207750
  H    -11.964180   -1.418440   -3.485940
  H    -12.160260   -4.214740    0.668820
  H    -13.925380   -3.181030   -4.452250
  H     -8.448970   -0.123500    1.565660
  H     -5.872740    2.418810    3.584200
  H     -7.091940    3.560510    2.946200
  H     -4.545440    2.712700    1.482560
  H     -5.315160    5.402730    2.747080
  H     -3.891460    5.108460    1.757630
  H     -4.048180    4.311680    3.330840
  H     -9.621720    5.143180   -8.939460
  H    -10.545640    3.084970   -7.957460
  H     -7.065420    9.541490   -6.842150
  H     -5.301370    9.291190   -6.746160
  H     -6.897810   11.184550   -4.946830
  H     -4.870500   11.758230   -7.174490
  H     -5.531460   12.962500   -6.066400
  H     -6.598760   12.142930   -7.217720
  H     -2.875770   11.442950   -2.989790
  H      1.176270   12.079420    0.432800
  H     -1.855700    8.743150    2.624470
  H      2.901130   11.542170    2.569440

 Total Charge           Charge          ....    0
 Multiplicity           Mult            ....    1
 Number of Electrons    NEL             ....  602
 Basis Dimension        Dim             .... 1216

ORBITAL ENERGIES
----------------

  NO   OCC          E(Eh)            E(eV)
   0   2.0000    -482.885651    -13139.9866
   1   2.0000    -482.881090    -13139.8625
   2   2.0000     -88.993115     -2421.6258
   3   2.0000     -88.975356     -2421.1425
   4   2.0000     -88.970179     -2421.0016
   5   2.0000     -88.970087     -2420.9991
   6   2.0000     -88.962145     -2420.7830
   7   2.0000     -62.563356     -1702.4355
   8   2.0000     -62.558815     -1702.3119
   9   2.0000     -56.397303     -1534.6486
  10   2.0000     -56.394594     -1534.5749
  11   2.0000     -56.394558     -1534.5739
  12   2.0000     -56.392753     -1534.5248
  13   2.0000     -56.390057     -1534.4515
  14   2.0000     -56.390019     -1534.4504
  15   2.0000     -19.274950      -524.4981
  16   2.0000     -19.273708      -524.4643
  17   2.0000     -19.271275      -524.3981
  18   2.0000     -19.259438      -524.0760
  19   2.0000     -19.226610      -523.1827
  20   2.0000     -19.223167      -523.0890
  21   2.0000     -19.212676      -522.8035
  22   2.0000     -19.209963      -522.7297
  23   2.0000     -14.444668      -393.0594
  24   2.0000     -14.438686      -392.8966
  25   2.0000     -14.418496      -392.3472
  26   2.0000     -14.408312      -392.0701
  27   2.0000     -14.408030      -392.0624
  28   2.0000     -14.406567      -392.0226
  29   2.0000     -10.375230      -282.3244
  30   2.0000     -10.372526      -282.2508
  31   2.0000     -10.363089      -281.9940
  32   2.0000     -10.362090      -281.9668
  33   2.0000     -10.359701      -281.9018
  34   2.0000     -10.358293      -281.8635
  35   2.0000     -10.353842      -281.7424
  36   2.0000     -10.353709      -281.7388
  37   2.0000     -10.353385      -281.7299
  38   2.0000     -10.349162      -281.6150
  39   2.0000     -10.347824      -281.5786
  40   2.0000     -10.346288      -281.5368
  41   2.0000     -10.343007      -281.4475
  42   2.0000     -10.339296      -281.3466
  43   2.0000     -10.338709      -281.3306
  44   2.0000     -10.337215      -281.2899
  45   2.0000     -10.336837      -281.2796
  46   2.0000     -10.335353      -281.2393
  47   2.0000     -10.333499      -281.1888
  48   2.0000     -10.332838      -281.1708
  49   2.0000     -10.332646      -281.1656
  50   2.0000     -10.332370      -281.1581
  51   2.0000     -10.331280      -281.1284
  52   2.0000     -10.331216      -281.1267
  53   2.0000     -10.330873      -281.1173
  54   2.0000     -10.325268      -280.9648
  55   2.0000     -10.321902      -280.8732
  56   2.0000     -10.319249      -280.8010
  57   2.0000     -10.318656      -280.7849
  58   2.0000     -10.317886      -280.7639
  59   2.0000     -10.316968      -280.7390
  60   2.0000     -10.313655      -280.6488
  61   2.0000     -10.311893      -280.6009
  62   2.0000     -10.310915      -280.5743
  63   2.0000     -10.310889      -280.5735
  64   2.0000     -10.310165      -280.5539
  65   2.0000     -10.307700      -280.4868
  66   2.0000     -10.307444      -280.4798
  67   2.0000     -10.306786      -280.4619
  68   2.0000     -10.306346      -280.4499
  69   2.0000     -10.305152      -280.4174
  70   2.0000     -10.301072      -280.3064
  71   2.0000     -10.300942      -280.3029
  72   2.0000     -10.299861      -280.2735
  73   2.0000     -10.298627      -280.2399
  74   2.0000     -10.296256      -280.1754
  75   2.0000     -10.293992      -280.1138
  76   2.0000     -10.291308      -280.0407
  77   2.0000     -10.291135      -280.0360
  78   2.0000     -10.290735      -280.0251
  79   2.0000     -10.287074      -279.9255
  80   2.0000     -10.284949      -279.8677
  81   2.0000     -10.278770      -279.6996
  82   2.0000     -10.273410      -279.5537
  83   2.0000      -8.792787      -239.2639
  84   2.0000      -8.788256      -239.1406
  85   2.0000      -8.086910      -220.0560
  86   2.0000      -8.071402      -219.6340
  87   2.0000      -8.065993      -219.4868
  88   2.0000      -8.065084      -219.4621
  89   2.0000      -8.054054      -219.1620
  90   2.0000      -6.629049      -180.3856
  91   2.0000      -6.624518      -180.2623
  92   2.0000      -6.614526      -179.9904
  93   2.0000      -6.614349      -179.9856
  94   2.0000      -6.609997      -179.8672
  95   2.0000      -6.609828      -179.8626
  96   2.0000      -6.056012      -164.7925
  97   2.0000      -6.051585      -164.6720
  98   2.0000      -6.049765      -164.6225
  99   2.0000      -6.041097      -164.3866
 100   2.0000      -6.036835      -164.2706
 101   2.0000      -6.035683      -164.2393
 102   2.0000      -6.034764      -164.2143
 103   2.0000      -6.032602      -164.1555
 104   2.0000      -6.031409      -164.1230
 105   2.0000      -6.030845      -164.1076
 106   2.0000      -6.027260      -164.0101
 107   2.0000      -6.026148      -163.9798
 108   2.0000      -6.023879      -163.9181
 109   2.0000      -6.019400      -163.7962
 110   2.0000      -6.015336      -163.6856
 111   2.0000      -2.744971       -74.6945
 112   2.0000      -2.740823       -74.5816
 113   2.0000      -2.740700       -74.5782
 114   2.0000      -2.740421       -74.5707
 115   2.0000      -2.736338       -74.4595
 116   2.0000      -2.736149       -74.4544
 117   2.0000      -2.729147       -74.2639
 118   2.0000      -2.729143       -74.2638
 119   2.0000      -2.724645       -74.1413
 120   2.0000      -2.724626       -74.1409
 121   2.0000      -1.199052       -32.6279
 122   2.0000      -1.198855       -32.6225
 123   2.0000      -1.160972       -31.5916
 124   2.0000      -1.158831       -31.5334
 125   2.0000      -1.141904       -31.0728
 126   2.0000      -1.137268       -30.9466
 127   2.0000      -1.129499       -30.7352
 128   2.0000      -1.125358       -30.6225
 129   2.0000      -1.095875       -29.8203
 130   2.0000      -1.022856       -27.8333
 131   2.0000      -1.022033       -27.8109
 132   2.0000      -1.016039       -27.6478
 133   2.0000      -1.015116       -27.6227
 134   2.0000      -1.011319       -27.5194
 135   2.0000      -1.006163       -27.3791
 136   2.0000      -0.998947       -27.1827
 137   2.0000      -0.991564       -26.9818
 138   2.0000      -0.986630       -26.8476
 139   2.0000      -0.986135       -26.8341
 140   2.0000      -0.983740       -26.7689
 141   2.0000      -0.980839       -26.6900
 142   2.0000      -0.941740       -25.6260
 143   2.0000      -0.937199       -25.5025
 144   2.0000      -0.936025       -25.4705
 145   2.0000      -0.912610       -24.8334
 146   2.0000      -0.907302       -24.6890
 147   2.0000      -0.903037       -24.5729
 148   2.0000      -0.901826       -24.5399
 149   2.0000      -0.901127       -24.5209
 150   2.0000      -0.894950       -24.3528
 151   2.0000      -0.885011       -24.0824
 152   2.0000      -0.881824       -23.9956
 153   2.0000      -0.879215       -23.9247
 154   2.0000      -0.872076       -23.7304
 155   2.0000      -0.867479       -23.6053
 156   2.0000      -0.853933       -23.2367
 157   2.0000      -0.834361       -22.7041
 158   2.0000      -0.829536       -22.5728
 159   2.0000      -0.826995       -22.5037
 160   2.0000      -0.822798       -22.3895
 161   2.0000      -0.818363       -22.2688
 162   2.0000      -0.813405       -22.1339
 163   2.0000      -0.795409       -21.6442
 164   2.0000      -0.791337       -21.5334
 165   2.0000      -0.787189       -21.4205
 166   2.0000      -0.785111       -21.3640
 167   2.0000      -0.773091       -21.0369
 168   2.0000      -0.762808       -20.7571
 169   2.0000      -0.754341       -20.5267
 170   2.0000      -0.752901       -20.4875
 171   2.0000      -0.746552       -20.3147
 172   2.0000      -0.734202       -19.9787
 173   2.0000      -0.722839       -19.6694
 174   2.0000      -0.717527       -19.5249
 175   2.0000      -0.700035       -19.0489
 176   2.0000      -0.690373       -18.7860
 177   2.0000      -0.687268       -18.7015
 178   2.0000      -0.686461       -18.6795
 179   2.0000      -0.683019       -18.5859
 180   2.0000      -0.679293       -18.4845
 181   2.0000      -0.668605       -18.1937
 182   2.0000      -0.664372       -18.0785
 183   2.0000      -0.659987       -17.9592
 184   2.0000      -0.658482       -17.9182
 185   2.0000      -0.654676       -17.8146
 186   2.0000      -0.651392       -17.7253
 187   2.0000      -0.647339       -17.6150
 188   2.0000      -0.643675       -17.5153
 189   2.0000      -0.636291       -17.3143
 190   2.0000      -0.632097       -17.2002
 191   2.0000      -0.623409       -16.9638
 192   2.0000      -0.621733       -16.9182
 193   2.0000      -0.618112       -16.8197
 194   2.0000      -0.606591       -16.5062
 195   2.0000      -0.602772       -16.4022
 196   2.0000      -0.596734       -16.2380
 197   2.0000      -0.595905       -16.2154
 198   2.0000      -0.592310       -16.1176
 199   2.0000      -0.588154       -16.0045
 200   2.0000      -0.586042       -15.9470
 201   2.0000      -0.576384       -15.6842
 202   2.0000      -0.565497       -15.3880
 203   2.0000      -0.564877       -15.3711
 204   2.0000      -0.559696       -15.2301
 205   2.0000      -0.555402       -15.1132
 206   2.0000      -0.554205       -15.0807
 207   2.0000      -0.551082       -14.9957
 208   2.0000      -0.549164       -14.9435
 209   2.0000      -0.547483       -14.8978
 210   2.0000      -0.546083       -14.8597
 211   2.0000      -0.544963       -14.8292
 212   2.0000      -0.539187       -14.6720
 213   2.0000      -0.537551       -14.6275
 214   2.0000      -0.534441       -14.5429
 215   2.0000      -0.533022       -14.5043
 216   2.0000      -0.530372       -14.4321
 217   2.0000      -0.528579       -14.3834
 218   2.0000      -0.525402       -14.2969
 219   2.0000      -0.524564       -14.2741
 220   2.0000      -0.522926       -14.2296
 221   2.0000      -0.517153       -14.0724
 222   2.0000      -0.515712       -14.0333
 223   2.0000      -0.513290       -13.9673
 224   2.0000      -0.512292       -13.9402
 225   2.0000      -0.510858       -13.9012
 226   2.0000      -0.508259       -13.8304
 227   2.0000      -0.505632       -13.7590
 228   2.0000      -0.503061       -13.6890
 229   2.0000      -0.501192       -13.6381
 230   2.0000      -0.500359       -13.6155
 231   2.0000      -0.499218       -13.5844
 232   2.0000      -0.496133       -13.5005
 233   2.0000      -0.495539       -13.4843
 234   2.0000      -0.490828       -13.3561
 235   2.0000      -0.489438       -13.3183
 236   2.0000      -0.488046       -13.2804
 237   2.0000      -0.487442       -13.2640
 238   2.0000      -0.486082       -13.2270
 239   2.0000      -0.485016       -13.1979
 240   2.0000      -0.483054       -13.1446
 241   2.0000      -0.479798       -13.0560
 242   2.0000      -0.475414       -12.9367
 243   2.0000      -0.473130       -12.8745
 244   2.0000      -0.470766       -12.8102
 245   2.0000      -0.467537       -12.7223
 246   2.0000      -0.466172       -12.6852
 247   2.0000      -0.458626       -12.4798
 248   2.0000      -0.455856       -12.4045
 249   2.0000      -0.454220       -12.3600
 250   2.0000      -0.452761       -12.3202
 251   2.0000      -0.450828       -12.2677
 252   2.0000      -0.445601       -12.1254
 253   2.0000      -0.443094       -12.0572
 254   2.0000      -0.442624       -12.0444
 255   2.0000      -0.442295       -12.0355
 256   2.0000      -0.441509       -12.0141
 257   2.0000      -0.438491       -11.9319
 258   2.0000      -0.437004       -11.8915
 259   2.0000      -0.436362       -11.8740
 260   2.0000      -0.433524       -11.7968
 261   2.0000      -0.431987       -11.7550
 262   2.0000      -0.425659       -11.5828
 263   2.0000      -0.424077       -11.5397
 264   2.0000      -0.423188       -11.5155
 265   2.0000      -0.422387       -11.4937
 266   2.0000      -0.419102       -11.4043
 267   2.0000      -0.418938       -11.3999
 268   2.0000      -0.416412       -11.3312
 269   2.0000      -0.412188       -11.2162
 270   2.0000      -0.408393       -11.1129
 271   2.0000      -0.407602       -11.0914
 272   2.0000      -0.402881       -10.9630
 273   2.0000      -0.400818       -10.9068
 274   2.0000      -0.398255       -10.8371
 275   2.0000      -0.393954       -10.7200
 276   2.0000      -0.387761       -10.5515
 277   2.0000      -0.383956       -10.4480
 278   2.0000      -0.382011       -10.3951
 279   2.0000      -0.376976       -10.2580
 280   2.0000      -0.375046       -10.2055
 281   2.0000      -0.372653       -10.1404
 282   2.0000      -0.371986       -10.1223
 283   2.0000      -0.370486       -10.0814
 284   2.0000      -0.359627        -9.7859
 285   2.0000      -0.355366        -9.6700
 286   2.0000      -0.346321        -9.4239
 287   2.0000      -0.344779        -9.3819
 288   2.0000      -0.343793        -9.3551
 289   2.0000      -0.332587        -9.0502
 290   2.0000      -0.330866        -9.0033
 291   2.0000      -0.322645        -8.7796
 292   2.0000      -0.319415        -8.6917
 293   2.0000      -0.314391        -8.5550
 294   2.0000      -0.310237        -8.4420
 295   2.0000      -0.298696        -8.1279
 296   2.0000      -0.294264        -8.0073
 297   2.0000      -0.292465        -7.9584
 298   2.0000      -0.288718        -7.8564
 299   2.0000      -0.280262        -7.6263
 300   2.0000      -0.238102        -6.4791
 301   0.0000      -0.112685        -3.0663
 302   0.0000      -0.091984        -2.5030
 303   0.0000      -0.076874        -2.0919
 304   0.0000      -0.070271        -1.9122
 305   0.0000      -0.052458        -1.4274

MULLIKEN ATOMIC CHARGES
-----------------------
   0 C :    0.334074
   1 C :   -0.358527
   2 C :   -0.189447
   3 N :    0.147881
   4 C :   -0.194438
   5 N :    0.144453
   6 C :    0.011274
   7 C :   -0.016601
   8 C :   -0.071669
   9 C :    0.116006
  10 C :   -0.093185
  11 C :   -0.021903
  12 S :    0.183147
  13 C :   -0.123965
  14 C :    0.041312
  15 Br:    0.019325
  16 C :    0.171612
  17 O :   -0.174911
  18 C :   -0.093730
  19 C :   -0.038836
  20 C :   -0.150591
  21 C :    0.178461
  22 O :   -0.283180
  23 C :    0.229795
  24 C :    0.040057
  25 C :    0.056928
  26 O :   -0.316984
  27 C :    0.148510
  28 C :   -0.111924
  29 S :    0.257796
  30 C :   -0.142045
  31 C :   -0.002528
  32 C :    0.040271
  33 N :    0.095988
  34 C :   -0.140084
  35 C :    0.151065
  36 O :   -0.117865
  37 C :   -0.018229
  38 C :   -0.018491
  39 C :    0.135843
  40 O :   -0.093144
  41 C :   -0.112834
  42 N :    0.064904
  43 C :   -0.128823
  44 S :    0.233047
  45 C :   -0.124108
  46 C :    0.146723
  47 O :   -0.250508
  48 C :    0.235757
  49 C :    0.036973
  50 C :    0.052639
  51 O :   -0.276725
  52 C :    0.200825
  53 C :   -0.182190
  54 S :    0.126018
  55 C :    0.058442
  56 C :   -0.135736
  57 C :    0.242103
  58 C :   -0.333055
  59 C :   -0.156658
  60 N :    0.129878
  61 C :   -0.203774
  62 N :    0.162274
  63 C :    0.013798
  64 C :   -0.001604
  65 C :    0.140427
  66 O :   -0.147099
  67 C :   -0.074472
  68 C :    0.112606
  69 C :   -0.084296
  70 C :   -0.029791
  71 S :    0.178560
  72 C :   -0.124479
  73 C :    0.039918
  74 Br:    0.022219
  75 H :   -0.003755
  76 H :   -0.006927
  77 H :   -0.004581
  78 H :    0.023619
  79 H :    0.042397
  80 H :    0.031866
  81 H :    0.029453
  82 H :    0.039960
  83 H :    0.031310
  84 H :    0.022854
  85 H :    0.012611
  86 H :    0.016044
  87 H :    0.044159
  88 H :    0.023167
  89 H :    0.036548
  90 H :    0.024537
  91 H :    0.039247
  92 H :    0.026278
  93 H :    0.028912
  94 H :   -0.008860
  95 H :   -0.008661
  96 H :   -0.002657
Sum of atomic charges:   -0.0000000

LOEWDIN ATOMIC CHARGES
----------------------
   0 C :    0.076507
   1 C :   -0.146796
   2 C :   -0.018221
   3 N :   -0.060222
   4 C :   -0.022457
   5 N :   -0.054698
   6 C :   -0.019511
   7 C :   -0.049454
   8 C :    0.022597
   9 C :   -0.034190
  10 C :   -0.144865
  11 C :   -0.011244
  12 S :    0.430577
  13 C :   -0.273570
  14 C :   -0.069716
  15 Br:    0.133537
  16 C :    0.084019
  17 O :   -0.157061
  18 C :   -0.112111
  19 C :    0.057667
  20 C :   -0.207629
  21 C :    0.017134
  22 O :   -0.081860
  23 C :    0.082686
  24 C :    0.060924
  25 C :   -0.047314
  26 O :   -0.104862
  27 C :   -0.026745
  28 C :   -0.200738
  29 S :    0.538970
  30 C :   -0.180436
  31 C :   -0.046627
  32 C :   -0.040065
  33 N :    0.019155
  34 C :   -0.049086
  35 C :    0.059938
  36 O :   -0.113865
  37 C :   -0.017812
  38 C :   -0.011146
  39 C :    0.053935
  40 O :   -0.093050
  41 C :   -0.041678
  42 N :   -0.000438
  43 C :   -0.195048
  44 S :    0.538691
  45 C :   -0.182766
  46 C :   -0.006474
  47 O :   -0.060512
  48 C :    0.081306
  49 C :    0.062020
  50 C :   -0.049210
  51 O :   -0.080340
  52 C :    0.031288
  53 C :   -0.209221
  54 S :    0.450973
  55 C :    0.060035
  56 C :   -0.109147
  57 C :    0.061612
  58 C :   -0.156379
  59 C :   -0.013437
  60 N :   -0.067246
  61 C :   -0.039113
  62 N :   -0.057487
  63 C :   -0.016626
  64 C :   -0.050959
  65 C :    0.081861
  66 O :   -0.147315
  67 C :    0.021446
  68 C :   -0.034753
  69 C :   -0.144081
  70 C :   -0.017260
  71 S :    0.427186
  72 C :   -0.273165
  73 C :   -0.069687
  74 Br:    0.135436
  75 H :    0.043381
  76 H :    0.040673
  77 H :    0.038510
  78 H :    0.051054
  79 H :    0.039148
  80 H :    0.026355
  81 H :    0.023844
  82 H :    0.036559
  83 H :    0.035889
  84 H :    0.035299
  85 H :    0.043490
  86 H :    0.044584
  87 H :    0.039459
  88 H :    0.023318
  89 H :    0.027706
  90 H :    0.031611
  91 H :    0.038446
  92 H :    0.035966
  93 H :    0.053766
  94 H :    0.041290
  95 H :    0.038829
  96 H :    0.039017

  Mayer bond orders larger than 0.100000
B(  0-C ,  1-C ) :   1.6117 B(  0-C ,  6-C ) :   0.9948 B(  0-C , 18-C ) :   1.0893
B(  1-C ,  2-C ) :   1.1465 B(  1-C ,  4-C ) :   1.1497 B(  2-C ,  3-N ) :   2.9678
B(  4-C ,  5-N ) :   2.9569 B(  6-C ,  7-C ) :   1.2745 B(  6-C , 11-C ) :   1.4158
B(  7-C ,  8-C ) :   1.4305 B(  7-C , 16-C ) :   0.9541 B(  8-C ,  9-C ) :   1.2365
B(  8-C , 75-H ) :   1.0175 B(  9-C , 10-C ) :   1.3094 B(  9-C , 14-C ) :   1.1646
B( 10-C , 11-C ) :   1.3260 B( 10-C , 12-S ) :   1.0857 B( 11-C , 76-H ) :   0.9788
B( 12-S , 13-C ) :   1.0860 B( 13-C , 14-C ) :   1.6178 B( 13-C , 15-Br) :   1.0162
B( 14-C , 77-H ) :   0.9998 B( 16-C , 17-O ) :   2.1161 B( 16-C , 18-C ) :   0.9865
B( 18-C , 19-C ) :   1.4583 B( 19-C , 20-C ) :   1.3048 B( 19-C , 78-H ) :   0.9373
B( 20-C , 21-C ) :   1.3456 B( 20-C , 28-C ) :   0.1054 B( 20-C , 29-S ) :   1.0427
B( 21-C , 22-O ) :   1.1675 B( 21-C , 27-C ) :   1.2679 B( 22-O , 23-C ) :   0.9465
B( 23-C , 24-C ) :   1.0380 B( 23-C , 79-H ) :   0.9520 B( 23-C , 80-H ) :   0.9393
B( 24-C , 25-C ) :   1.0834 B( 24-C , 26-O ) :   0.9074 B( 24-C , 81-H ) :   0.9310
B( 25-C , 82-H ) :   0.9603 B( 25-C , 83-H ) :   0.9587 B( 25-C , 84-H ) :   0.9582
B( 26-O , 27-C ) :   1.1378 B( 27-C , 28-C ) :   1.3502 B( 28-C , 29-S ) :   1.0875
B( 28-C , 30-C ) :   1.2880 B( 30-C , 31-C ) :   1.3003 B( 30-C , 43-C ) :   0.1408
B( 30-C , 44-S ) :   1.1721 B( 31-C , 32-C ) :   1.1887 B( 31-C , 42-N ) :   1.4659
B( 32-C , 33-N ) :   1.4841 B( 32-C , 43-C ) :   1.3226 B( 33-N , 34-C ) :   1.7066
B( 34-C , 35-C ) :   0.8959 B( 34-C , 41-C ) :   1.1092 B( 35-C , 36-O ) :   2.2249
B( 35-C , 37-C ) :   1.0250 B( 37-C , 38-C ) :   1.6807 B( 37-C , 85-H ) :   0.9982
B( 38-C , 39-C ) :   1.0188 B( 38-C , 86-H ) :   0.9972 B( 39-C , 40-O ) :   2.2603
B( 39-C , 41-C ) :   0.8916 B( 41-C , 42-N ) :   1.6914 B( 43-C , 44-S ) :   1.1525
B( 43-C , 45-C ) :   1.1908 B( 45-C , 46-C ) :   1.4573 B( 45-C , 53-C ) :   0.1157
B( 45-C , 54-S ) :   1.1083 B( 46-C , 47-O ) :   1.2151 B( 46-C , 52-C ) :   1.1927
B( 47-O , 48-C ) :   0.9487 B( 48-C , 49-C ) :   1.0356 B( 48-C , 87-H ) :   0.9506
B( 48-C , 88-H ) :   0.9383 B( 49-C , 50-C ) :   1.0847 B( 49-C , 51-O ) :   0.9036
B( 49-C , 89-H ) :   0.9310 B( 50-C , 90-H ) :   0.9621 B( 50-C , 91-H ) :   0.9590
B( 50-C , 92-H ) :   0.9599 B( 51-O , 52-C ) :   1.2169 B( 52-C , 53-C ) :   1.4186
B( 53-C , 54-S ) :   1.0574 B( 53-C , 55-C ) :   1.1955 B( 55-C , 56-C ) :   1.5670
B( 55-C , 93-H ) :   0.9534 B( 56-C , 57-C ) :   1.0583 B( 56-C , 65-C ) :   0.9512
B( 57-C , 58-C ) :   1.6233 B( 57-C , 63-C ) :   1.0233 B( 58-C , 59-C ) :   1.1422
B( 58-C , 61-C ) :   1.1488 B( 59-C , 60-N ) :   2.9515 B( 61-C , 62-N ) :   3.0275
B( 63-C , 64-C ) :   1.2776 B( 63-C , 70-C ) :   1.4190 B( 64-C , 65-C ) :   0.9163
B( 64-C , 67-C ) :   1.4298 B( 65-C , 66-O ) :   2.2688 B( 67-C , 68-C ) :   1.2495
B( 67-C , 94-H ) :   1.0162 B( 68-C , 69-C ) :   1.3127 B( 68-C , 73-C ) :   1.1627
B( 69-C , 70-C ) :   1.3204 B( 69-C , 71-S ) :   1.0823 B( 70-C , 95-H ) :   0.9845
B( 71-S , 72-C ) :   1.0847 B( 72-C , 73-C ) :   1.6213 B( 72-C , 74-Br) :   1.0185
B( 73-C , 96-H ) :   0.9998

-----------------------------------------------------------------------------
         ABSORPTION SPECTRUM VIA TRANSITION ELECTRIC DIPOLE MOMENTS
-----------------------------------------------------------------------------
State   Energy  Wavelength   fosc         T2         TX        TY        TZ
        (cm-1)    (nm)                  (au**2)     (au)      (au)      (au)
-----------------------------------------------------------------------------
   0   11737.3    852.0   0.959448848  26.91092  -2.69818  -4.42368   0.24859
   1   16499.7    606.1   0.284016000   5.66685  -0.48370   0.46073  -2.28487
   2   19262.2    519.2   0.060299646   1.03059  -0.48185  -0.55282  -0.70200
   3   21325.7    468.9   0.479486694   7.40199  -1.25602  -2.09124   1.20463
   4   21493.2    465.3   0.022267186   0.34107  -0.28402  -0.40115  -0.31540
   5   22749.6    439.6   0.070705722   1.02319  -0.25421   0.41439  -0.88704
   6   22871.5    437.2   0.166717116   2.39973   0.58266   0.03159   1.43500
   7   23787.8    420.4   0.007678455   0.10627   0.26803  -0.18542   0.00679
   8   24765.1    403.8   0.056350906   0.74910   0.17535   0.82966  -0.17325
   9   24932.8    401.1   0.000749560   0.00990  -0.09037   0.00254   0.04151
  10   25303.3    395.2   0.058156095   0.75665   0.80529   0.21378   0.24991
  11   26029.0    384.2   0.299265941   3.78509  -1.53996  -0.79449  -0.88453
  12   26329.5    379.8   0.000055263   0.00069   0.02601  -0.00363  -0.00107
  13   26585.0    376.2   0.018161277   0.22490   0.39987  -0.12824   0.22036
  14   27277.5    366.6   0.053559892   0.64641   0.41040   0.39704   0.56599
  15   27367.9    365.4   0.093023154   1.11899  -0.73053  -0.38455  -0.66139
  16   28523.2    350.6   0.038465659   0.44397  -0.31733   0.12982  -0.57133
  17   28555.4    350.2   0.034526513   0.39805  -0.28026  -0.20610  -0.52634
  18   29017.0    344.6   0.006254482   0.07096  -0.10840  -0.18734   0.15528
  19   29356.7    340.6   0.001477960   0.01657   0.00975  -0.07343   0.10530
  20   29532.8    338.6   0.003565584   0.03975   0.01977  -0.13653   0.14393
  21   29853.7    335.0   0.007554088   0.08330   0.12025   0.15451  -0.21206
  22   30222.6    330.9   0.022068211   0.24039   0.13958   0.24807  -0.39921
  23   30427.6    328.6   0.290212777   3.13996  -1.38497  -0.81767  -0.74379
  24   30779.1    324.9   0.123394865   1.31983  -0.93863  -0.45469  -0.48172
  25   30888.2    323.7   0.014291236   0.15232  -0.17395   0.06287  -0.34367
  26   31966.8    312.8   0.082225637   0.84681  -0.45683   0.08720   0.79404
  27   32091.9    311.6   0.407231941   4.17755   1.65957   0.60820   1.02638
  28   32438.8    308.3   0.008567407   0.08695  -0.22351   0.07054  -0.17892
  29   32571.2    307.0   0.003776773   0.03817   0.11194   0.00582   0.16003
  30   32741.1    305.4   0.161979912   1.62871   1.02585   0.22850   0.72397
  31   32847.8    304.4   0.086256617   0.86449  -0.53286  -0.36976  -0.66621
  32   33440.4    299.0   0.040384069   0.39757  -0.04484   0.48671  -0.39833
  33   33613.2    297.5   0.004724383   0.04627   0.09435  -0.12010   0.15147
  34   33660.1    297.1   0.774443249   7.57443   1.59551  -0.31931   2.21964
  35   33904.3    294.9   0.011973084   0.11626  -0.24622   0.14724  -0.18427
  36   34154.4    292.8   0.012491831   0.12041  -0.33356   0.08821  -0.03694
  37   34293.7    291.6   0.037358369   0.35863   0.45744  -0.06099   0.38166
  38   34735.8    287.9   0.041522835   0.39354  -0.02094  -0.08102   0.62172
  39   34873.5    286.8   0.009541872   0.09008  -0.01446  -0.27126  -0.12762
  40   35070.7    285.1   0.009169211   0.08607  -0.27027  -0.11040  -0.02895
  41   35396.1    282.5   0.004148461   0.03858  -0.14726   0.06361  -0.11336
  42   35471.0    281.9   0.011307426   0.10495   0.17307  -0.27022   0.04438
  43   35800.8    279.3   0.002683938   0.02468   0.05612  -0.14001   0.04392
  44   35942.6    278.2   0.170625512   1.56282   0.73895   1.00492  -0.08314
  45   36047.4    277.4   0.147093642   1.34337  -0.34288  -0.16291  -1.09511
  46   36228.3    276.0   0.088437895   0.80365  -0.57773   0.05254  -0.68345
  47   36553.3    273.6   0.004014885   0.03616   0.04860  -0.11019   0.14716
  48   36685.4    272.6   0.122572825   1.09996   0.16573  -0.34900   0.97503
  49   36860.2    271.3   0.086417737   0.77183  -0.69107  -0.51417   0.17288
  50   36980.2    270.4   0.079656173   0.70913   0.62532   0.36223   0.43231
  51   37227.0    268.6   0.105222300   0.93052   0.71641   0.45542   0.45811
  52   37315.9    268.0   0.032857548   0.28988  -0.47220  -0.20447   0.15842
  53   37524.1    266.5   0.124227395   1.08989  -0.05216  -0.29888   0.99892
  54   37963.0    263.4   0.009079770   0.07874  -0.19264  -0.18084  -0.09448
  55   38065.5    262.7   0.032412262   0.28032  -0.47493  -0.23281  -0.02359
  56   38142.0    262.2   0.037368517   0.32254  -0.31194   0.04030  -0.47287
  57   38406.5    260.4   0.014249058   0.12214  -0.00138  -0.33354   0.10434
  58   38684.3    258.5   0.064509421   0.54899   0.54029   0.16383   0.47982
  59   39034.6    256.2   0.000545088   0.00460  -0.06531  -0.01818  -0.00136
  60   39490.0    253.2   0.013223496   0.11024  -0.22974   0.06448  -0.23087
  61   39870.2    250.8   0.078602701   0.64903   0.29877   0.62597  -0.40979
  62   39896.0    250.7   0.000237436   0.00196   0.02525   0.02693  -0.02443
  63   40179.6    248.9   0.028730647   0.23540   0.40230   0.24666  -0.11278

FINAL SINGLE POINT ENERGY    -10135.744794899616

DIPOLE MOMENT
-------------
                                X             Y             Z
Electronic contribution:     -0.01786     -74.73217      47.21669
Nuclear contribution   :      1.33121      76.49577     -49.89131
                        -----------------------------------------
Total Dipole Moment    :      1.31335       1.76360      -2.67461
                        -----------------------------------------
Magnitude (a.u.)       :      3.46247
Magnitude (Debye)      :      8.80091

Rotational constants in cm-1:     0.001039     0.000246     0.000202
Rotational constants in MHz :    31.156437     7.372061     6.061307

                             ****ORCA TERMINATED NORMALLY****
TOTAL RUN TIME: 0 days 0 hours 11 minutes 42 seconds 582 msec
