                         Program Version 4.2.0 -  RELEASE  -
|  1> # ORCA input file
|  2> # SCF done       -172.941185799600          0.005286129437
|  3> ! CAM-B3LYP def2-SVP def2/J RIJCOSX Grid4 TightSCF
|  4> %maxcore 5000
|  5> %tddft
|  6>     Mode sTDDFT
|  7>     Ethresh 5.0
|  8>     maxcore 5000
|  9> end
| 10>
| 11> %pal
| 12>   nprocs 6
| 13>   end
| 14> * xyz 0 1
| 15>    C        3.40026       -10.15088         2.96516
| 16>    C        3.54246       -11.43046         3.47940
| 17>    C        2.50744       -12.34987         3.39907
| 18>    C        1.29725       -12.01422         2.81172
| 19>    C        1.14048       -10.74037         2.28972
| 20>    C        2.19943        -9.80637         2.36540
| 21>    C        1.77529        -8.56592         1.73387
| 22>    C        2.57705        -7.49380         1.45604
| 23>    C        3.94705        -7.42178         1.79479
| 24>    N        5.05811        -7.28828         2.04619
| 25>    C        2.19802        -6.32355         0.75793
| 26>    N        1.99785        -5.34797         0.18624
| 27>    C        0.35128        -8.71387         1.42726
| 28>    C        0.02552       -10.12414         1.57948
| 29>    C       -0.99534       -10.80141         0.96681
| 30>    C       -1.87783       -10.25074         0.01488
| 31>    N       -2.55863        -9.92194        -0.84956
| 32>    C       -1.15976       -12.19611         1.07249
| 33>    N       -1.30800       -13.33449         1.11748
| 34>    C       -0.44811        -7.63612         1.18853
| 35>    C       -1.86103        -7.47311         1.15592
| 36>    N       -2.72788        -8.40292         1.51372
| 37>    N       -4.01214        -8.20317         1.54621
| 38>    C       -4.61227        -7.01708         1.21377
| 39>    C       -3.76006        -5.96956         0.76771
| 40>    C       -2.35219        -6.18681         0.75494
| 41>    N       -1.68034        -5.12562         0.34595
| 42>    S       -2.73549        -3.95166        -0.00744
| 43>    N       -4.08956        -4.75098         0.36112
| 44>    C       -6.00874        -6.91580         1.27932
| 45>    C       -7.05792        -6.06326         0.79040
| 46>    N       -8.24353        -6.66354         0.77243
| 47>    C       -8.08025        -7.90871         1.27668
| 48>    C       -6.71317        -8.05828         1.67482
| 49>    C       -6.35688        -9.39170         1.82728
| 50>    S       -4.81547       -10.03796         1.74315
| 51>    C       -7.56152       -10.09519         1.68074
| 52>    C       -8.63260        -9.24637         1.28597
| 53>    N       -9.63690       -10.02290         0.79798
| 54>    C       -9.21930       -11.27906         0.82706
| 55>    C       -7.86673       -11.40646         1.31291
| 56>    C       -6.80781       -12.32755         1.32708
| 57>    N       -5.56854       -11.88494         1.69410
| 58>    N       -4.55679       -12.67378         1.92531
| 59>    C       -4.61373       -13.97648         1.76336
| 60>    C       -5.78766       -14.55722         1.19385
| 61>    C       -6.91561       -13.70398         0.99073
| 62>    N       -7.96636       -14.36242         0.52218
| 63>    S       -7.56444       -15.91399         0.35214
| 64>    N       -6.04021       -15.81465         0.87367
| 65>    C       -3.51863       -14.82121         2.15000
| 66>    C       -2.70176       -14.64547         3.21584
| 67>    C       -1.43544       -15.35172         3.41491
| 68>    C       -1.00407       -16.46651         2.75356
| 69>    C       -1.75441       -17.21046         1.81317
| 70>    N       -2.29741       -17.88836         1.06257
| 71>    C        0.26783       -17.05213         2.94081
| 72>    N        1.29006       -17.56451         3.03879
| 73>    C       -0.69989       -14.61240         4.43103
| 74>    C       -1.50127       -13.54331         4.89773
| 75>    C       -1.01479       -12.66204         5.85177
| 76>    C        0.25514       -12.87291         6.36578
| 77>    C        1.02439       -13.94852         5.94374
| 78>    C        0.56135       -14.82067         4.96908
| 79>    C       -2.81159       -13.64422         4.27783
| 80>    C       -3.96357       -13.10483         4.77816
| 81>    C       -4.00326       -12.15205         5.81849
| 82>    N       -4.10393       -11.35611         6.63952
| 83>    C       -5.26483       -13.49065         4.39413
| 84>    N       -6.34875       -13.79445         4.16518
| 85>    H        4.21241        -9.44632         3.03740
| 86>    H        4.47453       -11.71271         3.94471
| 87>    H        2.64421       -13.34448         3.79502
| 88>    H        0.49983       -12.73704         2.77089
| 89>    H        0.05150        -6.68487         1.05292
| 90>    H       -6.95460        -5.05632         0.43196
| 91>    H       -9.85524       -12.07432         0.48759
| 92>    H       -3.36547       -15.66615         1.49422
| 93>    H       -1.60624       -11.82797         6.19381
| 94>    H        0.64309       -12.19869         7.11460
| 95>    H        1.99955       -14.10817         6.37868
| 96>    H        1.17476       -15.64632         4.64664
| 97> *
| 98>
| 99>                          ****END OF INPUT****

CARTESIAN COORDINATES (ANGSTROEM)
---------------------------------
  C      3.400260  -10.150880    2.965160
  C      3.542460  -11.430460    3.479400
  C      2.507440  -12.349870    3.399070
  C      1.297250  -12.014220    2.811720
  C      1.140480  -10.740370    2.289720
  C      2.199430   -9.806370    2.365400
  C      1.775290   -8.565920    1.733870
  C      2.577050   -7.493800    1.456040
  C      3.947050   -7.421780    1.794790
  N      5.058110   -7.288280    2.046190
  C      2.198020   -6.323550    0.757930
  N      1.997850   -5.347970    0.186240
  C      0.351280   -8.713870    1.427260
  C      0.025520  -10.124140    1.579480
  C     -0.995340  -10.801410    0.966810
  C     -1.877830  -10.250740    0.014880
  N     -2.558630   -9.921940   -0.849560
  C     -1.159760  -12.196110    1.072490
  N     -1.308000  -13.334490    1.117480
  C     -0.448110   -7.636120    1.188530
  C     -1.861030   -7.473110    1.155920
  N     -2.727880   -8.402920    1.513720
  N     -4.012140   -8.203170    1.546210
  C     -4.612270   -7.017080    1.213770
  C     -3.760060   -5.969560    0.767710
  C     -2.352190   -6.186810    0.754940
  N     -1.680340   -5.125620    0.345950
  S     -2.735490   -3.951660   -0.007440
  N     -4.089560   -4.750980    0.361120
  C     -6.008740   -6.915800    1.279320
  C     -7.057920   -6.063260    0.790400
  N     -8.243530   -6.663540    0.772430
  C     -8.080250   -7.908710    1.276680
  C     -6.713170   -8.058280    1.674820
  C     -6.356880   -9.391700    1.827280
  S     -4.815470  -10.037960    1.743150
  C     -7.561520  -10.095190    1.680740
  C     -8.632600   -9.246370    1.285970
  N     -9.636900  -10.022900    0.797980
  C     -9.219300  -11.279060    0.827060
  C     -7.866730  -11.406460    1.312910
  C     -6.807810  -12.327550    1.327080
  N     -5.568540  -11.884940    1.694100
  N     -4.556790  -12.673780    1.925310
  C     -4.613730  -13.976480    1.763360
  C     -5.787660  -14.557220    1.193850
  C     -6.915610  -13.703980    0.990730
  N     -7.966360  -14.362420    0.522180
  S     -7.564440  -15.913990    0.352140
  N     -6.040210  -15.814650    0.873670
  C     -3.518630  -14.821210    2.150000
  C     -2.701760  -14.645470    3.215840
  C     -1.435440  -15.351720    3.414910
  C     -1.004070  -16.466510    2.753560
  C     -1.754410  -17.210460    1.813170
  N     -2.297410  -17.888360    1.062570
  C      0.267830  -17.052130    2.940810
  N      1.290060  -17.564510    3.038790
  C     -0.699890  -14.612400    4.431030
  C     -1.501270  -13.543310    4.897730
  C     -1.014790  -12.662040    5.851770
  C      0.255140  -12.872910    6.365780
  C      1.024390  -13.948520    5.943740
  C      0.561350  -14.820670    4.969080
  C     -2.811590  -13.644220    4.277830
  C     -3.963570  -13.104830    4.778160
  C     -4.003260  -12.152050    5.818490
  N     -4.103930  -11.356110    6.639520
  C     -5.264830  -13.490650    4.394130
  N     -6.348750  -13.794450    4.165180
  H      4.212410   -9.446320    3.037400
  H      4.474530  -11.712710    3.944710
  H      2.644210  -13.344480    3.795020
  H      0.499830  -12.737040    2.770890
  H      0.051500   -6.684870    1.052920
  H     -6.954600   -5.056320    0.431960
  H     -9.855240  -12.074320    0.487590
  H     -3.365470  -15.666150    1.494220
  H     -1.606240  -11.827970    6.193810
  H      0.643090  -12.198690    7.114600
  H      1.999550  -14.108170    6.378680
  H      1.174760  -15.646320    4.646640

 Total Charge           Charge          ....    0
 Multiplicity           Mult            ....    1
 Number of Electrons    NEL             ....  480
 Basis Dimension        Dim             .... 1052

ORBITAL ENERGIES
----------------

  NO   OCC          E(Eh)            E(eV)
   0   2.0000     -89.054012     -2423.2829
   1   2.0000     -89.052412     -2423.2393
   2   2.0000     -89.042960     -2422.9821
   3   2.0000     -14.524266      -395.2254
   4   2.0000     -14.523068      -395.1928
   5   2.0000     -14.501105      -394.5951
   6   2.0000     -14.493150      -394.3787
   7   2.0000     -14.474613      -393.8742
   8   2.0000     -14.472314      -393.8117
   9   2.0000     -14.471636      -393.7932
  10   2.0000     -14.470270      -393.7561
  11   2.0000     -14.444537      -393.0558
  12   2.0000     -14.437850      -392.8739
  13   2.0000     -14.435274      -392.8038
  14   2.0000     -14.434733      -392.7891
  15   2.0000     -14.434716      -392.7886
  16   2.0000     -14.434561      -392.7844
  17   2.0000     -14.434022      -392.7697
  18   2.0000     -14.433029      -392.7427
  19   2.0000     -14.409777      -392.1100
  20   2.0000     -14.403915      -391.9505
  21   2.0000     -10.377842      -282.3954
  22   2.0000     -10.376972      -282.3718
  23   2.0000     -10.369878      -282.1787
  24   2.0000     -10.367968      -282.1268
  25   2.0000     -10.366871      -282.0969
  26   2.0000     -10.366291      -282.0811
  27   2.0000     -10.364570      -282.0343
  28   2.0000     -10.363152      -281.9957
  29   2.0000     -10.362933      -281.9898
  30   2.0000     -10.362906      -281.9890
  31   2.0000     -10.362667      -281.9825
  32   2.0000     -10.361538      -281.9518
  33   2.0000     -10.360734      -281.9299
  34   2.0000     -10.360564      -281.9253
  35   2.0000     -10.358901      -281.8800
  36   2.0000     -10.358246      -281.8622
  37   2.0000     -10.356189      -281.8062
  38   2.0000     -10.348193      -281.5887
  39   2.0000     -10.342042      -281.4213
  40   2.0000     -10.340709      -281.3850
  41   2.0000     -10.339276      -281.3460
  42   2.0000     -10.338683      -281.3299
  43   2.0000     -10.336944      -281.2826
  44   2.0000     -10.336826      -281.2793
  45   2.0000     -10.336464      -281.2695
  46   2.0000     -10.335924      -281.2548
  47   2.0000     -10.335853      -281.2529
  48   2.0000     -10.335304      -281.2379
  49   2.0000     -10.333840      -281.1981
  50   2.0000     -10.331423      -281.1323
  51   2.0000     -10.330924      -281.1187
  52   2.0000     -10.329155      -281.0706
  53   2.0000     -10.327852      -281.0351
  54   2.0000     -10.318509      -280.7809
  55   2.0000     -10.318403      -280.7780
  56   2.0000     -10.317920      -280.7649
  57   2.0000     -10.317248      -280.7466
  58   2.0000     -10.316977      -280.7392
  59   2.0000     -10.316043      -280.7138
  60   2.0000     -10.315281      -280.6931
  61   2.0000     -10.315273      -280.6928
  62   2.0000     -10.314016      -280.6587
  63   2.0000     -10.313504      -280.6447
  64   2.0000     -10.305698      -280.4323
  65   2.0000     -10.303145      -280.3628
  66   2.0000     -10.299005      -280.2502
  67   2.0000     -10.295026      -280.1419
  68   2.0000     -10.260744      -279.2090
  69   2.0000     -10.260570      -279.2043
  70   2.0000      -8.145750      -221.6571
  71   2.0000      -8.144158      -221.6138
  72   2.0000      -8.128061      -221.1758
  73   2.0000      -6.117121      -166.4553
  74   2.0000      -6.115426      -166.4092
  75   2.0000      -6.109218      -166.2403
  76   2.0000      -6.107842      -166.2028
  77   2.0000      -6.107583      -166.1958
  78   2.0000      -6.106412      -166.1639
  79   2.0000      -6.102170      -166.0485
  80   2.0000      -6.091768      -165.7654
  81   2.0000      -6.087910      -165.6604
  82   2.0000      -1.182625       -32.1809
  83   2.0000      -1.179772       -32.1032
  84   2.0000      -1.154094       -31.4045
  85   2.0000      -1.151872       -31.3440
  86   2.0000      -1.068751       -29.0822
  87   2.0000      -1.053318       -28.6622
  88   2.0000      -1.051629       -28.6163
  89   2.0000      -1.045794       -28.4575
  90   2.0000      -1.035732       -28.1837
  91   2.0000      -1.032509       -28.0960
  92   2.0000      -1.024506       -27.8782
  93   2.0000      -1.022331       -27.8191
  94   2.0000      -1.021682       -27.8014
  95   2.0000      -1.019045       -27.7296
  96   2.0000      -1.016662       -27.6648
  97   2.0000      -1.013896       -27.5895
  98   2.0000      -1.011841       -27.5336
  99   2.0000      -1.011358       -27.5204
 100   2.0000      -0.999046       -27.1854
 101   2.0000      -0.984272       -26.7834
 102   2.0000      -0.976853       -26.5815
 103   2.0000      -0.970247       -26.4018
 104   2.0000      -0.961279       -26.1577
 105   2.0000      -0.956621       -26.0310
 106   2.0000      -0.954669       -25.9779
 107   2.0000      -0.954147       -25.9637
 108   2.0000      -0.950132       -25.8544
 109   2.0000      -0.912186       -24.8219
 110   2.0000      -0.910047       -24.7637
 111   2.0000      -0.902720       -24.5643
 112   2.0000      -0.898648       -24.4535
 113   2.0000      -0.892212       -24.2783
 114   2.0000      -0.883725       -24.0474
 115   2.0000      -0.881246       -23.9799
 116   2.0000      -0.866955       -23.5910
 117   2.0000      -0.862664       -23.4743
 118   2.0000      -0.826432       -22.4883
 119   2.0000      -0.822061       -22.3694
 120   2.0000      -0.811146       -22.0724
 121   2.0000      -0.807583       -21.9754
 122   2.0000      -0.807288       -21.9674
 123   2.0000      -0.797734       -21.7074
 124   2.0000      -0.783226       -21.3127
 125   2.0000      -0.769503       -20.9392
 126   2.0000      -0.760425       -20.6922
 127   2.0000      -0.759426       -20.6650
 128   2.0000      -0.739561       -20.1245
 129   2.0000      -0.734439       -19.9851
 130   2.0000      -0.733050       -19.9473
 131   2.0000      -0.732228       -19.9249
 132   2.0000      -0.727757       -19.8033
 133   2.0000      -0.725917       -19.7532
 134   2.0000      -0.715916       -19.4811
 135   2.0000      -0.709605       -19.3093
 136   2.0000      -0.689788       -18.7701
 137   2.0000      -0.687492       -18.7076
 138   2.0000      -0.682495       -18.5716
 139   2.0000      -0.681387       -18.5415
 140   2.0000      -0.678941       -18.4749
 141   2.0000      -0.678625       -18.4663
 142   2.0000      -0.671858       -18.2822
 143   2.0000      -0.663462       -18.0537
 144   2.0000      -0.656009       -17.8509
 145   2.0000      -0.651404       -17.7256
 146   2.0000      -0.633202       -17.2303
 147   2.0000      -0.631789       -17.1918
 148   2.0000      -0.620171       -16.8757
 149   2.0000      -0.616256       -16.7692
 150   2.0000      -0.610775       -16.6200
 151   2.0000      -0.606817       -16.5123
 152   2.0000      -0.605028       -16.4637
 153   2.0000      -0.603727       -16.4282
 154   2.0000      -0.602636       -16.3986
 155   2.0000      -0.601143       -16.3579
 156   2.0000      -0.591959       -16.1080
 157   2.0000      -0.587440       -15.9851
 158   2.0000      -0.584326       -15.9003
 159   2.0000      -0.572795       -15.5866
 160   2.0000      -0.564639       -15.3646
 161   2.0000      -0.560871       -15.2621
 162   2.0000      -0.559418       -15.2225
 163   2.0000      -0.557176       -15.1615
 164   2.0000      -0.555136       -15.1060
 165   2.0000      -0.553808       -15.0699
 166   2.0000      -0.552853       -15.0439
 167   2.0000      -0.549940       -14.9646
 168   2.0000      -0.546045       -14.8586
 169   2.0000      -0.536513       -14.5993
 170   2.0000      -0.532340       -14.4857
 171   2.0000      -0.525525       -14.3003
 172   2.0000      -0.523981       -14.2582
 173   2.0000      -0.523169       -14.2361
 174   2.0000      -0.522116       -14.2075
 175   2.0000      -0.521014       -14.1775
 176   2.0000      -0.515317       -14.0225
 177   2.0000      -0.510280       -13.8854
 178   2.0000      -0.504499       -13.7281
 179   2.0000      -0.500825       -13.6281
 180   2.0000      -0.499259       -13.5855
 181   2.0000      -0.497923       -13.5492
 182   2.0000      -0.495866       -13.4932
 183   2.0000      -0.494117       -13.4456
 184   2.0000      -0.487060       -13.2536
 185   2.0000      -0.483152       -13.1472
 186   2.0000      -0.480854       -13.0847
 187   2.0000      -0.476631       -12.9698
 188   2.0000      -0.475180       -12.9303
 189   2.0000      -0.473055       -12.8725
 190   2.0000      -0.470456       -12.8018
 191   2.0000      -0.466650       -12.6982
 192   2.0000      -0.465472       -12.6661
 193   2.0000      -0.465209       -12.6590
 194   2.0000      -0.465048       -12.6546
 195   2.0000      -0.464608       -12.6426
 196   2.0000      -0.462273       -12.5791
 197   2.0000      -0.459596       -12.5063
 198   2.0000      -0.459206       -12.4956
 199   2.0000      -0.458874       -12.4866
 200   2.0000      -0.454835       -12.3767
 201   2.0000      -0.452540       -12.3143
 202   2.0000      -0.449434       -12.2297
 203   2.0000      -0.448440       -12.2027
 204   2.0000      -0.446584       -12.1522
 205   2.0000      -0.444147       -12.0858
 206   2.0000      -0.443479       -12.0677
 207   2.0000      -0.443293       -12.0626
 208   2.0000      -0.441604       -12.0166
 209   2.0000      -0.439791       -11.9673
 210   2.0000      -0.435216       -11.8428
 211   2.0000      -0.433873       -11.8063
 212   2.0000      -0.431444       -11.7402
 213   2.0000      -0.428929       -11.6718
 214   2.0000      -0.425348       -11.5743
 215   2.0000      -0.424694       -11.5565
 216   2.0000      -0.424268       -11.5449
 217   2.0000      -0.418196       -11.3797
 218   2.0000      -0.407770       -11.0960
 219   2.0000      -0.403405       -10.9772
 220   2.0000      -0.402766       -10.9598
 221   2.0000      -0.401359       -10.9215
 222   2.0000      -0.399940       -10.8829
 223   2.0000      -0.396124       -10.7791
 224   2.0000      -0.393008       -10.6943
 225   2.0000      -0.389483       -10.5984
 226   2.0000      -0.387465       -10.5435
 227   2.0000      -0.370544       -10.0830
 228   2.0000      -0.362855        -9.8738
 229   2.0000      -0.359629        -9.7860
 230   2.0000      -0.349454        -9.5091
 231   2.0000      -0.348160        -9.4739
 232   2.0000      -0.342296        -9.3144
 233   2.0000      -0.341801        -9.3009
 234   2.0000      -0.336613        -9.1597
 235   2.0000      -0.326413        -8.8822
 236   2.0000      -0.321623        -8.7518
 237   2.0000      -0.301308        -8.1990
 238   2.0000      -0.296967        -8.0809
 239   2.0000      -0.236875        -6.4457
 240   0.0000      -0.136335        -3.7099
 241   0.0000      -0.120363        -3.2752
 242   0.0000      -0.103368        -2.8128
 243   0.0000      -0.101025        -2.7490
 244   0.0000      -0.092224        -2.5095

MULLIKEN ATOMIC CHARGES
-----------------------
   0 C :   -0.033267
   1 C :    0.047324
   2 C :    0.065298
   3 C :   -0.041618
   4 C :    0.023010
   5 C :    0.004990
   6 C :    0.281795
   7 C :   -0.336042
   8 C :   -0.190088
   9 N :    0.169581
  10 C :   -0.193037
  11 N :    0.182538
  12 C :   -0.000271
  13 C :    0.234962
  14 C :   -0.288239
  15 C :   -0.197040
  16 N :    0.180236
  17 C :   -0.157788
  18 N :    0.133888
  19 C :   -0.026440
  20 C :   -0.050532
  21 N :   -0.001984
  22 N :   -0.267607
  23 C :    0.215443
  24 C :   -0.000272
  25 C :    0.042799
  26 N :   -0.241200
  27 S :    0.545996
  28 N :   -0.233197
  29 C :   -0.082198
  30 C :    0.035160
  31 N :   -0.053877
  32 C :    0.019977
  33 C :   -0.105016
  34 C :    0.015026
  35 S :    0.489009
  36 C :   -0.101115
  37 C :    0.009777
  38 N :   -0.051808
  39 C :    0.018923
  40 C :   -0.070997
  41 C :    0.227414
  42 N :   -0.276530
  43 N :    0.017848
  44 C :   -0.159341
  45 C :    0.107805
  46 C :   -0.000320
  47 N :   -0.230947
  48 S :    0.547930
  49 N :   -0.237246
  50 C :    0.051059
  51 C :   -0.037766
  52 C :    0.317643
  53 C :   -0.328407
  54 C :   -0.182828
  55 N :    0.175797
  56 C :   -0.199736
  57 N :    0.168382
  58 C :   -0.000831
  59 C :   -0.001961
  60 C :   -0.033161
  61 C :    0.053364
  62 C :    0.040554
  63 C :   -0.045689
  64 C :    0.268051
  65 C :   -0.327395
  66 C :   -0.190143
  67 N :    0.169433
  68 C :   -0.166284
  69 N :    0.162412
  70 H :    0.009638
  71 H :    0.005268
  72 H :   -0.000645
  73 H :   -0.006283
  74 H :    0.031658
  75 H :    0.001943
  76 H :   -0.003458
  77 H :    0.043017
  78 H :    0.010903
  79 H :    0.009260
  80 H :    0.007470
  81 H :    0.010027
Sum of atomic charges:   -0.0000000

LOEWDIN ATOMIC CHARGES
----------------------
   0 C :    0.006666
   1 C :    0.003828
   2 C :    0.006411
   3 C :    0.000690
   4 C :   -0.009967
   5 C :   -0.013222
   6 C :    0.074005
   7 C :   -0.119310
   8 C :   -0.018372
   9 N :   -0.036838
  10 C :   -0.029585
  11 N :   -0.025198
  12 C :   -0.027514
  13 C :    0.071147
  14 C :   -0.115257
  15 C :   -0.026144
  16 N :   -0.048854
  17 C :    0.002240
  18 N :   -0.053906
  19 C :    0.048755
  20 C :   -0.046049
  21 N :   -0.007525
  22 N :   -0.072708
  23 C :    0.041949
  24 C :   -0.057159
  25 C :   -0.053438
  26 N :   -0.260166
  27 S :    0.672165
  28 N :   -0.254895
  29 C :   -0.065503
  30 C :    0.052921
  31 N :   -0.066885
  32 C :    0.032949
  33 C :   -0.141406
  34 C :   -0.066933
  35 S :    0.636441
  36 C :   -0.126433
  37 C :   -0.003235
  38 N :   -0.062836
  39 C :    0.032983
  40 C :   -0.060364
  41 C :    0.051890
  42 N :   -0.071064
  43 N :   -0.031338
  44 C :   -0.032811
  45 C :   -0.051540
  46 C :   -0.049604
  47 N :   -0.250840
  48 S :    0.678672
  49 N :   -0.258555
  50 C :    0.071129
  51 C :   -0.021124
  52 C :    0.077292
  53 C :   -0.110983
  54 C :   -0.020902
  55 N :   -0.027542
  56 C :   -0.016549
  57 N :   -0.040065
  58 C :   -0.012952
  59 C :   -0.010356
  60 C :    0.004121
  61 C :    0.006300
  62 C :    0.003074
  63 C :   -0.001174
  64 C :    0.077468
  65 C :   -0.118074
  66 C :   -0.020163
  67 N :   -0.038257
  68 C :   -0.013999
  69 N :   -0.049927
  70 H :    0.042847
  71 H :    0.038829
  72 H :    0.034365
  73 H :    0.034898
  74 H :    0.054143
  75 H :    0.022438
  76 H :    0.020454
  77 H :    0.054715
  78 H :    0.042776
  79 H :    0.039914
  80 H :    0.037678
  81 H :    0.041370

  Mayer bond orders larger than 0.100000
B(  0-C ,  1-C ) :   1.3692 B(  0-C ,  5-C ) :   1.3802 B(  0-C , 70-H ) :   0.9840
B(  1-C ,  2-C ) :   1.3753 B(  1-C , 71-H ) :   0.9862 B(  2-C ,  3-C ) :   1.3691
B(  2-C , 72-H ) :   0.9747 B(  3-C ,  4-C ) :   1.3839 B(  3-C , 73-H ) :   0.9837
B(  4-C ,  5-C ) :   1.3073 B(  4-C , 13-C ) :   1.0063 B(  5-C ,  6-C ) :   1.0018
B(  6-C ,  7-C ) :   1.6551 B(  6-C , 12-C ) :   1.0371 B(  7-C ,  8-C ) :   1.1489
B(  7-C , 10-C ) :   1.1289 B(  8-C ,  9-N ) :   2.9793 B( 10-C , 11-N ) :   2.9889
B( 12-C , 13-C ) :   1.0144 B( 12-C , 19-C ) :   1.5773 B( 13-C , 14-C ) :   1.6745
B( 14-C , 15-C ) :   1.1609 B( 14-C , 17-C ) :   1.1523 B( 15-C , 16-N ) :   2.9832
B( 17-C , 18-N ) :   2.9171 B( 19-C , 20-C ) :   1.2159 B( 19-C , 74-H ) :   0.9216
B( 20-C , 21-N ) :   1.6237 B( 20-C , 25-C ) :   1.0496 B( 21-N , 22-N ) :   1.2250
B( 22-N , 23-C ) :   1.2006 B( 22-N , 35-S ) :   0.5046 B( 23-C , 24-C ) :   1.1009
B( 23-C , 29-C ) :   1.2906 B( 24-C , 25-C ) :   1.1803 B( 24-C , 28-N ) :   1.6266
B( 25-C , 26-N ) :   1.6189 B( 26-N , 27-S ) :   1.2428 B( 26-N , 28-N ) :   0.1253
B( 27-S , 28-N ) :   1.2546 B( 29-C , 30-C ) :   1.1913 B( 29-C , 33-C ) :   1.1675
B( 30-C , 31-N ) :   1.5696 B( 30-C , 75-H ) :   0.9967 B( 31-N , 32-C ) :   1.4192
B( 32-C , 33-C ) :   1.2968 B( 32-C , 37-C ) :   1.1009 B( 33-C , 34-C ) :   1.2215
B( 34-C , 35-S ) :   1.2319 B( 34-C , 36-C ) :   1.1414 B( 35-S , 42-N ) :   0.5258
B( 36-C , 37-C ) :   1.3436 B( 36-C , 40-C ) :   1.2081 B( 37-C , 38-N ) :   1.3958
B( 38-N , 39-C ) :   1.6009 B( 39-C , 40-C ) :   1.1772 B( 39-C , 76-H ) :   0.9990
B( 40-C , 41-C ) :   1.2553 B( 41-C , 42-N ) :   1.2134 B( 41-C , 46-C ) :   1.1001
B( 42-N , 43-N ) :   1.1693 B( 43-N , 44-C ) :   1.7021 B( 44-C , 45-C ) :   1.0533
B( 44-C , 50-C ) :   1.1012 B( 45-C , 46-C ) :   1.1856 B( 45-C , 49-N ) :   1.6090
B( 46-C , 47-N ) :   1.6251 B( 47-N , 48-S ) :   1.2624 B( 47-N , 49-N ) :   0.1277
B( 48-S , 49-N ) :   1.2533 B( 50-C , 51-C ) :   1.6991 B( 50-C , 77-H ) :   0.9198
B( 51-C , 52-C ) :   1.0310 B( 51-C , 64-C ) :   0.9893 B( 52-C , 53-C ) :   1.6722
B( 52-C , 58-C ) :   1.0050 B( 53-C , 54-C ) :   1.1327 B( 53-C , 56-C ) :   1.1508
B( 54-C , 55-N ) :   2.9788 B( 56-C , 57-N ) :   2.9733 B( 58-C , 59-C ) :   1.3045
B( 58-C , 63-C ) :   1.3803 B( 59-C , 60-C ) :   1.3707 B( 59-C , 64-C ) :   1.0174
B( 60-C , 61-C ) :   1.3693 B( 60-C , 78-H ) :   0.9854 B( 61-C , 62-C ) :   1.3675
B( 61-C , 79-H ) :   0.9873 B( 62-C , 63-C ) :   1.3591 B( 62-C , 80-H ) :   0.9871
B( 63-C , 81-H ) :   0.9825 B( 64-C , 65-C ) :   1.6732 B( 65-C , 66-C ) :   1.1395
B( 65-C , 68-C ) :   1.1708 B( 66-C , 67-N ) :   2.9901 B( 68-C , 69-N ) :   2.9556

-----------------------------------------------------------------------------
         ABSORPTION SPECTRUM VIA TRANSITION ELECTRIC DIPOLE MOMENTS
-----------------------------------------------------------------------------
State   Energy  Wavelength   fosc         T2         TX        TY        TZ
        (cm-1)    (nm)                  (au**2)     (au)      (au)      (au)
-----------------------------------------------------------------------------
   0    3920.9   2550.4   0.017327036   1.45484   0.81704   0.86812  -0.18345
   1    9628.0   1038.6   0.096110092   3.28630   1.73777  -0.49096   0.15935
   2   11517.5    868.2   0.094307374   2.69565   0.80658   1.37286  -0.40042
   3   15738.4    635.4   0.027359387   0.57230  -0.11079   0.73587  -0.13605
   4   16322.8    612.6   0.037910783   0.76462  -0.49769  -0.69413  -0.18736
   5   17066.8    585.9   0.168663007   3.25345   0.64597   1.59151  -0.55070
   6   17364.4    575.9   0.055235112   1.04720  -1.00617  -0.18652  -0.00561
   7   18220.8    548.8   0.084581210   1.52821   0.50842   1.12613  -0.03922
   8   19856.6    503.6   0.463836796   7.69017  -2.44711   1.26271  -0.32766
   9   21690.9    461.0   0.054139484   0.82170  -0.83579   0.12916  -0.32631
  10   23751.3    421.0   0.030427206   0.42175   0.13865   0.60838   0.17997
  11   24009.0    416.5   0.094538750   1.29632   0.75669  -0.84494  -0.09905
  12   24347.7    410.7   0.036846226   0.49821   0.27891  -0.60004  -0.24571
  13   24499.1    408.2   0.033734470   0.45331  -0.59072   0.31604   0.06691
  14   24924.9    401.2   0.009991357   0.13197  -0.19828  -0.09993  -0.28752
  15   25492.4    392.3   0.063019738   0.81384   0.56417  -0.10218   0.69650
  16   26064.7    383.7   0.349197758   4.41057  -1.35350   1.58481   0.25881
  17   26565.0    376.4   0.088067367   1.09139   1.02667  -0.17488  -0.08217
  18   26827.6    372.8   0.133700130   1.64069   1.27271  -0.11905  -0.08201
  19   27213.8    367.5   0.080812876   0.97761   0.89227   0.42588   0.00932
  20   27712.5    360.8   0.074062806   0.87983   0.74139   0.50778   0.26896
  21   28032.2    356.7   0.036558992   0.42935  -0.64521  -0.10795  -0.03746
  22   28343.0    352.8   0.009004412   0.10459   0.03075  -0.32128   0.02062
  23   28615.7    349.5   0.022347229   0.25710  -0.50066   0.06364  -0.04888
  24   28966.9    345.2   0.006421437   0.07298  -0.08748   0.23077  -0.10989
  25   29118.2    343.4   0.006445575   0.07287  -0.09784  -0.12564  -0.21798
  26   29251.7    341.9   0.016008631   0.18017   0.18079  -0.36570   0.11726
  27   29418.3    339.9   0.004890031   0.05472   0.21139  -0.00090   0.10018
  28   29697.9    336.7   0.015880528   0.17604   0.08440  -0.40650   0.06062
  29   29969.0    333.7   0.001129975   0.01241  -0.00419   0.06183   0.09259
  30   30205.8    331.1   0.030660343   0.33417  -0.10678   0.51162  -0.24701
  31   30244.8    330.6   0.023589677   0.25677  -0.39350   0.26750   0.17427
  32   30576.1    327.1   0.049878403   0.53704  -0.26882  -0.66994  -0.12631
  33   31022.4    322.3   0.001393940   0.01479  -0.01211   0.03486  -0.11589
  34   31488.5    317.6   0.089937502   0.94030   0.88301   0.17962  -0.35822
  35   31713.5    315.3   0.103481535   1.07422  -0.52377  -0.49384  -0.74567
  36   31949.7    313.0   0.022647111   0.23336   0.40494   0.26103   0.03523
  37   32107.4    311.5   0.018877229   0.19356   0.41215  -0.13176   0.07952
  38   32339.6    309.2   0.423380288   4.30995  -1.88279  -0.87360  -0.04336
  39   32483.5    307.8   0.434579842   4.40436   0.62590  -1.88562  -0.67605
  40   32683.0    306.0   0.031208541   0.31436   0.52431  -0.14590  -0.13478
  41   33039.1    302.7   0.039993898   0.39851  -0.19254   0.44410  -0.40523
  42   33503.0    298.5   0.030944652   0.30407   0.51060  -0.10786   0.17812
  43   33756.9    296.2   0.021207091   0.20682   0.01737   0.31339   0.32910
  44   33874.7    295.2   0.009148193   0.08891  -0.02483  -0.26449  -0.13542
  45   33978.5    294.3   0.060234521   0.58360   0.75097   0.09006   0.10737
  46   34040.2    293.8   0.059503247   0.57547  -0.38969  -0.64519   0.08567
  47   34328.4    291.3   0.122179221   1.17171   0.92507  -0.55941   0.05489
  48   34517.6    289.7   0.149312386   1.42407  -0.44442   1.03298  -0.39938
  49   34765.8    287.6   0.153619386   1.45469   0.81535   0.32953   0.82541
  50   34900.5    286.5   0.030800143   0.29053   0.42157  -0.08930  -0.32379
  51   35199.3    284.1   0.115562756   1.08084   0.11010  -1.00694  -0.23407
  52   35346.7    282.9   0.025174178   0.23447  -0.36855  -0.24945  -0.19081
  53   35458.1    282.0   0.016084810   0.14934  -0.25466  -0.22113  -0.18865
  54   35597.1    280.9   0.000514485   0.00476   0.04682  -0.00631  -0.05026
  55   35794.2    279.4   0.021962231   0.20199  -0.18159  -0.12334   0.39218
  56   35874.9    278.7   0.047024675   0.43153   0.59169   0.05345   0.28031
  57   36267.4    275.7   0.067849638   0.61590  -0.69524   0.05859  -0.35932
  58   36411.1    274.6   0.020825041   0.18829   0.18634  -0.37692  -0.10724
  59   36529.5    273.8   0.232401260   2.09445  -1.23459  -0.55290  -0.51433
  60   36898.2    271.0   0.077640093   0.69272   0.46035  -0.18712   0.66767
  61   37144.2    269.2   0.082743942   0.73337   0.71323   0.03251   0.47288
  62   37306.6    268.0   0.111301777   0.98218   0.35580  -0.74651   0.54618
  63   37688.4    265.3   0.090166427   0.78761  -0.07347  -0.88057   0.08253
  64   37774.9    264.7   0.047437465   0.41342  -0.53382   0.18015  -0.30985
  65   37846.8    264.2   0.019297869   0.16786  -0.20436  -0.16644  -0.31368
  66   38135.8    262.2   0.009113911   0.07868   0.08543  -0.21477  -0.15891
  67   38165.4    262.0   0.007138802   0.06158  -0.24364  -0.02931   0.03686
  68   38246.3    261.5   0.004219826   0.03632  -0.17403   0.07768  -0.00039
  69   38401.7    260.4   0.074431470   0.63809   0.39586   0.53988   0.43579
  70   38457.2    260.0   0.005123436   0.04386  -0.05794   0.00521  -0.20118
  71   38615.9    259.0   0.016309534   0.13904   0.07819  -0.22693   0.28536
  72   38852.0    257.4   0.022629320   0.19175   0.02679  -0.17955   0.39849
  73   39098.7    255.8   0.066857134   0.56294   0.19690  -0.57099   0.44512
  74   39192.9    255.1   0.012109113   0.10171   0.22609   0.21097   0.07803
  75   39252.4    254.8   0.035589069   0.29849  -0.54353   0.01507   0.05321
  76   39351.5    254.1   0.004862642   0.04068   0.00809   0.14541   0.13953
  77   39505.7    253.1   0.014677338   0.12231   0.11334  -0.32121  -0.07931
  78   39919.7    250.5   0.052902800   0.43628   0.18963   0.62573   0.09374
  79   40077.9    249.5   0.099868179   0.82035  -0.30896  -0.84903   0.06361
  80   40250.6    248.4   0.017762450   0.14528  -0.24061   0.29552  -0.00754
  81   40322.6    248.0   0.001499976   0.01225   0.04344   0.04728  -0.09013

FINAL SINGLE POINT ENERGY     -4050.129527011642

DIPOLE MOMENT
-------------
                                X             Y             Z
Electronic contribution:    -24.55266       8.18862     -14.69691
Nuclear contribution   :     26.53660      -8.44020      16.08068
                        -----------------------------------------
Total Dipole Moment    :      1.98393      -0.25157       1.38377
                        -----------------------------------------
Magnitude (a.u.)       :      2.43189
Magnitude (Debye)      :      6.18139

Rotational constants in cm-1:     0.001190     0.001125     0.000661
Rotational constants in MHz :    35.663727    33.720429    19.820588

                             ****ORCA TERMINATED NORMALLY****
TOTAL RUN TIME: 0 days 0 hours 11 minutes 48 seconds 225 msec
