                         Program Version 4.2.0 -  RELEASE  -
|  1> # ORCA input file
|  2> # SCF done       -187.727219899159          0.000666346011
|  3> ! CAM-B3LYP def2-SVP def2/J RIJCOSX Grid4 TightSCF
|  4> %maxcore 5000
|  5> %tddft
|  6>     Mode sTDDFT
|  7>     Ethresh 5.0
|  8>     maxcore 5000
|  9> end
| 10>
| 11> %pal
| 12>   nprocs 6
| 13>   end
| 14> * xyz 0 1
| 15>    C       -0.45790         1.10942         2.87795
| 16>    C        0.90213         1.20927         2.96711
| 17>    F        1.47868         2.40226         3.15451
| 18>    C        1.71500         0.06144         2.86406
| 19>    F        3.04427         0.19025         2.95511
| 20>    C        1.15544        -1.17084         2.67438
| 21>    C       -0.24346        -1.30658         2.57984
| 22>    C       -1.06674        -0.14712         2.68285
| 23>    C       -2.47217        -0.25915         2.58885
| 24>    C       -3.04002        -1.49341         2.40160
| 25>    C       -2.20924        -2.64541         2.30031
| 26>    C       -0.84796        -2.56694         2.38281
| 27>    C       -3.04321        -3.83766         2.08141
| 28>    O       -2.66184        -4.97368         1.90479
| 29>    C       -4.45046        -3.34191         2.04603
| 30>    C       -4.43395        -1.90237         2.27184
| 31>    C       -5.52582        -1.09102         2.39929
| 32>    C       -5.45506         0.29699         2.65036
| 33>    N       -5.45695         1.42598         2.85430
| 34>    C       -6.86642        -1.52937         2.32329
| 35>    N       -7.97581        -1.81949         2.28655
| 36>    C       -5.49679        -4.13509         1.73377
| 37>    C       -5.34729        -5.57372         1.62835
| 38>    N       -5.65323        -6.19127         0.50791
| 39>    N       -5.42984        -7.44882         0.30593
| 40>    C       -4.83484        -8.24338         1.18288
| 41>    C       -4.55190        -7.72093         2.47840
| 42>    C       -4.83405        -6.33753         2.71169
| 43>    N       -4.55038        -5.96320         3.95529
| 44>    S       -3.95474        -7.23195         4.74141
| 45>    N       -4.04468        -8.31251         3.55527
| 46>    C       -4.50870        -9.58448         0.80584
| 47>    C       -4.42918       -10.66285         1.64716
| 48>    C       -4.24255       -11.84439         0.84950
| 49>    C       -4.09081       -13.14011         1.35771
| 50>    N       -3.98616       -14.20709         1.76910
| 51>    C       -4.24740       -11.49171        -0.48236
| 52>    C       -4.38820       -10.07253        -0.57216
| 53>    C       -4.26839        -9.30319        -1.71309
| 54>    C       -4.47747        -9.75069        -3.11470
| 55>    C       -3.97351        -8.76876        -3.93278
| 56>    C       -3.49188        -7.69508        -3.11492
| 57>    C       -3.70121        -8.00281        -1.78556
| 58>    C       -2.89054        -6.52588        -3.59884
| 59>    N       -2.39729        -5.57003        -4.00061
| 60>    C       -5.17207       -10.89487        -3.56823
| 61>    C       -6.04885       -11.63975        -2.83740
| 62>    C       -6.68473       -12.83615        -3.25931
| 63>    C       -6.41722       -13.50956        -4.43800
| 64>    C       -7.01461       -14.69897        -4.82409
| 65>    C       -8.00165       -15.37202        -3.97936
| 66>    C       -8.42085       -14.90044        -2.78254
| 67>    S       -7.84722       -13.44438        -2.08988
| 68>    C       -8.36310       -16.55019        -4.68710
| 69>    C       -7.65837       -16.62511        -5.89510
| 70>    C       -7.99725       -17.79171        -6.62123
| 71>    C       -8.91814       -18.54170        -5.96318
| 72>    S       -9.41941       -17.87836        -4.44405
| 73>    C       -6.80765       -15.46831        -6.00182
| 74>    C       -5.93394       -15.11590        -7.04657
| 75>    C       -5.71087       -15.84515        -8.17907
| 76>    C       -4.83230       -15.42648        -9.19613
| 77>    C       -4.58485       -16.13057       -10.33959
| 78>    C       -3.66359       -15.65687       -11.39056
| 79>    O       -3.02766       -14.62431       -11.39096
| 80>    C       -3.68116       -16.70386       -12.44146
| 81>    C       -2.99734       -16.75854       -13.64121
| 82>    C       -3.19080       -17.86656       -14.45639
| 83>    C       -4.04690       -18.89159       -14.07764
| 84>    C       -4.73636       -18.83914       -12.87306
| 85>    C       -4.54666       -17.73759       -12.05956
| 86>    C       -5.15074       -17.43033       -10.73946
| 87>    O       -5.94632       -18.12049       -10.13167
| 88>    H       -1.06448         1.99790         2.95871
| 89>    H        1.79061        -2.03923         2.59594
| 90>    H       -3.06607         0.63749         2.66240
| 91>    H       -0.24205        -3.45612         2.29662
| 92>    H       -6.47685        -3.73162         1.52121
| 93>    H       -4.51487       -10.64706         2.71688
| 94>    H       -4.04299       -12.14885        -1.30593
| 95>    H       -3.97359        -8.76450        -5.00689
| 96>    H       -3.36256        -7.41364        -0.95714
| 97>    H       -5.01700       -11.13119        -4.61343
| 98>    H       -6.31090       -11.30152        -1.84393
| 99>    H       -5.67867       -13.07134        -5.09331
|100>    H       -9.14995       -15.41661        -2.17826
|101>    H       -7.59747       -18.08274        -7.57484
|102>    H       -9.35084       -19.47047        -6.27968
|103>    H       -5.39723       -14.18105        -6.93594
|104>    H       -6.21397       -16.78487        -8.33000
|105>    H       -4.31096       -14.48132        -9.07991
|106>    H       -2.33364       -15.95701       -13.92748
|107>    H       -2.66784       -17.93276       -15.39910
|108>    H       -4.17804       -19.74208       -14.73040
|109>    H       -5.40382       -19.63191       -12.57124
|110> *
|111>
|112>                          ****END OF INPUT****

CARTESIAN COORDINATES (ANGSTROEM)
---------------------------------
  C     -0.457900    1.109420    2.877950
  C      0.902130    1.209270    2.967110
  F      1.478680    2.402260    3.154510
  C      1.715000    0.061440    2.864060
  F      3.044270    0.190250    2.955110
  C      1.155440   -1.170840    2.674380
  C     -0.243460   -1.306580    2.579840
  C     -1.066740   -0.147120    2.682850
  C     -2.472170   -0.259150    2.588850
  C     -3.040020   -1.493410    2.401600
  C     -2.209240   -2.645410    2.300310
  C     -0.847960   -2.566940    2.382810
  C     -3.043210   -3.837660    2.081410
  O     -2.661840   -4.973680    1.904790
  C     -4.450460   -3.341910    2.046030
  C     -4.433950   -1.902370    2.271840
  C     -5.525820   -1.091020    2.399290
  C     -5.455060    0.296990    2.650360
  N     -5.456950    1.425980    2.854300
  C     -6.866420   -1.529370    2.323290
  N     -7.975810   -1.819490    2.286550
  C     -5.496790   -4.135090    1.733770
  C     -5.347290   -5.573720    1.628350
  N     -5.653230   -6.191270    0.507910
  N     -5.429840   -7.448820    0.305930
  C     -4.834840   -8.243380    1.182880
  C     -4.551900   -7.720930    2.478400
  C     -4.834050   -6.337530    2.711690
  N     -4.550380   -5.963200    3.955290
  S     -3.954740   -7.231950    4.741410
  N     -4.044680   -8.312510    3.555270
  C     -4.508700   -9.584480    0.805840
  C     -4.429180  -10.662850    1.647160
  C     -4.242550  -11.844390    0.849500
  C     -4.090810  -13.140110    1.357710
  N     -3.986160  -14.207090    1.769100
  C     -4.247400  -11.491710   -0.482360
  C     -4.388200  -10.072530   -0.572160
  C     -4.268390   -9.303190   -1.713090
  C     -4.477470   -9.750690   -3.114700
  C     -3.973510   -8.768760   -3.932780
  C     -3.491880   -7.695080   -3.114920
  C     -3.701210   -8.002810   -1.785560
  C     -2.890540   -6.525880   -3.598840
  N     -2.397290   -5.570030   -4.000610
  C     -5.172070  -10.894870   -3.568230
  C     -6.048850  -11.639750   -2.837400
  C     -6.684730  -12.836150   -3.259310
  C     -6.417220  -13.509560   -4.438000
  C     -7.014610  -14.698970   -4.824090
  C     -8.001650  -15.372020   -3.979360
  C     -8.420850  -14.900440   -2.782540
  S     -7.847220  -13.444380   -2.089880
  C     -8.363100  -16.550190   -4.687100
  C     -7.658370  -16.625110   -5.895100
  C     -7.997250  -17.791710   -6.621230
  C     -8.918140  -18.541700   -5.963180
  S     -9.419410  -17.878360   -4.444050
  C     -6.807650  -15.468310   -6.001820
  C     -5.933940  -15.115900   -7.046570
  C     -5.710870  -15.845150   -8.179070
  C     -4.832300  -15.426480   -9.196130
  C     -4.584850  -16.130570  -10.339590
  C     -3.663590  -15.656870  -11.390560
  O     -3.027660  -14.624310  -11.390960
  C     -3.681160  -16.703860  -12.441460
  C     -2.997340  -16.758540  -13.641210
  C     -3.190800  -17.866560  -14.456390
  C     -4.046900  -18.891590  -14.077640
  C     -4.736360  -18.839140  -12.873060
  C     -4.546660  -17.737590  -12.059560
  C     -5.150740  -17.430330  -10.739460
  O     -5.946320  -18.120490  -10.131670
  H     -1.064480    1.997900    2.958710
  H      1.790610   -2.039230    2.595940
  H     -3.066070    0.637490    2.662400
  H     -0.242050   -3.456120    2.296620
  H     -6.476850   -3.731620    1.521210
  H     -4.514870  -10.647060    2.716880
  H     -4.042990  -12.148850   -1.305930
  H     -3.973590   -8.764500   -5.006890
  H     -3.362560   -7.413640   -0.957140
  H     -5.017000  -11.131190   -4.613430
  H     -6.310900  -11.301520   -1.843930
  H     -5.678670  -13.071340   -5.093310
  H     -9.149950  -15.416610   -2.178260
  H     -7.597470  -18.082740   -7.574840
  H     -9.350840  -19.470470   -6.279680
  H     -5.397230  -14.181050   -6.935940
  H     -6.213970  -16.784870   -8.330000
  H     -4.310960  -14.481320   -9.079910
  H     -2.333640  -15.957010  -13.927480
  H     -2.667840  -17.932760  -15.399100
  H     -4.178040  -19.742080  -14.730400
  H     -5.403820  -19.631910  -12.571240

 Total Charge           Charge          ....    0
 Multiplicity           Mult            ....    1
 Number of Electrons    NEL             ....  510
 Basis Dimension        Dim             .... 1144

ORBITAL ENERGIES
----------------

  NO   OCC          E(Eh)            E(eV)
   0   2.0000     -89.054231     -2423.2888
   1   2.0000     -88.985828     -2421.4275
   2   2.0000     -88.958731     -2420.6901
   3   2.0000     -24.808179      -675.0649
   4   2.0000     -24.807311      -675.0412
   5   2.0000     -19.239057      -523.5214
   6   2.0000     -19.197040      -522.3780
   7   2.0000     -19.191489      -522.2270
   8   2.0000     -14.469311      -393.7300
   9   2.0000     -14.466570      -393.6554
  10   2.0000     -14.459235      -393.4558
  11   2.0000     -14.454225      -393.3195
  12   2.0000     -14.432008      -392.7149
  13   2.0000     -14.431601      -392.7038
  14   2.0000     -14.414384      -392.2353
  15   2.0000     -14.414308      -392.2333
  16   2.0000     -10.392622      -282.7976
  17   2.0000     -10.392048      -282.7820
  18   2.0000     -10.388761      -282.6925
  19   2.0000     -10.363199      -281.9970
  20   2.0000     -10.358332      -281.8645
  21   2.0000     -10.353966      -281.7457
  22   2.0000     -10.351204      -281.6706
  23   2.0000     -10.350884      -281.6619
  24   2.0000     -10.350249      -281.6446
  25   2.0000     -10.347340      -281.5654
  26   2.0000     -10.342229      -281.4264
  27   2.0000     -10.336295      -281.2649
  28   2.0000     -10.336121      -281.2602
  29   2.0000     -10.334754      -281.2229
  30   2.0000     -10.334348      -281.2119
  31   2.0000     -10.333457      -281.1877
  32   2.0000     -10.332745      -281.1683
  33   2.0000     -10.329785      -281.0877
  34   2.0000     -10.326070      -280.9867
  35   2.0000     -10.325667      -280.9757
  36   2.0000     -10.323836      -280.9259
  37   2.0000     -10.323311      -280.9116
  38   2.0000     -10.323019      -280.9036
  39   2.0000     -10.322389      -280.8865
  40   2.0000     -10.316955      -280.7386
  41   2.0000     -10.316094      -280.7152
  42   2.0000     -10.313664      -280.6491
  43   2.0000     -10.312458      -280.6162
  44   2.0000     -10.312095      -280.6064
  45   2.0000     -10.311211      -280.5823
  46   2.0000     -10.310601      -280.5657
  47   2.0000     -10.310397      -280.5602
  48   2.0000     -10.308077      -280.4970
  49   2.0000     -10.308046      -280.4962
  50   2.0000     -10.307454      -280.4801
  51   2.0000     -10.306820      -280.4628
  52   2.0000     -10.306344      -280.4499
  53   2.0000     -10.306237      -280.4470
  54   2.0000     -10.305331      -280.4223
  55   2.0000     -10.299756      -280.2706
  56   2.0000     -10.299269      -280.2574
  57   2.0000     -10.298410      -280.2340
  58   2.0000     -10.297101      -280.1984
  59   2.0000     -10.292207      -280.0652
  60   2.0000     -10.290914      -280.0300
  61   2.0000     -10.290507      -280.0189
  62   2.0000     -10.282530      -279.8019
  63   2.0000     -10.279787      -279.7272
  64   2.0000     -10.279297      -279.7139
  65   2.0000     -10.278907      -279.7033
  66   2.0000     -10.278040      -279.6797
  67   2.0000     -10.277647      -279.6690
  68   2.0000     -10.273370      -279.5526
  69   2.0000     -10.273302      -279.5508
  70   2.0000     -10.272715      -279.5348
  71   2.0000     -10.264391      -279.3083
  72   2.0000     -10.257630      -279.1243
  73   2.0000      -8.145796      -221.6584
  74   2.0000      -8.081244      -219.9018
  75   2.0000      -8.054266      -219.1677
  76   2.0000      -6.116909      -166.4496
  77   2.0000      -6.109034      -166.2353
  78   2.0000      -6.108514      -166.2211
  79   2.0000      -6.050665      -164.6470
  80   2.0000      -6.046146      -164.5240
  81   2.0000      -6.043392      -164.4490
  82   2.0000      -6.023688      -163.9129
  83   2.0000      -6.019433      -163.7971
  84   2.0000      -6.016324      -163.7125
  85   2.0000      -1.331040       -36.2195
  86   2.0000      -1.316096       -35.8128
  87   2.0000      -1.160443       -31.5773
  88   2.0000      -1.152694       -31.3664
  89   2.0000      -1.135365       -30.8949
  90   2.0000      -1.110608       -30.2212
  91   2.0000      -1.103614       -30.0309
  92   2.0000      -1.035544       -28.1786
  93   2.0000      -1.024730       -27.8843
  94   2.0000      -1.018344       -27.7105
  95   2.0000      -1.012908       -27.5626
  96   2.0000      -1.010947       -27.5093
  97   2.0000      -1.009652       -27.4740
  98   2.0000      -1.005666       -27.3656
  99   2.0000      -0.995493       -27.0887
 100   2.0000      -0.993037       -27.0219
 101   2.0000      -0.984848       -26.7991
 102   2.0000      -0.980481       -26.6802
 103   2.0000      -0.965126       -26.2624
 104   2.0000      -0.960709       -26.1422
 105   2.0000      -0.943944       -25.6860
 106   2.0000      -0.937830       -25.5196
 107   2.0000      -0.934162       -25.4198
 108   2.0000      -0.923330       -25.1251
 109   2.0000      -0.914133       -24.8748
 110   2.0000      -0.911542       -24.8043
 111   2.0000      -0.904883       -24.6231
 112   2.0000      -0.891297       -24.2534
 113   2.0000      -0.887444       -24.1486
 114   2.0000      -0.883607       -24.0442
 115   2.0000      -0.877367       -23.8744
 116   2.0000      -0.853642       -23.2288
 117   2.0000      -0.853285       -23.2191
 118   2.0000      -0.850990       -23.1566
 119   2.0000      -0.841376       -22.8950
 120   2.0000      -0.838783       -22.8244
 121   2.0000      -0.826205       -22.4822
 122   2.0000      -0.820228       -22.3195
 123   2.0000      -0.808231       -21.9931
 124   2.0000      -0.804597       -21.8942
 125   2.0000      -0.792290       -21.5593
 126   2.0000      -0.785897       -21.3853
 127   2.0000      -0.782863       -21.3028
 128   2.0000      -0.758244       -20.6329
 129   2.0000      -0.756473       -20.5847
 130   2.0000      -0.750217       -20.4144
 131   2.0000      -0.743503       -20.2318
 132   2.0000      -0.736693       -20.0464
 133   2.0000      -0.730160       -19.8687
 134   2.0000      -0.725867       -19.7518
 135   2.0000      -0.720348       -19.6017
 136   2.0000      -0.718146       -19.5418
 137   2.0000      -0.712330       -19.3835
 138   2.0000      -0.699613       -19.0374
 139   2.0000      -0.690468       -18.7886
 140   2.0000      -0.684492       -18.6260
 141   2.0000      -0.676804       -18.4168
 142   2.0000      -0.671562       -18.2741
 143   2.0000      -0.668539       -18.1919
 144   2.0000      -0.661252       -17.9936
 145   2.0000      -0.658996       -17.9322
 146   2.0000      -0.656142       -17.8545
 147   2.0000      -0.654410       -17.8074
 148   2.0000      -0.651211       -17.7203
 149   2.0000      -0.641128       -17.4460
 150   2.0000      -0.640572       -17.4309
 151   2.0000      -0.629250       -17.1228
 152   2.0000      -0.628304       -17.0970
 153   2.0000      -0.623704       -16.9718
 154   2.0000      -0.617549       -16.8044
 155   2.0000      -0.613017       -16.6810
 156   2.0000      -0.606690       -16.5089
 157   2.0000      -0.603292       -16.4164
 158   2.0000      -0.596941       -16.2436
 159   2.0000      -0.595438       -16.2027
 160   2.0000      -0.594091       -16.1660
 161   2.0000      -0.590879       -16.0786
 162   2.0000      -0.583293       -15.8722
 163   2.0000      -0.582121       -15.8403
 164   2.0000      -0.573939       -15.6177
 165   2.0000      -0.565943       -15.4001
 166   2.0000      -0.563322       -15.3288
 167   2.0000      -0.558789       -15.2054
 168   2.0000      -0.556756       -15.1501
 169   2.0000      -0.556693       -15.1484
 170   2.0000      -0.554512       -15.0890
 171   2.0000      -0.549476       -14.9520
 172   2.0000      -0.548163       -14.9163
 173   2.0000      -0.544424       -14.8145
 174   2.0000      -0.543776       -14.7969
 175   2.0000      -0.538308       -14.6481
 176   2.0000      -0.536880       -14.6092
 177   2.0000      -0.533460       -14.5162
 178   2.0000      -0.528471       -14.3804
 179   2.0000      -0.527846       -14.3634
 180   2.0000      -0.525968       -14.3123
 181   2.0000      -0.521024       -14.1778
 182   2.0000      -0.520180       -14.1548
 183   2.0000      -0.517608       -14.0848
 184   2.0000      -0.516750       -14.0615
 185   2.0000      -0.515539       -14.0285
 186   2.0000      -0.514104       -13.9895
 187   2.0000      -0.513924       -13.9846
 188   2.0000      -0.512542       -13.9470
 189   2.0000      -0.511920       -13.9301
 190   2.0000      -0.507445       -13.8083
 191   2.0000      -0.503597       -13.7036
 192   2.0000      -0.503520       -13.7015
 193   2.0000      -0.501570       -13.6484
 194   2.0000      -0.500577       -13.6214
 195   2.0000      -0.498817       -13.5735
 196   2.0000      -0.495436       -13.4815
 197   2.0000      -0.490395       -13.3443
 198   2.0000      -0.483621       -13.1600
 199   2.0000      -0.482961       -13.1420
 200   2.0000      -0.479846       -13.0573
 201   2.0000      -0.475640       -12.9428
 202   2.0000      -0.474070       -12.9001
 203   2.0000      -0.467364       -12.7176
 204   2.0000      -0.463954       -12.6248
 205   2.0000      -0.460326       -12.5261
 206   2.0000      -0.459134       -12.4937
 207   2.0000      -0.458671       -12.4811
 208   2.0000      -0.455743       -12.4014
 209   2.0000      -0.453256       -12.3337
 210   2.0000      -0.452564       -12.3149
 211   2.0000      -0.445835       -12.1318
 212   2.0000      -0.445310       -12.1175
 213   2.0000      -0.444757       -12.1024
 214   2.0000      -0.443836       -12.0774
 215   2.0000      -0.443064       -12.0564
 216   2.0000      -0.443050       -12.0560
 217   2.0000      -0.442324       -12.0363
 218   2.0000      -0.441645       -12.0178
 219   2.0000      -0.440102       -11.9758
 220   2.0000      -0.439166       -11.9503
 221   2.0000      -0.434257       -11.8167
 222   2.0000      -0.429630       -11.6908
 223   2.0000      -0.427499       -11.6328
 224   2.0000      -0.426078       -11.5942
 225   2.0000      -0.425526       -11.5792
 226   2.0000      -0.424879       -11.5615
 227   2.0000      -0.418467       -11.3871
 228   2.0000      -0.417440       -11.3591
 229   2.0000      -0.415633       -11.3100
 230   2.0000      -0.414126       -11.2689
 231   2.0000      -0.411034       -11.1848
 232   2.0000      -0.404082       -10.9956
 233   2.0000      -0.399270       -10.8647
 234   2.0000      -0.396144       -10.7796
 235   2.0000      -0.389910       -10.6100
 236   2.0000      -0.385032       -10.4773
 237   2.0000      -0.373820       -10.1722
 238   2.0000      -0.365502        -9.9458
 239   2.0000      -0.356968        -9.7136
 240   2.0000      -0.345085        -9.3902
 241   2.0000      -0.344099        -9.3634
 242   2.0000      -0.333388        -9.0719
 243   2.0000      -0.330452        -8.9920
 244   2.0000      -0.330161        -8.9841
 245   2.0000      -0.326888        -8.8951
 246   2.0000      -0.325961        -8.8699
 247   2.0000      -0.313524        -8.5314
 248   2.0000      -0.312599        -8.5063
 249   2.0000      -0.309356        -8.4180
 250   2.0000      -0.306455        -8.3391
 251   2.0000      -0.304464        -8.2849
 252   2.0000      -0.294661        -8.0181
 253   2.0000      -0.273439        -7.4407
 254   2.0000      -0.231846        -6.3089
 255   0.0000      -0.134803        -3.6682
 256   0.0000      -0.111923        -3.0456
 257   0.0000      -0.088145        -2.3986
 258   0.0000      -0.080258        -2.1839
 259   0.0000      -0.072646        -1.9768

MULLIKEN ATOMIC CHARGES
-----------------------
   0 C :   -0.105834
   1 C :    0.243925
   2 F :   -0.166506
   3 C :    0.241804
   4 F :   -0.167867
   5 C :   -0.101832
   6 C :    0.115321
   7 C :    0.113396
   8 C :   -0.079440
   9 C :    0.055005
  10 C :   -0.008939
  11 C :   -0.070661
  12 C :    0.168888
  13 O :   -0.152527
  14 C :   -0.067804
  15 C :    0.307060
  16 C :   -0.324034
  17 C :   -0.182577
  18 N :    0.162310
  19 C :   -0.195070
  20 N :    0.173071
  21 C :   -0.001217
  22 C :   -0.077754
  23 N :   -0.029279
  24 N :   -0.073200
  25 C :   -0.033409
  26 C :    0.048291
  27 C :    0.073813
  28 N :   -0.250877
  29 S :    0.541476
  30 N :   -0.251714
  31 C :    0.020975
  32 C :    0.006510
  33 C :   -0.108091
  34 C :   -0.131600
  35 N :    0.145061
  36 C :   -0.032644
  37 C :    0.026686
  38 C :    0.081092
  39 C :    0.077945
  40 C :   -0.015888
  41 C :   -0.109170
  42 C :    0.031673
  43 C :   -0.128346
  44 N :    0.142908
  45 C :    0.004491
  46 C :    0.007684
  47 C :   -0.091132
  48 C :   -0.030836
  49 C :    0.068145
  50 C :    0.062803
  51 C :   -0.125539
  52 S :    0.155804
  53 C :   -0.114931
  54 C :    0.055740
  55 C :   -0.008095
  56 C :   -0.063291
  57 S :    0.129873
  58 C :    0.093771
  59 C :    0.004266
  60 C :   -0.008912
  61 C :   -0.005995
  62 C :   -0.149018
  63 C :    0.156286
  64 O :   -0.157005
  65 C :    0.000752
  66 C :   -0.029804
  67 C :    0.038047
  68 C :    0.038765
  69 C :   -0.028168
  70 C :    0.001027
  71 C :    0.167836
  72 O :   -0.173685
  73 H :    0.011670
  74 H :    0.003030
  75 H :   -0.003500
  76 H :   -0.007217
  77 H :    0.054342
  78 H :    0.005249
  79 H :    0.018070
  80 H :   -0.004827
  81 H :   -0.001489
  82 H :   -0.003459
  83 H :    0.020463
  84 H :   -0.019836
  85 H :    0.041651
  86 H :    0.018311
  87 H :    0.028785
  88 H :   -0.035192
  89 H :    0.002550
  90 H :   -0.004892
  91 H :   -0.009513
  92 H :   -0.006719
  93 H :   -0.006247
  94 H :   -0.011040
Sum of atomic charges:   -0.0000000

LOEWDIN ATOMIC CHARGES
----------------------
   0 C :   -0.027956
   1 C :    0.070335
   2 F :   -0.044678
   3 C :    0.070912
   4 F :   -0.045408
   5 C :   -0.030956
   6 C :   -0.007083
   7 C :   -0.003686
   8 C :    0.021493
   9 C :   -0.022416
  10 C :   -0.054901
  11 C :    0.036944
  12 C :    0.093230
  13 O :   -0.137810
  14 C :   -0.058167
  15 C :    0.072676
  16 C :   -0.117792
  17 C :   -0.016491
  18 N :   -0.038692
  19 C :   -0.020966
  20 N :   -0.033524
  21 C :    0.082332
  22 C :   -0.016898
  23 N :   -0.032434
  24 N :   -0.051231
  25 C :    0.010191
  26 C :   -0.054185
  27 C :   -0.051793
  28 N :   -0.271066
  29 S :    0.678868
  30 N :   -0.268404
  31 C :   -0.051670
  32 C :    0.045844
  33 C :   -0.073628
  34 C :   -0.033392
  35 N :   -0.045452
  36 C :    0.018352
  37 C :    0.027941
  38 C :    0.072801
  39 C :   -0.028323
  40 C :    0.001878
  41 C :   -0.047916
  42 C :    0.012355
  43 C :   -0.027685
  44 N :   -0.040621
  45 C :   -0.004833
  46 C :   -0.041423
  47 C :   -0.168447
  48 C :   -0.012101
  49 C :   -0.002948
  50 C :   -0.048435
  51 C :   -0.139045
  52 S :    0.472417
  53 C :   -0.200384
  54 C :   -0.030938
  55 C :   -0.058348
  56 C :   -0.157619
  57 S :    0.424532
  58 C :   -0.053310
  59 C :    0.022216
  60 C :   -0.044976
  61 C :    0.072125
  62 C :   -0.139774
  63 C :    0.073589
  64 O :   -0.158474
  65 C :   -0.043790
  66 C :    0.005840
  67 C :   -0.007695
  68 C :   -0.008539
  69 C :    0.005325
  70 C :   -0.043356
  71 C :    0.080175
  72 O :   -0.164894
  73 H :    0.049191
  74 H :    0.046303
  75 H :    0.041064
  76 H :    0.041818
  77 H :    0.055777
  78 H :    0.036641
  79 H :    0.039357
  80 H :    0.034383
  81 H :    0.033371
  82 H :    0.036279
  83 H :    0.031491
  84 H :    0.035469
  85 H :    0.038985
  86 H :    0.039833
  87 H :    0.025629
  88 H :    0.025633
  89 H :    0.030378
  90 H :    0.035861
  91 H :    0.036471
  92 H :    0.031307
  93 H :    0.031251
  94 H :    0.035692

  Mayer bond orders larger than 0.100000
B(  0-C ,  1-C ) :   1.4443 B(  0-C ,  5-C ) :   0.1073 B(  0-C ,  7-C ) :   1.1864
B(  0-C , 73-H ) :   1.0070 B(  1-C ,  2-F ) :   1.1401 B(  1-C ,  3-C ) :   1.1855
B(  3-C ,  4-F ) :   1.1373 B(  3-C ,  5-C ) :   1.4455 B(  5-C ,  6-C ) :   1.1902
B(  5-C , 74-H ) :   1.0073 B(  6-C ,  7-C ) :   1.2494 B(  6-C , 11-C ) :   1.1959
B(  7-C ,  8-C ) :   1.2254 B(  8-C ,  9-C ) :   1.4412 B(  8-C , 75-H ) :   0.9901
B(  9-C , 10-C ) :   1.2180 B(  9-C , 15-C ) :   1.0004 B( 10-C , 11-C ) :   1.4662
B( 10-C , 12-C ) :   0.9627 B( 11-C , 76-H ) :   1.0169 B( 12-C , 13-O ) :   2.1916
B( 12-C , 14-C ) :   0.9176 B( 14-C , 15-C ) :   1.0248 B( 14-C , 21-C ) :   1.7862
B( 15-C , 16-C ) :   1.6807 B( 16-C , 17-C ) :   1.1390 B( 16-C , 19-C ) :   1.1409
B( 17-C , 18-N ) :   2.9672 B( 19-C , 20-N ) :   2.9849 B( 21-C , 22-C ) :   1.0143
B( 21-C , 77-H ) :   0.9351 B( 22-C , 23-N ) :   1.6946 B( 22-C , 25-C ) :   0.1180
B( 22-C , 27-C ) :   1.1211 B( 23-N , 24-N ) :   1.2097 B( 24-N , 25-C ) :   1.6746
B( 25-C , 26-C ) :   1.1192 B( 25-C , 31-C ) :   1.0598 B( 26-C , 27-C ) :   1.2077
B( 26-C , 30-N ) :   1.5552 B( 27-C , 28-N ) :   1.5376 B( 28-N , 29-S ) :   1.2831
B( 28-N , 30-N ) :   0.1448 B( 29-S , 30-N ) :   1.2807 B( 31-C , 32-C ) :   1.6031
B( 31-C , 37-C ) :   1.0724 B( 32-C , 33-C ) :   1.1091 B( 32-C , 78-H ) :   1.0120
B( 33-C , 34-C ) :   1.0562 B( 33-C , 36-C ) :   1.5825 B( 34-C , 35-N ) :   3.0438
B( 36-C , 37-C ) :   1.1094 B( 36-C , 79-H ) :   1.0126 B( 37-C , 38-C ) :   1.4449
B( 38-C , 39-C ) :   1.0206 B( 38-C , 42-C ) :   1.1368 B( 39-C , 40-C ) :   1.5411
B( 39-C , 45-C ) :   1.1695 B( 40-C , 41-C ) :   1.1102 B( 40-C , 80-H ) :   1.0221
B( 41-C , 42-C ) :   1.5894 B( 41-C , 43-C ) :   1.0625 B( 42-C , 81-H ) :   1.0088
B( 43-C , 44-N ) :   3.0397 B( 45-C , 46-C ) :   1.6304 B( 45-C , 82-H ) :   0.9560
B( 46-C , 47-C ) :   1.1261 B( 46-C , 83-H ) :   0.9551 B( 47-C , 48-C ) :   1.4956
B( 47-C , 52-S ) :   1.0732 B( 48-C , 49-C ) :   1.2908 B( 48-C , 84-H ) :   0.9615
B( 49-C , 50-C ) :   1.0545 B( 49-C , 58-C ) :   1.3184 B( 50-C , 51-C ) :   1.5892
B( 50-C , 53-C ) :   1.1908 B( 51-C , 52-S ) :   1.1523 B( 51-C , 85-H ) :   0.9402
B( 53-C , 54-C ) :   1.4366 B( 53-C , 57-S ) :   1.0816 B( 54-C , 55-C ) :   1.2119
B( 54-C , 58-C ) :   1.0938 B( 55-C , 56-C ) :   1.5944 B( 55-C , 86-H ) :   0.9970
B( 56-C , 57-S ) :   1.1493 B( 56-C , 87-H ) :   0.9624 B( 58-C , 59-C ) :   1.1755
B( 59-C , 60-C ) :   1.5273 B( 59-C , 88-H ) :   0.9696 B( 60-C , 61-C ) :   1.1561
B( 60-C , 89-H ) :   0.9846 B( 61-C , 62-C ) :   1.5614 B( 61-C , 90-H ) :   0.9816
B( 62-C , 63-C ) :   0.9625 B( 62-C , 71-C ) :   0.9758 B( 63-C , 64-O ) :   2.2581
B( 63-C , 65-C ) :   0.9105 B( 65-C , 66-C ) :   1.3913 B( 65-C , 70-C ) :   1.3537
B( 66-C , 67-C ) :   1.3555 B( 66-C , 91-H ) :   1.0036 B( 67-C , 68-C ) :   1.3839
B( 67-C , 92-H ) :   0.9881 B( 68-C , 69-C ) :   1.3556 B( 68-C , 93-H ) :   0.9879
B( 69-C , 70-C ) :   1.3862 B( 69-C , 94-H ) :   1.0038 B( 70-C , 71-C ) :   0.9334
B( 71-C , 72-O ) :   2.1757

-----------------------------------------------------------------------------
         ABSORPTION SPECTRUM VIA TRANSITION ELECTRIC DIPOLE MOMENTS
-----------------------------------------------------------------------------
State   Energy  Wavelength   fosc         T2         TX        TY        TZ
        (cm-1)    (nm)                  (au**2)     (au)      (au)      (au)
-----------------------------------------------------------------------------
   0    6697.3   1493.1   0.193674462   9.52018  -0.70061  -2.04832  -2.19857
   1   13503.1    740.6   0.006909610   0.16846  -0.02401   0.28729   0.29214
   2   16020.5    624.2   0.040292049   0.82798  -0.16388  -0.38046  -0.81017
   3   16788.2    595.7   0.041941167   0.82245   0.20448  -0.46542  -0.75101
   4   17045.7    586.7   0.046698694   0.90192  -0.39172   0.64258   0.57928
   5   18000.9    555.5   0.921959291  16.86140   0.35534  -2.43764  -3.28528
   6   19848.5    503.8   0.006383679   0.10588  -0.22326  -0.21530   0.09840
   7   20905.0    478.4   0.077509948   1.22063   0.60273   0.91117  -0.16465
   8   21775.9    459.2   0.030334757   0.45861   0.18718  -0.18608  -0.62366
   9   22250.0    449.4   0.075815958   1.12178  -0.30173   0.42379   0.92257
  10   23445.8    426.5   0.290855552   4.08402   0.20277   1.93941   0.53065
  11   24838.1    402.6   0.085512328   1.13341   0.62669   0.81407   0.27920
  12   25306.3    395.2   0.000004991   0.00006  -0.00765   0.00205  -0.00150
  13   25736.1    388.6   0.156917570   2.00727  -1.16903   0.64537   0.47341
  14   26056.1    383.8   0.102346536   1.29312   0.77222  -0.40214  -0.73149
  15   26356.8    379.4   0.008845460   0.11049  -0.29320   0.12120  -0.09913
  16   26483.6    377.6   0.058128534   0.72258   0.17881   0.44872   0.69947
  17   26659.6    375.1   0.011246374   0.13888  -0.07422   0.00998   0.36506
  18   27177.3    368.0   0.141921428   1.71917  -0.79092   0.02555   1.04544
  19   27462.0    364.1   0.190706374   2.28617  -0.58567  -0.56188   1.27571
  20   28060.9    356.4   0.387837118   4.55012   0.70845   1.06160  -1.70916
  21   28374.9    352.4   0.155749075   1.80704  -0.27231  -1.11147   0.70535
  22   28652.1    349.0   0.088764846   1.01991   0.77093   0.61588   0.21508
  23   29185.0    342.6   0.064255779   0.72482   0.46314   0.20502  -0.68431
  24   29213.5    342.3   0.000024618   0.00028  -0.01100   0.00477   0.01156
  25   29317.3    341.1   0.021456938   0.24095   0.12712   0.46085   0.11139
  26   29721.7    336.5   0.041154679   0.45585   0.64137  -0.17609  -0.11616
  27   29820.9    335.3   0.000099621   0.00110   0.00728  -0.02620   0.01898
  28   30148.2    331.7   0.130215978   1.42193  -0.55406  -1.04182   0.17193
  29   30950.4    323.1   0.020586657   0.21898  -0.25778  -0.22479   0.31937
  30   31132.6    321.2   0.234476761   2.47947   0.66556   1.42556  -0.06549
  31   31522.4    317.2   0.175660028   1.83455   1.09146   0.77971   0.18795
  32   31737.3    315.1   0.130597210   1.35469  -0.43636  -0.86461   0.64554
  33   31890.2    313.6   0.020242550   0.20897  -0.18666   0.14610  -0.39088
  34   32702.4    305.8   0.078173961   0.78697  -0.19624  -0.45804   0.73394
  35   32833.4    304.6   0.000410780   0.00412  -0.04638   0.04413   0.00455
  36   32848.5    304.4   0.042033429   0.42126  -0.25368   0.40248   0.44150
  37   33067.6    302.4   0.136822363   1.36216  -0.56423  -0.90806  -0.46823
  38   33330.0    300.0   0.047761627   0.47176   0.50850  -0.10933  -0.44859
  39   33434.4    299.1   0.102404226   1.00832   0.91245  -0.41699  -0.04332
  40   33563.7    297.9   0.542175134   5.31796   2.29366   0.21647  -0.10102
  41   33627.2    297.4   0.505850149   4.95229   0.92521   1.91559   0.65330
  42   33749.2    296.3   0.053626033   0.52310  -0.32019  -0.64797  -0.02681
  43   34126.5    293.0   0.093738800   0.90428  -0.94052  -0.13929   0.01749
  44   34234.3    292.1   0.051881302   0.49891   0.25466   0.10861  -0.64982
  45   34457.2    290.2   0.117361524   1.12130   0.44406   0.88582  -0.37340
  46   34702.6    288.2   0.002960065   0.02808   0.05122  -0.13089   0.09124
  47   35390.9    282.6   0.018549006   0.17255   0.40184  -0.02502  -0.10221
  48   35552.5    281.3   0.166289065   1.53982  -0.70272  -0.99300   0.24483
  49   35742.5    279.8   0.000002428   0.00002   0.00285  -0.00377  -0.00011
  50   35795.2    279.4   0.065195811   0.59961   0.29636   0.66502  -0.26369
  51   35873.1    278.8   0.019446815   0.17847   0.11987   0.27705  -0.29553
  52   35968.5    278.0   0.025424238   0.23270  -0.09477  -0.47254   0.02064
  53   36104.5    277.0   0.000278366   0.00254  -0.02379   0.01865  -0.04031
  54   36112.4    276.9   0.010293775   0.09384  -0.09993   0.11684   0.26496
  55   36310.4    275.4   0.031166824   0.28258  -0.50294  -0.00145   0.17212
  56   36409.7    274.7   0.045632557   0.41260  -0.50885  -0.37216   0.12319
  57   36743.2    272.2   0.071134395   0.63735  -0.49133   0.62713  -0.05150
  58   36930.8    270.8   0.016933784   0.15095  -0.09870  -0.11693  -0.35713
  59   37114.1    269.4   0.011620639   0.10308  -0.19483   0.18228   0.17859
  60   37243.3    268.5   0.105368185   0.93140  -0.90931   0.26306  -0.18802
  61   37494.3    266.7   0.089855485   0.78896   0.33763  -0.72323  -0.38974
  62   37603.7    265.9   0.076447119   0.66928   0.30444  -0.75897   0.02375
  63   37659.1    265.5   0.000004451   0.00004   0.00088   0.00117  -0.00606
  64   38652.2    258.7   0.010244823   0.08726   0.06230   0.27212   0.09659
  65   38779.8    257.9   0.021116619   0.17926  -0.08940  -0.30585   0.27880
  66   39021.2    256.3   0.015364066   0.12962   0.07571   0.23134  -0.26528
  67   39236.5    254.9   0.057929408   0.48605  -0.11570  -0.65736  -0.20136
  68   39353.1    254.1   0.057041418   0.47719  -0.25277  -0.63740  -0.08372
  69   39865.6    250.8   0.110953877   0.91626   0.28651   0.02691  -0.91294
  70   40013.7    249.9   0.028219708   0.23218  -0.03730  -0.24185  -0.41508
  71   40027.4    249.8   0.025404990   0.20895  -0.13609  -0.04059   0.43449

FINAL SINGLE POINT ENERGY     -4238.842119444149

DIPOLE MOMENT
-------------
                                X             Y             Z
Electronic contribution:     13.40499      63.91129      63.63222
Nuclear contribution   :    -13.02166     -64.51207     -61.94342
                        -----------------------------------------
Total Dipole Moment    :      0.38333      -0.60078       1.68880
                        -----------------------------------------
Magnitude (a.u.)       :      1.83301
Magnitude (Debye)      :      4.65914

Rotational constants in cm-1:     0.001480     0.000247     0.000226
Rotational constants in MHz :    44.371217     7.414541     6.781472

                             ****ORCA TERMINATED NORMALLY****
TOTAL RUN TIME: 0 days 0 hours 10 minutes 47 seconds 290 msec
