                         Program Version 4.2.0 -  RELEASE  -
|  1> # ORCA input file
|  2> # SCF done       -152.050907621777          0.000459186112
|  3> ! CAM-B3LYP def2-SVP def2/J RIJCOSX Grid4 TightSCF
|  4> %maxcore 5000
|  5> %tddft
|  6>     Mode sTDDFT
|  7>     Ethresh 5.0
|  8>     maxcore 5000
|  9> end
| 10>
| 11> %pal
| 12>   nprocs 6
| 13>   end
| 14> * xyz 0 1
| 15>    C       -4.85113        -3.08430         3.82433
| 16>    C       -3.58643        -3.01144         3.33143
| 17>    C       -3.12509        -1.68054         3.28209
| 18>    C       -4.08627        -0.76395         3.75386
| 19>    S       -5.52929        -1.54002         4.24688
| 20>    C       -3.55207         0.53816         3.67451
| 21>    C       -2.24447         0.44974         3.14992
| 22>    C       -1.94412        -0.95821         2.88874
| 23>    C       -0.77803        -1.46320         2.37796
| 24>    C        0.31362        -0.64531         2.02890
| 25>    N        1.21290         0.00719         1.73984
| 26>    C       -0.59120        -2.84292         2.16553
| 27>    N       -0.43122        -3.96579         1.98919
| 28>    C       -1.61326         1.67228         3.02770
| 29>    C       -2.42013         2.73325         3.45611
| 30>    S       -3.99646         2.15570         4.01582
| 31>    C       -2.16419         4.10336         3.50402
| 32>    C       -1.01315         4.77391         3.13379
| 33>    C       -0.82332         6.16804         3.22435
| 34>    C        0.40848         6.59866         2.80755
| 35>    C        1.24641         5.56447         2.36627
| 36>    S        0.43417         4.02663         2.48989
| 37>    C        2.55538         5.65071         1.88897
| 38>    C        3.35778         6.78983         1.75430
| 39>    C        4.61405         6.52113         1.26388
| 40>    C        4.84221         5.16722         0.99187
| 41>    S        3.42109         4.22656         1.37340
| 42>    C        6.01409         4.59356         0.49408
| 43>    C        6.16766         3.25588         0.22770
| 44>    C        7.33609         2.66629        -0.25548
| 45>    C        7.52585         1.31201        -0.55773
| 46>    C        8.78621         1.01023        -1.01195
| 47>    C        9.63961         2.12084        -1.07867
| 48>    S        8.80417         3.56396        -0.56090
| 49>    C       10.97470         2.15180        -1.47358
| 50>    C       11.76860         1.08002        -1.91764
| 51>    C       13.05463         1.43209        -2.21423
| 52>    C       13.34517         2.80256        -2.01390
| 53>    S       11.90714         3.62864        -1.44800
| 54>    C       14.57317         3.38630        -2.21810
| 55>    C       14.93658         4.72843        -2.01115
| 56>    S       16.59825         5.19895        -2.32570
| 57>    C       16.31870         6.83971        -1.82903
| 58>    C       14.97471         6.99477        -1.48799
| 59>    C       14.21380         5.81695        -1.57250
| 60>    N       14.39612         8.19277        -1.00843
| 61>    O       15.04146         9.22649        -1.08982
| 62>    O       13.27816         8.12892        -0.53719
| 63>    C       17.38518         7.78563        -1.88939
| 64>    S       17.16905         9.31570        -2.67558
| 65>    C       18.82338         9.67189        -2.60364
| 66>    C       19.55351         8.69179        -1.95691
| 67>    C       18.72324         7.60091        -1.53199
| 68>    C       19.31604         6.57759        -0.74082
| 69>    C       18.55654         5.58379        -0.08753
| 70>    N       17.98876         4.78897         0.51526
| 71>    C       20.67424         6.60758        -0.49988
| 72>    C       21.48495         7.64212        -0.99491
| 73>    C       20.94012         8.68304        -1.69093
| 74>    H       -5.45058        -3.95981         3.97405
| 75>    H       -3.01661        -3.86808         3.02047
| 76>    H       -0.61775         1.80692         2.64925
| 77>    H       -2.96562         4.72436         3.88426
| 78>    H       -1.59684         6.81676         3.59578
| 79>    H        0.72017         7.62747         2.81080
| 80>    H        3.01099         7.77270         2.01762
| 81>    H        5.36974         7.26799         1.09605
| 82>    H        6.84560         5.26288         0.31203
| 83>    H        5.32896         2.59245         0.39964
| 84>    H        6.73760         0.59039        -0.43558
| 85>    H        9.10640         0.02215        -1.28843
| 86>    H       11.38109         0.08136        -2.00789
| 87>    H       13.80640         0.74758        -2.56466
| 88>    H       15.36138         2.73116        -2.56450
| 89>    H       13.17403         5.79730        -1.30570
| 90>    H       19.19620        10.58823        -3.01649
| 91>    H       21.11583         5.82835         0.10380
| 92>    H       22.54352         7.61849        -0.78638
| 93>    H       21.54492         9.50852        -2.03352
| 94> *
| 95>
| 96>                          ****END OF INPUT****

CARTESIAN COORDINATES (ANGSTROEM)
---------------------------------
  C     -4.851130   -3.084300    3.824330
  C     -3.586430   -3.011440    3.331430
  C     -3.125090   -1.680540    3.282090
  C     -4.086270   -0.763950    3.753860
  S     -5.529290   -1.540020    4.246880
  C     -3.552070    0.538160    3.674510
  C     -2.244470    0.449740    3.149920
  C     -1.944120   -0.958210    2.888740
  C     -0.778030   -1.463200    2.377960
  C      0.313620   -0.645310    2.028900
  N      1.212900    0.007190    1.739840
  C     -0.591200   -2.842920    2.165530
  N     -0.431220   -3.965790    1.989190
  C     -1.613260    1.672280    3.027700
  C     -2.420130    2.733250    3.456110
  S     -3.996460    2.155700    4.015820
  C     -2.164190    4.103360    3.504020
  C     -1.013150    4.773910    3.133790
  C     -0.823320    6.168040    3.224350
  C      0.408480    6.598660    2.807550
  C      1.246410    5.564470    2.366270
  S      0.434170    4.026630    2.489890
  C      2.555380    5.650710    1.888970
  C      3.357780    6.789830    1.754300
  C      4.614050    6.521130    1.263880
  C      4.842210    5.167220    0.991870
  S      3.421090    4.226560    1.373400
  C      6.014090    4.593560    0.494080
  C      6.167660    3.255880    0.227700
  C      7.336090    2.666290   -0.255480
  C      7.525850    1.312010   -0.557730
  C      8.786210    1.010230   -1.011950
  C      9.639610    2.120840   -1.078670
  S      8.804170    3.563960   -0.560900
  C     10.974700    2.151800   -1.473580
  C     11.768600    1.080020   -1.917640
  C     13.054630    1.432090   -2.214230
  C     13.345170    2.802560   -2.013900
  S     11.907140    3.628640   -1.448000
  C     14.573170    3.386300   -2.218100
  C     14.936580    4.728430   -2.011150
  S     16.598250    5.198950   -2.325700
  C     16.318700    6.839710   -1.829030
  C     14.974710    6.994770   -1.487990
  C     14.213800    5.816950   -1.572500
  N     14.396120    8.192770   -1.008430
  O     15.041460    9.226490   -1.089820
  O     13.278160    8.128920   -0.537190
  C     17.385180    7.785630   -1.889390
  S     17.169050    9.315700   -2.675580
  C     18.823380    9.671890   -2.603640
  C     19.553510    8.691790   -1.956910
  C     18.723240    7.600910   -1.531990
  C     19.316040    6.577590   -0.740820
  C     18.556540    5.583790   -0.087530
  N     17.988760    4.788970    0.515260
  C     20.674240    6.607580   -0.499880
  C     21.484950    7.642120   -0.994910
  C     20.940120    8.683040   -1.690930
  H     -5.450580   -3.959810    3.974050
  H     -3.016610   -3.868080    3.020470
  H     -0.617750    1.806920    2.649250
  H     -2.965620    4.724360    3.884260
  H     -1.596840    6.816760    3.595780
  H      0.720170    7.627470    2.810800
  H      3.010990    7.772700    2.017620
  H      5.369740    7.267990    1.096050
  H      6.845600    5.262880    0.312030
  H      5.328960    2.592450    0.399640
  H      6.737600    0.590390   -0.435580
  H      9.106400    0.022150   -1.288430
  H     11.381090    0.081360   -2.007890
  H     13.806400    0.747580   -2.564660
  H     15.361380    2.731160   -2.564500
  H     13.174030    5.797300   -1.305700
  H     19.196200   10.588230   -3.016490
  H     21.115830    5.828350    0.103800
  H     22.543520    7.618490   -0.786380
  H     21.544920    9.508520   -2.033520

 Total Charge           Charge          ....    0
 Multiplicity           Mult            ....    1
 Number of Electrons    NEL             ....  462
 Basis Dimension        Dim             ....  958

ORBITAL ENERGIES
----------------

  NO   OCC          E(Eh)            E(eV)
   0   2.0000     -88.976498     -2421.1736
   1   2.0000     -88.975989     -2421.1597
   2   2.0000     -88.973922     -2421.1035
   3   2.0000     -88.965594     -2420.8769
   4   2.0000     -88.947626     -2420.3880
   5   2.0000     -88.946819     -2420.3660
   6   2.0000     -88.945639     -2420.3339
   7   2.0000     -88.944767     -2420.3101
   8   2.0000     -19.231600      -523.3184
   9   2.0000     -19.230465      -523.2876
  10   2.0000     -14.639425      -398.3590
  11   2.0000     -14.419646      -392.3785
  12   2.0000     -14.419580      -392.3767
  13   2.0000     -14.397201      -391.7678
  14   2.0000     -10.351584      -281.6809
  15   2.0000     -10.339715      -281.3580
  16   2.0000     -10.330396      -281.1044
  17   2.0000     -10.321087      -280.8511
  18   2.0000     -10.320606      -280.8380
  19   2.0000     -10.320407      -280.8326
  20   2.0000     -10.320332      -280.8305
  21   2.0000     -10.313385      -280.6415
  22   2.0000     -10.313203      -280.6365
  23   2.0000     -10.312907      -280.6285
  24   2.0000     -10.312541      -280.6185
  25   2.0000     -10.311155      -280.5808
  26   2.0000     -10.310753      -280.5699
  27   2.0000     -10.309740      -280.5423
  28   2.0000     -10.308717      -280.5145
  29   2.0000     -10.308676      -280.5133
  30   2.0000     -10.308476      -280.5079
  31   2.0000     -10.308173      -280.4996
  32   2.0000     -10.305177      -280.4181
  33   2.0000     -10.305033      -280.4142
  34   2.0000     -10.304595      -280.4023
  35   2.0000     -10.300176      -280.2820
  36   2.0000     -10.299607      -280.2666
  37   2.0000     -10.298174      -280.2276
  38   2.0000     -10.296551      -280.1834
  39   2.0000     -10.292922      -280.0847
  40   2.0000     -10.291257      -280.0393
  41   2.0000     -10.290196      -280.0105
  42   2.0000     -10.287275      -279.9310
  43   2.0000     -10.286466      -279.9090
  44   2.0000     -10.286210      -279.9020
  45   2.0000     -10.286050      -279.8977
  46   2.0000     -10.284799      -279.8636
  47   2.0000     -10.284633      -279.8591
  48   2.0000     -10.284061      -279.8435
  49   2.0000     -10.284001      -279.8419
  50   2.0000     -10.283825      -279.8371
  51   2.0000     -10.283370      -279.8247
  52   2.0000     -10.282206      -279.7931
  53   2.0000     -10.281929      -279.7855
  54   2.0000     -10.281839      -279.7831
  55   2.0000     -10.281421      -279.7717
  56   2.0000     -10.280650      -279.7507
  57   2.0000     -10.279799      -279.7275
  58   2.0000     -10.279765      -279.7266
  59   2.0000      -8.071439      -219.6350
  60   2.0000      -8.070445      -219.6080
  61   2.0000      -8.068433      -219.5532
  62   2.0000      -8.060771      -219.3447
  63   2.0000      -8.043300      -218.8693
  64   2.0000      -8.042687      -218.8526
  65   2.0000      -8.042000      -218.8340
  66   2.0000      -8.041178      -218.8116
  67   2.0000      -6.040721      -164.3764
  68   2.0000      -6.039296      -164.3376
  69   2.0000      -6.037675      -164.2935
  70   2.0000      -6.036333      -164.2570
  71   2.0000      -6.034728      -164.2133
  72   2.0000      -6.033981      -164.1930
  73   2.0000      -6.033916      -164.1912
  74   2.0000      -6.033718      -164.1858
  75   2.0000      -6.030686      -164.1033
  76   2.0000      -6.030090      -164.0871
  77   2.0000      -6.025941      -163.9742
  78   2.0000      -6.022761      -163.8877
  79   2.0000      -6.013006      -163.6222
  80   2.0000      -6.012412      -163.6061
  81   2.0000      -6.011583      -163.5835
  82   2.0000      -6.010745      -163.5607
  83   2.0000      -6.008841      -163.5089
  84   2.0000      -6.008265      -163.4932
  85   2.0000      -6.007589      -163.4748
  86   2.0000      -6.006721      -163.4512
  87   2.0000      -6.004483      -163.3903
  88   2.0000      -6.003783      -163.3712
  89   2.0000      -6.003171      -163.3546
  90   2.0000      -6.002369      -163.3328
  91   2.0000      -1.311315       -35.6827
  92   2.0000      -1.128655       -30.7123
  93   2.0000      -1.029843       -28.0235
  94   2.0000      -1.014521       -27.6065
  95   2.0000      -1.010166       -27.4880
  96   2.0000      -0.996916       -27.1275
  97   2.0000      -0.996698       -27.1215
  98   2.0000      -0.995629       -27.0925
  99   2.0000      -0.991875       -26.9903
 100   2.0000      -0.982479       -26.7346
 101   2.0000      -0.981255       -26.7013
 102   2.0000      -0.973700       -26.4957
 103   2.0000      -0.970703       -26.4142
 104   2.0000      -0.944109       -25.6905
 105   2.0000      -0.941931       -25.6312
 106   2.0000      -0.909764       -24.7559
 107   2.0000      -0.905124       -24.6297
 108   2.0000      -0.898837       -24.4586
 109   2.0000      -0.890945       -24.2439
 110   2.0000      -0.878270       -23.8989
 111   2.0000      -0.870400       -23.6848
 112   2.0000      -0.856705       -23.3121
 113   2.0000      -0.851698       -23.1759
 114   2.0000      -0.843241       -22.9458
 115   2.0000      -0.841342       -22.8941
 116   2.0000      -0.840941       -22.8832
 117   2.0000      -0.839440       -22.8423
 118   2.0000      -0.834163       -22.6987
 119   2.0000      -0.820752       -22.3338
 120   2.0000      -0.820195       -22.3186
 121   2.0000      -0.809603       -22.0304
 122   2.0000      -0.795836       -21.6558
 123   2.0000      -0.786795       -21.4098
 124   2.0000      -0.768841       -20.9212
 125   2.0000      -0.765530       -20.8311
 126   2.0000      -0.751720       -20.4553
 127   2.0000      -0.741154       -20.1678
 128   2.0000      -0.733958       -19.9720
 129   2.0000      -0.715459       -19.4686
 130   2.0000      -0.697152       -18.9705
 131   2.0000      -0.691536       -18.8177
 132   2.0000      -0.690222       -18.7819
 133   2.0000      -0.678700       -18.4684
 134   2.0000      -0.674229       -18.3467
 135   2.0000      -0.672401       -18.2970
 136   2.0000      -0.662777       -18.0351
 137   2.0000      -0.656009       -17.8509
 138   2.0000      -0.648461       -17.6455
 139   2.0000      -0.643351       -17.5065
 140   2.0000      -0.636445       -17.3185
 141   2.0000      -0.628588       -17.1047
 142   2.0000      -0.626913       -17.0592
 143   2.0000      -0.622284       -16.9332
 144   2.0000      -0.620447       -16.8832
 145   2.0000      -0.618885       -16.8407
 146   2.0000      -0.616444       -16.7743
 147   2.0000      -0.606877       -16.5140
 148   2.0000      -0.602896       -16.4056
 149   2.0000      -0.600987       -16.3537
 150   2.0000      -0.592841       -16.1320
 151   2.0000      -0.591030       -16.0827
 152   2.0000      -0.585669       -15.9369
 153   2.0000      -0.578513       -15.7421
 154   2.0000      -0.567885       -15.4529
 155   2.0000      -0.561576       -15.2813
 156   2.0000      -0.557253       -15.1636
 157   2.0000      -0.557095       -15.1593
 158   2.0000      -0.547488       -14.8979
 159   2.0000      -0.546809       -14.8794
 160   2.0000      -0.532972       -14.5029
 161   2.0000      -0.526237       -14.3196
 162   2.0000      -0.525344       -14.2953
 163   2.0000      -0.519646       -14.1403
 164   2.0000      -0.516831       -14.0637
 165   2.0000      -0.513620       -13.9763
 166   2.0000      -0.509884       -13.8747
 167   2.0000      -0.503666       -13.7055
 168   2.0000      -0.499065       -13.5802
 169   2.0000      -0.498474       -13.5642
 170   2.0000      -0.496735       -13.5169
 171   2.0000      -0.493914       -13.4401
 172   2.0000      -0.493303       -13.4234
 173   2.0000      -0.491797       -13.3825
 174   2.0000      -0.489759       -13.3270
 175   2.0000      -0.488785       -13.3005
 176   2.0000      -0.484725       -13.1901
 177   2.0000      -0.481393       -13.0994
 178   2.0000      -0.476409       -12.9638
 179   2.0000      -0.474932       -12.9236
 180   2.0000      -0.473146       -12.8750
 181   2.0000      -0.465665       -12.6714
 182   2.0000      -0.464408       -12.6372
 183   2.0000      -0.460029       -12.5180
 184   2.0000      -0.458298       -12.4709
 185   2.0000      -0.457603       -12.4520
 186   2.0000      -0.456541       -12.4231
 187   2.0000      -0.452648       -12.3172
 188   2.0000      -0.451608       -12.2889
 189   2.0000      -0.450672       -12.2634
 190   2.0000      -0.448985       -12.2175
 191   2.0000      -0.446980       -12.1629
 192   2.0000      -0.437961       -11.9175
 193   2.0000      -0.436461       -11.8767
 194   2.0000      -0.434002       -11.8098
 195   2.0000      -0.432830       -11.7779
 196   2.0000      -0.429785       -11.6950
 197   2.0000      -0.428593       -11.6626
 198   2.0000      -0.428090       -11.6489
 199   2.0000      -0.426434       -11.6039
 200   2.0000      -0.426343       -11.6014
 201   2.0000      -0.424472       -11.5505
 202   2.0000      -0.418558       -11.3895
 203   2.0000      -0.415833       -11.3154
 204   2.0000      -0.414587       -11.2815
 205   2.0000      -0.412676       -11.2295
 206   2.0000      -0.405742       -11.0408
 207   2.0000      -0.400435       -10.8964
 208   2.0000      -0.399277       -10.8649
 209   2.0000      -0.393423       -10.7056
 210   2.0000      -0.387159       -10.5351
 211   2.0000      -0.378040       -10.2870
 212   2.0000      -0.373757       -10.1704
 213   2.0000      -0.370708       -10.0875
 214   2.0000      -0.360216        -9.8020
 215   2.0000      -0.358255        -9.7486
 216   2.0000      -0.348297        -9.4776
 217   2.0000      -0.336783        -9.1643
 218   2.0000      -0.335933        -9.1412
 219   2.0000      -0.333019        -9.0619
 220   2.0000      -0.329440        -8.9645
 221   2.0000      -0.325081        -8.8459
 222   2.0000      -0.320813        -8.7298
 223   2.0000      -0.319639        -8.6978
 224   2.0000      -0.318222        -8.6593
 225   2.0000      -0.309774        -8.4294
 226   2.0000      -0.299030        -8.1370
 227   2.0000      -0.275038        -7.4842
 228   2.0000      -0.259529        -7.0622
 229   2.0000      -0.230778        -6.2798
 230   2.0000      -0.184350        -5.0164
 231   0.0000      -0.107569        -2.9271
 232   0.0000      -0.088829        -2.4172
 233   0.0000      -0.063045        -1.7155
 234   0.0000      -0.047851        -1.3021
 235   0.0000      -0.033743        -0.9182

MULLIKEN ATOMIC CHARGES
-----------------------
   0 C :   -0.088409
   1 C :    0.045865
   2 C :   -0.048088
   3 C :   -0.112748
   4 S :    0.169683
   5 C :   -0.108559
   6 C :   -0.000838
   7 C :    0.309258
   8 C :   -0.303157
   9 C :   -0.182618
  10 N :    0.162786
  11 C :   -0.194118
  12 N :    0.167879
  13 C :   -0.047957
  14 C :   -0.089029
  15 S :    0.167450
  16 C :    0.024011
  17 C :   -0.029130
  18 C :    0.026472
  19 C :    0.022326
  20 C :   -0.029113
  21 S :    0.066892
  22 C :   -0.035397
  23 C :    0.010571
  24 C :    0.032349
  25 C :   -0.030462
  26 S :    0.100264
  27 C :   -0.005071
  28 C :   -0.009339
  29 C :   -0.028866
  30 C :    0.032658
  31 C :    0.012272
  32 C :   -0.036930
  33 S :    0.092090
  34 C :   -0.037112
  35 C :    0.027587
  36 C :    0.031288
  37 C :   -0.029725
  38 S :    0.070822
  39 C :    0.051500
  40 C :   -0.070655
  41 S :    0.182409
  42 C :   -0.190509
  43 C :    0.177539
  44 C :   -0.047978
  45 N :    0.275795
  46 O :   -0.267974
  47 O :   -0.238293
  48 C :   -0.205198
  49 S :    0.263015
  50 C :   -0.123957
  51 C :    0.059159
  52 C :    0.199167
  53 C :   -0.102887
  54 C :   -0.225086
  55 N :    0.118027
  56 C :    0.026722
  57 C :    0.013863
  58 C :    0.029325
  59 H :    0.031541
  60 H :    0.008473
  61 H :    0.023367
  62 H :   -0.019798
  63 H :   -0.014639
  64 H :   -0.013725
  65 H :   -0.014172
  66 H :   -0.008829
  67 H :   -0.001379
  68 H :    0.006143
  69 H :   -0.004929
  70 H :   -0.012908
  71 H :   -0.012866
  72 H :   -0.012233
  73 H :   -0.017285
  74 H :    0.011701
  75 H :    0.024381
  76 H :   -0.002264
  77 H :   -0.004135
  78 H :   -0.016284
Sum of atomic charges:   -0.0000000

LOEWDIN ATOMIC CHARGES
----------------------
   0 C :   -0.184358
   1 C :   -0.033464
   2 C :   -0.087293
   3 C :   -0.172700
   4 S :    0.464328
   5 C :   -0.200312
   6 C :   -0.060476
   7 C :    0.085139
   8 C :   -0.109181
   9 C :   -0.016547
  10 N :   -0.039926
  11 C :   -0.016215
  12 N :   -0.040115
  13 C :   -0.043537
  14 C :   -0.157993
  15 S :    0.456515
  16 C :   -0.086318
  17 C :   -0.145592
  18 C :   -0.039070
  19 C :   -0.036657
  20 C :   -0.183475
  21 S :    0.404382
  22 C :   -0.172419
  23 C :   -0.039042
  24 C :   -0.032920
  25 C :   -0.149023
  26 S :    0.399371
  27 C :   -0.053862
  28 C :   -0.054519
  29 C :   -0.147811
  30 C :   -0.030958
  31 C :   -0.037907
  32 C :   -0.171628
  33 S :    0.389663
  34 C :   -0.182088
  35 C :   -0.033183
  36 C :   -0.035875
  37 C :   -0.137829
  38 S :    0.396317
  39 C :   -0.083201
  40 C :   -0.156399
  41 S :    0.493397
  42 C :   -0.167481
  43 C :   -0.074855
  44 C :   -0.058303
  45 N :    0.288456
  46 O :   -0.232653
  47 O :   -0.202492
  48 C :   -0.222934
  49 S :    0.566343
  50 C :   -0.185002
  51 C :   -0.059615
  52 C :   -0.029143
  53 C :   -0.075140
  54 C :   -0.046844
  55 N :   -0.063853
  56 C :    0.022579
  57 C :   -0.037744
  58 C :    0.013889
  59 H :    0.025339
  60 H :    0.041472
  61 H :    0.024262
  62 H :    0.032622
  63 H :    0.032259
  64 H :    0.032096
  65 H :    0.031466
  66 H :    0.035087
  67 H :    0.030406
  68 H :    0.032342
  69 H :    0.036709
  70 H :    0.031908
  71 H :    0.032603
  72 H :    0.033463
  73 H :    0.033730
  74 H :    0.025908
  75 H :    0.027161
  76 H :    0.041031
  77 H :    0.033614
  78 H :    0.034097

  Mayer bond orders larger than 0.100000
B(  0-C ,  1-C ) :   1.5587 B(  0-C ,  4-S ) :   1.1310 B(  0-C , 59-H ) :   0.9643
B(  1-C ,  2-C ) :   1.2692 B(  1-C , 60-H ) :   0.9946 B(  2-C ,  3-C ) :   1.4280
B(  2-C ,  7-C ) :   1.0377 B(  3-C ,  4-S ) :   1.1350 B(  3-C ,  5-C ) :   1.2224
B(  5-C ,  6-C ) :   1.4244 B(  5-C , 15-S ) :   1.1017 B(  6-C ,  7-C ) :   0.9841
B(  6-C , 13-C ) :   1.3659 B(  7-C ,  8-C ) :   1.6913 B(  8-C ,  9-C ) :   1.1396
B(  8-C , 11-C ) :   1.1337 B(  9-C , 10-N ) :   2.9789 B( 11-C , 12-N ) :   3.0016
B( 13-C , 14-C ) :   1.3751 B( 13-C , 61-H ) :   0.9684 B( 14-C , 15-S ) :   1.0947
B( 14-C , 16-C ) :   1.2118 B( 16-C , 17-C ) :   1.5360 B( 16-C , 62-H ) :   0.9502
B( 17-C , 18-C ) :   1.1866 B( 17-C , 21-S ) :   1.0535 B( 18-C , 19-C ) :   1.5323
B( 18-C , 63-H ) :   0.9997 B( 19-C , 20-C ) :   1.2402 B( 19-C , 64-H ) :   0.9949
B( 20-C , 21-S ) :   1.0555 B( 20-C , 22-C ) :   1.4097 B( 22-C , 23-C ) :   1.2546
B( 22-C , 26-S ) :   1.0694 B( 23-C , 24-C ) :   1.4994 B( 23-C , 65-H ) :   0.9963
B( 24-C , 25-C ) :   1.2236 B( 24-C , 66-H ) :   1.0016 B( 25-C , 26-S ) :   1.0583
B( 25-C , 27-C ) :   1.4473 B( 27-C , 28-C ) :   1.2772 B( 27-C , 67-H ) :   0.9737
B( 28-C , 29-C ) :   1.4536 B( 28-C , 68-H ) :   0.9723 B( 29-C , 30-C ) :   1.2179
B( 29-C , 33-S ) :   1.0548 B( 30-C , 31-C ) :   1.5091 B( 30-C , 69-H ) :   1.0020
B( 31-C , 32-C ) :   1.2425 B( 31-C , 70-H ) :   0.9958 B( 32-C , 33-S ) :   1.0631
B( 32-C , 34-C ) :   1.4346 B( 34-C , 35-C ) :   1.2232 B( 34-C , 38-S ) :   1.0479
B( 35-C , 36-C ) :   1.5570 B( 35-C , 71-H ) :   0.9939 B( 36-C , 37-C ) :   1.1633
B( 36-C , 72-H ) :   0.9986 B( 37-C , 38-S ) :   1.0496 B( 37-C , 39-C ) :   1.5839
B( 39-C , 40-C ) :   1.1659 B( 39-C , 73-H ) :   0.9495 B( 40-C , 41-S ) :   1.0947
B( 40-C , 44-C ) :   1.4386 B( 41-S , 42-C ) :   1.1889 B( 42-C , 43-C ) :   1.4596
B( 42-C , 48-C ) :   1.1001 B( 43-C , 44-C ) :   1.2674 B( 43-C , 45-N ) :   0.9403
B( 44-C , 74-H ) :   0.9780 B( 45-N , 46-O ) :   1.4756 B( 45-N , 47-O ) :   1.5482
B( 46-O , 47-O ) :   0.2573 B( 48-C , 49-S ) :   1.1875 B( 48-C , 50-C ) :   0.1116
B( 48-C , 52-C ) :   1.3721 B( 49-S , 50-C ) :   1.2695 B( 50-C , 51-C ) :   1.3752
B( 50-C , 75-H ) :   0.9692 B( 51-C , 52-C ) :   1.1924 B( 51-C , 58-C ) :   1.1918
B( 52-C , 53-C ) :   1.2068 B( 53-C , 54-C ) :   1.0813 B( 53-C , 56-C ) :   1.5568
B( 54-C , 55-N ) :   3.0423 B( 56-C , 57-C ) :   1.2066 B( 56-C , 76-H ) :   0.9928
B( 57-C , 58-C ) :   1.5299 B( 57-C , 77-H ) :   0.9865 B( 58-C , 78-H ) :   0.9993

-----------------------------------------------------------------------------
         ABSORPTION SPECTRUM VIA TRANSITION ELECTRIC DIPOLE MOMENTS
-----------------------------------------------------------------------------
State   Energy  Wavelength   fosc         T2         TX        TY        TZ
        (cm-1)    (nm)                  (au**2)     (au)      (au)      (au)
-----------------------------------------------------------------------------
   0    5156.6   1939.3   0.608210237  38.83020  -5.79581  -1.41857   1.79622
   1    8222.6   1216.2   0.668462849  26.76368   4.91453  -0.30787  -1.58627
   2   13544.4    738.3   0.022292745   0.54185  -0.50715   0.50548   0.17070
   3   15544.1    643.3   0.048292674   1.02280   0.98124   0.24456  -0.01237
   4   16907.5    591.5   0.023105383   0.44989  -0.04141   0.65251   0.14968
   5   18541.4    539.3   0.037343791   0.66306   0.54622  -0.58341   0.15600
   6   21002.7    476.1   0.091324563   1.43149   0.26485   1.15655   0.15405
   7   21569.8    463.6   0.017920903   0.27352  -0.21501   0.47367   0.05415
   8   23295.6    429.3   0.043831585   0.61943  -0.43392  -0.65644  -0.01511
   9   24248.6    412.4   0.556293846   7.55253  -1.47362  -2.31968  -0.00694
  10   24936.8    401.0   0.075858826   1.00148   0.12320  -0.95859  -0.25962
  11   26262.5    380.8   0.545470646   6.83773   0.65204   2.52180   0.23040
  12   27593.6    362.4   0.242094615   2.88836   0.35693  -1.60474  -0.43102
  13   28352.1    352.7   0.013785020   0.16007  -0.04853   0.39585  -0.03189
  14   29252.1    341.9   0.242608956   2.73040   0.72063   1.48645   0.03925
  15   29656.9    337.2   0.056907024   0.63171  -0.21696   0.75304   0.13256
  16   30024.1    333.1   0.002695672   0.02956   0.14396  -0.03009   0.08905
  17   30164.2    331.5   0.055661708   0.60749  -0.36320  -0.60710   0.32712
  18   30423.9    328.7   0.255521096   2.76495   1.17346  -1.06501  -0.50369
  19   31188.4    320.6   0.342012415   3.61014   1.72534   0.53659  -0.58772
  20   31592.0    316.5   0.000544835   0.00568   0.00016   0.07439   0.01198
  21   31987.7    312.6   0.131344250   1.35177  -0.14498   1.07605   0.41578
  22   32275.0    309.8   0.105943523   1.08065  -0.68940  -0.77155   0.10045
  23   32833.0    304.6   0.059758770   0.59919  -0.70610  -0.07255   0.30878
  24   33179.6    301.4   0.000479980   0.00476   0.06085   0.02509  -0.02075
  25   33232.3    300.9   0.000810357   0.00803  -0.01611   0.07728   0.04237
  26   33533.4    298.2   0.182707008   1.79371   1.03494  -0.77516  -0.34892
  27   33866.6    295.3   0.010682628   0.10384   0.02856  -0.14049   0.28860
  28   34131.5    293.0   0.066224936   0.63877  -0.73486  -0.30261   0.08465
  29   34278.5    291.7   0.061778332   0.59332   0.71397   0.23284  -0.17131
  30   34770.1    287.6   0.029176815   0.27625  -0.38642  -0.19986  -0.29493
  31   34868.1    286.8   0.062653133   0.59155  -0.07833   0.72302  -0.25030
  32   35161.9    284.4   0.002536285   0.02375   0.05109   0.14496  -0.01116
  33   35519.3    281.5   0.003259972   0.03022  -0.12685  -0.01832   0.11742
  34   35524.2    281.5   0.005709951   0.05292   0.20969   0.02048  -0.09234
  35   35873.5    278.8   0.024558198   0.22537   0.41968  -0.06574  -0.21193
  36   36422.7    274.6   0.037900637   0.34257  -0.43882   0.36774   0.12156
  37   36456.4    274.3   0.003193248   0.02884   0.12525  -0.10015   0.05586
  38   36570.2    273.4   0.013686694   0.12321  -0.01529  -0.31475   0.15462
  39   36795.2    271.8   0.000418233   0.00374  -0.03881   0.03717  -0.02923
  40   36850.1    271.4   0.008323488   0.07436   0.18049  -0.20337   0.02056
  41   37378.3    267.5   0.013489327   0.11881  -0.30564   0.06802   0.14411
  42   37474.8    266.8   0.013970645   0.12273  -0.08728  -0.33926  -0.00420
  43   37826.4    264.4   0.003437360   0.02992  -0.04796   0.14058   0.08862
  44   38573.5    259.2   0.057303763   0.48907   0.25049  -0.55098  -0.35034
  45   39041.6    256.1   0.095196504   0.80273  -0.14699  -0.86751  -0.16897
  46   39253.0    254.8   0.041819336   0.35074   0.52944  -0.18918  -0.18612
  47   39602.6    252.5   0.129201990   1.07404  -0.66331   0.68010  -0.41414
  48   39917.5    250.5   0.017937451   0.14794  -0.38160   0.02857  -0.03878

FINAL SINGLE POINT ENERGY     -5277.919030915421

DIPOLE MOMENT
-------------
                                X             Y             Z
Electronic contribution:    -15.32540      -3.28449       2.67581
Nuclear contribution   :     15.19818       4.21266      -3.35887
                        -----------------------------------------
Total Dipole Moment    :     -0.12723       0.92817      -0.68307
                        -----------------------------------------
Magnitude (a.u.)       :      1.15943
Magnitude (Debye)      :      2.94703

Rotational constants in cm-1:     0.002968     0.000227     0.000214
Rotational constants in MHz :    88.969883     6.799259     6.402575

                             ****ORCA TERMINATED NORMALLY****
TOTAL RUN TIME: 0 days 0 hours 8 minutes 13 seconds 948 msec
