                         Program Version 4.2.0 -  RELEASE  -
|  1> # ORCA input file
|  2> # SCF done       -180.730513082047          0.000340268774
|  3> ! CAM-B3LYP def2-SVP def2/J RIJCOSX Grid4 TightSCF
|  4> %maxcore 5000
|  5> %tddft
|  6>     Mode sTDDFT
|  7>     Ethresh 5.0
|  8>     maxcore 5000
|  9> end
| 10>
| 11> %pal
| 12>   nprocs 6
| 13>   end
| 14> * xyz 0 1
| 15>    C        1.14991        -2.66014         2.98283
| 16>    C        0.39687        -2.54777         1.85337
| 17>    C        0.12213        -1.19992         1.55393
| 18>    C        0.68730        -0.32025         2.48474
| 19>    S        1.54535        -1.13950         3.71189
| 20>    C        0.36065         1.01439         2.10922
| 21>    C       -0.41257         0.96637         0.93864
| 22>    C       -0.58699        -0.42670         0.54971
| 23>    C       -1.27139        -0.89879        -0.53186
| 24>    C       -1.92330        -0.04251        -1.44438
| 25>    N       -2.45666         0.64382        -2.19229
| 26>    C       -1.37245        -2.27777        -0.81158
| 27>    N       -1.45596        -3.39809        -1.04194
| 28>    C       -0.78915         2.22873         0.48587
| 29>    C       -0.30827         3.23835         1.30168
| 30>    S        0.62664         2.60346         2.65088
| 31>    C       -0.50820         4.64509         1.13275
| 32>    C        0.01883         5.60450         1.98821
| 33>    F        0.76458         5.22084         3.04251
| 34>    C       -0.17334         6.97983         1.83111
| 35>    F        0.40825         7.77345         2.75093
| 36>    C       -0.91520         7.54679         0.80188
| 37>    C       -1.47548         6.59886        -0.10230
| 38>    C       -1.27619         5.18134         0.05902
| 39>    N       -1.88972         4.48984        -0.89831
| 40>    S       -2.63647         5.49983        -1.89574
| 41>    N       -2.22368         6.86901        -1.16902
| 42>    C       -1.11083         8.95598         0.65172
| 43>    C       -1.84173         9.59269        -0.33819
| 44>    C       -1.83279        10.97662        -0.18666
| 45>    C       -1.08681        11.39818         0.92891
| 46>    S       -0.40129        10.09898         1.78556
| 47>    C       -1.14153        12.81236         1.00362
| 48>    C       -1.92332        13.28666        -0.06552
| 49>    C       -2.38236        12.15019        -0.84981
| 50>    C       -3.16336        12.16902        -1.96748
| 51>    C       -3.65001        13.36617        -2.53475
| 52>    N       -4.05338        14.32924        -3.00819
| 53>    C       -3.54232        10.98695        -2.63917
| 54>    N       -3.85683        10.03377        -3.19366
| 55>    C       -2.04105        14.67554        -0.06955
| 56>    C       -1.35675        15.25678         0.98603
| 57>    S       -0.55145        14.06596         1.99657
| 58>    C       -1.24640        16.63895         1.33853
| 59>    C       -1.83926        17.69536         0.65610
| 60>    F       -2.57709        17.46833        -0.44204
| 61>    C       -1.71938        19.03201         1.05576
| 62>    F       -2.35717        19.94274         0.29617
| 63>    C       -1.00178        19.45815         2.16808
| 64>    C       -0.36596        18.40650         2.88775
| 65>    C       -0.49197        17.03602         2.47576
| 66>    N        0.17236        16.21237         3.28103
| 67>    S        0.88754        17.06639         4.44136
| 68>    N        0.38821        18.51769         3.97875
| 69>    C       -0.90415        20.82432         2.58071
| 70>    C       -0.21019        21.30246         3.67924
| 71>    C       -0.32914        22.68304         3.81240
| 72>    C       -1.11917        23.26306         2.80717
| 73>    S       -1.71258        22.11566         1.70078
| 74>    C       -1.17749        24.66720         3.04148
| 75>    C       -0.42786        24.96367         4.18649
| 76>    C        0.13243        23.73164         4.71175
| 77>    C        0.92240        23.57920         5.81365
| 78>    C        1.31161        24.67240         6.61578
| 79>    N        1.63139        25.55797         7.27037
| 80>    C        1.40364        22.31926         6.22805
| 81>    N        1.79909        21.30037         6.57550
| 82>    C       -0.43661        26.33728         4.49400
| 83>    C       -1.17800        27.04089         3.59360
| 84>    S       -1.88333        26.06011         2.35233
| 85>    H        1.50735        -3.55776         3.44643
| 86>    H        0.06129        -3.38793         1.27351
| 87>    H       -1.38119         2.43312        -0.38649
| 88>    H       -2.34427         9.04756        -1.11523
| 89>    H       -2.59600        15.23391        -0.80011
| 90>    H        0.34352        20.65459         4.33252
| 91>    H        0.07185        26.78424         5.32857
| 92>    H       -1.36103        28.09666         3.57732
| 93> *
| 94>
| 95>                          ****END OF INPUT****

CARTESIAN COORDINATES (ANGSTROEM)
---------------------------------
  C      1.149910   -2.660140    2.982830
  C      0.396870   -2.547770    1.853370
  C      0.122130   -1.199920    1.553930
  C      0.687300   -0.320250    2.484740
  S      1.545350   -1.139500    3.711890
  C      0.360650    1.014390    2.109220
  C     -0.412570    0.966370    0.938640
  C     -0.586990   -0.426700    0.549710
  C     -1.271390   -0.898790   -0.531860
  C     -1.923300   -0.042510   -1.444380
  N     -2.456660    0.643820   -2.192290
  C     -1.372450   -2.277770   -0.811580
  N     -1.455960   -3.398090   -1.041940
  C     -0.789150    2.228730    0.485870
  C     -0.308270    3.238350    1.301680
  S      0.626640    2.603460    2.650880
  C     -0.508200    4.645090    1.132750
  C      0.018830    5.604500    1.988210
  F      0.764580    5.220840    3.042510
  C     -0.173340    6.979830    1.831110
  F      0.408250    7.773450    2.750930
  C     -0.915200    7.546790    0.801880
  C     -1.475480    6.598860   -0.102300
  C     -1.276190    5.181340    0.059020
  N     -1.889720    4.489840   -0.898310
  S     -2.636470    5.499830   -1.895740
  N     -2.223680    6.869010   -1.169020
  C     -1.110830    8.955980    0.651720
  C     -1.841730    9.592690   -0.338190
  C     -1.832790   10.976620   -0.186660
  C     -1.086810   11.398180    0.928910
  S     -0.401290   10.098980    1.785560
  C     -1.141530   12.812360    1.003620
  C     -1.923320   13.286660   -0.065520
  C     -2.382360   12.150190   -0.849810
  C     -3.163360   12.169020   -1.967480
  C     -3.650010   13.366170   -2.534750
  N     -4.053380   14.329240   -3.008190
  C     -3.542320   10.986950   -2.639170
  N     -3.856830   10.033770   -3.193660
  C     -2.041050   14.675540   -0.069550
  C     -1.356750   15.256780    0.986030
  S     -0.551450   14.065960    1.996570
  C     -1.246400   16.638950    1.338530
  C     -1.839260   17.695360    0.656100
  F     -2.577090   17.468330   -0.442040
  C     -1.719380   19.032010    1.055760
  F     -2.357170   19.942740    0.296170
  C     -1.001780   19.458150    2.168080
  C     -0.365960   18.406500    2.887750
  C     -0.491970   17.036020    2.475760
  N      0.172360   16.212370    3.281030
  S      0.887540   17.066390    4.441360
  N      0.388210   18.517690    3.978750
  C     -0.904150   20.824320    2.580710
  C     -0.210190   21.302460    3.679240
  C     -0.329140   22.683040    3.812400
  C     -1.119170   23.263060    2.807170
  S     -1.712580   22.115660    1.700780
  C     -1.177490   24.667200    3.041480
  C     -0.427860   24.963670    4.186490
  C      0.132430   23.731640    4.711750
  C      0.922400   23.579200    5.813650
  C      1.311610   24.672400    6.615780
  N      1.631390   25.557970    7.270370
  C      1.403640   22.319260    6.228050
  N      1.799090   21.300370    6.575500
  C     -0.436610   26.337280    4.494000
  C     -1.178000   27.040890    3.593600
  S     -1.883330   26.060110    2.352330
  H      1.507350   -3.557760    3.446430
  H      0.061290   -3.387930    1.273510
  H     -1.381190    2.433120   -0.386490
  H     -2.344270    9.047560   -1.115230
  H     -2.596000   15.233910   -0.800110
  H      0.343520   20.654590    4.332520
  H      0.071850   26.784240    5.328570
  H     -1.361030   28.096660    3.577320

 Total Charge           Charge          ....    0
 Multiplicity           Mult            ....    1
 Number of Electrons    NEL             ....  530
 Basis Dimension        Dim             .... 1052

ORBITAL ENERGIES
----------------

  NO   OCC          E(Eh)            E(eV)
   0   2.0000     -89.043320     -2422.9919
   1   2.0000     -89.036651     -2422.8105
   2   2.0000     -88.987424     -2421.4709
   3   2.0000     -88.986847     -2421.4552
   4   2.0000     -88.985696     -2421.4239
   5   2.0000     -88.985606     -2421.4215
   6   2.0000     -88.985325     -2421.4138
   7   2.0000     -88.982842     -2421.3462
   8   2.0000     -24.817278      -675.3125
   9   2.0000     -24.817152      -675.3090
  10   2.0000     -24.816852      -675.3009
  11   2.0000     -24.812742      -675.1890
  12   2.0000     -14.458172      -393.4269
  13   2.0000     -14.457508      -393.4088
  14   2.0000     -14.451159      -393.2360
  15   2.0000     -14.451057      -393.2332
  16   2.0000     -14.426993      -392.5784
  17   2.0000     -14.426785      -392.5728
  18   2.0000     -14.425425      -392.5358
  19   2.0000     -14.424673      -392.5153
  20   2.0000     -14.424570      -392.5125
  21   2.0000     -14.424200      -392.5024
  22   2.0000     -10.394264      -282.8423
  23   2.0000     -10.393256      -282.8149
  24   2.0000     -10.391860      -282.7769
  25   2.0000     -10.391298      -282.7616
  26   2.0000     -10.360402      -281.9209
  27   2.0000     -10.358825      -281.8780
  28   2.0000     -10.358402      -281.8664
  29   2.0000     -10.348639      -281.6008
  30   2.0000     -10.348379      -281.5937
  31   2.0000     -10.347691      -281.5750
  32   2.0000     -10.346810      -281.5510
  33   2.0000     -10.346671      -281.5472
  34   2.0000     -10.344523      -281.4888
  35   2.0000     -10.344261      -281.4816
  36   2.0000     -10.328707      -281.0584
  37   2.0000     -10.328291      -281.0471
  38   2.0000     -10.328103      -281.0420
  39   2.0000     -10.327533      -281.0265
  40   2.0000     -10.327345      -281.0214
  41   2.0000     -10.326733      -281.0047
  42   2.0000     -10.326667      -281.0029
  43   2.0000     -10.326428      -280.9964
  44   2.0000     -10.326336      -280.9939
  45   2.0000     -10.326263      -280.9919
  46   2.0000     -10.326206      -280.9904
  47   2.0000     -10.325953      -280.9835
  48   2.0000     -10.325873      -280.9813
  49   2.0000     -10.325823      -280.9799
  50   2.0000     -10.325151      -280.9616
  51   2.0000     -10.325032      -280.9584
  52   2.0000     -10.325022      -280.9581
  53   2.0000     -10.324656      -280.9482
  54   2.0000     -10.324016      -280.9308
  55   2.0000     -10.322466      -280.8886
  56   2.0000     -10.311451      -280.5888
  57   2.0000     -10.310343      -280.5587
  58   2.0000     -10.298811      -280.2449
  59   2.0000     -10.298448      -280.2350
  60   2.0000     -10.297455      -280.2080
  61   2.0000     -10.297065      -280.1974
  62   2.0000     -10.296928      -280.1937
  63   2.0000     -10.296873      -280.1922
  64   2.0000     -10.296725      -280.1881
  65   2.0000     -10.295458      -280.1537
  66   2.0000     -10.295385      -280.1517
  67   2.0000     -10.293795      -280.1084
  68   2.0000     -10.292520      -280.0737
  69   2.0000     -10.292073      -280.0616
  70   2.0000      -8.134577      -221.3531
  71   2.0000      -8.128054      -221.1756
  72   2.0000      -8.081872      -219.9189
  73   2.0000      -8.081536      -219.9098
  74   2.0000      -8.080625      -219.8850
  75   2.0000      -8.079780      -219.8620
  76   2.0000      -8.079516      -219.8548
  77   2.0000      -8.076110      -219.7621
  78   2.0000      -6.105907      -166.1502
  79   2.0000      -6.099366      -165.9722
  80   2.0000      -6.098097      -165.9377
  81   2.0000      -6.096840      -165.9034
  82   2.0000      -6.091423      -165.7560
  83   2.0000      -6.090447      -165.7295
  84   2.0000      -6.051122      -164.6594
  85   2.0000      -6.050814      -164.6510
  86   2.0000      -6.049888      -164.6258
  87   2.0000      -6.049083      -164.6039
  88   2.0000      -6.048801      -164.5962
  89   2.0000      -6.046655      -164.5379
  90   2.0000      -6.046460      -164.5325
  91   2.0000      -6.045512      -164.5067
  92   2.0000      -6.045420      -164.5042
  93   2.0000      -6.044694      -164.4845
  94   2.0000      -6.044493      -164.4790
  95   2.0000      -6.044404      -164.4766
  96   2.0000      -6.043990      -164.4653
  97   2.0000      -6.043249      -164.4452
  98   2.0000      -6.042234      -164.4175
  99   2.0000      -6.041971      -164.4104
 100   2.0000      -6.040947      -164.3825
 101   2.0000      -6.038534      -164.3169
 102   2.0000      -1.339864       -36.4595
 103   2.0000      -1.338465       -36.4215
 104   2.0000      -1.321882       -35.9702
 105   2.0000      -1.319819       -35.9141
 106   2.0000      -1.146070       -31.1861
 107   2.0000      -1.139725       -31.0135
 108   2.0000      -1.040760       -28.3205
 109   2.0000      -1.039365       -28.2826
 110   2.0000      -1.039218       -28.2786
 111   2.0000      -1.018685       -27.7198
 112   2.0000      -1.016863       -27.6703
 113   2.0000      -1.016826       -27.6692
 114   2.0000      -1.008716       -27.4485
 115   2.0000      -1.004607       -27.3367
 116   2.0000      -1.002753       -27.2863
 117   2.0000      -1.002610       -27.2824
 118   2.0000      -1.001643       -27.2561
 119   2.0000      -1.000296       -27.2194
 120   2.0000      -0.995960       -27.1015
 121   2.0000      -0.986538       -26.8451
 122   2.0000      -0.983137       -26.7525
 123   2.0000      -0.976932       -26.5837
 124   2.0000      -0.954213       -25.9655
 125   2.0000      -0.952206       -25.9108
 126   2.0000      -0.949929       -25.8489
 127   2.0000      -0.918177       -24.9849
 128   2.0000      -0.911903       -24.8142
 129   2.0000      -0.903987       -24.5987
 130   2.0000      -0.888734       -24.1837
 131   2.0000      -0.881292       -23.9812
 132   2.0000      -0.877971       -23.8908
 133   2.0000      -0.876296       -23.8452
 134   2.0000      -0.863241       -23.4900
 135   2.0000      -0.860610       -23.4184
 136   2.0000      -0.856333       -23.3020
 137   2.0000      -0.849810       -23.1245
 138   2.0000      -0.848993       -23.1023
 139   2.0000      -0.848187       -23.0803
 140   2.0000      -0.826825       -22.4990
 141   2.0000      -0.810672       -22.0595
 142   2.0000      -0.782023       -21.2799
 143   2.0000      -0.777604       -21.1597
 144   2.0000      -0.774024       -21.0623
 145   2.0000      -0.772444       -21.0193
 146   2.0000      -0.767665       -20.8892
 147   2.0000      -0.760120       -20.6839
 148   2.0000      -0.739118       -20.1124
 149   2.0000      -0.733855       -19.9692
 150   2.0000      -0.731888       -19.9157
 151   2.0000      -0.723848       -19.6969
 152   2.0000      -0.704371       -19.1669
 153   2.0000      -0.700355       -19.0576
 154   2.0000      -0.699573       -19.0364
 155   2.0000      -0.697888       -18.9905
 156   2.0000      -0.685285       -18.6476
 157   2.0000      -0.680582       -18.5196
 158   2.0000      -0.678741       -18.4695
 159   2.0000      -0.673313       -18.3218
 160   2.0000      -0.669447       -18.2166
 161   2.0000      -0.658913       -17.9299
 162   2.0000      -0.655821       -17.8458
 163   2.0000      -0.653082       -17.7713
 164   2.0000      -0.651134       -17.7183
 165   2.0000      -0.646153       -17.5827
 166   2.0000      -0.639692       -17.4069
 167   2.0000      -0.635916       -17.3042
 168   2.0000      -0.629791       -17.1375
 169   2.0000      -0.625891       -17.0314
 170   2.0000      -0.618479       -16.8297
 171   2.0000      -0.614529       -16.7222
 172   2.0000      -0.611714       -16.6456
 173   2.0000      -0.610425       -16.6105
 174   2.0000      -0.606700       -16.5092
 175   2.0000      -0.605385       -16.4734
 176   2.0000      -0.605015       -16.4633
 177   2.0000      -0.604412       -16.4469
 178   2.0000      -0.582460       -15.8496
 179   2.0000      -0.579740       -15.7755
 180   2.0000      -0.564992       -15.3742
 181   2.0000      -0.564876       -15.3711
 182   2.0000      -0.564551       -15.3622
 183   2.0000      -0.562725       -15.3125
 184   2.0000      -0.562157       -15.2971
 185   2.0000      -0.560931       -15.2637
 186   2.0000      -0.558797       -15.2056
 187   2.0000      -0.551845       -15.0165
 188   2.0000      -0.542931       -14.7739
 189   2.0000      -0.542363       -14.7585
 190   2.0000      -0.540896       -14.7185
 191   2.0000      -0.540568       -14.7096
 192   2.0000      -0.540399       -14.7050
 193   2.0000      -0.525376       -14.2962
 194   2.0000      -0.522034       -14.2053
 195   2.0000      -0.520388       -14.1605
 196   2.0000      -0.516636       -14.0584
 197   2.0000      -0.508817       -13.8456
 198   2.0000      -0.501735       -13.6529
 199   2.0000      -0.501303       -13.6411
 200   2.0000      -0.499903       -13.6030
 201   2.0000      -0.499379       -13.5888
 202   2.0000      -0.498903       -13.5758
 203   2.0000      -0.492560       -13.4032
 204   2.0000      -0.491519       -13.3749
 205   2.0000      -0.490826       -13.3561
 206   2.0000      -0.488992       -13.3061
 207   2.0000      -0.487803       -13.2738
 208   2.0000      -0.487005       -13.2521
 209   2.0000      -0.484635       -13.1876
 210   2.0000      -0.482537       -13.1305
 211   2.0000      -0.482331       -13.1249
 212   2.0000      -0.480797       -13.0831
 213   2.0000      -0.477682       -12.9984
 214   2.0000      -0.471639       -12.8339
 215   2.0000      -0.469605       -12.7786
 216   2.0000      -0.466131       -12.6841
 217   2.0000      -0.458727       -12.4826
 218   2.0000      -0.456695       -12.4273
 219   2.0000      -0.456180       -12.4133
 220   2.0000      -0.456065       -12.4102
 221   2.0000      -0.455043       -12.3823
 222   2.0000      -0.453178       -12.3316
 223   2.0000      -0.452808       -12.3215
 224   2.0000      -0.447844       -12.1864
 225   2.0000      -0.447033       -12.1644
 226   2.0000      -0.446136       -12.1400
 227   2.0000      -0.445524       -12.1233
 228   2.0000      -0.442152       -12.0316
 229   2.0000      -0.437193       -11.8966
 230   2.0000      -0.435836       -11.8597
 231   2.0000      -0.435364       -11.8468
 232   2.0000      -0.435031       -11.8378
 233   2.0000      -0.434947       -11.8355
 234   2.0000      -0.433874       -11.8063
 235   2.0000      -0.433604       -11.7990
 236   2.0000      -0.433111       -11.7856
 237   2.0000      -0.432010       -11.7556
 238   2.0000      -0.429603       -11.6901
 239   2.0000      -0.423019       -11.5109
 240   2.0000      -0.421832       -11.4786
 241   2.0000      -0.420871       -11.4525
 242   2.0000      -0.409040       -11.1305
 243   2.0000      -0.408379       -11.1126
 244   2.0000      -0.407101       -11.0778
 245   2.0000      -0.404915       -11.0183
 246   2.0000      -0.401988       -10.9387
 247   2.0000      -0.382127       -10.3982
 248   2.0000      -0.376886       -10.2556
 249   2.0000      -0.374472       -10.1899
 250   2.0000      -0.374291       -10.1850
 251   2.0000      -0.366290        -9.9672
 252   2.0000      -0.346756        -9.4357
 253   2.0000      -0.344158        -9.3650
 254   2.0000      -0.343134        -9.3372
 255   2.0000      -0.342620        -9.3232
 256   2.0000      -0.341802        -9.3009
 257   2.0000      -0.339451        -9.2369
 258   2.0000      -0.321200        -8.7403
 259   2.0000      -0.317790        -8.6475
 260   2.0000      -0.316630        -8.6159
 261   2.0000      -0.314195        -8.5497
 262   2.0000      -0.285929        -7.7805
 263   2.0000      -0.263505        -7.1703
 264   2.0000      -0.241624        -6.5749
 265   0.0000      -0.107749        -2.9320
 266   0.0000      -0.099656        -2.7118
 267   0.0000      -0.096872        -2.6360
 268   0.0000      -0.082548        -2.2462
 269   0.0000      -0.078299        -2.1306

MULLIKEN ATOMIC CHARGES
-----------------------
   0 C :   -0.080023
   1 C :    0.036521
   2 C :   -0.028052
   3 C :   -0.121747
   4 S :    0.181817
   5 C :   -0.090058
   6 C :    0.025934
   7 C :    0.300671
   8 C :   -0.303509
   9 C :   -0.186346
  10 N :    0.173344
  11 C :   -0.191747
  12 N :    0.170328
  13 C :   -0.056792
  14 C :   -0.145956
  15 S :    0.197030
  16 C :    0.123411
  17 C :    0.115165
  18 F :   -0.177369
  19 C :    0.116324
  20 F :   -0.176756
  21 C :    0.123514
  22 C :   -0.003147
  23 C :   -0.005159
  24 N :   -0.284274
  25 S :    0.557103
  26 N :   -0.284894
  27 C :   -0.140959
  28 C :   -0.064123
  29 C :    0.031693
  30 C :   -0.090396
  31 S :    0.197731
  32 C :   -0.082644
  33 C :    0.018484
  34 C :    0.309517
  35 C :   -0.307379
  36 C :   -0.193955
  37 N :    0.179251
  38 C :   -0.188036
  39 N :    0.170978
  40 C :   -0.058720
  41 C :   -0.129245
  42 S :    0.208389
  43 C :    0.139449
  44 C :    0.132921
  45 F :   -0.162092
  46 C :    0.117430
  47 F :   -0.175059
  48 C :    0.114740
  49 C :    0.007744
  50 C :   -0.022129
  51 N :   -0.335172
  52 S :    0.551130
  53 N :   -0.278868
  54 C :   -0.145339
  55 C :   -0.055974
  56 C :    0.022271
  57 C :   -0.090317
  58 S :    0.202258
  59 C :   -0.122010
  60 C :   -0.026627
  61 C :    0.305577
  62 C :   -0.304355
  63 C :   -0.193814
  64 N :    0.171277
  65 C :   -0.182481
  66 N :    0.170049
  67 C :    0.031956
  68 C :   -0.079826
  69 S :    0.184196
  70 H :    0.035405
  71 H :    0.011838
  72 H :    0.023830
  73 H :    0.021707
  74 H :    0.013687
  75 H :    0.020976
  76 H :    0.012064
  77 H :    0.037641
Sum of atomic charges:   -0.0000000

LOEWDIN ATOMIC CHARGES
----------------------
   0 C :   -0.176745
   1 C :   -0.034720
   2 C :   -0.073600
   3 C :   -0.185499
   4 S :    0.477617
   5 C :   -0.180471
   6 C :   -0.075695
   7 C :    0.083160
   8 C :   -0.104625
   9 C :   -0.017016
  10 N :   -0.033845
  11 C :   -0.016617
  12 N :   -0.035914
  13 C :   -0.014117
  14 C :   -0.173194
  15 S :    0.488143
  16 C :   -0.064481
  17 C :    0.057628
  18 F :   -0.051510
  19 C :    0.058632
  20 F :   -0.050916
  21 C :   -0.066514
  22 C :   -0.038823
  23 C :   -0.039188
  24 N :   -0.271338
  25 S :    0.673962
  26 N :   -0.271592
  27 C :   -0.169990
  28 C :   -0.015519
  29 C :   -0.071516
  30 C :   -0.181565
  31 S :    0.488133
  32 C :   -0.184024
  33 C :   -0.073463
  34 C :    0.082228
  35 C :   -0.104580
  36 C :   -0.018684
  37 N :   -0.032886
  38 C :   -0.016726
  39 N :   -0.034403
  40 C :   -0.020407
  41 C :   -0.167873
  42 S :    0.516351
  43 C :   -0.070627
  44 C :    0.072254
  45 F :   -0.035581
  46 C :    0.060463
  47 F :   -0.049422
  48 C :   -0.065498
  49 C :   -0.037926
  50 C :   -0.047438
  51 N :   -0.303966
  52 S :    0.665703
  53 N :   -0.266577
  54 C :   -0.174229
  55 C :   -0.014982
  56 C :   -0.075614
  57 C :   -0.179678
  58 S :    0.490831
  59 C :   -0.185183
  60 C :   -0.073887
  61 C :    0.083668
  62 C :   -0.105264
  63 C :   -0.017131
  64 N :   -0.035447
  65 C :   -0.016135
  66 N :   -0.036180
  67 C :   -0.034735
  68 C :   -0.176623
  69 S :    0.479628
  70 H :    0.027419
  71 H :    0.042525
  72 H :    0.038049
  73 H :    0.037964
  74 H :    0.038058
  75 H :    0.037148
  76 H :    0.042614
  77 H :    0.027999

  Mayer bond orders larger than 0.100000
B(  0-C ,  1-C ) :   1.5467 B(  0-C ,  4-S ) :   1.1523 B(  0-C , 70-H ) :   0.9645
B(  1-C ,  2-C ) :   1.2776 B(  1-C , 71-H ) :   0.9961 B(  2-C ,  3-C ) :   1.4606
B(  2-C ,  7-C ) :   1.0119 B(  3-C ,  4-S ) :   1.1349 B(  3-C ,  5-C ) :   1.1808
B(  5-C ,  6-C ) :   1.4423 B(  5-C , 15-S ) :   1.1191 B(  6-C ,  7-C ) :   0.9974
B(  6-C , 13-C ) :   1.2552 B(  7-C ,  8-C ) :   1.7085 B(  8-C ,  9-C ) :   1.1381
B(  8-C , 11-C ) :   1.1301 B(  9-C , 10-N ) :   2.9872 B( 11-C , 12-N ) :   3.0019
B( 13-C , 14-C ) :   1.4722 B( 13-C , 72-H ) :   0.9806 B( 14-C , 15-S ) :   1.0886
B( 14-C , 16-C ) :   1.1504 B( 16-C , 17-C ) :   1.3727 B( 16-C , 21-C ) :   0.1261
B( 16-C , 23-C ) :   1.1709 B( 17-C , 18-F ) :   1.1284 B( 17-C , 19-C ) :   1.1853
B( 19-C , 20-F ) :   1.1292 B( 19-C , 21-C ) :   1.3710 B( 21-C , 22-C ) :   1.1719
B( 21-C , 27-C ) :   1.1501 B( 22-C , 23-C ) :   1.1368 B( 22-C , 26-N ) :   1.5440
B( 23-C , 24-N ) :   1.5442 B( 24-N , 25-S ) :   1.2636 B( 24-N , 26-N ) :   0.1411
B( 25-S , 26-N ) :   1.2627 B( 27-C , 28-C ) :   1.4674 B( 27-C , 31-S ) :   1.0884
B( 28-C , 29-C ) :   1.2587 B( 28-C , 73-H ) :   0.9800 B( 29-C , 30-C ) :   1.4260
B( 29-C , 34-C ) :   0.9959 B( 30-C , 31-S ) :   1.1130 B( 30-C , 32-C ) :   1.1851
B( 32-C , 33-C ) :   1.4258 B( 32-C , 42-S ) :   1.1021 B( 33-C , 34-C ) :   0.9888
B( 33-C , 40-C ) :   1.2876 B( 34-C , 35-C ) :   1.7099 B( 35-C , 36-C ) :   1.1342
B( 35-C , 38-C ) :   1.1387 B( 36-C , 37-N ) :   2.9972 B( 38-C , 39-N ) :   2.9858
B( 40-C , 41-C ) :   1.4441 B( 40-C , 74-H ) :   0.9933 B( 41-C , 42-S ) :   1.1074
B( 41-C , 43-C ) :   1.1351 B( 43-C , 44-C ) :   1.3710 B( 43-C , 48-C ) :   0.1211
B( 43-C , 50-C ) :   1.1583 B( 44-C , 45-F ) :   1.1459 B( 44-C , 46-C ) :   1.1747
B( 46-C , 47-F ) :   1.1290 B( 46-C , 48-C ) :   1.3728 B( 48-C , 49-C ) :   1.1757
B( 48-C , 54-C ) :   1.1518 B( 49-C , 50-C ) :   1.1447 B( 49-C , 53-N ) :   1.5430
B( 50-C , 51-N ) :   1.5062 B( 51-N , 52-S ) :   1.2482 B( 51-N , 53-N ) :   0.1428
B( 52-S , 53-N ) :   1.2681 B( 54-C , 55-C ) :   1.4685 B( 54-C , 58-S ) :   1.0903
B( 55-C , 56-C ) :   1.2586 B( 55-C , 75-H ) :   0.9800 B( 56-C , 57-C ) :   1.4414
B( 56-C , 61-C ) :   0.9964 B( 57-C , 58-S ) :   1.1196 B( 57-C , 59-C ) :   1.1825
B( 59-C , 60-C ) :   1.4576 B( 59-C , 69-S ) :   1.1370 B( 60-C , 61-C ) :   1.0118
B( 60-C , 67-C ) :   1.2790 B( 61-C , 62-C ) :   1.7085 B( 62-C , 63-C ) :   1.1307
B( 62-C , 65-C ) :   1.1363 B( 63-C , 64-N ) :   3.0022 B( 65-C , 66-N ) :   2.9858
B( 67-C , 68-C ) :   1.5472 B( 67-C , 76-H ) :   0.9963 B( 68-C , 69-S ) :   1.1519
B( 68-C , 77-H ) :   0.9638

-----------------------------------------------------------------------------
         ABSORPTION SPECTRUM VIA TRANSITION ELECTRIC DIPOLE MOMENTS
-----------------------------------------------------------------------------
State   Energy  Wavelength   fosc         T2         TX        TY        TZ
        (cm-1)    (nm)                  (au**2)     (au)      (au)      (au)
-----------------------------------------------------------------------------
   0   13033.7    767.2   0.635230276  16.04503   0.07472  -3.98482  -0.40086
   1   14967.4    668.1   0.164468618   3.61752  -0.04400   1.88544   0.24637
   2   15086.3    662.9   0.037563956   0.81972  -0.29082   0.74220  -0.42928
   3   18126.6    551.7   1.193021370  21.66746  -0.03844  -4.60707  -0.66397
   4   20032.7    499.2   0.133548400   2.19470  -0.59017   1.01297  -0.90570
   5   21761.7    459.5   0.004126824   0.06243   0.06922   0.14126   0.19412
   6   23792.5    420.3   0.003583528   0.04958   0.03795  -0.21928   0.00780
   7   24454.0    408.9   0.000987666   0.01330  -0.04221  -0.06452  -0.08574
   8   26000.3    384.6   0.056088486   0.71018  -0.05525   0.83672   0.08388
   9   27038.6    369.8   0.005898449   0.07182  -0.10416   0.13925  -0.20391
  10   27884.8    358.6   0.040112974   0.47358   0.13542   0.62484   0.25460
  11   29707.9    336.6   0.060372682   0.66903  -0.19038  -0.70470  -0.36903
  12   30141.2    331.8   0.052491625   0.57333   0.17337   0.66174   0.32461
  13   30619.9    326.6   0.272875079   2.93384  -0.97296   0.30137  -1.37709
  14   31309.9    319.4   0.993988184  10.45142   0.84857   2.67992   1.59667
  15   31646.5    316.0   0.401751419   4.17934   0.31391  -2.01574   0.13264
  16   31898.4    313.5   0.621763981   6.41700   1.40507  -0.80953   1.94613
  17   32504.9    307.6   0.153106491   1.55067  -0.13661  -1.20490  -0.28325
  18   32706.2    305.8   0.338676760   3.40903   0.91822   0.71102   1.43539
  19   33130.2    301.8   0.460197001   4.57293   0.42803  -2.06600   0.34839
  20   33435.6    299.1   0.027613401   0.27189   0.22481  -0.33946   0.32576
  21   33788.5    296.0   0.135921524   1.32433  -0.57983   0.47820  -0.87146
  22   34222.3    292.2   0.246071097   2.36716  -0.21263  -1.40850  -0.58144
  23   34428.0    290.5   0.009817125   0.09387   0.11761   0.23676   0.15488
  24   34473.4    290.1   0.359564172   3.43375  -0.95518   0.88272  -1.31992
  25   34758.7    287.7   0.044364698   0.42019   0.40566   0.05150   0.50297
  26   35018.0    285.6   0.031664355   0.29768   0.18645   0.22920   0.45868
  27   35168.2    284.3   0.061229809   0.57318  -0.23051   0.67375  -0.25710
  28   35331.9    283.0   0.126304794   1.17687   0.57131  -0.60702   0.69426
  29   35611.0    280.8   0.099848629   0.92307   0.58984  -0.01158   0.75830
  30   35869.0    278.8   0.193227891   1.77348   0.74131   0.12312   1.09945
  31   36160.5    276.5   0.064381056   0.58614  -0.33398  -0.43059  -0.53776
  32   37666.7    265.5   0.151524242   1.32434   0.17918  -1.13387   0.08112
  33   38215.4    261.7   0.009714262   0.08368   0.10152   0.18641   0.19655
  34   38223.9    261.6   0.000342082   0.00295  -0.05313  -0.01112  -0.00040
  35   38387.1    260.5   0.011090391   0.09511   0.17936  -0.08100   0.23745
  36   38651.6    258.7   0.021177585   0.18038  -0.09404   0.40537  -0.08492
  37   38890.3    257.1   0.006302071   0.05335   0.11493  -0.15683   0.12467
  38   39108.3    255.7   0.015488302   0.13038   0.12240  -0.32653   0.09369
  39   39134.9    255.5   0.015760090   0.13258   0.17270  -0.23745   0.21534
  40   39314.3    254.4   0.007303876   0.06116   0.13888  -0.06756   0.19316
  41   39433.1    253.6   0.005826204   0.04864   0.09134  -0.07450   0.18640
  42   39625.2    252.4   0.035168733   0.29219  -0.08207   0.53371  -0.02468
  43   39775.8    251.4   0.015336221   0.12693  -0.03059  -0.33139  -0.12720
  44   40012.2    249.9   0.030353567   0.24974  -0.22826  -0.24295  -0.37231
  45   40107.9    249.3   0.014115180   0.11586   0.10484   0.24691   0.20953
  46   40250.9    248.4   0.001723757   0.01410   0.02775   0.09507   0.06550
  47   40282.6    248.2   0.012790420   0.10453   0.17928  -0.16398   0.21331

FINAL SINGLE POINT ENERGY     -5961.748641334586

DIPOLE MOMENT
-------------
                                X             Y             Z
Electronic contribution:     -0.20649       3.49690      -1.55477
Nuclear contribution   :      1.21367      -2.72836       3.24565
                        -----------------------------------------
Total Dipole Moment    :      1.00718       0.76854       1.69088
                        -----------------------------------------
Magnitude (a.u.)       :      2.11285
Magnitude (Debye)      :      5.37044

Rotational constants in cm-1:     0.002594     0.000198     0.000184
Rotational constants in MHz :    77.752495     5.941714     5.521748

                             ****ORCA TERMINATED NORMALLY****
TOTAL RUN TIME: 0 days 0 hours 10 minutes 53 seconds 284 msec
