                         Program Version 4.2.0 -  RELEASE  -
|  1> # ORCA input file
|  2> # SCF done       -210.335310429538          0.000742764147
|  3> ! CAM-B3LYP def2-SVP def2/J RIJCOSX Grid4 TightSCF
|  4> %maxcore 5000
|  5> %tddft
|  6>     Mode sTDDFT
|  7>     Ethresh 5.0
|  8>     maxcore 5000
|  9> end
| 10>
| 11> %pal
| 12>   nprocs 6
| 13>   end
| 14> * xyz 0 1
| 15>    C       -7.16157         1.45717         0.70378
| 16>    C       -6.64285         2.54818         0.06507
| 17>    F       -7.07444         3.77724         0.37317
| 18>    C       -5.64879         2.39591        -0.92389
| 19>    F       -5.15912         3.48367        -1.53156
| 20>    C       -5.18723         1.15398        -1.25963
| 21>    C       -5.70017         0.00949        -0.61784
| 22>    C       -6.70560         0.16212         0.38243
| 23>    C       -7.23172        -0.97001         1.04272
| 24>    C       -6.76558        -2.21741         0.71490
| 25>    C       -5.76467        -2.36174        -0.28919
| 26>    C       -5.23749        -1.28449        -0.94309
| 27>    C       -5.44571        -3.78691        -0.46639
| 28>    O       -4.59440        -4.27802        -1.16801
| 29>    C       -6.39828        -4.51457         0.42863
| 30>    C       -7.09705        -3.53113         1.24387
| 31>    C       -7.84764        -3.78892         2.35620
| 32>    C       -7.97063        -5.05243         2.96531
| 33>    N       -8.05713        -6.03011         3.56380
| 34>    C       -8.51079        -2.79897         3.11504
| 35>    N       -9.08602        -2.04984         3.76579
| 36>    C       -6.59995        -5.84401         0.40305
| 37>    C       -5.89399        -6.77907        -0.44004
| 38>    S       -5.11616        -8.10188         0.32274
| 39>    C       -4.57070        -8.75520        -1.20116
| 40>    C       -4.98030        -7.94860        -2.25572
| 41>    C       -5.73726        -6.83327        -1.81371
| 42>    N       -6.32200        -5.89717        -2.71791
| 43>    O       -7.18620        -5.16087        -2.28085
| 44>    O       -5.93588        -5.91252        -3.86243
| 45>    C       -4.68822        -8.24446        -3.60242
| 46>    N       -4.42727        -8.55273        -4.67445
| 47>    C       -3.80603        -9.95218        -1.25515
| 48>    C       -3.48685       -10.59297        -0.10279
| 49>    C       -2.74542       -11.76862         0.17593
| 50>    S       -2.59607       -12.08199         1.88437
| 51>    C       -1.64188       -13.51579         1.64061
| 52>    C       -1.44548       -13.72851         0.27760
| 53>    C       -2.06502       -12.75269        -0.54367
| 54>    N       -1.96116       -12.86257        -1.95959
| 55>    O       -2.67305       -12.16145        -2.64861
| 56>    O       -1.16303       -13.67015        -2.38615
| 57>    C       -0.71002       -14.84013        -0.17970
| 58>    N       -0.10698       -15.78505        -0.42121
| 59>    C       -1.18484       -14.29961         2.71953
| 60>    C       -1.43028       -13.96553         4.02128
| 61>    C       -1.03515       -14.71848         5.13251
| 62>    C       -1.29431       -14.34718         6.43078
| 63>    C       -0.97507       -15.07144         7.60494
| 64>    C       -1.36679       -14.46469         8.75861
| 65>    C       -2.00627       -13.21729         8.55948
| 66>    S       -2.10705       -12.84826         6.85968
| 67>    C       -2.49747       -12.36778         9.53538
| 68>    C       -2.54421       -12.59001        10.92793
| 69>    C       -3.10397       -11.56346        11.62569
| 70>    C       -3.54355       -10.47865        10.82697
| 71>    S       -3.19330       -10.80658         9.14989
| 72>    C       -4.06761        -9.30645        11.34701
| 73>    C       -4.51280        -8.14826        10.72004
| 74>    C       -4.88650        -7.85795         9.41878
| 75>    C       -4.84191        -6.43933         8.99051
| 76>    O       -4.63288        -5.46984         9.68194
| 77>    C       -5.06881        -6.46441         7.52178
| 78>    C       -5.32600        -7.78856         7.12538
| 79>    C       -5.55352        -8.07403         5.79052
| 80>    C       -5.51213        -7.03529         4.86155
| 81>    C       -5.24706        -5.71787         5.26787
| 82>    C       -5.03532        -5.42520         6.61962
| 83>    C       -5.22102        -4.65866         4.33053
| 84>    N       -5.22028        -3.75018         3.63126
| 85>    C       -5.67430        -7.31749         3.40868
| 86>    O       -5.09584        -6.68120         2.56206
| 87>    O       -6.45022        -8.34499         3.06652
| 88>    C       -5.32444        -8.64805         8.31377
| 89>    C       -5.85232        -9.92350         8.35783
| 90>    C       -6.15071       -10.59514         9.55766
| 91>    N       -6.42939       -11.15869        10.51836
| 92>    C       -6.24669       -10.63956         7.21457
| 93>    N       -6.54872       -11.25722         6.29375
| 94>    H       -7.92034         1.59148         1.45891
| 95>    H       -4.42710         1.05468        -2.01865
| 96>    H       -7.99437        -0.82511         1.79106
| 97>    H       -4.47924        -1.41940        -1.69942
| 98>    H       -7.30679        -6.29849         1.08605
| 99>    H       -3.51045       -10.31744        -2.22770
|100>    H       -3.84914       -10.13020         0.81111
|101>    H       -0.62548       -15.19207         2.47363
|102>    H       -1.98136       -13.05274         4.22060
|103>    H       -0.50840       -15.64918         4.97005
|104>    H       -0.47116       -16.02039         7.55693
|105>    H       -1.20865       -14.87212         9.74030
|106>    H       -2.18039       -13.49684        11.37502
|107>    H       -3.23396       -11.55491        12.69279
|108>    H       -4.03846        -9.26156        12.42921
|109>    H       -4.51767        -7.26496        11.35393
|110>    H       -5.71405        -9.08961         5.46227
|111>    H       -4.84509        -4.41402         6.94552
|112>    H       -6.97683        -8.69080         3.80209
|113> *
|114>
|115>                          ****END OF INPUT****

CARTESIAN COORDINATES (ANGSTROEM)
---------------------------------
  C     -7.161570    1.457170    0.703780
  C     -6.642850    2.548180    0.065070
  F     -7.074440    3.777240    0.373170
  C     -5.648790    2.395910   -0.923890
  F     -5.159120    3.483670   -1.531560
  C     -5.187230    1.153980   -1.259630
  C     -5.700170    0.009490   -0.617840
  C     -6.705600    0.162120    0.382430
  C     -7.231720   -0.970010    1.042720
  C     -6.765580   -2.217410    0.714900
  C     -5.764670   -2.361740   -0.289190
  C     -5.237490   -1.284490   -0.943090
  C     -5.445710   -3.786910   -0.466390
  O     -4.594400   -4.278020   -1.168010
  C     -6.398280   -4.514570    0.428630
  C     -7.097050   -3.531130    1.243870
  C     -7.847640   -3.788920    2.356200
  C     -7.970630   -5.052430    2.965310
  N     -8.057130   -6.030110    3.563800
  C     -8.510790   -2.798970    3.115040
  N     -9.086020   -2.049840    3.765790
  C     -6.599950   -5.844010    0.403050
  C     -5.893990   -6.779070   -0.440040
  S     -5.116160   -8.101880    0.322740
  C     -4.570700   -8.755200   -1.201160
  C     -4.980300   -7.948600   -2.255720
  C     -5.737260   -6.833270   -1.813710
  N     -6.322000   -5.897170   -2.717910
  O     -7.186200   -5.160870   -2.280850
  O     -5.935880   -5.912520   -3.862430
  C     -4.688220   -8.244460   -3.602420
  N     -4.427270   -8.552730   -4.674450
  C     -3.806030   -9.952180   -1.255150
  C     -3.486850  -10.592970   -0.102790
  C     -2.745420  -11.768620    0.175930
  S     -2.596070  -12.081990    1.884370
  C     -1.641880  -13.515790    1.640610
  C     -1.445480  -13.728510    0.277600
  C     -2.065020  -12.752690   -0.543670
  N     -1.961160  -12.862570   -1.959590
  O     -2.673050  -12.161450   -2.648610
  O     -1.163030  -13.670150   -2.386150
  C     -0.710020  -14.840130   -0.179700
  N     -0.106980  -15.785050   -0.421210
  C     -1.184840  -14.299610    2.719530
  C     -1.430280  -13.965530    4.021280
  C     -1.035150  -14.718480    5.132510
  C     -1.294310  -14.347180    6.430780
  C     -0.975070  -15.071440    7.604940
  C     -1.366790  -14.464690    8.758610
  C     -2.006270  -13.217290    8.559480
  S     -2.107050  -12.848260    6.859680
  C     -2.497470  -12.367780    9.535380
  C     -2.544210  -12.590010   10.927930
  C     -3.103970  -11.563460   11.625690
  C     -3.543550  -10.478650   10.826970
  S     -3.193300  -10.806580    9.149890
  C     -4.067610   -9.306450   11.347010
  C     -4.512800   -8.148260   10.720040
  C     -4.886500   -7.857950    9.418780
  C     -4.841910   -6.439330    8.990510
  O     -4.632880   -5.469840    9.681940
  C     -5.068810   -6.464410    7.521780
  C     -5.326000   -7.788560    7.125380
  C     -5.553520   -8.074030    5.790520
  C     -5.512130   -7.035290    4.861550
  C     -5.247060   -5.717870    5.267870
  C     -5.035320   -5.425200    6.619620
  C     -5.221020   -4.658660    4.330530
  N     -5.220280   -3.750180    3.631260
  C     -5.674300   -7.317490    3.408680
  O     -5.095840   -6.681200    2.562060
  O     -6.450220   -8.344990    3.066520
  C     -5.324440   -8.648050    8.313770
  C     -5.852320   -9.923500    8.357830
  C     -6.150710  -10.595140    9.557660
  N     -6.429390  -11.158690   10.518360
  C     -6.246690  -10.639560    7.214570
  N     -6.548720  -11.257220    6.293750
  H     -7.920340    1.591480    1.458910
  H     -4.427100    1.054680   -2.018650
  H     -7.994370   -0.825110    1.791060
  H     -4.479240   -1.419400   -1.699420
  H     -7.306790   -6.298490    1.086050
  H     -3.510450  -10.317440   -2.227700
  H     -3.849140  -10.130200    0.811110
  H     -0.625480  -15.192070    2.473630
  H     -1.981360  -13.052740    4.220600
  H     -0.508400  -15.649180    4.970050
  H     -0.471160  -16.020390    7.556930
  H     -1.208650  -14.872120    9.740300
  H     -2.180390  -13.496840   11.375020
  H     -3.233960  -11.554910   12.692790
  H     -4.038460   -9.261560   12.429210
  H     -4.517670   -7.264960   11.353930
  H     -5.714050   -9.089610    5.462270
  H     -4.845090   -4.414020    6.945520
  H     -6.976830   -8.690800    3.802090

 Total Charge           Charge          ....    0
 Multiplicity           Mult            ....    1
 Number of Electrons    NEL             ....  564
 Basis Dimension        Dim             .... 1217

ORBITAL ENERGIES
----------------

  NO   OCC          E(Eh)            E(eV)
   0   2.0000     -89.006462     -2421.9890
   1   2.0000     -88.993755     -2421.6432
   2   2.0000     -88.989721     -2421.5334
   3   2.0000     -88.989027     -2421.5145
   4   2.0000     -24.799254      -674.8220
   5   2.0000     -24.798595      -674.8041
   6   2.0000     -19.295176      -525.0484
   7   2.0000     -19.257892      -524.0339
   8   2.0000     -19.257216      -524.0155
   9   2.0000     -19.250585      -523.8350
  10   2.0000     -19.244613      -523.6725
  11   2.0000     -19.238318      -523.5012
  12   2.0000     -19.229113      -523.2508
  13   2.0000     -19.223491      -523.0978
  14   2.0000     -14.668483      -399.1497
  15   2.0000     -14.657129      -398.8408
  16   2.0000     -14.434589      -392.7851
  17   2.0000     -14.429492      -392.6464
  18   2.0000     -14.424422      -392.5085
  19   2.0000     -14.421762      -392.4361
  20   2.0000     -14.421022      -392.4159
  21   2.0000     -14.417713      -392.3259
  22   2.0000     -14.406418      -392.0186
  23   2.0000     -10.441133      -284.1177
  24   2.0000     -10.382941      -282.5342
  25   2.0000     -10.382317      -282.5172
  26   2.0000     -10.378433      -282.4115
  27   2.0000     -10.374645      -282.3084
  28   2.0000     -10.368613      -282.1443
  29   2.0000     -10.363248      -281.9983
  30   2.0000     -10.362631      -281.9815
  31   2.0000     -10.357060      -281.8299
  32   2.0000     -10.352814      -281.7144
  33   2.0000     -10.351857      -281.6884
  34   2.0000     -10.351107      -281.6679
  35   2.0000     -10.350516      -281.6519
  36   2.0000     -10.350367      -281.6478
  37   2.0000     -10.350132      -281.6414
  38   2.0000     -10.350063      -281.6395
  39   2.0000     -10.349199      -281.6160
  40   2.0000     -10.348659      -281.6013
  41   2.0000     -10.347401      -281.5671
  42   2.0000     -10.343708      -281.4666
  43   2.0000     -10.340468      -281.3784
  44   2.0000     -10.339621      -281.3554
  45   2.0000     -10.339534      -281.3530
  46   2.0000     -10.339156      -281.3427
  47   2.0000     -10.334003      -281.2025
  48   2.0000     -10.333891      -281.1995
  49   2.0000     -10.332458      -281.1605
  50   2.0000     -10.329676      -281.0848
  51   2.0000     -10.329088      -281.0688
  52   2.0000     -10.328831      -281.0618
  53   2.0000     -10.328375      -281.0494
  54   2.0000     -10.328119      -281.0424
  55   2.0000     -10.326420      -280.9962
  56   2.0000     -10.325778      -280.9787
  57   2.0000     -10.324195      -280.9356
  58   2.0000     -10.323499      -280.9167
  59   2.0000     -10.323395      -280.9139
  60   2.0000     -10.321722      -280.8683
  61   2.0000     -10.321407      -280.8598
  62   2.0000     -10.320449      -280.8337
  63   2.0000     -10.320392      -280.8321
  64   2.0000     -10.318703      -280.7862
  65   2.0000     -10.316850      -280.7358
  66   2.0000     -10.312645      -280.6213
  67   2.0000     -10.312380      -280.6141
  68   2.0000     -10.310616      -280.5661
  69   2.0000     -10.310380      -280.5597
  70   2.0000     -10.309917      -280.5471
  71   2.0000     -10.308173      -280.4997
  72   2.0000     -10.305978      -280.4399
  73   2.0000     -10.305338      -280.4225
  74   2.0000     -10.304496      -280.3996
  75   2.0000     -10.303108      -280.3618
  76   2.0000     -10.302065      -280.3334
  77   2.0000     -10.301672      -280.3227
  78   2.0000     -10.295982      -280.1679
  79   2.0000      -8.102118      -220.4698
  80   2.0000      -8.087995      -220.0855
  81   2.0000      -8.085335      -220.0131
  82   2.0000      -8.084532      -219.9913
  83   2.0000      -6.071302      -165.2085
  84   2.0000      -6.067275      -165.0989
  85   2.0000      -6.064165      -165.0143
  86   2.0000      -6.057182      -164.8243
  87   2.0000      -6.054972      -164.7642
  88   2.0000      -6.053999      -164.7377
  89   2.0000      -6.052826      -164.7058
  90   2.0000      -6.050965      -164.6551
  91   2.0000      -6.050405      -164.6399
  92   2.0000      -6.049875      -164.6255
  93   2.0000      -6.046348      -164.5295
  94   2.0000      -6.046231      -164.5263
  95   2.0000      -1.341073       -36.4924
  96   2.0000      -1.330554       -36.2062
  97   2.0000      -1.322192       -35.9787
  98   2.0000      -1.307295       -35.5733
  99   2.0000      -1.222116       -33.2555
 100   2.0000      -1.159694       -31.5569
 101   2.0000      -1.149999       -31.2931
 102   2.0000      -1.143853       -31.1258
 103   2.0000      -1.139699       -31.0128
 104   2.0000      -1.134551       -30.8727
 105   2.0000      -1.047722       -28.5100
 106   2.0000      -1.037274       -28.2257
 107   2.0000      -1.035951       -28.1897
 108   2.0000      -1.033837       -28.1321
 109   2.0000      -1.031085       -28.0573
 110   2.0000      -1.020189       -27.7607
 111   2.0000      -1.012844       -27.5609
 112   2.0000      -1.012141       -27.5417
 113   2.0000      -1.006790       -27.3961
 114   2.0000      -1.003930       -27.3183
 115   2.0000      -1.002559       -27.2810
 116   2.0000      -0.999779       -27.2054
 117   2.0000      -0.988499       -26.8984
 118   2.0000      -0.984954       -26.8020
 119   2.0000      -0.973871       -26.5004
 120   2.0000      -0.962664       -26.1954
 121   2.0000      -0.948116       -25.7995
 122   2.0000      -0.936487       -25.4831
 123   2.0000      -0.934613       -25.4321
 124   2.0000      -0.924077       -25.1454
 125   2.0000      -0.919325       -25.0161
 126   2.0000      -0.918976       -25.0066
 127   2.0000      -0.915938       -24.9239
 128   2.0000      -0.900176       -24.4950
 129   2.0000      -0.898730       -24.4557
 130   2.0000      -0.895226       -24.3603
 131   2.0000      -0.893191       -24.3050
 132   2.0000      -0.882115       -24.0036
 133   2.0000      -0.875710       -23.8293
 134   2.0000      -0.867958       -23.6183
 135   2.0000      -0.859635       -23.3919
 136   2.0000      -0.857096       -23.3228
 137   2.0000      -0.843159       -22.9435
 138   2.0000      -0.839970       -22.8567
 139   2.0000      -0.814168       -22.1546
 140   2.0000      -0.811720       -22.0880
 141   2.0000      -0.803801       -21.8725
 142   2.0000      -0.800517       -21.7832
 143   2.0000      -0.778849       -21.1936
 144   2.0000      -0.772809       -21.0292
 145   2.0000      -0.762528       -20.7495
 146   2.0000      -0.757270       -20.6064
 147   2.0000      -0.751646       -20.4533
 148   2.0000      -0.744274       -20.2527
 149   2.0000      -0.741017       -20.1641
 150   2.0000      -0.732465       -19.9314
 151   2.0000      -0.723868       -19.6975
 152   2.0000      -0.720081       -19.5944
 153   2.0000      -0.716376       -19.4936
 154   2.0000      -0.708111       -19.2687
 155   2.0000      -0.704633       -19.1741
 156   2.0000      -0.702920       -19.1274
 157   2.0000      -0.693385       -18.8680
 158   2.0000      -0.683273       -18.5928
 159   2.0000      -0.681836       -18.5537
 160   2.0000      -0.673632       -18.3304
 161   2.0000      -0.670651       -18.2493
 162   2.0000      -0.665458       -18.1080
 163   2.0000      -0.661344       -17.9961
 164   2.0000      -0.655485       -17.8367
 165   2.0000      -0.652172       -17.7465
 166   2.0000      -0.650862       -17.7108
 167   2.0000      -0.648732       -17.6529
 168   2.0000      -0.647171       -17.6104
 169   2.0000      -0.645903       -17.5759
 170   2.0000      -0.643937       -17.5224
 171   2.0000      -0.641451       -17.4548
 172   2.0000      -0.636945       -17.3322
 173   2.0000      -0.631743       -17.1906
 174   2.0000      -0.619112       -16.8469
 175   2.0000      -0.617473       -16.8023
 176   2.0000      -0.615708       -16.7543
 177   2.0000      -0.610818       -16.6212
 178   2.0000      -0.599972       -16.3261
 179   2.0000      -0.598709       -16.2917
 180   2.0000      -0.595761       -16.2115
 181   2.0000      -0.595235       -16.1972
 182   2.0000      -0.588747       -16.0206
 183   2.0000      -0.586426       -15.9575
 184   2.0000      -0.584098       -15.8941
 185   2.0000      -0.579444       -15.7675
 186   2.0000      -0.577532       -15.7155
 187   2.0000      -0.570771       -15.5315
 188   2.0000      -0.569854       -15.5065
 189   2.0000      -0.568714       -15.4755
 190   2.0000      -0.564886       -15.3713
 191   2.0000      -0.561094       -15.2681
 192   2.0000      -0.556980       -15.1562
 193   2.0000      -0.555094       -15.1049
 194   2.0000      -0.551815       -15.0157
 195   2.0000      -0.548036       -14.9128
 196   2.0000      -0.547972       -14.9111
 197   2.0000      -0.540104       -14.6970
 198   2.0000      -0.539105       -14.6698
 199   2.0000      -0.538527       -14.6541
 200   2.0000      -0.537700       -14.6316
 201   2.0000      -0.536670       -14.6035
 202   2.0000      -0.534326       -14.5397
 203   2.0000      -0.533134       -14.5073
 204   2.0000      -0.528034       -14.3685
 205   2.0000      -0.525542       -14.3007
 206   2.0000      -0.524135       -14.2624
 207   2.0000      -0.523380       -14.2419
 208   2.0000      -0.520763       -14.1707
 209   2.0000      -0.519031       -14.1236
 210   2.0000      -0.515923       -14.0390
 211   2.0000      -0.515174       -14.0186
 212   2.0000      -0.514796       -14.0083
 213   2.0000      -0.509140       -13.8544
 214   2.0000      -0.507062       -13.7979
 215   2.0000      -0.503588       -13.7033
 216   2.0000      -0.501514       -13.6469
 217   2.0000      -0.498234       -13.5576
 218   2.0000      -0.496956       -13.5229
 219   2.0000      -0.493843       -13.4381
 220   2.0000      -0.490471       -13.3464
 221   2.0000      -0.486288       -13.2326
 222   2.0000      -0.482677       -13.1343
 223   2.0000      -0.475152       -12.9295
 224   2.0000      -0.474861       -12.9216
 225   2.0000      -0.474126       -12.9016
 226   2.0000      -0.470284       -12.7971
 227   2.0000      -0.467973       -12.7342
 228   2.0000      -0.466678       -12.6990
 229   2.0000      -0.465375       -12.6635
 230   2.0000      -0.463322       -12.6076
 231   2.0000      -0.460986       -12.5441
 232   2.0000      -0.460165       -12.5217
 233   2.0000      -0.458709       -12.4821
 234   2.0000      -0.457974       -12.4621
 235   2.0000      -0.454173       -12.3587
 236   2.0000      -0.452895       -12.3239
 237   2.0000      -0.451463       -12.2849
 238   2.0000      -0.449016       -12.2183
 239   2.0000      -0.445518       -12.1232
 240   2.0000      -0.444862       -12.1053
 241   2.0000      -0.443336       -12.0638
 242   2.0000      -0.440739       -11.9931
 243   2.0000      -0.440105       -11.9759
 244   2.0000      -0.436935       -11.8896
 245   2.0000      -0.435953       -11.8629
 246   2.0000      -0.435536       -11.8515
 247   2.0000      -0.433038       -11.7836
 248   2.0000      -0.431746       -11.7484
 249   2.0000      -0.430482       -11.7140
 250   2.0000      -0.427996       -11.6464
 251   2.0000      -0.426653       -11.6098
 252   2.0000      -0.422106       -11.4861
 253   2.0000      -0.419646       -11.4192
 254   2.0000      -0.417769       -11.3681
 255   2.0000      -0.414462       -11.2781
 256   2.0000      -0.406908       -11.0725
 257   2.0000      -0.398649       -10.8478
 258   2.0000      -0.397343       -10.8122
 259   2.0000      -0.394066       -10.7231
 260   2.0000      -0.390238       -10.6189
 261   2.0000      -0.385501       -10.4900
 262   2.0000      -0.383580       -10.4377
 263   2.0000      -0.383234       -10.4283
 264   2.0000      -0.380267       -10.3476
 265   2.0000      -0.376753       -10.2520
 266   2.0000      -0.375371       -10.2144
 267   2.0000      -0.372478       -10.1356
 268   2.0000      -0.370530       -10.0826
 269   2.0000      -0.365404        -9.9432
 270   2.0000      -0.360563        -9.8114
 271   2.0000      -0.357539        -9.7291
 272   2.0000      -0.352167        -9.5830
 273   2.0000      -0.346778        -9.4363
 274   2.0000      -0.342572        -9.3219
 275   2.0000      -0.336338        -9.1522
 276   2.0000      -0.326428        -8.8826
 277   2.0000      -0.318496        -8.6667
 278   2.0000      -0.313392        -8.5278
 279   2.0000      -0.301717        -8.2102
 280   2.0000      -0.288432        -7.8486
 281   2.0000      -0.253365        -6.8944
 282   0.0000      -0.136617        -3.7175
 283   0.0000      -0.106504        -2.8981
 284   0.0000      -0.094086        -2.5602
 285   0.0000      -0.092487        -2.5167
 286   0.0000      -0.076245        -2.0747

MULLIKEN ATOMIC CHARGES
-----------------------
   0 C :   -0.107602
   1 C :    0.242008
   2 F :   -0.168953
   3 C :    0.240406
   4 F :   -0.169768
   5 C :   -0.102962
   6 C :    0.115595
   7 C :    0.114465
   8 C :   -0.079979
   9 C :    0.059914
  10 C :   -0.003704
  11 C :   -0.073914
  12 C :    0.155802
  13 O :   -0.138969
  14 C :    0.001078
  15 C :    0.340843
  16 C :   -0.341655
  17 C :   -0.160925
  18 N :    0.099539
  19 C :   -0.186285
  20 N :    0.164126
  21 C :   -0.025620
  22 C :   -0.163016
  23 S :    0.194568
  24 C :   -0.077868
  25 C :   -0.081026
  26 C :    0.278197
  27 N :    0.259802
  28 O :   -0.249067
  29 O :   -0.202029
  30 C :   -0.223552
  31 N :    0.182771
  32 C :    0.037803
  33 C :    0.008008
  34 C :   -0.146944
  35 S :    0.156175
  36 C :   -0.055004
  37 C :   -0.082420
  38 C :    0.254931
  39 N :    0.262752
  40 O :   -0.232840
  41 O :   -0.213847
  42 C :   -0.216113
  43 N :    0.155023
  44 C :    0.021989
  45 C :   -0.013877
  46 C :    0.019288
  47 C :   -0.031792
  48 C :    0.062993
  49 C :    0.023086
  50 C :   -0.018782
  51 S :    0.110595
  52 C :   -0.062734
  53 C :    0.042884
  54 C :    0.052716
  55 C :   -0.029833
  56 S :    0.134645
  57 C :   -0.002950
  58 C :    0.026880
  59 C :   -0.149710
  60 C :    0.140939
  61 O :   -0.130693
  62 C :    0.010302
  63 C :    0.038508
  64 C :   -0.104831
  65 C :    0.108869
  66 C :   -0.094252
  67 C :   -0.029741
  68 C :   -0.126307
  69 N :    0.115707
  70 C :    0.160853
  71 O :   -0.208561
  72 O :   -0.151465
  73 C :    0.287566
  74 C :   -0.361364
  75 C :   -0.204457
  76 N :    0.168331
  77 C :   -0.169375
  78 N :    0.128913
  79 H :    0.009179
  80 H :    0.003516
  81 H :   -0.004333
  82 H :   -0.003560
  83 H :    0.042308
  84 H :    0.049793
  85 H :    0.000288
  86 H :    0.026114
  87 H :    0.018780
  88 H :    0.008884
  89 H :    0.007272
  90 H :    0.003286
  91 H :   -0.002709
  92 H :    0.003470
  93 H :    0.008186
  94 H :    0.032898
  95 H :   -0.009097
  96 H :    0.014557
  97 H :    0.207083
Sum of atomic charges:   -0.0000000

LOEWDIN ATOMIC CHARGES
----------------------
   0 C :   -0.028803
   1 C :    0.067917
   2 F :   -0.047051
   3 C :    0.069292
   4 F :   -0.047187
   5 C :   -0.031211
   6 C :   -0.005355
   7 C :   -0.003791
   8 C :    0.024390
   9 C :   -0.014778
  10 C :   -0.046766
  11 C :    0.037560
  12 C :    0.089317
  13 O :   -0.133751
  14 C :   -0.045437
  15 C :    0.093409
  16 C :   -0.130593
  17 C :    0.009340
  18 N :   -0.081021
  19 C :   -0.015497
  20 N :   -0.046653
  21 C :    0.048452
  22 C :   -0.132673
  23 S :    0.557624
  24 C :   -0.148479
  25 C :   -0.075027
  26 C :   -0.041269
  27 N :    0.289687
  28 O :   -0.208499
  29 O :   -0.159749
  30 C :   -0.041461
  31 N :   -0.026907
  32 C :    0.019889
  33 C :   -0.068962
  34 C :   -0.117605
  35 S :    0.490014
  36 C :   -0.140931
  37 C :   -0.079845
  38 C :   -0.056464
  39 N :    0.286962
  40 O :   -0.190971
  41 O :   -0.167616
  42 C :   -0.041165
  43 N :   -0.036987
  44 C :   -0.011687
  45 C :   -0.029076
  46 C :   -0.016175
  47 C :   -0.144857
  48 C :   -0.002377
  49 C :   -0.029527
  50 C :   -0.136194
  51 S :    0.401427
  52 C :   -0.192272
  53 C :   -0.012823
  54 C :   -0.027173
  55 C :   -0.106433
  56 S :    0.459934
  57 C :   -0.065413
  58 C :    0.044236
  59 C :   -0.114029
  60 C :    0.083074
  61 O :   -0.131046
  62 C :   -0.030881
  63 C :    0.013479
  64 C :   -0.008860
  65 C :   -0.029784
  66 C :   -0.033559
  67 C :    0.050422
  68 C :   -0.015996
  69 N :   -0.050273
  70 C :    0.085303
  71 O :   -0.155850
  72 O :   -0.011029
  73 C :    0.033520
  74 C :   -0.162506
  75 C :   -0.031497
  76 N :   -0.051197
  77 C :   -0.017901
  78 N :   -0.072628
  79 H :    0.048046
  80 H :    0.046271
  81 H :    0.040657
  82 H :    0.043000
  83 H :    0.047354
  84 H :    0.046761
  85 H :    0.017037
  86 H :    0.048974
  87 H :    0.017400
  88 H :    0.044133
  89 H :    0.042653
  90 H :    0.038651
  91 H :    0.037031
  92 H :    0.040716
  93 H :    0.044920
  94 H :    0.049963
  95 H :    0.033523
  96 H :    0.052881
  97 H :    0.108332

  Mayer bond orders larger than 0.100000
B(  0-C ,  1-C ) :   1.4444 B(  0-C ,  5-C ) :   0.1076 B(  0-C ,  7-C ) :   1.1865
B(  0-C , 79-H ) :   1.0068 B(  1-C ,  2-F ) :   1.1373 B(  1-C ,  3-C ) :   1.1852
B(  3-C ,  4-F ) :   1.1357 B(  3-C ,  5-C ) :   1.4456 B(  5-C ,  6-C ) :   1.1908
B(  5-C , 80-H ) :   1.0073 B(  6-C ,  7-C ) :   1.2507 B(  6-C , 11-C ) :   1.1983
B(  7-C ,  8-C ) :   1.2251 B(  8-C ,  9-C ) :   1.4364 B(  8-C , 81-H ) :   0.9921
B(  9-C , 10-C ) :   1.2216 B(  9-C , 15-C ) :   1.0082 B( 10-C , 11-C ) :   1.4656
B( 10-C , 12-C ) :   0.9438 B( 11-C , 82-H ) :   1.0160 B( 12-C , 13-O ) :   2.2443
B( 12-C , 14-C ) :   0.9094 B( 14-C , 15-C ) :   1.0390 B( 14-C , 21-C ) :   1.7916
B( 15-C , 16-C ) :   1.6522 B( 16-C , 17-C ) :   1.1682 B( 16-C , 19-C ) :   1.1317
B( 17-C , 18-N ) :   2.9068 B( 19-C , 20-N ) :   2.9834 B( 21-C , 22-C ) :   1.0180
B( 21-C , 83-H ) :   0.9055 B( 22-C , 23-S ) :   1.2192 B( 22-C , 26-C ) :   1.4877
B( 23-S , 24-C ) :   1.0923 B( 24-C , 25-C ) :   1.4763 B( 24-C , 32-C ) :   1.1719
B( 25-C , 26-C ) :   1.2769 B( 25-C , 30-C ) :   1.1259 B( 26-C , 27-N ) :   0.9095
B( 27-N , 28-O ) :   1.5072 B( 27-N , 29-O ) :   1.5515 B( 28-O , 29-O ) :   0.2692
B( 30-C , 31-N ) :   3.0075 B( 32-C , 33-C ) :   1.6514 B( 32-C , 84-H ) :   0.9581
B( 33-C , 34-C ) :   1.1416 B( 33-C , 85-H ) :   0.9250 B( 34-C , 35-S ) :   1.1845
B( 34-C , 38-C ) :   1.3944 B( 35-S , 36-C ) :   1.0741 B( 36-C , 37-C ) :   1.4742
B( 36-C , 44-C ) :   1.1980 B( 37-C , 38-C ) :   1.2619 B( 37-C , 42-C ) :   1.1304
B( 38-C , 39-N ) :   0.9351 B( 39-N , 40-O ) :   1.4942 B( 39-N , 41-O ) :   1.5279
B( 40-O , 41-O ) :   0.2663 B( 42-C , 43-N ) :   2.9926 B( 44-C , 45-C ) :   1.5734
B( 44-C , 86-H ) :   0.9756 B( 45-C , 46-C ) :   1.1772 B( 45-C , 87-H ) :   0.9684
B( 46-C , 47-C ) :   1.5446 B( 46-C , 88-H ) :   0.9863 B( 47-C , 48-C ) :   1.1496
B( 47-C , 51-S ) :   1.0310 B( 48-C , 49-C ) :   1.5794 B( 48-C , 89-H ) :   0.9998
B( 49-C , 50-C ) :   1.1929 B( 49-C , 90-H ) :   0.9958 B( 50-C , 51-S ) :   1.0884
B( 50-C , 52-C ) :   1.4689 B( 52-C , 53-C ) :   1.2073 B( 52-C , 56-S ) :   1.0388
B( 53-C , 54-C ) :   1.5591 B( 53-C , 91-H ) :   0.9920 B( 54-C , 55-C ) :   1.1785
B( 54-C , 92-H ) :   0.9992 B( 55-C , 56-S ) :   1.1144 B( 55-C , 57-C ) :   1.4271
B( 57-C , 58-C ) :   1.3535 B( 57-C , 93-H ) :   0.9527 B( 58-C , 59-C ) :   1.4427
B( 58-C , 94-H ) :   0.9307 B( 59-C , 60-C ) :   0.9669 B( 59-C , 73-C ) :   1.1576
B( 60-C , 61-O ) :   2.2670 B( 60-C , 62-C ) :   0.8922 B( 62-C , 63-C ) :   1.3455
B( 62-C , 67-C ) :   1.3654 B( 63-C , 64-C ) :   1.3961 B( 63-C , 73-C ) :   0.9859
B( 64-C , 65-C ) :   1.3155 B( 64-C , 95-H ) :   0.9665 B( 65-C , 66-C ) :   1.4067
B( 65-C , 70-C ) :   0.8845 B( 66-C , 67-C ) :   1.3478 B( 66-C , 68-C ) :   1.0786
B( 67-C , 96-H ) :   1.0156 B( 68-C , 69-N ) :   2.9788 B( 70-C , 71-O ) :   2.0328
B( 70-C , 72-O ) :   1.2534 B( 72-O , 97-H ) :   0.9341 B( 73-C , 74-C ) :   1.5369
B( 74-C , 75-C ) :   1.1673 B( 74-C , 77-C ) :   1.1512 B( 75-C , 76-N ) :   3.0027
B( 77-C , 78-N ) :   2.9591

-----------------------------------------------------------------------------
         ABSORPTION SPECTRUM VIA TRANSITION ELECTRIC DIPOLE MOMENTS
-----------------------------------------------------------------------------
State   Energy  Wavelength   fosc         T2         TX        TY        TZ
        (cm-1)    (nm)                  (au**2)     (au)      (au)      (au)
-----------------------------------------------------------------------------
   0   11260.4    888.1   0.598659741  17.50261   1.40877  -1.74361  -3.53239
   1   18914.4    528.7   0.152270137   2.65031  -1.04026   0.94137  -0.82583
   2   19709.8    507.4   0.235616335   3.93548   1.00339  -1.14056   1.27586
   3   20072.9    498.2   0.932428041  15.29259  -1.86790   3.42230  -0.30232
   4   22227.7    449.9   0.565133118   8.37014   0.83527  -1.03955   2.56745
   5   23515.6    425.3   0.077915479   1.09080   0.02997  -0.78449  -0.68882
   6   24571.4    407.0   0.025313479   0.33915   0.18314   0.18449   0.52113
   7   24869.1    402.1   0.233682928   3.09345  -0.37090   1.21983   1.21157
   8   25518.7    391.9   0.259536777   3.34824  -0.22184  -0.34777   1.78272
   9   26436.2    378.3   0.276731397   3.44615  -0.07549  -0.59421  -1.75709
  10   27082.6    369.2   0.194908306   2.36928  -0.72625   1.33256  -0.25712
  11   27876.4    358.7   0.093041638   1.09879  -0.12831   0.93195  -0.46239
  12   28192.8    354.7   0.017074360   0.19938   0.23729  -0.08698   0.36812
  13   28497.9    350.9   0.033901872   0.39164  -0.35600  -0.50946   0.07316
  14   28595.7    349.7   0.009684523   0.11149  -0.20918   0.11381  -0.23406
  15   28767.0    347.6   0.137280899   1.57105  -0.05763   0.77859  -0.98057
  16   29295.7    341.3   0.046878412   0.52680   0.31628  -0.25437  -0.60172
  17   29687.4    336.8   0.060121336   0.66670  -0.01955   0.80401   0.14104
  18   30468.7    328.2   0.013615663   0.14712   0.05695   0.30647  -0.22349
  19   30791.6    324.8   0.132965367   1.42161   0.01344  -1.05940   0.54691
  20   31109.1    321.4   0.029630118   0.31356  -0.09788  -0.55105   0.01793
  21   31302.4    319.5   0.008267498   0.08695  -0.26604  -0.04147  -0.12022
  22   31600.2    316.5   0.012234885   0.12746   0.22464  -0.20989  -0.18150
  23   31680.6    315.7   0.168381955   1.74976   0.03748   1.27339  -0.35612
  24   32134.0    311.2   0.003768761   0.03861  -0.06203   0.17472   0.06509
  25   32396.7    308.7   0.018578785   0.18880  -0.05429  -0.42576   0.06765
  26   32559.8    307.1   0.040455886   0.40905   0.10095   0.46208   0.43051
  27   32737.7    305.5   0.458371466   4.60941   0.30709   1.58317  -1.41728
  28   32898.7    304.0   0.080098239   0.80153   0.19164   0.65036  -0.58466
  29   33053.7    302.5   0.341393874   3.40025  -0.68574  -1.49800   0.82825
  30   33215.9    301.1   0.116918015   1.15881   0.21439  -1.04797   0.12083
  31   33716.4    296.6   0.004913519   0.04798   0.21446  -0.03646   0.02561
  32   34055.8    293.6   0.016977051   0.16411   0.08763   0.37767   0.11746
  33   34157.3    292.8   0.040682066   0.39210   0.09985  -0.58612   0.19644
  34   34408.2    290.6   0.038271129   0.36617   0.36606  -0.45494   0.15874
  35   34720.8    288.0   0.119151429   1.12976   0.57553   0.28913  -0.84553
  36   34947.0    286.1   0.159257594   1.50026  -0.12286   1.11356   0.49512
  37   35050.2    285.3   0.053147077   0.49919  -0.28120   0.64132  -0.09392
  38   35119.2    284.7   0.007972251   0.07473   0.22016   0.15767   0.03742
  39   35290.1    283.4   0.064621596   0.60284  -0.34210  -0.67951   0.15515
  40   35405.9    282.4   0.001300543   0.01209  -0.01562   0.10576  -0.02576
  41   35553.5    281.3   0.017170014   0.15899   0.28976  -0.26832   0.05501
  42   35678.9    280.3   0.017029492   0.15713   0.07238  -0.26881   0.28220
  43   35687.6    280.2   0.134858024   1.24404  -0.04400   1.11295  -0.05874
  44   36145.4    276.7   0.144867619   1.31945  -0.17050  -0.93086   0.65106
  45   36511.2    273.9   0.073150364   0.65958   0.31033   0.24738  -0.70858
  46   36810.7    271.7   0.070098556   0.62692  -0.40788   0.28854   0.61424
  47   36948.6    270.6   0.013329104   0.11876  -0.27682   0.19137   0.07422
  48   37163.3    269.1   0.012673129   0.11227   0.28017   0.14519  -0.11266
  49   37246.3    268.5   0.042533523   0.37594   0.30897  -0.18870   0.49485
  50   37332.1    267.9   0.193401843   1.70551   0.12730   1.24550  -0.37151
  51   37830.4    264.3   0.033613305   0.29251   0.27333  -0.23358  -0.40403
  52   37889.7    263.9   0.005108156   0.04438  -0.07446  -0.05422   0.18947
  53   38045.9    262.8   0.020391480   0.17645  -0.13883   0.39594  -0.02012
  54   38163.4    262.0   0.021299346   0.18374   0.13889  -0.35078  -0.20346
  55   38304.9    261.1   0.059749615   0.51352  -0.15248   0.48597   0.50408
  56   38509.4    259.7   0.091883964   0.78550   0.18776  -0.00258  -0.86617
  57   38605.7    259.0   0.042422150   0.36176  -0.14240   0.56809  -0.13695
  58   38684.0    258.5   0.019619402   0.16697  -0.06928   0.18956   0.35529
  59   38982.7    256.5   0.007659278   0.06468   0.02019   0.15572  -0.20007
  60   39059.4    256.0   0.023432831   0.19750   0.27558   0.24747   0.24560
  61   39254.3    254.7   0.106106217   0.88988   0.32776  -0.40634  -0.78571
  62   39337.9    254.2   0.024482318   0.20489   0.26509  -0.19432  -0.31122
  63   39427.7    253.6   0.066795234   0.55772   0.48711  -0.52001  -0.22369
  64   39476.2    253.3   0.032871293   0.27413   0.29486  -0.20589  -0.38052
  65   39619.5    252.4   0.061358973   0.50985  -0.14351  -0.56524   0.41201
  66   39822.0    251.1   0.021155504   0.17489  -0.35556   0.03624   0.21716
  67   40033.3    249.8   0.041520210   0.34144   0.01139   0.55550  -0.18090
  68   40144.7    249.1   0.007305881   0.05991  -0.14441   0.18231   0.07630
  69   40298.9    248.1   0.045579383   0.37235   0.07724   0.53281  -0.28722

FINAL SINGLE POINT ENERGY     -5027.298403109737

DIPOLE MOMENT
-------------
                                X             Y             Z
Electronic contribution:    -11.50204      35.38011     -32.42914
Nuclear contribution   :     13.52405     -37.41392      38.04384
                        -----------------------------------------
Total Dipole Moment    :      2.02201      -2.03381       5.61470
                        -----------------------------------------
Magnitude (a.u.)       :      6.30474
Magnitude (Debye)      :     16.02537

Rotational constants in cm-1:     0.000908     0.000461     0.000326
Rotational constants in MHz :    27.235549    13.822397     9.761626

                             ****ORCA TERMINATED NORMALLY****
TOTAL RUN TIME: 0 days 0 hours 12 minutes 20 seconds 589 msec
