                         Program Version 4.2.0 -  RELEASE  -
|  1> # ORCA input file
|  2> # SCF done       -186.089048667264          0.000420263167
|  3> ! CAM-B3LYP def2-SVP def2/J RIJCOSX Grid4 TightSCF
|  4> %maxcore 5000
|  5> %tddft
|  6>     Mode sTDDFT
|  7>     Ethresh 5.0
|  8>     maxcore 5000
|  9> end
| 10>
| 11> %pal
| 12>   nprocs 6
| 13>   end
| 14> * xyz 0 1
| 15>    C       12.32244       -21.07483        -4.76333
| 16>    C       12.32175       -19.84284        -4.12140
| 17>    C       11.09482       -19.20843        -3.70835
| 18>    N       11.13840       -18.01933        -3.10356
| 19>    C       12.30337       -17.44496        -2.88477
| 20>    C       13.52130       -18.08318        -3.28479
| 21>    N       13.51049       -19.24351        -3.88666
| 22>    C       14.76351       -17.44734        -3.02568
| 23>    N       15.74611       -16.90555        -2.79687
| 24>    C       12.34067       -16.18413        -2.24518
| 25>    N       12.40962       -15.16399        -1.72676
| 26>    C        9.80786       -19.81725        -3.91434
| 27>    C        9.84035       -21.07688        -4.57503
| 28>    C       11.09336       -21.68044        -4.99334
| 29>    N       10.90669       -22.85285        -5.60788
| 30>    S        9.33823       -23.16804        -5.66551
| 31>    N        8.80837       -21.84327        -4.91342
| 32>    C        8.69704       -19.08826        -3.45873
| 33>    C        7.34479       -19.36655        -3.38521
| 34>    C        6.58013       -20.50766        -3.69240
| 35>    C        5.24718       -20.37657        -3.41953
| 36>    C        4.88935       -19.12182        -2.89057
| 37>    S        6.29318       -18.10750        -2.74310
| 38>    C        3.60814       -18.71297        -2.52154
| 39>    C        2.43452       -19.48393        -2.56222
| 40>    C        1.32329       -18.81677        -2.12579
| 41>    C        1.56592       -17.48669        -1.72827
| 42>    S        3.26464       -17.11125        -1.92083
| 43>    C        0.58284       -16.63157        -1.25918
| 44>    C        0.68107       -15.30233        -0.86764
| 45>    C        1.77668       -14.42597        -0.84484
| 46>    C        1.43264       -13.16734        -0.39880
| 47>    C        0.05375       -13.04374        -0.05972
| 48>    S       -0.79989       -14.50543        -0.30523
| 49>    C       -0.19254       -11.74336         0.36997
| 50>    C        1.02498       -11.00382         0.31334
| 51>    C        2.07552       -11.88395        -0.17125
| 52>    C        3.38834       -11.56594        -0.37627
| 53>    C        3.88224       -10.27142        -0.11727
| 54>    N        4.26719        -9.21227         0.09726
| 55>    C        4.31935       -12.50720        -0.86194
| 56>    N        5.07119       -13.27600        -1.26004
| 57>    C        0.88614        -9.69227         0.71166
| 58>    C       -0.42918        -9.37652         1.08586
| 59>    S       -1.49593       -10.78752         0.92674
| 60>    C       -1.01495        -8.19908         1.53397
| 61>    C       -0.46543        -6.94170         1.73694
| 62>    C        0.83162        -6.42028         1.56997
| 63>    C        0.93707        -5.09064         1.88373
| 64>    C       -0.26888        -4.50805         2.31037
| 65>    S       -1.54673        -5.68324         2.30928
| 66>    C       -0.51241        -3.18895         2.69585
| 67>    C        0.38929        -2.11652         2.75656
| 68>    C       -0.20020        -0.95653         3.17817
| 69>    C       -1.58102        -1.06570         3.46512
| 70>    S       -2.11996        -2.69981         3.18155
| 71>    C       -2.32644         0.01577         3.90439
| 72>    C       -3.67437         0.15959         4.24910
| 73>    C       -4.67321        -0.85723         4.22207
| 74>    C       -6.04389        -0.58519         4.60664
| 75>    N       -6.95917        -1.57993         4.56737
| 76>    C       -6.58355        -2.77069         4.17909
| 77>    C       -5.23379        -3.04364         3.79667
| 78>    N       -4.32953        -2.07804         3.83305
| 79>    C       -4.85605        -4.33662         3.37964
| 80>    N       -4.59458        -5.40342         3.04614
| 81>    C       -7.54006        -3.81940         4.13562
| 82>    N       -8.28113        -4.69124         4.08944
| 83>    C       -6.45296         0.67516         5.01841
| 84>    C       -5.49858         1.69015         5.05337
| 85>    C       -4.12613         1.44249         4.67499
| 86>    N       -3.37679         2.53391         4.77647
| 87>    S       -4.29795         3.75345         5.29491
| 88>    N       -5.69008         2.96135         5.41676
| 89>    H       13.24588       -21.53505        -5.06881
| 90>    H        8.97875       -18.11547        -3.06980
| 91>    H        7.03777       -21.38606        -4.10675
| 92>    H        4.52431       -21.15320        -3.59209
| 93>    H        2.42774       -20.50348        -2.90118
| 94>    H        0.33801       -19.24574        -2.08232
| 95>    H       -0.40734       -17.06637        -1.19546
| 96>    H        2.76337       -14.72151        -1.15038
| 97>    H        1.68912        -8.98156         0.73849
| 98>    H       -2.07339        -8.27003         1.75498
| 99>    H        1.66393        -7.00547         1.22691
|100>    H        1.85155        -4.52956         1.81377
|101>    H        1.42931        -2.20682         2.49774
|102>    H        0.32008        -0.02153         3.29170
|103>    H       -1.76329         0.93747         4.00534
|104>    H       -7.47673         0.85136         5.29922
|105> *
|106>
|107>                          ****END OF INPUT****

CARTESIAN COORDINATES (ANGSTROEM)
---------------------------------
  C     12.322440  -21.074830   -4.763330
  C     12.321750  -19.842840   -4.121400
  C     11.094820  -19.208430   -3.708350
  N     11.138400  -18.019330   -3.103560
  C     12.303370  -17.444960   -2.884770
  C     13.521300  -18.083180   -3.284790
  N     13.510490  -19.243510   -3.886660
  C     14.763510  -17.447340   -3.025680
  N     15.746110  -16.905550   -2.796870
  C     12.340670  -16.184130   -2.245180
  N     12.409620  -15.163990   -1.726760
  C      9.807860  -19.817250   -3.914340
  C      9.840350  -21.076880   -4.575030
  C     11.093360  -21.680440   -4.993340
  N     10.906690  -22.852850   -5.607880
  S      9.338230  -23.168040   -5.665510
  N      8.808370  -21.843270   -4.913420
  C      8.697040  -19.088260   -3.458730
  C      7.344790  -19.366550   -3.385210
  C      6.580130  -20.507660   -3.692400
  C      5.247180  -20.376570   -3.419530
  C      4.889350  -19.121820   -2.890570
  S      6.293180  -18.107500   -2.743100
  C      3.608140  -18.712970   -2.521540
  C      2.434520  -19.483930   -2.562220
  C      1.323290  -18.816770   -2.125790
  C      1.565920  -17.486690   -1.728270
  S      3.264640  -17.111250   -1.920830
  C      0.582840  -16.631570   -1.259180
  C      0.681070  -15.302330   -0.867640
  C      1.776680  -14.425970   -0.844840
  C      1.432640  -13.167340   -0.398800
  C      0.053750  -13.043740   -0.059720
  S     -0.799890  -14.505430   -0.305230
  C     -0.192540  -11.743360    0.369970
  C      1.024980  -11.003820    0.313340
  C      2.075520  -11.883950   -0.171250
  C      3.388340  -11.565940   -0.376270
  C      3.882240  -10.271420   -0.117270
  N      4.267190   -9.212270    0.097260
  C      4.319350  -12.507200   -0.861940
  N      5.071190  -13.276000   -1.260040
  C      0.886140   -9.692270    0.711660
  C     -0.429180   -9.376520    1.085860
  S     -1.495930  -10.787520    0.926740
  C     -1.014950   -8.199080    1.533970
  C     -0.465430   -6.941700    1.736940
  C      0.831620   -6.420280    1.569970
  C      0.937070   -5.090640    1.883730
  C     -0.268880   -4.508050    2.310370
  S     -1.546730   -5.683240    2.309280
  C     -0.512410   -3.188950    2.695850
  C      0.389290   -2.116520    2.756560
  C     -0.200200   -0.956530    3.178170
  C     -1.581020   -1.065700    3.465120
  S     -2.119960   -2.699810    3.181550
  C     -2.326440    0.015770    3.904390
  C     -3.674370    0.159590    4.249100
  C     -4.673210   -0.857230    4.222070
  C     -6.043890   -0.585190    4.606640
  N     -6.959170   -1.579930    4.567370
  C     -6.583550   -2.770690    4.179090
  C     -5.233790   -3.043640    3.796670
  N     -4.329530   -2.078040    3.833050
  C     -4.856050   -4.336620    3.379640
  N     -4.594580   -5.403420    3.046140
  C     -7.540060   -3.819400    4.135620
  N     -8.281130   -4.691240    4.089440
  C     -6.452960    0.675160    5.018410
  C     -5.498580    1.690150    5.053370
  C     -4.126130    1.442490    4.674990
  N     -3.376790    2.533910    4.776470
  S     -4.297950    3.753450    5.294910
  N     -5.690080    2.961350    5.416760
  H     13.245880  -21.535050   -5.068810
  H      8.978750  -18.115470   -3.069800
  H      7.037770  -21.386060   -4.106750
  H      4.524310  -21.153200   -3.592090
  H      2.427740  -20.503480   -2.901180
  H      0.338010  -19.245740   -2.082320
  H     -0.407340  -17.066370   -1.195460
  H      2.763370  -14.721510   -1.150380
  H      1.689120   -8.981560    0.738490
  H     -2.073390   -8.270030    1.754980
  H      1.663930   -7.005470    1.226910
  H      1.851550   -4.529560    1.813770
  H      1.429310   -2.206820    2.497740
  H      0.320080   -0.021530    3.291700
  H     -1.763290    0.937470    4.005340
  H     -7.476730    0.851360    5.299220

 Total Charge           Charge          ....    0
 Multiplicity           Mult            ....    1
 Number of Electrons    NEL             ....  554
 Basis Dimension        Dim             .... 1148

ORBITAL ENERGIES
----------------

  NO   OCC          E(Eh)            E(eV)
   0   2.0000     -89.038425     -2422.8587
   1   2.0000     -89.021661     -2422.4025
   2   2.0000     -88.997069     -2421.7334
   3   2.0000     -88.996891     -2421.7285
   4   2.0000     -88.972693     -2421.0701
   5   2.0000     -88.961780     -2420.7731
   6   2.0000     -88.961095     -2420.7545
   7   2.0000     -88.960636     -2420.7420
   8   2.0000     -14.452754      -393.2794
   9   2.0000     -14.452573      -393.2745
  10   2.0000     -14.452123      -393.2622
  11   2.0000     -14.446770      -393.1166
  12   2.0000     -14.443800      -393.0358
  13   2.0000     -14.441809      -392.9816
  14   2.0000     -14.438900      -392.9024
  15   2.0000     -14.438655      -392.8958
  16   2.0000     -14.436495      -392.8370
  17   2.0000     -14.429852      -392.6562
  18   2.0000     -14.420147      -392.3921
  19   2.0000     -14.416587      -392.2953
  20   2.0000     -14.416508      -392.2931
  21   2.0000     -14.416433      -392.2911
  22   2.0000     -10.375835      -282.3408
  23   2.0000     -10.370978      -282.2086
  24   2.0000     -10.365693      -282.0648
  25   2.0000     -10.365472      -282.0588
  26   2.0000     -10.362777      -281.9855
  27   2.0000     -10.355786      -281.7953
  28   2.0000     -10.343170      -281.4520
  29   2.0000     -10.342574      -281.4357
  30   2.0000     -10.341944      -281.4186
  31   2.0000     -10.341237      -281.3994
  32   2.0000     -10.339011      -281.3388
  33   2.0000     -10.338516      -281.3253
  34   2.0000     -10.336934      -281.2823
  35   2.0000     -10.336872      -281.2806
  36   2.0000     -10.336336      -281.2660
  37   2.0000     -10.336313      -281.2654
  38   2.0000     -10.335142      -281.2335
  39   2.0000     -10.334610      -281.2190
  40   2.0000     -10.331959      -281.1469
  41   2.0000     -10.331475      -281.1337
  42   2.0000     -10.328742      -281.0594
  43   2.0000     -10.328368      -281.0492
  44   2.0000     -10.328280      -281.0468
  45   2.0000     -10.327178      -281.0168
  46   2.0000     -10.325029      -280.9583
  47   2.0000     -10.324281      -280.9380
  48   2.0000     -10.322085      -280.8782
  49   2.0000     -10.319804      -280.8162
  50   2.0000     -10.317645      -280.7574
  51   2.0000     -10.317574      -280.7554
  52   2.0000     -10.316509      -280.7265
  53   2.0000     -10.315206      -280.6910
  54   2.0000     -10.315026      -280.6861
  55   2.0000     -10.313494      -280.6444
  56   2.0000     -10.313479      -280.6440
  57   2.0000     -10.313218      -280.6369
  58   2.0000     -10.310892      -280.5736
  59   2.0000     -10.310200      -280.5548
  60   2.0000     -10.309397      -280.5330
  61   2.0000     -10.308376      -280.5052
  62   2.0000     -10.307070      -280.4696
  63   2.0000     -10.305616      -280.4301
  64   2.0000     -10.305518      -280.4274
  65   2.0000     -10.304690      -280.4049
  66   2.0000     -10.302244      -280.3383
  67   2.0000     -10.296862      -280.1919
  68   2.0000     -10.292081      -280.0618
  69   2.0000     -10.290399      -280.0160
  70   2.0000     -10.289842      -280.0008
  71   2.0000     -10.286430      -279.9080
  72   2.0000     -10.285392      -279.8797
  73   2.0000     -10.274045      -279.5710
  74   2.0000      -8.129958      -221.2274
  75   2.0000      -8.113512      -220.7799
  76   2.0000      -8.091799      -220.1891
  77   2.0000      -8.091590      -220.1834
  78   2.0000      -8.068291      -219.5494
  79   2.0000      -8.058236      -219.2758
  80   2.0000      -8.056829      -219.2375
  81   2.0000      -8.053819      -219.1556
  82   2.0000      -6.101039      -166.0177
  83   2.0000      -6.093295      -165.8070
  84   2.0000      -6.092661      -165.7897
  85   2.0000      -6.084657      -165.5719
  86   2.0000      -6.076962      -165.3625
  87   2.0000      -6.075960      -165.3353
  88   2.0000      -6.061036      -164.9292
  89   2.0000      -6.060799      -164.9227
  90   2.0000      -6.057037      -164.8204
  91   2.0000      -6.056768      -164.8130
  92   2.0000      -6.053963      -164.7367
  93   2.0000      -6.053848      -164.7336
  94   2.0000      -6.037981      -164.3018
  95   2.0000      -6.033812      -164.1884
  96   2.0000      -6.029517      -164.0715
  97   2.0000      -6.027808      -164.0250
  98   2.0000      -6.026410      -163.9870
  99   2.0000      -6.023728      -163.9140
 100   2.0000      -6.023721      -163.9138
 101   2.0000      -6.022167      -163.8715
 102   2.0000      -6.019426      -163.7969
 103   2.0000      -6.019029      -163.7861
 104   2.0000      -6.018071      -163.7600
 105   2.0000      -6.015398      -163.6873
 106   2.0000      -1.135475       -30.8978
 107   2.0000      -1.120800       -30.4985
 108   2.0000      -1.107871       -30.1467
 109   2.0000      -1.103124       -30.0175
 110   2.0000      -1.054301       -28.6890
 111   2.0000      -1.034468       -28.1493
 112   2.0000      -1.031515       -28.0690
 113   2.0000      -1.030546       -28.0426
 114   2.0000      -1.017689       -27.6927
 115   2.0000      -1.016731       -27.6666
 116   2.0000      -1.011161       -27.5151
 117   2.0000      -1.004151       -27.3243
 118   2.0000      -1.002790       -27.2873
 119   2.0000      -1.001136       -27.2423
 120   2.0000      -0.994661       -27.0661
 121   2.0000      -0.991663       -26.9845
 122   2.0000      -0.991371       -26.9766
 123   2.0000      -0.987445       -26.8697
 124   2.0000      -0.985770       -26.8242
 125   2.0000      -0.976305       -26.5666
 126   2.0000      -0.968870       -26.3643
 127   2.0000      -0.965025       -26.2597
 128   2.0000      -0.956950       -26.0399
 129   2.0000      -0.932822       -25.3834
 130   2.0000      -0.912431       -24.8285
 131   2.0000      -0.903255       -24.5788
 132   2.0000      -0.896791       -24.4029
 133   2.0000      -0.893638       -24.3171
 134   2.0000      -0.890058       -24.2197
 135   2.0000      -0.885440       -24.0941
 136   2.0000      -0.875965       -23.8362
 137   2.0000      -0.868079       -23.6216
 138   2.0000      -0.864636       -23.5279
 139   2.0000      -0.861419       -23.4404
 140   2.0000      -0.856240       -23.2995
 141   2.0000      -0.847266       -23.0553
 142   2.0000      -0.840789       -22.8790
 143   2.0000      -0.835298       -22.7296
 144   2.0000      -0.826479       -22.4896
 145   2.0000      -0.820660       -22.3313
 146   2.0000      -0.814550       -22.1650
 147   2.0000      -0.808530       -22.0012
 148   2.0000      -0.789730       -21.4896
 149   2.0000      -0.788408       -21.4537
 150   2.0000      -0.781439       -21.2640
 151   2.0000      -0.771511       -20.9939
 152   2.0000      -0.756116       -20.5750
 153   2.0000      -0.744493       -20.2587
 154   2.0000      -0.729694       -19.8560
 155   2.0000      -0.725640       -19.7457
 156   2.0000      -0.716275       -19.4908
 157   2.0000      -0.710510       -19.3340
 158   2.0000      -0.704973       -19.1833
 159   2.0000      -0.700664       -19.0660
 160   2.0000      -0.694618       -18.9015
 161   2.0000      -0.691496       -18.8166
 162   2.0000      -0.687480       -18.7073
 163   2.0000      -0.684405       -18.6236
 164   2.0000      -0.677166       -18.4266
 165   2.0000      -0.672556       -18.3012
 166   2.0000      -0.668292       -18.1851
 167   2.0000      -0.662579       -18.0297
 168   2.0000      -0.649341       -17.6695
 169   2.0000      -0.645922       -17.5764
 170   2.0000      -0.643403       -17.5079
 171   2.0000      -0.640895       -17.4396
 172   2.0000      -0.637060       -17.3353
 173   2.0000      -0.634913       -17.2769
 174   2.0000      -0.630154       -17.1473
 175   2.0000      -0.626596       -17.0505
 176   2.0000      -0.622098       -16.9281
 177   2.0000      -0.618745       -16.8369
 178   2.0000      -0.614107       -16.7107
 179   2.0000      -0.609623       -16.5887
 180   2.0000      -0.604366       -16.4456
 181   2.0000      -0.596885       -16.2421
 182   2.0000      -0.591912       -16.1068
 183   2.0000      -0.581248       -15.8166
 184   2.0000      -0.577359       -15.7107
 185   2.0000      -0.568382       -15.4665
 186   2.0000      -0.567730       -15.4487
 187   2.0000      -0.561727       -15.2854
 188   2.0000      -0.559542       -15.2259
 189   2.0000      -0.557524       -15.1710
 190   2.0000      -0.552186       -15.0257
 191   2.0000      -0.548868       -14.9355
 192   2.0000      -0.543797       -14.7975
 193   2.0000      -0.538464       -14.6524
 194   2.0000      -0.536209       -14.5910
 195   2.0000      -0.535277       -14.5656
 196   2.0000      -0.527459       -14.3529
 197   2.0000      -0.526190       -14.3184
 198   2.0000      -0.519310       -14.1311
 199   2.0000      -0.518822       -14.1179
 200   2.0000      -0.516255       -14.0480
 201   2.0000      -0.515439       -14.0258
 202   2.0000      -0.515041       -14.0150
 203   2.0000      -0.511043       -13.9062
 204   2.0000      -0.510586       -13.8937
 205   2.0000      -0.509397       -13.8614
 206   2.0000      -0.507093       -13.7987
 207   2.0000      -0.504758       -13.7351
 208   2.0000      -0.498456       -13.5637
 209   2.0000      -0.494049       -13.4438
 210   2.0000      -0.489734       -13.3263
 211   2.0000      -0.488107       -13.2821
 212   2.0000      -0.485874       -13.2213
 213   2.0000      -0.482012       -13.1162
 214   2.0000      -0.480553       -13.0765
 215   2.0000      -0.478803       -13.0289
 216   2.0000      -0.474269       -12.9055
 217   2.0000      -0.471762       -12.8373
 218   2.0000      -0.471569       -12.8321
 219   2.0000      -0.467255       -12.7147
 220   2.0000      -0.466945       -12.7062
 221   2.0000      -0.466341       -12.6898
 222   2.0000      -0.465437       -12.6652
 223   2.0000      -0.465166       -12.6578
 224   2.0000      -0.462806       -12.5936
 225   2.0000      -0.459659       -12.5080
 226   2.0000      -0.455089       -12.3836
 227   2.0000      -0.454248       -12.3607
 228   2.0000      -0.452298       -12.3076
 229   2.0000      -0.449975       -12.2444
 230   2.0000      -0.449504       -12.2316
 231   2.0000      -0.446638       -12.1536
 232   2.0000      -0.446110       -12.1393
 233   2.0000      -0.444679       -12.1003
 234   2.0000      -0.443189       -12.0598
 235   2.0000      -0.442978       -12.0541
 236   2.0000      -0.442244       -12.0341
 237   2.0000      -0.441632       -12.0174
 238   2.0000      -0.435195       -11.8423
 239   2.0000      -0.434614       -11.8264
 240   2.0000      -0.433167       -11.7871
 241   2.0000      -0.433052       -11.7839
 242   2.0000      -0.428306       -11.6548
 243   2.0000      -0.425916       -11.5898
 244   2.0000      -0.420597       -11.4450
 245   2.0000      -0.419951       -11.4274
 246   2.0000      -0.412687       -11.2298
 247   2.0000      -0.411031       -11.1847
 248   2.0000      -0.410402       -11.1676
 249   2.0000      -0.408821       -11.1246
 250   2.0000      -0.406780       -11.0691
 251   2.0000      -0.405314       -11.0292
 252   2.0000      -0.400202       -10.8901
 253   2.0000      -0.398924       -10.8553
 254   2.0000      -0.396764       -10.7965
 255   2.0000      -0.395973       -10.7750
 256   2.0000      -0.380898       -10.3648
 257   2.0000      -0.375140       -10.2081
 258   2.0000      -0.374442       -10.1891
 259   2.0000      -0.365159        -9.9365
 260   2.0000      -0.361677        -9.8417
 261   2.0000      -0.360894        -9.8204
 262   2.0000      -0.354341        -9.6421
 263   2.0000      -0.350296        -9.5320
 264   2.0000      -0.348433        -9.4814
 265   2.0000      -0.342508        -9.3201
 266   2.0000      -0.339964        -9.2509
 267   2.0000      -0.337777        -9.1914
 268   2.0000      -0.332963        -9.0604
 269   2.0000      -0.332713        -9.0536
 270   2.0000      -0.331073        -9.0090
 271   2.0000      -0.330863        -9.0032
 272   2.0000      -0.314603        -8.5608
 273   2.0000      -0.290452        -7.9036
 274   2.0000      -0.269058        -7.3214
 275   2.0000      -0.228810        -6.2262
 276   2.0000      -0.208533        -5.6745
 277   0.0000      -0.138425        -3.7667
 278   0.0000      -0.117707        -3.2030
 279   0.0000      -0.109879        -2.9900
 280   0.0000      -0.079434        -2.1615
 281   0.0000      -0.068219        -1.8563

MULLIKEN ATOMIC CHARGES
-----------------------
   0 C :   -0.095749
   1 C :    0.023833
   2 C :   -0.059300
   3 N :    0.048259
   4 C :   -0.143598
   5 C :   -0.144711
   6 N :    0.042225
   7 C :   -0.201339
   8 N :    0.232701
   9 C :   -0.210342
  10 N :    0.225288
  11 C :    0.128821
  12 C :    0.010180
  13 C :    0.096730
  14 N :   -0.272860
  15 S :    0.524201
  16 N :   -0.308102
  17 C :   -0.047298
  18 C :   -0.054415
  19 C :    0.048824
  20 C :    0.009902
  21 C :   -0.039107
  22 S :    0.131742
  23 C :   -0.026232
  24 C :    0.028815
  25 C :    0.033259
  26 C :   -0.037693
  27 S :    0.098700
  28 C :    0.030314
  29 C :   -0.087671
  30 C :   -0.036575
  31 C :    0.002843
  32 C :   -0.095133
  33 S :    0.185445
  34 C :   -0.092679
  35 C :   -0.002559
  36 C :    0.309249
  37 C :   -0.289816
  38 C :   -0.178989
  39 N :    0.167148
  40 C :   -0.182026
  41 N :    0.177636
  42 C :   -0.021549
  43 C :   -0.092409
  44 S :    0.196011
  45 C :    0.105933
  46 C :   -0.085265
  47 C :    0.030047
  48 C :    0.013221
  49 C :   -0.039659
  50 S :    0.153708
  51 C :   -0.019502
  52 C :    0.037471
  53 C :    0.015807
  54 C :    0.039764
  55 S :    0.124932
  56 C :   -0.135228
  57 C :    0.134631
  58 C :   -0.021130
  59 C :    0.031009
  60 N :    0.044007
  61 C :   -0.147221
  62 C :   -0.093005
  63 N :   -0.028833
  64 C :   -0.229573
  65 N :    0.197845
  66 C :   -0.220521
  67 N :    0.229142
  68 C :   -0.113848
  69 C :    0.105927
  70 C :   -0.034211
  71 N :   -0.280103
  72 S :    0.504357
  73 N :   -0.276217
  74 H :   -0.025538
  75 H :    0.013176
  76 H :   -0.008652
  77 H :   -0.012334
  78 H :   -0.006137
  79 H :   -0.005065
  80 H :   -0.007971
  81 H :    0.022275
  82 H :   -0.003956
  83 H :    0.011092
  84 H :   -0.001906
  85 H :   -0.004213
  86 H :   -0.011625
  87 H :   -0.005634
  88 H :    0.002776
  89 H :   -0.031750
Sum of atomic charges:   -0.0000000

LOEWDIN ATOMIC CHARGES
----------------------
   0 C :   -0.035378
   1 C :   -0.007341
   2 C :   -0.010952
   3 N :    0.000883
   4 C :   -0.044854
   5 C :   -0.025199
   6 N :   -0.010527
   7 C :   -0.032779
   8 N :   -0.008481
   9 C :   -0.039195
  10 N :   -0.016446
  11 C :   -0.014139
  12 C :   -0.041116
  13 C :   -0.044647
  14 N :   -0.289164
  15 S :    0.655392
  16 N :   -0.272522
  17 C :   -0.047997
  18 C :   -0.117345
  19 C :   -0.034580
  20 C :   -0.022922
  21 C :   -0.181733
  22 S :    0.414109
  23 C :   -0.162461
  24 C :   -0.036396
  25 C :   -0.023129
  26 C :   -0.151150
  27 S :    0.414205
  28 C :   -0.066377
  29 C :   -0.158754
  30 C :   -0.029364
  31 C :   -0.058088
  32 C :   -0.182306
  33 S :    0.468214
  34 C :   -0.180584
  35 C :   -0.059476
  36 C :    0.079968
  37 C :   -0.096346
  38 C :   -0.012329
  39 N :   -0.033827
  40 C :   -0.018115
  41 N :   -0.022587
  42 C :   -0.020414
  43 C :   -0.156231
  44 S :    0.477734
  45 C :   -0.051509
  46 C :   -0.152369
  47 C :   -0.025560
  48 C :   -0.023607
  49 C :   -0.155885
  50 S :    0.449173
  51 C :   -0.204026
  52 C :   -0.022924
  53 C :   -0.037207
  54 C :   -0.124169
  55 S :    0.473347
  56 C :   -0.043086
  57 C :   -0.021317
  58 C :   -0.011366
  59 C :   -0.006362
  60 N :   -0.020954
  61 C :   -0.023298
  62 C :   -0.066548
  63 N :   -0.028417
  64 C :   -0.045291
  65 N :   -0.047522
  66 C :   -0.030658
  67 N :   -0.016322
  68 C :   -0.049621
  69 C :   -0.047327
  70 C :   -0.049470
  71 N :   -0.285509
  72 S :    0.641810
  73 N :   -0.295696
  74 H :    0.044715
  75 H :    0.036254
  76 H :    0.023876
  77 H :    0.032572
  78 H :    0.034879
  79 H :    0.036420
  80 H :    0.037320
  81 H :    0.029687
  82 H :    0.037265
  83 H :    0.038816
  84 H :    0.036381
  85 H :    0.036557
  86 H :    0.031536
  87 H :    0.035099
  88 H :    0.042997
  89 H :    0.042062

  Mayer bond orders larger than 0.100000
B(  0-C ,  1-C ) :   1.3032 B(  0-C , 11-C ) :   0.1115 B(  0-C , 13-C ) :   1.1694
B(  0-C , 74-H ) :   1.0563 B(  1-C ,  2-C ) :   1.1290 B(  1-C ,  6-N ) :   1.3407
B(  2-C ,  3-N ) :   1.4840 B(  2-C , 11-C ) :   1.1972 B(  3-N ,  4-C ) :   1.7010
B(  4-C ,  5-C ) :   1.2113 B(  4-C ,  9-C ) :   1.1584 B(  5-C ,  6-N ) :   1.7679
B(  5-C ,  7-C ) :   1.1524 B(  7-C ,  8-N ) :   3.0543 B(  9-C , 10-N ) :   3.0397
B( 11-C , 12-C ) :   1.1466 B( 11-C , 17-C ) :   1.3458 B( 12-C , 13-C ) :   1.1211
B( 12-C , 16-N ) :   1.5013 B( 13-C , 14-N ) :   1.4796 B( 14-N , 15-S ) :   1.2838
B( 14-N , 16-N ) :   0.1468 B( 15-S , 16-N ) :   1.2511 B( 16-N , 76-H ) :   0.1036
B( 17-C , 18-C ) :   1.4126 B( 17-C , 75-H ) :   0.9164 B( 18-C , 19-C ) :   1.2190
B( 18-C , 22-S ) :   1.0817 B( 19-C , 20-C ) :   1.5248 B( 19-C , 76-H ) :   0.9636
B( 20-C , 21-C ) :   1.2297 B( 20-C , 77-H ) :   0.9953 B( 21-C , 22-S ) :   1.0718
B( 21-C , 23-C ) :   1.4096 B( 23-C , 24-C ) :   1.2337 B( 23-C , 27-S ) :   1.0711
B( 24-C , 25-C ) :   1.5361 B( 24-C , 78-H ) :   0.9931 B( 25-C , 26-C ) :   1.1853
B( 25-C , 79-H ) :   1.0010 B( 26-C , 27-S ) :   1.0517 B( 26-C , 28-C ) :   1.5304
B( 28-C , 29-C ) :   1.2300 B( 28-C , 80-H ) :   0.9482 B( 29-C , 30-C ) :   1.3525
B( 29-C , 33-S ) :   1.0827 B( 30-C , 31-C ) :   1.3905 B( 30-C , 81-H ) :   0.9722
B( 31-C , 32-C ) :   1.3604 B( 31-C , 36-C ) :   0.9962 B( 32-C , 33-S ) :   1.1140
B( 32-C , 34-C ) :   1.2800 B( 34-C , 35-C ) :   1.3525 B( 34-C , 44-S ) :   1.1197
B( 35-C , 36-C ) :   0.9971 B( 35-C , 42-C ) :   1.3915 B( 36-C , 37-C ) :   1.7134
B( 37-C , 38-C ) :   1.1318 B( 37-C , 40-C ) :   1.1335 B( 38-C , 39-N ) :   2.9949
B( 40-C , 41-N ) :   2.9824 B( 42-C , 43-C ) :   1.3399 B( 42-C , 82-H ) :   0.9883
B( 43-C , 44-S ) :   1.0875 B( 43-C , 45-C ) :   1.2680 B( 45-C , 46-C ) :   1.5085
B( 45-C , 83-H ) :   0.9270 B( 46-C , 47-C ) :   1.1855 B( 46-C , 50-S ) :   1.0564
B( 47-C , 48-C ) :   1.5519 B( 47-C , 84-H ) :   0.9970 B( 48-C , 49-C ) :   1.2341
B( 48-C , 85-H ) :   0.9951 B( 49-C , 50-S ) :   1.1075 B( 49-C , 51-C ) :   1.3801
B( 51-C , 52-C ) :   1.2494 B( 51-C , 55-S ) :   1.0154 B( 52-C , 53-C ) :   1.5075
B( 52-C , 86-H ) :   0.9940 B( 53-C , 54-C ) :   1.2056 B( 53-C , 87-H ) :   1.0034
B( 54-C , 55-S ) :   1.0934 B( 54-C , 56-C ) :   1.3837 B( 55-S , 63-N ) :   0.1056
B( 56-C , 57-C ) :   1.3340 B( 56-C , 88-H ) :   0.9572 B( 57-C , 58-C ) :   1.1544
B( 57-C , 68-C ) :   0.1011 B( 57-C , 70-C ) :   1.1466 B( 58-C , 59-C ) :   1.1083
B( 58-C , 63-N ) :   1.4715 B( 59-C , 60-N ) :   1.3317 B( 59-C , 68-C ) :   1.3438
B( 60-N , 61-C ) :   1.7666 B( 61-C , 62-C ) :   1.2362 B( 61-C , 66-C ) :   1.1658
B( 62-C , 63-N ) :   1.5602 B( 62-C , 64-C ) :   1.1706 B( 64-C , 65-N ) :   2.9637
B( 66-C , 67-N ) :   3.0568 B( 68-C , 69-C ) :   1.1449 B( 68-C , 89-H ) :   1.0569
B( 69-C , 70-C ) :   1.1285 B( 69-C , 73-N ) :   1.4966 B( 70-C , 71-N ) :   1.5723
B( 71-N , 72-S ) :   1.2526 B( 71-N , 73-N ) :   0.1444 B( 72-S , 73-N ) :   1.2647

-----------------------------------------------------------------------------
         ABSORPTION SPECTRUM VIA TRANSITION ELECTRIC DIPOLE MOMENTS
-----------------------------------------------------------------------------
State   Energy  Wavelength   fosc         T2         TX        TY        TZ
        (cm-1)    (nm)                  (au**2)     (au)      (au)      (au)
-----------------------------------------------------------------------------
   0    4181.2   2391.6   0.973851280  76.67682   5.09189  -6.55714  -2.78450
   1    7913.4   1263.7   0.409784640  17.04771  -3.14875   2.37053   1.23033
   2    8426.8   1186.7   0.091757413   3.58473   1.39182   1.27380   0.15811
   3    9647.4   1036.6   0.025544444   0.87169   0.79022  -0.41858  -0.26839
   4   14313.2    698.7   0.050201670   1.15467   0.25632   1.00610   0.27700
   5   14900.1    671.1   0.429469842   9.48895  -0.06549  -2.96906  -0.81812
   6   16105.5    620.9   0.077261097   1.57929   1.08258   0.63820   0.00218
   7   17507.5    571.2   0.161768935   3.04192   0.46303   1.64112   0.36639
   8   18000.2    555.5   0.097482619   1.78289  -1.25486  -0.43306   0.14381
   9   20653.6    484.2   0.079359413   1.26497   0.62229   0.93520   0.05580
  10   20936.4    477.6   0.058744249   0.92372  -0.14254   0.89231   0.32740
  11   22783.9    438.9   0.100829624   1.45692  -0.65670  -1.00141  -0.15109
  12   23388.1    427.6   0.010228724   0.14398  -0.32832  -0.18905   0.02112
  13   23496.6    425.6   0.052602900   0.73702  -0.00240  -0.82973  -0.22038
  14   24415.4    409.6   0.031369128   0.42297   0.64392  -0.08066  -0.04280
  15   24604.7    406.4   0.002517699   0.03369   0.03337  -0.05744   0.17110
  16   24851.6    402.4   0.083336365   1.10397   0.20953  -0.94194  -0.41572
  17   25161.7    397.4   0.048896569   0.63976   0.76678   0.15085  -0.17045
  18   25511.4    392.0   0.023966407   0.30927   0.54711   0.09366  -0.03428
  19   25888.4    386.3   0.025015603   0.31811   0.38929   0.37869   0.15218
  20   26800.3    373.1   0.003239109   0.03979   0.02713  -0.05473   0.18989
  21   27155.3    368.3   0.018464947   0.22386  -0.10830  -0.44865  -0.10412
  22   27411.4    364.8   0.000868072   0.01043  -0.10186   0.00579   0.00416
  23   27621.5    362.0   0.016372595   0.19514   0.42801  -0.07347  -0.08095
  24   28014.9    357.0   0.077266281   0.90798   0.71312   0.62727   0.07726
  25   28178.7    354.9   0.028651372   0.33473   0.40423   0.40784   0.07072
  26   29108.8    343.5   0.040107329   0.45360   0.39481  -0.48021  -0.25908
  27   29827.9    335.3   0.317521991   3.50450   1.72525   0.69271  -0.21949
  28   30006.3    333.3   0.081252390   0.89146   0.53818   0.77424   0.04868
  29   30141.2    331.8   0.064983101   0.70977   0.16096  -0.80521  -0.18838
  30   30446.7    328.4   0.026492011   0.28645  -0.50601  -0.17103   0.03398
  31   30798.4    324.7   0.801465429   8.56706  -0.92979  -2.61083  -0.94134
  32   30859.2    324.1   0.108333937   1.15573   0.93747   0.39615   0.34632
  33   31278.6    319.7   0.015503562   0.16318   0.37707  -0.14490   0.00183
  34   31721.3    315.2   0.005303875   0.05504  -0.02255   0.23025  -0.03901
  35   31805.3    314.4   0.070759620   0.73242  -0.70649   0.36707   0.31394
  36   32339.6    309.2   0.005805091   0.05909  -0.20209   0.10262   0.08787
  37   33107.0    302.1   0.351611446   3.49638  -0.84095  -1.60611  -0.45782
  38   33345.3    299.9   0.003041754   0.03003  -0.05030  -0.02561  -0.16385
  39   33391.4    299.5   0.012422099   0.12247  -0.18754   0.27441  -0.10956
  40   33738.1    296.4   0.005870190   0.05728   0.07577  -0.07753  -0.21338
  41   33998.6    294.1   0.223246028   2.16171   0.60073   1.30553   0.31053
  42   34068.6    293.5   0.104635018   1.01111   0.96956   0.12734  -0.23419
  43   34360.9    291.0   0.009659027   0.09254  -0.15154   0.23833   0.11304
  44   34403.5    290.7   0.070901734   0.67847  -0.08927   0.70609   0.41466
  45   34477.7    290.0   0.003798973   0.03627   0.18151   0.05609   0.01349
  46   34518.7    289.7   0.206340954   1.96792  -1.36856  -0.09386   0.29350
  47   34623.1    288.8   0.059710988   0.56776   0.68309  -0.25613  -0.18852
  48   34932.8    286.3   0.026295611   0.24781  -0.13620   0.46231   0.12464
  49   35160.5    284.4   0.027142724   0.25414  -0.01157  -0.49163  -0.11093
  50   35504.6    281.7   0.043924101   0.40728  -0.38057  -0.49722  -0.12336
  51   36031.6    277.5   0.000039408   0.00036   0.00574  -0.01723  -0.00549
  52   36148.8    276.6   0.000172455   0.00157  -0.01652  -0.03405  -0.01174
  53   36500.3    274.0   0.006053640   0.05460  -0.02106  -0.22153  -0.07127
  54   36728.0    272.3   0.016578400   0.14860  -0.03715  -0.37681  -0.07234
  55   36763.1    272.0   0.000099354   0.00089   0.00528   0.00671   0.02858
  56   36815.4    271.6   0.002549070   0.02279   0.08420   0.10215  -0.07260
  57   37018.1    270.1   0.039643655   0.35256   0.35149   0.47620   0.04737
  58   37459.6    267.0   0.076340994   0.67092  -0.81176  -0.01976   0.10755
  59   37612.3    265.9   0.002119839   0.01855  -0.11406   0.05720   0.04768
  60   37696.0    265.3   0.045559107   0.39788   0.03569   0.58391   0.23592
  61   37869.0    264.1   0.001660480   0.01444   0.00738  -0.07935   0.08991
  62   37875.9    264.0   0.000360968   0.00314  -0.03262   0.03928  -0.02303
  63   38035.1    262.9   0.008759832   0.07582   0.25226   0.09034   0.06346
  64   38342.8    260.8   0.000491157   0.00422   0.01968  -0.05957  -0.01678
  65   38512.0    259.7   0.022017583   0.18821   0.23411  -0.34341  -0.12440
  66   38745.2    258.1   0.001079364   0.00917  -0.00399   0.04208  -0.08593
  67   38832.2    257.5   0.480239001   4.07137   0.31175   1.94886   0.41967
  68   38995.5    256.4   0.073731742   0.62247  -0.39000   0.64882   0.22225
  69   39114.6    255.7   0.173681082   1.46180   0.15676   1.16668   0.27584
  70   39447.2    253.5   0.015407452   0.12858  -0.31073   0.15257   0.09357
  71   39673.4    252.1   0.042631272   0.35376  -0.13898  -0.53279  -0.22490
  72   39951.1    250.3   0.038842627   0.32008   0.13230   0.50862   0.20947
  73   40076.6    249.5   0.194135071   1.59473   0.70030   0.94871   0.45195
  74   40182.4    248.9   0.006453682   0.05287   0.19733   0.06855  -0.09611

FINAL SINGLE POINT ENERGY     -5938.492170880611

DIPOLE MOMENT
-------------
                                X             Y             Z
Electronic contribution:     -1.20964       4.82295       2.52767
Nuclear contribution   :     -0.92126      -7.44201      -3.73567
                        -----------------------------------------
Total Dipole Moment    :     -2.13091      -2.61906      -1.20800
                        -----------------------------------------
Magnitude (a.u.)       :      3.58601
Magnitude (Debye)      :      9.11492

Rotational constants in cm-1:     0.001821     0.000148     0.000137
Rotational constants in MHz :    54.587419     4.443435     4.116468

                             ****ORCA TERMINATED NORMALLY****
TOTAL RUN TIME: 0 days 0 hours 10 minutes 4 seconds 531 msec
