                         Program Version 4.2.0 -  RELEASE  -
|  1> # ORCA input file
|  2> # SCF done       -165.895923835763          0.000523879868
|  3> ! CAM-B3LYP def2-SVP def2/J RIJCOSX Grid4 TightSCF
|  4> %maxcore 5000
|  5> %tddft
|  6>     Mode sTDDFT
|  7>     Ethresh 5.0
|  8>     maxcore 5000
|  9> end
| 10>
| 11> %pal
| 12>   nprocs 6
| 13>   end
| 14> * xyz 0 1
| 15>    C       -4.48367        -0.52413        -2.92836
| 16>    O       -5.09451        -1.56096        -3.06267
| 17>    C       -4.38465         0.56896        -3.92161
| 18>    C       -3.80791         1.70153        -3.32174
| 19>    C       -3.63617         2.85832        -4.06908
| 20>    C       -4.03597         2.86194        -5.39695
| 21>    C       -4.60266         1.73021        -5.96749
| 22>    C       -4.79348         0.56430        -5.23855
| 23>   Br       -5.12823         1.78150        -7.79234
| 24>    C       -3.48220         1.38656        -1.93216
| 25>    C       -2.89701         2.24812        -1.03999
| 26>    C       -2.56103         3.58615        -1.33356
| 27>    N       -2.26860         4.68316        -1.50498
| 28>    C       -2.55139         1.93436         0.29085
| 29>    N       -2.23786         1.76051         1.38216
| 30>    C       -3.83478         0.00033        -1.70222
| 31>    C       -3.73078        -0.68692        -0.52666
| 32>    C       -3.85505        -2.09612        -0.37538
| 33>    C       -4.30134        -2.66622         0.81625
| 34>    C       -4.48894        -4.03117         0.99821
| 35>    C       -4.20177        -4.97767         0.01552
| 36>    C       -3.64634        -4.44348        -1.18486
| 37>    C       -3.47523        -3.02718        -1.38056
| 38>    N       -2.86909        -2.86607        -2.53904
| 39>    O       -2.69133        -4.07971        -3.04658
| 40>    N       -3.15543        -5.04669        -2.24922
| 41>    C       -4.40683        -6.37339         0.16160
| 42>    N       -4.09729        -7.24899        -0.85646
| 43>    C       -4.39534        -8.50444        -0.44952
| 44>    C       -4.39815        -9.84065        -0.82995
| 45>    C       -4.91001       -10.55531         0.26290
| 46>    N       -5.21436        -9.68146         1.28490
| 47>    C       -4.91201        -8.42172         0.87727
| 48>    C       -4.92167        -7.08995         1.25843
| 49>    C       -5.10633       -11.95570         0.34785
| 50>    C       -5.57886       -12.60325         1.44231
| 51>    C       -5.78294       -13.99948         1.53361
| 52>    S       -5.48566       -15.06471         0.18721
| 53>    C       -6.22872       -14.70550         2.64827
| 54>    C       -6.55797       -14.07443         3.93552
| 55>    O       -6.49631       -12.87107         4.15443
| 56>    C       -6.97092       -15.03967         4.93923
| 57>    C       -7.33033       -14.83593         6.25388
| 58>    N       -7.62433       -16.03377         6.81255
| 59>    C       -8.10192       -16.22773         8.15816
| 60>    C       -9.62565       -16.14032         8.21839
| 61>    C       -7.47798       -17.01199         5.88730
| 62>    C       -7.06620       -16.44045         4.70339
| 63>    C       -6.76644       -17.07375         3.42937
| 64>    O       -6.87107       -18.27721         3.24430
| 65>    C       -6.32855       -16.10600         2.40860
| 66>    C       -5.96423       -16.46005         1.11398
| 67>    C       -5.96217       -17.76069         0.54572
| 68>    C       -5.59730       -18.02926        -0.72600
| 69>    C       -5.59333       -19.32655        -1.34427
| 70>    C       -5.98943       -20.50364        -0.73087
| 71>    C       -5.96945       -21.74111        -1.39049
| 72>    C       -5.55469       -21.87125        -2.69077
| 73>    C       -5.14022       -20.71060        -3.36248
| 74>    C       -5.15867       -19.43677        -2.69337
| 75>    N       -4.73378       -18.45219        -3.48315
| 76>    S       -4.35161       -19.07050        -4.91836
| 77>    N       -4.70133       -20.60842        -4.61918
| 78>    H       -3.20336         3.74942        -3.64526
| 79>    H       -3.90700         3.75235        -5.99306
| 80>    H       -5.23560        -0.31735        -5.67584
| 81>    H       -3.55102        -0.13608         0.38799
| 82>    H       -4.56035        -2.00144         1.62789
| 83>    H       -4.88168        -4.37228         1.94279
| 84>    H       -3.69953        -6.94377        -1.73356
| 85>    H       -4.08036       -10.27023        -1.75819
| 86>    H       -5.59266        -9.95312         2.17594
| 87>    H       -5.24732        -6.67208         2.18906
| 88>    H       -4.85051       -12.52317        -0.53726
| 89>    H       -5.82934       -12.06353         2.34451
| 90>    H       -7.38089       -13.92048         6.80928
| 91>    H       -7.65793       -15.46079         8.79814
| 92>    H       -7.76981       -17.20905         8.50675
| 93>    H       -9.96284       -15.16674         7.87079
| 94>    H       -9.96597       -16.28376         9.23991
| 95>    H      -10.07386       -16.90582         7.58960
| 96>    H       -7.66022       -18.04346         6.11494
| 97>    H       -6.28413       -18.54321         1.21751
| 98>    H       -5.27335       -17.22035        -1.37016
| 99>    H       -6.32963       -20.47622         0.29243
|100>    H       -6.29460       -22.61666        -0.84810
|101>    H       -5.53932       -22.82092        -3.20001
|102> *
|103>
|104>                          ****END OF INPUT****

CARTESIAN COORDINATES (ANGSTROEM)
---------------------------------
  C     -4.483670   -0.524130   -2.928360
  O     -5.094510   -1.560960   -3.062670
  C     -4.384650    0.568960   -3.921610
  C     -3.807910    1.701530   -3.321740
  C     -3.636170    2.858320   -4.069080
  C     -4.035970    2.861940   -5.396950
  C     -4.602660    1.730210   -5.967490
  C     -4.793480    0.564300   -5.238550
  Br    -5.128230    1.781500   -7.792340
  C     -3.482200    1.386560   -1.932160
  C     -2.897010    2.248120   -1.039990
  C     -2.561030    3.586150   -1.333560
  N     -2.268600    4.683160   -1.504980
  C     -2.551390    1.934360    0.290850
  N     -2.237860    1.760510    1.382160
  C     -3.834780    0.000330   -1.702220
  C     -3.730780   -0.686920   -0.526660
  C     -3.855050   -2.096120   -0.375380
  C     -4.301340   -2.666220    0.816250
  C     -4.488940   -4.031170    0.998210
  C     -4.201770   -4.977670    0.015520
  C     -3.646340   -4.443480   -1.184860
  C     -3.475230   -3.027180   -1.380560
  N     -2.869090   -2.866070   -2.539040
  O     -2.691330   -4.079710   -3.046580
  N     -3.155430   -5.046690   -2.249220
  C     -4.406830   -6.373390    0.161600
  N     -4.097290   -7.248990   -0.856460
  C     -4.395340   -8.504440   -0.449520
  C     -4.398150   -9.840650   -0.829950
  C     -4.910010  -10.555310    0.262900
  N     -5.214360   -9.681460    1.284900
  C     -4.912010   -8.421720    0.877270
  C     -4.921670   -7.089950    1.258430
  C     -5.106330  -11.955700    0.347850
  C     -5.578860  -12.603250    1.442310
  C     -5.782940  -13.999480    1.533610
  S     -5.485660  -15.064710    0.187210
  C     -6.228720  -14.705500    2.648270
  C     -6.557970  -14.074430    3.935520
  O     -6.496310  -12.871070    4.154430
  C     -6.970920  -15.039670    4.939230
  C     -7.330330  -14.835930    6.253880
  N     -7.624330  -16.033770    6.812550
  C     -8.101920  -16.227730    8.158160
  C     -9.625650  -16.140320    8.218390
  C     -7.477980  -17.011990    5.887300
  C     -7.066200  -16.440450    4.703390
  C     -6.766440  -17.073750    3.429370
  O     -6.871070  -18.277210    3.244300
  C     -6.328550  -16.106000    2.408600
  C     -5.964230  -16.460050    1.113980
  C     -5.962170  -17.760690    0.545720
  C     -5.597300  -18.029260   -0.726000
  C     -5.593330  -19.326550   -1.344270
  C     -5.989430  -20.503640   -0.730870
  C     -5.969450  -21.741110   -1.390490
  C     -5.554690  -21.871250   -2.690770
  C     -5.140220  -20.710600   -3.362480
  C     -5.158670  -19.436770   -2.693370
  N     -4.733780  -18.452190   -3.483150
  S     -4.351610  -19.070500   -4.918360
  N     -4.701330  -20.608420   -4.619180
  H     -3.203360    3.749420   -3.645260
  H     -3.907000    3.752350   -5.993060
  H     -5.235600   -0.317350   -5.675840
  H     -3.551020   -0.136080    0.387990
  H     -4.560350   -2.001440    1.627890
  H     -4.881680   -4.372280    1.942790
  H     -3.699530   -6.943770   -1.733560
  H     -4.080360  -10.270230   -1.758190
  H     -5.592660   -9.953120    2.175940
  H     -5.247320   -6.672080    2.189060
  H     -4.850510  -12.523170   -0.537260
  H     -5.829340  -12.063530    2.344510
  H     -7.380890  -13.920480    6.809280
  H     -7.657930  -15.460790    8.798140
  H     -7.769810  -17.209050    8.506750
  H     -9.962840  -15.166740    7.870790
  H     -9.965970  -16.283760    9.239910
  H    -10.073860  -16.905820    7.589600
  H     -7.660220  -18.043460    6.114940
  H     -6.284130  -18.543210    1.217510
  H     -5.273350  -17.220350   -1.370160
  H     -6.329630  -20.476220    0.292430
  H     -6.294600  -22.616660   -0.848100
  H     -5.539320  -22.820920   -3.200010

 Total Charge           Charge          ....    0
 Multiplicity           Mult            ....    1
 Number of Electrons    NEL             ....  468
 Basis Dimension        Dim             .... 1028

ORBITAL ENERGIES
----------------

  NO   OCC          E(Eh)            E(eV)
   0   2.0000    -482.866858    -13139.4752
   1   2.0000     -89.015874     -2422.2451
   2   2.0000     -88.961837     -2420.7746
   3   2.0000     -62.544582     -1701.9246
   4   2.0000     -56.378412     -1534.1346
   5   2.0000     -56.375900     -1534.0662
   6   2.0000     -56.375892     -1534.0660
   7   2.0000     -19.356627      -526.7206
   8   2.0000     -19.210316      -522.7393
   9   2.0000     -19.197483      -522.3901
  10   2.0000     -19.196180      -522.3546
  11   2.0000     -14.488095      -394.2411
  12   2.0000     -14.486785      -394.2055
  13   2.0000     -14.477837      -393.9620
  14   2.0000     -14.461919      -393.5288
  15   2.0000     -14.459253      -393.4563
  16   2.0000     -14.430544      -392.6751
  17   2.0000     -14.428687      -392.6245
  18   2.0000     -14.413101      -392.2004
  19   2.0000     -14.410620      -392.1329
  20   2.0000     -10.361219      -281.9431
  21   2.0000     -10.357597      -281.8446
  22   2.0000     -10.356449      -281.8133
  23   2.0000     -10.339029      -281.3393
  24   2.0000     -10.338463      -281.3239
  25   2.0000     -10.337337      -281.2932
  26   2.0000     -10.333918      -281.2002
  27   2.0000     -10.331123      -281.1242
  28   2.0000     -10.324368      -280.9403
  29   2.0000     -10.322296      -280.8840
  30   2.0000     -10.317229      -280.7461
  31   2.0000     -10.316872      -280.7364
  32   2.0000     -10.315883      -280.7094
  33   2.0000     -10.315558      -280.7006
  34   2.0000     -10.314252      -280.6651
  35   2.0000     -10.313894      -280.6553
  36   2.0000     -10.313655      -280.6488
  37   2.0000     -10.313513      -280.6449
  38   2.0000     -10.312792      -280.6253
  39   2.0000     -10.310617      -280.5662
  40   2.0000     -10.310212      -280.5551
  41   2.0000     -10.306475      -280.4535
  42   2.0000     -10.304651      -280.4038
  43   2.0000     -10.303821      -280.3812
  44   2.0000     -10.303776      -280.3800
  45   2.0000     -10.301275      -280.3119
  46   2.0000     -10.297433      -280.2074
  47   2.0000     -10.297379      -280.2059
  48   2.0000     -10.296434      -280.1802
  49   2.0000     -10.294003      -280.1141
  50   2.0000     -10.292565      -280.0749
  51   2.0000     -10.292123      -280.0629
  52   2.0000     -10.289609      -279.9945
  53   2.0000     -10.288837      -279.9735
  54   2.0000     -10.282816      -279.8096
  55   2.0000     -10.282038      -279.7885
  56   2.0000     -10.281793      -279.7818
  57   2.0000     -10.281715      -279.7797
  58   2.0000     -10.280183      -279.7380
  59   2.0000     -10.279859      -279.7292
  60   2.0000     -10.279466      -279.7185
  61   2.0000     -10.279403      -279.7168
  62   2.0000     -10.278241      -279.6852
  63   2.0000     -10.274322      -279.5785
  64   2.0000     -10.271995      -279.5152
  65   2.0000     -10.266845      -279.3750
  66   2.0000     -10.266416      -279.3634
  67   2.0000      -8.773865      -238.7490
  68   2.0000      -8.107790      -220.6242
  69   2.0000      -8.057377      -219.2524
  70   2.0000      -6.609691      -179.8588
  71   2.0000      -6.595986      -179.4859
  72   2.0000      -6.595550      -179.4740
  73   2.0000      -6.078912      -165.4156
  74   2.0000      -6.071279      -165.2079
  75   2.0000      -6.070271      -165.1805
  76   2.0000      -6.026432      -163.9876
  77   2.0000      -6.022565      -163.8823
  78   2.0000      -6.019637      -163.8026
  79   2.0000      -2.725603       -74.1674
  80   2.0000      -2.721874       -74.0659
  81   2.0000      -2.721581       -74.0580
  82   2.0000      -2.710671       -73.7611
  83   2.0000      -2.710659       -73.7608
  84   2.0000      -1.309353       -35.6293
  85   2.0000      -1.126012       -30.6403
  86   2.0000      -1.116061       -30.3696
  87   2.0000      -1.115147       -30.3447
  88   2.0000      -1.110745       -30.2249
  89   2.0000      -1.105284       -30.0763
  90   2.0000      -1.098105       -29.8809
  91   2.0000      -1.062122       -28.9018
  92   2.0000      -1.015286       -27.6273
  93   2.0000      -1.013575       -27.5808
  94   2.0000      -1.001696       -27.2575
  95   2.0000      -0.996393       -27.1132
  96   2.0000      -0.992336       -27.0028
  97   2.0000      -0.990064       -26.9410
  98   2.0000      -0.969966       -26.3941
  99   2.0000      -0.958699       -26.0875
 100   2.0000      -0.953668       -25.9506
 101   2.0000      -0.936067       -25.4717
 102   2.0000      -0.925263       -25.1777
 103   2.0000      -0.913618       -24.8608
 104   2.0000      -0.912442       -24.8288
 105   2.0000      -0.904919       -24.6241
 106   2.0000      -0.894530       -24.3414
 107   2.0000      -0.886617       -24.1261
 108   2.0000      -0.878733       -23.9115
 109   2.0000      -0.872330       -23.7373
 110   2.0000      -0.867389       -23.6028
 111   2.0000      -0.857262       -23.3273
 112   2.0000      -0.849789       -23.1239
 113   2.0000      -0.847240       -23.0546
 114   2.0000      -0.839168       -22.8349
 115   2.0000      -0.837995       -22.8030
 116   2.0000      -0.831868       -22.6363
 117   2.0000      -0.810098       -22.0439
 118   2.0000      -0.797399       -21.6983
 119   2.0000      -0.777348       -21.1527
 120   2.0000      -0.764933       -20.8149
 121   2.0000      -0.764113       -20.7926
 122   2.0000      -0.761442       -20.7199
 123   2.0000      -0.753293       -20.4982
 124   2.0000      -0.750188       -20.4136
 125   2.0000      -0.743151       -20.2222
 126   2.0000      -0.725797       -19.7499
 127   2.0000      -0.710274       -19.3275
 128   2.0000      -0.700315       -19.0565
 129   2.0000      -0.699685       -19.0394
 130   2.0000      -0.697923       -18.9915
 131   2.0000      -0.694713       -18.9041
 132   2.0000      -0.691923       -18.8282
 133   2.0000      -0.687399       -18.7051
 134   2.0000      -0.680627       -18.5208
 135   2.0000      -0.668107       -18.1801
 136   2.0000      -0.659266       -17.9395
 137   2.0000      -0.655147       -17.8275
 138   2.0000      -0.649149       -17.6643
 139   2.0000      -0.642417       -17.4810
 140   2.0000      -0.636404       -17.3174
 141   2.0000      -0.632454       -17.2100
 142   2.0000      -0.623062       -16.9544
 143   2.0000      -0.617747       -16.8097
 144   2.0000      -0.610133       -16.6026
 145   2.0000      -0.608048       -16.5458
 146   2.0000      -0.606144       -16.4940
 147   2.0000      -0.599593       -16.3157
 148   2.0000      -0.591210       -16.0876
 149   2.0000      -0.582537       -15.8516
 150   2.0000      -0.578125       -15.7316
 151   2.0000      -0.575655       -15.6644
 152   2.0000      -0.571914       -15.5626
 153   2.0000      -0.568857       -15.4794
 154   2.0000      -0.566205       -15.4072
 155   2.0000      -0.561639       -15.2830
 156   2.0000      -0.559653       -15.2289
 157   2.0000      -0.549286       -14.9468
 158   2.0000      -0.546911       -14.8822
 159   2.0000      -0.544823       -14.8254
 160   2.0000      -0.543529       -14.7902
 161   2.0000      -0.539681       -14.6855
 162   2.0000      -0.538644       -14.6572
 163   2.0000      -0.537510       -14.6264
 164   2.0000      -0.533907       -14.5284
 165   2.0000      -0.532263       -14.4836
 166   2.0000      -0.529754       -14.4153
 167   2.0000      -0.522622       -14.2213
 168   2.0000      -0.521603       -14.1935
 169   2.0000      -0.518664       -14.1136
 170   2.0000      -0.516657       -14.0589
 171   2.0000      -0.515202       -14.0193
 172   2.0000      -0.511424       -13.9165
 173   2.0000      -0.508018       -13.8239
 174   2.0000      -0.504145       -13.7185
 175   2.0000      -0.497134       -13.5277
 176   2.0000      -0.495055       -13.4711
 177   2.0000      -0.492464       -13.4006
 178   2.0000      -0.490003       -13.3337
 179   2.0000      -0.487880       -13.2759
 180   2.0000      -0.483968       -13.1694
 181   2.0000      -0.480390       -13.0721
 182   2.0000      -0.475911       -12.9502
 183   2.0000      -0.474288       -12.9060
 184   2.0000      -0.473270       -12.8783
 185   2.0000      -0.471192       -12.8218
 186   2.0000      -0.470762       -12.8101
 187   2.0000      -0.467808       -12.7297
 188   2.0000      -0.465421       -12.6647
 189   2.0000      -0.463466       -12.6116
 190   2.0000      -0.458042       -12.4640
 191   2.0000      -0.455908       -12.4059
 192   2.0000      -0.454622       -12.3709
 193   2.0000      -0.452422       -12.3110
 194   2.0000      -0.451590       -12.2884
 195   2.0000      -0.448697       -12.2097
 196   2.0000      -0.447957       -12.1895
 197   2.0000      -0.447627       -12.1805
 198   2.0000      -0.445185       -12.1141
 199   2.0000      -0.441601       -12.0166
 200   2.0000      -0.439738       -11.9659
 201   2.0000      -0.436424       -11.8757
 202   2.0000      -0.429498       -11.6872
 203   2.0000      -0.423831       -11.5330
 204   2.0000      -0.421172       -11.4607
 205   2.0000      -0.416861       -11.3434
 206   2.0000      -0.415129       -11.2962
 207   2.0000      -0.413205       -11.2439
 208   2.0000      -0.412579       -11.2268
 209   2.0000      -0.404266       -11.0006
 210   2.0000      -0.401201       -10.9172
 211   2.0000      -0.393916       -10.7190
 212   2.0000      -0.388416       -10.5693
 213   2.0000      -0.380754       -10.3608
 214   2.0000      -0.376262       -10.2386
 215   2.0000      -0.368822       -10.0362
 216   2.0000      -0.361529        -9.8377
 217   2.0000      -0.361272        -9.8307
 218   2.0000      -0.358325        -9.7505
 219   2.0000      -0.344437        -9.3726
 220   2.0000      -0.341580        -9.2949
 221   2.0000      -0.334125        -9.0920
 222   2.0000      -0.329456        -8.9650
 223   2.0000      -0.326560        -8.8862
 224   2.0000      -0.325836        -8.8664
 225   2.0000      -0.323225        -8.7954
 226   2.0000      -0.321433        -8.7466
 227   2.0000      -0.318654        -8.6710
 228   2.0000      -0.303866        -8.2686
 229   2.0000      -0.302413        -8.2291
 230   2.0000      -0.296105        -8.0574
 231   2.0000      -0.292465        -7.9584
 232   2.0000      -0.261247        -7.1089
 233   2.0000      -0.225170        -6.1272
 234   0.0000      -0.102504        -2.7893
 235   0.0000      -0.071015        -1.9324
 236   0.0000      -0.065933        -1.7941
 237   0.0000      -0.052282        -1.4227
 238   0.0000      -0.035932        -0.9777

MULLIKEN ATOMIC CHARGES
-----------------------
   0 C :    0.149198
   1 O :   -0.143468
   2 C :   -0.020628
   3 C :    0.039026
   4 C :   -0.029521
   5 C :    0.048066
   6 C :   -0.002811
   7 C :   -0.012292
   8 Br:   -0.024022
   9 C :    0.306863
  10 C :   -0.357070
  11 C :   -0.185336
  12 N :    0.151299
  13 C :   -0.185344
  14 N :    0.149542
  15 C :   -0.080723
  16 C :   -0.051607
  17 C :    0.058632
  18 C :    0.005595
  19 C :   -0.053475
  20 C :    0.141488
  21 C :   -0.026132
  22 C :    0.015946
  23 N :    0.054149
  24 O :   -0.094948
  25 N :   -0.001660
  26 C :   -0.000606
  27 N :   -0.029685
  28 C :    0.134121
  29 C :   -0.171300
  30 C :    0.094889
  31 N :   -0.034418
  32 C :    0.124504
  33 C :   -0.152437
  34 C :    0.037625
  35 C :   -0.021052
  36 C :   -0.125763
  37 S :    0.123950
  38 C :    0.018554
  39 C :    0.136107
  40 O :   -0.193678
  41 C :   -0.013178
  42 C :    0.006629
  43 N :   -0.134049
  44 C :    0.092173
  45 C :    0.004982
  46 C :    0.002620
  47 C :   -0.008858
  48 C :    0.133802
  49 O :   -0.178609
  50 C :    0.018597
  51 C :   -0.121988
  52 C :    0.012328
  53 C :   -0.018220
  54 C :    0.085870
  55 C :   -0.043651
  56 C :    0.048743
  57 C :   -0.029481
  58 C :    0.064146
  59 C :   -0.007569
  60 N :   -0.285133
  61 S :    0.493955
  62 N :   -0.269231
  63 H :    0.006839
  64 H :    0.003699
  65 H :    0.000970
  66 H :    0.021494
  67 H :   -0.002376
  68 H :   -0.019770
  69 H :    0.134152
  70 H :   -0.027147
  71 H :    0.135958
  72 H :   -0.030959
  73 H :   -0.008975
  74 H :   -0.006447
  75 H :    0.002940
  76 H :    0.032411
  77 H :    0.032648
  78 H :    0.028383
  79 H :    0.029486
  80 H :    0.030289
  81 H :    0.005056
  82 H :    0.018517
  83 H :    0.001287
  84 H :   -0.008062
  85 H :   -0.006217
  86 H :   -0.019637
Sum of atomic charges:   -0.0000000

LOEWDIN ATOMIC CHARGES
----------------------
   0 C :    0.082170
   1 O :   -0.135291
   2 C :   -0.031484
   3 C :   -0.016843
   4 C :    0.007467
   5 C :   -0.016076
   6 C :   -0.097501
   7 C :   -0.001105
   8 Br:    0.112446
   9 C :    0.076948
  10 C :   -0.139936
  11 C :   -0.018400
  12 N :   -0.053997
  13 C :   -0.019911
  14 N :   -0.054077
  15 C :   -0.093731
  16 C :    0.072421
  17 C :   -0.061789
  18 C :    0.033724
  19 C :   -0.033579
  20 C :    0.002061
  21 C :   -0.041859
  22 C :   -0.035317
  23 N :   -0.010358
  24 O :    0.077981
  25 N :   -0.038606
  26 C :   -0.005120
  27 N :    0.080906
  28 C :   -0.002328
  29 C :   -0.086398
  30 C :    0.017120
  31 N :    0.069965
  32 C :   -0.011307
  33 C :   -0.071257
  34 C :   -0.021319
  35 C :   -0.052221
  36 C :   -0.124603
  37 S :    0.453064
  38 C :   -0.092896
  39 C :    0.082826
  40 O :   -0.185509
  41 C :   -0.100469
  42 C :    0.027562
  43 N :    0.088785
  44 C :    0.044130
  45 C :   -0.056906
  46 C :    0.028045
  47 C :   -0.100052
  48 C :    0.081706
  49 O :   -0.174239
  50 C :   -0.089615
  51 C :   -0.122392
  52 C :   -0.031176
  53 C :   -0.008032
  54 C :   -0.029822
  55 C :   -0.004397
  56 C :   -0.013888
  57 C :   -0.020438
  58 C :   -0.054773
  59 C :   -0.046595
  60 N :   -0.293446
  61 S :    0.635601
  62 N :   -0.288902
  63 H :    0.042242
  64 H :    0.039490
  65 H :    0.043464
  66 H :    0.045307
  67 H :    0.040644
  68 H :    0.033686
  69 H :    0.079131
  70 H :    0.028739
  71 H :    0.094846
  72 H :    0.026578
  73 H :    0.029446
  74 H :    0.028126
  75 H :    0.027942
  76 H :    0.033335
  77 H :    0.033418
  78 H :    0.030116
  79 H :    0.032747
  80 H :    0.030560
  81 H :    0.028641
  82 H :    0.035106
  83 H :    0.024053
  84 H :    0.035369
  85 H :    0.033505
  86 H :    0.036538

  Mayer bond orders larger than 0.100000
B(  0-C ,  1-O ) :   2.2275 B(  0-C ,  2-C ) :   0.9343 B(  0-C , 15-C ) :   0.9482
B(  2-C ,  3-C ) :   1.3342 B(  2-C ,  7-C ) :   1.3857 B(  3-C ,  4-C ) :   1.3606
B(  3-C ,  9-C ) :   0.9953 B(  4-C ,  5-C ) :   1.3856 B(  4-C , 63-H ) :   0.9828
B(  5-C ,  6-C ) :   1.3901 B(  5-C , 64-H ) :   0.9842 B(  6-C ,  7-C ) :   1.3353
B(  6-C ,  8-Br) :   0.9899 B(  7-C , 65-H ) :   1.0069 B(  9-C , 10-C ) :   1.6307
B(  9-C , 15-C ) :   1.0861 B( 10-C , 11-C ) :   1.1429 B( 10-C , 13-C ) :   1.1457
B( 11-C , 12-N ) :   2.9738 B( 13-C , 14-N ) :   2.9679 B( 15-C , 16-C ) :   1.5858
B( 16-C , 17-C ) :   1.1537 B( 16-C , 66-H ) :   0.9420 B( 17-C , 18-C ) :   1.3805
B( 17-C , 22-C ) :   1.1317 B( 18-C , 19-C ) :   1.2692 B( 18-C , 67-H ) :   0.9919
B( 19-C , 20-C ) :   1.4399 B( 19-C , 68-H ) :   0.9899 B( 20-C , 21-C ) :   1.0913
B( 20-C , 26-C ) :   1.1247 B( 21-C , 22-C ) :   1.1654 B( 21-C , 25-N ) :   1.5638
B( 22-C , 23-N ) :   1.5901 B( 23-N , 24-O ) :   1.0700 B( 23-N , 25-N ) :   0.1768
B( 24-O , 25-N ) :   1.0689 B( 26-C , 27-N ) :   1.2369 B( 26-C , 33-C ) :   1.3368
B( 27-N , 28-C ) :   1.1930 B( 27-N , 69-H ) :   0.8953 B( 28-C , 29-C ) :   1.2447
B( 28-C , 32-C ) :   1.2693 B( 29-C , 30-C ) :   1.3496 B( 29-C , 70-H ) :   1.0437
B( 30-C , 31-N ) :   1.2054 B( 30-C , 34-C ) :   1.1656 B( 31-N , 32-C ) :   1.1622
B( 31-N , 71-H ) :   0.9283 B( 32-C , 33-C ) :   1.3110 B( 33-C , 72-H ) :   1.0182
B( 34-C , 35-C ) :   1.5597 B( 34-C , 73-H ) :   0.9612 B( 35-C , 36-C ) :   1.2123
B( 35-C , 74-H ) :   0.9456 B( 36-C , 37-S ) :   1.1103 B( 36-C , 38-C ) :   1.4737
B( 37-S , 51-C ) :   1.1099 B( 38-C , 39-C ) :   0.9538 B( 38-C , 50-C ) :   1.1703
B( 39-C , 40-O ) :   2.1507 B( 39-C , 41-C ) :   1.0059 B( 40-O , 74-H ) :   0.1051
B( 41-C , 42-C ) :   1.4203 B( 41-C , 47-C ) :   1.2958 B( 42-C , 43-N ) :   1.2330
B( 42-C , 75-H ) :   0.9938 B( 43-N , 44-C ) :   0.9521 B( 43-N , 46-C ) :   1.2327
B( 44-C , 45-C ) :   1.1108 B( 44-C , 76-H ) :   0.9511 B( 44-C , 77-H ) :   0.9514
B( 45-C , 78-H ) :   0.9676 B( 45-C , 79-H ) :   0.9682 B( 45-C , 80-H ) :   0.9675
B( 46-C , 47-C ) :   1.4248 B( 46-C , 81-H ) :   0.9935 B( 47-C , 48-C ) :   0.9992
B( 48-C , 49-O ) :   2.1752 B( 48-C , 50-C ) :   0.9461 B( 50-C , 51-C ) :   1.4851
B( 51-C , 52-C ) :   1.1785 B( 52-C , 53-C ) :   1.6092 B( 52-C , 82-H ) :   0.9474
B( 53-C , 54-C ) :   1.1105 B( 53-C , 83-H ) :   0.9795 B( 54-C , 55-C ) :   1.4848
B( 54-C , 57-C ) :   0.1075 B( 54-C , 59-C ) :   1.1592 B( 55-C , 56-C ) :   1.2271
B( 55-C , 84-H ) :   0.9926 B( 56-C , 57-C ) :   1.4807 B( 56-C , 85-H ) :   0.9832
B( 57-C , 58-C ) :   1.2090 B( 57-C , 86-H ) :   1.0206 B( 58-C , 59-C ) :   1.1668
B( 58-C , 62-N ) :   1.5070 B( 59-C , 60-N ) :   1.5435 B( 60-N , 61-S ) :   1.2589
B( 60-N , 62-N ) :   0.1532 B( 61-S , 62-N ) :   1.2782

-----------------------------------------------------------------------------
         ABSORPTION SPECTRUM VIA TRANSITION ELECTRIC DIPOLE MOMENTS
-----------------------------------------------------------------------------
State   Energy  Wavelength   fosc         T2         TX        TY        TZ
        (cm-1)    (nm)                  (au**2)     (au)      (au)      (au)
-----------------------------------------------------------------------------
   0   13103.0    763.2   1.944867047  48.86477   0.95772   6.79197  -1.34786
   1   20746.5    482.0   0.342620660   5.43682  -0.08920   1.89755   1.35210
   2   21934.9    455.9   0.109143589   1.63809   0.22659  -0.48817  -1.16123
   3   23059.5    433.7   0.092826980   1.32526   0.52931   0.73024  -0.71542
   4   23451.1    426.4   0.151429635   2.12580  -0.40101  -0.89475   1.07908
   5   25356.2    394.4   0.033751886   0.43822   0.20072  -0.36276  -0.51607
   6   26608.4    375.8   0.034609674   0.42821  -0.10684   0.64407   0.04440
   7   26937.4    371.2   0.084621831   1.03419  -0.11173   0.21527  -0.98761
   8   27702.7    361.0   0.183530028   2.18103  -0.23254   0.95760   1.09998
   9   28021.6    356.9   0.038557300   0.45299   0.27481   0.29797   0.53730
  10   28395.0    352.2   0.139136036   1.61314   0.32119  -1.00258  -0.71050
  11   29429.7    339.8   0.111982619   1.25268   0.16643  -0.17967   1.09211
  12   29909.0    334.3   0.000197965   0.00218   0.01118  -0.01046   0.04410
  13   30065.4    332.6   0.000052959   0.00058   0.00159  -0.00129   0.02399
  14   31183.6    320.7   0.026737063   0.28227   0.27013  -0.07448   0.45139
  15   31571.9    316.7   0.016797676   0.17516   0.13765   0.39084  -0.05874
  16   32622.6    306.5   0.063797732   0.64382  -0.43046  -0.52575  -0.42674
  17   33045.5    302.6   0.007346347   0.07319   0.04219   0.00891  -0.26707
  18   34140.6    292.9   0.400280704   3.85983   0.57872   0.06371   1.87640
  19   34391.9    290.8   0.054419900   0.52093   0.42522   0.39667  -0.42751
  20   34730.1    287.9   0.008986892   0.08519  -0.03367  -0.28558  -0.04998
  21   34922.9    286.3   0.010129128   0.09549   0.11320  -0.14335  -0.24924
  22   35466.9    282.0   0.176100240   1.63461   0.45448   0.12796   1.18814
  23   35509.9    281.6   0.040864257   0.37885   0.34373   0.50928   0.03657
  24   35824.0    279.1   0.000039201   0.00036   0.00015   0.00150   0.01892
  25   35956.4    278.1   0.058634970   0.53685   0.21118   0.01052  -0.70153
  26   36114.8    276.9   0.222132305   2.02489  -0.18680  -1.06577  -0.92419
  27   36473.1    274.2   0.142147492   1.28305  -0.40208  -1.05887   0.01326
  28   36730.4    272.3   0.018539379   0.16617   0.12047   0.26422   0.28608
  29   36974.8    270.5   0.000064680   0.00058  -0.00517  -0.00962   0.02137
  30   37208.3    268.8   0.063747113   0.56402   0.20401   0.72190   0.03557
  31   37874.3    264.0   0.160230769   1.39276   0.24744  -0.06534  -1.15207
  32   38431.4    260.2   0.014836958   0.12710   0.14910  -0.32383  -0.00094
  33   38466.6    260.0   0.007655055   0.06551   0.17872   0.00194   0.18322
  34   38528.8    259.5   0.132002018   1.12790  -0.48266  -0.46012   0.82658
  35   38540.0    259.5   0.077402040   0.66117  -0.11761  -0.07221   0.80133
  36   39088.0    255.8   0.004722657   0.03978  -0.07344  -0.18400   0.02295
  37   39137.4    255.5   0.011605645   0.09762   0.05313  -0.15778  -0.26440
  38   39381.4    253.9   0.018985282   0.15871   0.14263   0.36323  -0.08018
  39   39734.0    251.7   0.077631335   0.64321  -0.28866  -0.17238   0.72812
  40   40099.5    249.4   0.027443286   0.22531   0.00524  -0.38737   0.27427

FINAL SINGLE POINT ENERGY     -5965.849785407729

DIPOLE MOMENT
-------------
                                X             Y             Z
Electronic contribution:     20.07411     153.75033    -120.04928
Nuclear contribution   :    -22.05472    -157.51374     122.61426
                        -----------------------------------------
Total Dipole Moment    :     -1.98061      -3.76341       2.56497
                        -----------------------------------------
Magnitude (a.u.)       :      4.96640
Magnitude (Debye)      :     12.62359

Rotational constants in cm-1:     0.001513     0.000239     0.000211
Rotational constants in MHz :    45.344143     7.172818     6.339503

                             ****ORCA TERMINATED NORMALLY****
TOTAL RUN TIME: 0 days 0 hours 7 minutes 38 seconds 35 msec
