                         Program Version 4.2.0 -  RELEASE  -
|  1> # ORCA input file
|  2> # SCF done       -190.256352769990          0.000897348549
|  3> ! CAM-B3LYP def2-SVP def2/J RIJCOSX Grid4 TightSCF
|  4> %maxcore 5000
|  5> %tddft
|  6>     Mode sTDDFT
|  7>     Ethresh 5.0
|  8>     maxcore 5000
|  9> end
| 10>
| 11> %pal
| 12>   nprocs 6
| 13>   end
| 14> * xyz 0 1
| 15>    C       -8.49906        -6.20055        -2.82768
| 16>    O       -7.97979        -7.03349        -2.10286
| 17>    C       -9.23883        -6.46823        -4.07879
| 18>    C       -9.69978        -5.25128        -4.61210
| 19>    C      -10.41936        -5.25524        -5.79704
| 20>    C      -10.66509        -6.46758        -6.42663
| 21>    C      -10.20029        -7.65527        -5.88035
| 22>    C       -9.47791        -7.67820        -4.69411
| 23>   Br      -10.55969        -9.29084        -6.77834
| 24>    C       -9.27659        -4.16195        -3.72989
| 25>    C       -9.55871        -2.83169        -3.92651
| 26>    C      -10.30837        -2.33553        -5.01247
| 27>    N      -10.91148        -1.86743        -5.87026
| 28>    C       -9.15313        -1.77589        -3.08582
| 29>    N       -8.85732        -0.86502        -2.44993
| 30>    C       -8.52720        -4.75259        -2.64641
| 31>    C       -7.91613        -4.06968        -1.61366
| 32>    C       -7.14929        -4.54546        -0.55717
| 33>    S       -6.72518        -6.20030        -0.19230
| 34>    C       -5.73304        -5.74768         1.18523
| 35>    C       -5.77408        -4.35677         1.35829
| 36>    C       -6.56330        -3.68404         0.40105
| 37>    C       -6.60480        -2.28562         0.60125
| 38>    C       -5.88708        -1.91878         1.70299
| 39>    C       -5.54451        -0.61023         2.26352
| 40>    O       -4.73059        -0.51063         3.16154
| 41>    O       -6.17117         0.40023         1.68917
| 42>    C       -5.84217         1.71275         2.14721
| 43>    S       -5.14474        -3.25529         2.53378
| 44>    C       -5.09377        -6.78315         1.87862
| 45>    C       -4.05896        -6.70437         2.78684
| 46>    C       -3.53252        -7.76312         3.56971
| 47>    C       -2.52823        -7.39533         4.41983
| 48>    C       -2.19859        -6.02709         4.33964
| 49>    S       -3.15915        -5.24681         3.10624
| 50>    C       -1.34181        -5.22999         5.07809
| 51>    C       -0.44264        -5.54501         6.12054
| 52>    C        0.19477        -4.46000         6.64214
| 53>    C       -0.17229        -3.22142         6.04713
| 54>    S       -1.34382        -3.50862         4.77040
| 55>    C        0.34610        -1.98380         6.31234
| 56>    C       -0.08036        -0.76760         5.71415
| 57>    S        1.13787         0.41196         5.27970
| 58>    C       -0.05389         1.48931         4.60184
| 59>    C       -1.31840         0.92819         4.68943
| 60>    C       -1.34137        -0.31565         5.35208
| 61>    C       -2.67056        -0.87615         5.75185
| 62>    C       -3.45258         0.16021         6.55183
| 63>    S       -3.58756         1.75801         5.66002
| 64>    O       -2.93274         2.77157         6.44686
| 65>    O       -4.95824         2.00387         5.30031
| 66>    C       -2.57995         1.47220         4.16643
| 67>    C        0.34636         2.74782         4.07863
| 68>    C       -0.39879         3.88188         4.14011
| 69>    C        0.03663         5.13585         3.63777
| 70>    C        0.88296         5.38891         2.59895
| 71>    C        1.56406         6.70772         2.50501
| 72>    O        1.30489         7.70974         3.12711
| 73>    C        2.65808         6.50508         1.52559
| 74>    C        2.55967         5.21493         0.97284
| 75>    C        1.37138         4.56136         1.51655
| 76>    C        0.71114         3.51685         0.92170
| 77>    C        1.20002         2.80791        -0.19388
| 78>    N        1.56335         2.18618        -1.08790
| 79>    C       -0.57783         3.09717         1.29849
| 80>    N       -1.65123         2.75468         1.52032
| 81>    C        3.50030         4.78711         0.04777
| 82>    C        4.51689         5.65585        -0.31819
| 83>    C        4.58700         6.93164         0.22689
| 84>    C        3.66106         7.37879         1.16070
| 85>   Br        5.99008         8.09028        -0.31693
| 86>    H      -10.78919        -4.34572        -6.24065
| 87>    H      -11.22255        -6.48711        -7.35049
| 88>    H       -9.11305        -8.59883        -4.26585
| 89>    H       -8.02143        -2.99326        -1.61619
| 90>    H       -7.12149        -1.58115        -0.02514
| 91>    H       -6.64611         2.35735         1.80233
| 92>    H       -4.89296         2.02618         1.70746
| 93>    H       -5.76157         1.73885         3.23708
| 94>    H       -5.44696        -7.77908         1.64121
| 95>    H       -3.93465        -8.75863         3.50343
| 96>    H       -2.04162        -8.06256         5.10861
| 97>    H       -0.29116        -6.55688         6.45162
| 98>    H        0.91056        -4.50166         7.44391
| 99>    H        1.21776        -1.93301         6.95174
|100>    H       -2.54779        -1.76893         6.36573
|101>    H       -3.24398        -1.14801         4.86160
|102>    H       -2.96075         0.40109         7.49077
|103>    H       -4.47253        -0.16524         6.72950
|104>    H       -2.47727         2.39026         3.59985
|105>    H       -3.13901         0.73258         3.59716
|106>    H        1.35974         2.80322         3.69635
|107>    H       -1.30974         3.88166         4.72333
|108>    H       -0.28708         6.01321         4.18883
|109>    H        3.46291         3.79865        -0.38071
|110>    H        5.26033         5.34064        -1.03410
|111>    H        3.71451         8.36846         1.58696
|112> *
|113>
|114>                          ****END OF INPUT****

CARTESIAN COORDINATES (ANGSTROEM)
---------------------------------
  C     -8.499060   -6.200550   -2.827680
  O     -7.979790   -7.033490   -2.102860
  C     -9.238830   -6.468230   -4.078790
  C     -9.699780   -5.251280   -4.612100
  C    -10.419360   -5.255240   -5.797040
  C    -10.665090   -6.467580   -6.426630
  C    -10.200290   -7.655270   -5.880350
  C     -9.477910   -7.678200   -4.694110
  Br   -10.559690   -9.290840   -6.778340
  C     -9.276590   -4.161950   -3.729890
  C     -9.558710   -2.831690   -3.926510
  C    -10.308370   -2.335530   -5.012470
  N    -10.911480   -1.867430   -5.870260
  C     -9.153130   -1.775890   -3.085820
  N     -8.857320   -0.865020   -2.449930
  C     -8.527200   -4.752590   -2.646410
  C     -7.916130   -4.069680   -1.613660
  C     -7.149290   -4.545460   -0.557170
  S     -6.725180   -6.200300   -0.192300
  C     -5.733040   -5.747680    1.185230
  C     -5.774080   -4.356770    1.358290
  C     -6.563300   -3.684040    0.401050
  C     -6.604800   -2.285620    0.601250
  C     -5.887080   -1.918780    1.702990
  C     -5.544510   -0.610230    2.263520
  O     -4.730590   -0.510630    3.161540
  O     -6.171170    0.400230    1.689170
  C     -5.842170    1.712750    2.147210
  S     -5.144740   -3.255290    2.533780
  C     -5.093770   -6.783150    1.878620
  C     -4.058960   -6.704370    2.786840
  C     -3.532520   -7.763120    3.569710
  C     -2.528230   -7.395330    4.419830
  C     -2.198590   -6.027090    4.339640
  S     -3.159150   -5.246810    3.106240
  C     -1.341810   -5.229990    5.078090
  C     -0.442640   -5.545010    6.120540
  C      0.194770   -4.460000    6.642140
  C     -0.172290   -3.221420    6.047130
  S     -1.343820   -3.508620    4.770400
  C      0.346100   -1.983800    6.312340
  C     -0.080360   -0.767600    5.714150
  S      1.137870    0.411960    5.279700
  C     -0.053890    1.489310    4.601840
  C     -1.318400    0.928190    4.689430
  C     -1.341370   -0.315650    5.352080
  C     -2.670560   -0.876150    5.751850
  C     -3.452580    0.160210    6.551830
  S     -3.587560    1.758010    5.660020
  O     -2.932740    2.771570    6.446860
  O     -4.958240    2.003870    5.300310
  C     -2.579950    1.472200    4.166430
  C      0.346360    2.747820    4.078630
  C     -0.398790    3.881880    4.140110
  C      0.036630    5.135850    3.637770
  C      0.882960    5.388910    2.598950
  C      1.564060    6.707720    2.505010
  O      1.304890    7.709740    3.127110
  C      2.658080    6.505080    1.525590
  C      2.559670    5.214930    0.972840
  C      1.371380    4.561360    1.516550
  C      0.711140    3.516850    0.921700
  C      1.200020    2.807910   -0.193880
  N      1.563350    2.186180   -1.087900
  C     -0.577830    3.097170    1.298490
  N     -1.651230    2.754680    1.520320
  C      3.500300    4.787110    0.047770
  C      4.516890    5.655850   -0.318190
  C      4.587000    6.931640    0.226890
  C      3.661060    7.378790    1.160700
  Br     5.990080    8.090280   -0.316930
  H    -10.789190   -4.345720   -6.240650
  H    -11.222550   -6.487110   -7.350490
  H     -9.113050   -8.598830   -4.265850
  H     -8.021430   -2.993260   -1.616190
  H     -7.121490   -1.581150   -0.025140
  H     -6.646110    2.357350    1.802330
  H     -4.892960    2.026180    1.707460
  H     -5.761570    1.738850    3.237080
  H     -5.446960   -7.779080    1.641210
  H     -3.934650   -8.758630    3.503430
  H     -2.041620   -8.062560    5.108610
  H     -0.291160   -6.556880    6.451620
  H      0.910560   -4.501660    7.443910
  H      1.217760   -1.933010    6.951740
  H     -2.547790   -1.768930    6.365730
  H     -3.243980   -1.148010    4.861600
  H     -2.960750    0.401090    7.490770
  H     -4.472530   -0.165240    6.729500
  H     -2.477270    2.390260    3.599850
  H     -3.139010    0.732580    3.597160
  H      1.359740    2.803220    3.696350
  H     -1.309740    3.881660    4.723330
  H     -0.287080    6.013210    4.188830
  H      3.462910    3.798650   -0.380710
  H      5.260330    5.340640   -1.034100
  H      3.714510    8.368460    1.586960

 Total Charge           Charge          ....    0
 Multiplicity           Mult            ....    1
 Number of Electrons    NEL             ....  586
 Basis Dimension        Dim             .... 1184

ORBITAL ENERGIES
----------------

  NO   OCC          E(Eh)            E(eV)
   0   2.0000    -482.874882    -13139.6935
   1   2.0000    -482.868270    -13139.5136
   2   2.0000     -89.127417     -2425.2803
   3   2.0000     -88.969669     -2420.9878
   4   2.0000     -88.967332     -2420.9242
   5   2.0000     -88.963617     -2420.8231
   6   2.0000     -88.962372     -2420.7892
   7   2.0000     -88.960909     -2420.7494
   8   2.0000     -62.552608     -1702.1430
   9   2.0000     -62.545992     -1701.9630
  10   2.0000     -56.386452     -1534.3534
  11   2.0000     -56.383917     -1534.2844
  12   2.0000     -56.383909     -1534.2842
  13   2.0000     -56.379817     -1534.1728
  14   2.0000     -56.377310     -1534.1046
  15   2.0000     -56.377301     -1534.1044
  16   2.0000     -19.268097      -524.3116
  17   2.0000     -19.221610      -523.0466
  18   2.0000     -19.219675      -522.9940
  19   2.0000     -19.216907      -522.9186
  20   2.0000     -19.184547      -522.0381
  21   2.0000     -19.182629      -521.9859
  22   2.0000     -14.425767      -392.5451
  23   2.0000     -14.420564      -392.4035
  24   2.0000     -14.414584      -392.2408
  25   2.0000     -14.408312      -392.0701
  26   2.0000     -10.416957      -283.4598
  27   2.0000     -10.372576      -282.2521
  28   2.0000     -10.366679      -282.0917
  29   2.0000     -10.350071      -281.6398
  30   2.0000     -10.348716      -281.6029
  31   2.0000     -10.348632      -281.6006
  32   2.0000     -10.339911      -281.3633
  33   2.0000     -10.336695      -281.2758
  34   2.0000     -10.335726      -281.2494
  35   2.0000     -10.332341      -281.1573
  36   2.0000     -10.330484      -281.1068
  37   2.0000     -10.329232      -281.0727
  38   2.0000     -10.328963      -281.0654
  39   2.0000     -10.326979      -281.0114
  40   2.0000     -10.326440      -280.9967
  41   2.0000     -10.323280      -280.9107
  42   2.0000     -10.321758      -280.8693
  43   2.0000     -10.319178      -280.7991
  44   2.0000     -10.318035      -280.7680
  45   2.0000     -10.317656      -280.7577
  46   2.0000     -10.317061      -280.7415
  47   2.0000     -10.316881      -280.7366
  48   2.0000     -10.315799      -280.7071
  49   2.0000     -10.315560      -280.7006
  50   2.0000     -10.314313      -280.6667
  51   2.0000     -10.312751      -280.6242
  52   2.0000     -10.312019      -280.6043
  53   2.0000     -10.309756      -280.5427
  54   2.0000     -10.308253      -280.5018
  55   2.0000     -10.308171      -280.4996
  56   2.0000     -10.308078      -280.4971
  57   2.0000     -10.307880      -280.4917
  58   2.0000     -10.307530      -280.4822
  59   2.0000     -10.307355      -280.4774
  60   2.0000     -10.306807      -280.4625
  61   2.0000     -10.304725      -280.4058
  62   2.0000     -10.303917      -280.3838
  63   2.0000     -10.303723      -280.3786
  64   2.0000     -10.301997      -280.3316
  65   2.0000     -10.301599      -280.3208
  66   2.0000     -10.300730      -280.2971
  67   2.0000     -10.300094      -280.2798
  68   2.0000     -10.299946      -280.2758
  69   2.0000     -10.298681      -280.2413
  70   2.0000     -10.298368      -280.2328
  71   2.0000     -10.297285      -280.2034
  72   2.0000     -10.296949      -280.1942
  73   2.0000     -10.296390      -280.1790
  74   2.0000     -10.294032      -280.1148
  75   2.0000     -10.293893      -280.1111
  76   2.0000     -10.290560      -280.0204
  77   2.0000     -10.290129      -280.0086
  78   2.0000     -10.289726      -279.9977
  79   2.0000      -8.781903      -238.9677
  80   2.0000      -8.775285      -238.7876
  81   2.0000      -8.194059      -222.9717
  82   2.0000      -8.063298      -219.4135
  83   2.0000      -8.062515      -219.3922
  84   2.0000      -8.058538      -219.2840
  85   2.0000      -8.058319      -219.2780
  86   2.0000      -8.057842      -219.2650
  87   2.0000      -6.617791      -180.0793
  88   2.0000      -6.611101      -179.8972
  89   2.0000      -6.603995      -179.7038
  90   2.0000      -6.603549      -179.6917
  91   2.0000      -6.597387      -179.5240
  92   2.0000      -6.597005      -179.5136
  93   2.0000      -6.163069      -167.7056
  94   2.0000      -6.162373      -167.6867
  95   2.0000      -6.162115      -167.6797
  96   2.0000      -6.032625      -164.1561
  97   2.0000      -6.032116      -164.1422
  98   2.0000      -6.028519      -164.0443
  99   2.0000      -6.028234      -164.0366
 100   2.0000      -6.028155      -164.0344
 101   2.0000      -6.027456      -164.0154
 102   2.0000      -6.027390      -164.0136
 103   2.0000      -6.025213      -163.9544
 104   2.0000      -6.024618      -163.9382
 105   2.0000      -6.023964      -163.9204
 106   2.0000      -6.023738      -163.9142
 107   2.0000      -6.023312      -163.9027
 108   2.0000      -6.019955      -163.8113
 109   2.0000      -6.019122      -163.7886
 110   2.0000      -6.018763      -163.7789
 111   2.0000      -2.733664       -74.3868
 112   2.0000      -2.729966       -74.2861
 113   2.0000      -2.729627       -74.2769
 114   2.0000      -2.727026       -74.2062
 115   2.0000      -2.723300       -74.1048
 116   2.0000      -2.722972       -74.0958
 117   2.0000      -2.718661       -73.9785
 118   2.0000      -2.718641       -73.9780
 119   2.0000      -2.712097       -73.7999
 120   2.0000      -2.712082       -73.7995
 121   2.0000      -1.201284       -32.6886
 122   2.0000      -1.189183       -32.3593
 123   2.0000      -1.137058       -30.9409
 124   2.0000      -1.134057       -30.8593
 125   2.0000      -1.108573       -30.1658
 126   2.0000      -1.068029       -29.0625
 127   2.0000      -1.026883       -27.9429
 128   2.0000      -1.020773       -27.7766
 129   2.0000      -1.015942       -27.6452
 130   2.0000      -1.014648       -27.6100
 131   2.0000      -1.008126       -27.4325
 132   2.0000      -1.006551       -27.3896
 133   2.0000      -1.000844       -27.2344
 134   2.0000      -0.998081       -27.1592
 135   2.0000      -0.990869       -26.9629
 136   2.0000      -0.989409       -26.9232
 137   2.0000      -0.970008       -26.3953
 138   2.0000      -0.962386       -26.1879
 139   2.0000      -0.955915       -26.0118
 140   2.0000      -0.934323       -25.4242
 141   2.0000      -0.926920       -25.2228
 142   2.0000      -0.919568       -25.0227
 143   2.0000      -0.915378       -24.9087
 144   2.0000      -0.908759       -24.7286
 145   2.0000      -0.905262       -24.6334
 146   2.0000      -0.894846       -24.3500
 147   2.0000      -0.888774       -24.1848
 148   2.0000      -0.881083       -23.9755
 149   2.0000      -0.867873       -23.6160
 150   2.0000      -0.866529       -23.5794
 151   2.0000      -0.864034       -23.5115
 152   2.0000      -0.855240       -23.2723
 153   2.0000      -0.852547       -23.1990
 154   2.0000      -0.850151       -23.1338
 155   2.0000      -0.843076       -22.9413
 156   2.0000      -0.837714       -22.7954
 157   2.0000      -0.826275       -22.4841
 158   2.0000      -0.824033       -22.4231
 159   2.0000      -0.807035       -21.9605
 160   2.0000      -0.802199       -21.8289
 161   2.0000      -0.793809       -21.6007
 162   2.0000      -0.779102       -21.2004
 163   2.0000      -0.772223       -21.0133
 164   2.0000      -0.764844       -20.8125
 165   2.0000      -0.757335       -20.6081
 166   2.0000      -0.745891       -20.2967
 167   2.0000      -0.737404       -20.0658
 168   2.0000      -0.724000       -19.7010
 169   2.0000      -0.720986       -19.6190
 170   2.0000      -0.709689       -19.3116
 171   2.0000      -0.702576       -19.1181
 172   2.0000      -0.694354       -18.8943
 173   2.0000      -0.691921       -18.8281
 174   2.0000      -0.689647       -18.7662
 175   2.0000      -0.682563       -18.5735
 176   2.0000      -0.679080       -18.4787
 177   2.0000      -0.671384       -18.2693
 178   2.0000      -0.663482       -18.0543
 179   2.0000      -0.653877       -17.7929
 180   2.0000      -0.649262       -17.6673
 181   2.0000      -0.645980       -17.5780
 182   2.0000      -0.641037       -17.4435
 183   2.0000      -0.634912       -17.2768
 184   2.0000      -0.631811       -17.1925
 185   2.0000      -0.624036       -16.9809
 186   2.0000      -0.620019       -16.8716
 187   2.0000      -0.616791       -16.7837
 188   2.0000      -0.612946       -16.6791
 189   2.0000      -0.607085       -16.5196
 190   2.0000      -0.603471       -16.4213
 191   2.0000      -0.597556       -16.2603
 192   2.0000      -0.593852       -16.1595
 193   2.0000      -0.586936       -15.9713
 194   2.0000      -0.582171       -15.8417
 195   2.0000      -0.579778       -15.7766
 196   2.0000      -0.577045       -15.7022
 197   2.0000      -0.574977       -15.6459
 198   2.0000      -0.572781       -15.5862
 199   2.0000      -0.563858       -15.3434
 200   2.0000      -0.559474       -15.2241
 201   2.0000      -0.555085       -15.1046
 202   2.0000      -0.552208       -15.0263
 203   2.0000      -0.548051       -14.9132
 204   2.0000      -0.545778       -14.8514
 205   2.0000      -0.543661       -14.7938
 206   2.0000      -0.541696       -14.7403
 207   2.0000      -0.540508       -14.7080
 208   2.0000      -0.538567       -14.6552
 209   2.0000      -0.537032       -14.6134
 210   2.0000      -0.534384       -14.5413
 211   2.0000      -0.528934       -14.3930
 212   2.0000      -0.527308       -14.3488
 213   2.0000      -0.525393       -14.2967
 214   2.0000      -0.523027       -14.2323
 215   2.0000      -0.521541       -14.1918
 216   2.0000      -0.520209       -14.1556
 217   2.0000      -0.519066       -14.1245
 218   2.0000      -0.514104       -13.9895
 219   2.0000      -0.512165       -13.9367
 220   2.0000      -0.509413       -13.8618
 221   2.0000      -0.505758       -13.7624
 222   2.0000      -0.503217       -13.6932
 223   2.0000      -0.500904       -13.6303
 224   2.0000      -0.496204       -13.5024
 225   2.0000      -0.493635       -13.4325
 226   2.0000      -0.493468       -13.4279
 227   2.0000      -0.491321       -13.3695
 228   2.0000      -0.489494       -13.3198
 229   2.0000      -0.485674       -13.2159
 230   2.0000      -0.481137       -13.0924
 231   2.0000      -0.480610       -13.0781
 232   2.0000      -0.479928       -13.0595
 233   2.0000      -0.478230       -13.0133
 234   2.0000      -0.475652       -12.9432
 235   2.0000      -0.472870       -12.8674
 236   2.0000      -0.470959       -12.8154
 237   2.0000      -0.469202       -12.7676
 238   2.0000      -0.463039       -12.5999
 239   2.0000      -0.461430       -12.5562
 240   2.0000      -0.460553       -12.5323
 241   2.0000      -0.458825       -12.4853
 242   2.0000      -0.455678       -12.3996
 243   2.0000      -0.450590       -12.2612
 244   2.0000      -0.449769       -12.2388
 245   2.0000      -0.449044       -12.2191
 246   2.0000      -0.446681       -12.1548
 247   2.0000      -0.445652       -12.1268
 248   2.0000      -0.442529       -12.0418
 249   2.0000      -0.438551       -11.9336
 250   2.0000      -0.438368       -11.9286
 251   2.0000      -0.435261       -11.8441
 252   2.0000      -0.431757       -11.7487
 253   2.0000      -0.429846       -11.6967
 254   2.0000      -0.428620       -11.6634
 255   2.0000      -0.427935       -11.6447
 256   2.0000      -0.427325       -11.6281
 257   2.0000      -0.425394       -11.5756
 258   2.0000      -0.424106       -11.5405
 259   2.0000      -0.423873       -11.5342
 260   2.0000      -0.420722       -11.4484
 261   2.0000      -0.415702       -11.3118
 262   2.0000      -0.408163       -11.1067
 263   2.0000      -0.403463       -10.9788
 264   2.0000      -0.402501       -10.9526
 265   2.0000      -0.401825       -10.9342
 266   2.0000      -0.394236       -10.7277
 267   2.0000      -0.391753       -10.6602
 268   2.0000      -0.387018       -10.5313
 269   2.0000      -0.377716       -10.2782
 270   2.0000      -0.376019       -10.2320
 271   2.0000      -0.372150       -10.1267
 272   2.0000      -0.369978       -10.0676
 273   2.0000      -0.369462       -10.0536
 274   2.0000      -0.362980        -9.8772
 275   2.0000      -0.360992        -9.8231
 276   2.0000      -0.355718        -9.6796
 277   2.0000      -0.355076        -9.6621
 278   2.0000      -0.351167        -9.5557
 279   2.0000      -0.350373        -9.5341
 280   2.0000      -0.347350        -9.4519
 281   2.0000      -0.342480        -9.3194
 282   2.0000      -0.336716        -9.1625
 283   2.0000      -0.333591        -9.0775
 284   2.0000      -0.331528        -9.0213
 285   2.0000      -0.323839        -8.8121
 286   2.0000      -0.317245        -8.6327
 287   2.0000      -0.315701        -8.5907
 288   2.0000      -0.312556        -8.5051
 289   2.0000      -0.304753        -8.2928
 290   2.0000      -0.289790        -7.8856
 291   2.0000      -0.268575        -7.3083
 292   2.0000      -0.225388        -6.1331
 293   0.0000      -0.115578        -3.1450
 294   0.0000      -0.096875        -2.6361
 295   0.0000      -0.074913        -2.0385
 296   0.0000      -0.066019        -1.7965
 297   0.0000      -0.060451        -1.6450

MULLIKEN ATOMIC CHARGES
-----------------------
   0 C :    0.164624
   1 O :   -0.184081
   2 C :   -0.022052
   3 C :    0.029962
   4 C :   -0.030911
   5 C :    0.049281
   6 C :   -0.002046
   7 C :   -0.015547
   8 Br:   -0.025719
   9 C :    0.325696
  10 C :   -0.356008
  11 C :   -0.189386
  12 N :    0.148631
  13 C :   -0.185010
  14 N :    0.138867
  15 C :   -0.104941
  16 C :   -0.044842
  17 C :   -0.064883
  18 S :    0.210110
  19 C :   -0.148443
  20 C :   -0.021062
  21 C :    0.095699
  22 C :    0.008121
  23 C :   -0.133678
  24 C :    0.250749
  25 O :   -0.235769
  26 O :   -0.272313
  27 C :    0.147307
  28 S :    0.171879
  29 C :    0.016586
  30 C :   -0.025915
  31 C :    0.033010
  32 C :    0.043439
  33 C :   -0.051073
  34 S :    0.083979
  35 C :   -0.042987
  36 C :    0.038185
  37 C :    0.043745
  38 C :   -0.033658
  39 S :    0.086704
  40 C :    0.001197
  41 C :   -0.164782
  42 S :    0.142147
  43 C :   -0.133689
  44 C :   -0.072490
  45 C :   -0.077336
  46 C :    0.106256
  47 C :    0.033792
  48 S :    0.646123
  49 O :   -0.466494
  50 O :   -0.447091
  51 C :    0.108141
  52 C :    0.044984
  53 C :   -0.020918
  54 C :    0.045349
  55 C :   -0.127514
  56 C :    0.140546
  57 O :   -0.130898
  58 C :   -0.005987
  59 C :    0.013720
  60 C :    0.257349
  61 C :   -0.336508
  62 C :   -0.179948
  63 N :    0.158147
  64 C :   -0.158465
  65 N :    0.151006
  66 C :   -0.020789
  67 C :    0.046994
  68 C :   -0.005282
  69 C :   -0.011923
  70 Br:   -0.016409
  71 H :    0.006542
  72 H :    0.003389
  73 H :   -0.001049
  74 H :   -0.008411
  75 H :    0.026464
  76 H :    0.039866
  77 H :    0.045195
  78 H :    0.059135
  79 H :   -0.005270
  80 H :   -0.004269
  81 H :   -0.005744
  82 H :   -0.006391
  83 H :   -0.001229
  84 H :    0.005357
  85 H :    0.029800
  86 H :    0.046587
  87 H :    0.052658
  88 H :    0.057282
  89 H :    0.072533
  90 H :    0.067835
  91 H :    0.012457
  92 H :    0.032311
  93 H :    0.036833
  94 H :    0.010056
  95 H :    0.007259
  96 H :    0.005327
Sum of atomic charges:   -0.0000000

LOEWDIN ATOMIC CHARGES
----------------------
   0 C :    0.083941
   1 O :   -0.169930
   2 C :   -0.036524
   3 C :   -0.014075
   4 C :    0.007158
   5 C :   -0.015634
   6 C :   -0.099994
   7 C :   -0.002699
   8 Br:    0.110740
   9 C :    0.075907
  10 C :   -0.148808
  11 C :   -0.019744
  12 N :   -0.057940
  13 C :   -0.016469
  14 N :   -0.061886
  15 C :   -0.120180
  16 C :    0.047368
  17 C :   -0.188334
  18 S :    0.520132
  19 C :   -0.164915
  20 C :   -0.206984
  21 C :   -0.044060
  22 C :   -0.016480
  23 C :   -0.192873
  24 C :    0.079086
  25 O :   -0.197416
  26 O :   -0.063605
  27 C :    0.079900
  28 S :    0.448864
  29 C :   -0.088742
  30 C :   -0.135615
  31 C :   -0.032440
  32 C :   -0.022815
  33 C :   -0.184265
  34 S :    0.402702
  35 C :   -0.165932
  36 C :   -0.030116
  37 C :   -0.021879
  38 C :   -0.143528
  39 S :    0.407671
  40 C :   -0.069567
  41 C :   -0.171261
  42 S :    0.436108
  43 C :   -0.169985
  44 C :   -0.062921
  45 C :   -0.061797
  46 C :   -0.048663
  47 C :   -0.128898
  48 S :    1.172813
  49 O :   -0.527396
  50 O :   -0.510310
  51 C :   -0.132948
  52 C :    0.009123
  53 C :   -0.031302
  54 C :    0.075644
  55 C :   -0.096443
  56 C :    0.083922
  57 O :   -0.131396
  58 C :   -0.038228
  59 C :   -0.015260
  60 C :    0.069612
  61 C :   -0.142083
  62 C :   -0.022069
  63 N :   -0.049036
  64 C :    0.003085
  65 N :   -0.052886
  66 C :    0.006704
  67 C :   -0.012146
  68 C :   -0.097833
  69 C :    0.001418
  70 Br:    0.117915
  71 H :    0.042642
  72 H :    0.039558
  73 H :    0.042457
  74 H :    0.048120
  75 H :    0.045311
  76 H :    0.030168
  77 H :    0.027467
  78 H :    0.022660
  79 H :    0.037301
  80 H :    0.036366
  81 H :    0.035613
  82 H :    0.035528
  83 H :    0.036923
  84 H :    0.037546
  85 H :    0.032990
  86 H :    0.038519
  87 H :    0.037042
  88 H :    0.040307
  89 H :    0.037845
  90 H :    0.038165
  91 H :    0.033270
  92 H :    0.040057
  93 H :    0.051844
  94 H :    0.042905
  95 H :    0.040805
  96 H :    0.045085

  Mayer bond orders larger than 0.100000
B(  0-C ,  1-O ) :   2.1173 B(  0-C ,  2-C ) :   0.9523 B(  0-C , 15-C ) :   0.9984
B(  2-C ,  3-C ) :   1.3357 B(  2-C ,  7-C ) :   1.3845 B(  3-C ,  4-C ) :   1.3737
B(  3-C ,  9-C ) :   0.9810 B(  4-C ,  5-C ) :   1.3732 B(  4-C , 71-H ) :   0.9840
B(  5-C ,  6-C ) :   1.3983 B(  5-C , 72-H ) :   0.9841 B(  6-C ,  7-C ) :   1.3274
B(  6-C ,  8-Br) :   0.9876 B(  7-C , 73-H ) :   1.0081 B(  9-C , 10-C ) :   1.6009
B(  9-C , 15-C ) :   1.1113 B( 10-C , 11-C ) :   1.1469 B( 10-C , 13-C ) :   1.1500
B( 11-C , 12-N ) :   2.9703 B( 13-C , 14-N ) :   2.9686 B( 15-C , 16-C ) :   1.4333
B( 16-C , 17-C ) :   1.3525 B( 16-C , 74-H ) :   0.9353 B( 17-C , 18-S ) :   1.0781
B( 17-C , 21-C ) :   1.2404 B( 18-S , 19-C ) :   1.1228 B( 19-C , 20-C ) :   1.3356
B( 19-C , 29-C ) :   1.2224 B( 20-C , 21-C ) :   1.3277 B( 20-C , 28-S ) :   1.0555
B( 21-C , 22-C ) :   1.1875 B( 22-C , 23-C ) :   1.5687 B( 22-C , 75-H ) :   0.9941
B( 23-C , 24-C ) :   0.9499 B( 23-C , 28-S ) :   1.1029 B( 24-C , 25-O ) :   1.9696
B( 24-C , 26-O ) :   1.3226 B( 26-O , 27-C ) :   0.8830 B( 27-C , 76-H ) :   0.9768
B( 27-C , 77-H ) :   0.9762 B( 27-C , 78-H ) :   0.9518 B( 29-C , 30-C ) :   1.5391
B( 29-C , 79-H ) :   0.9480 B( 30-C , 31-C ) :   1.1627 B( 30-C , 34-S ) :   1.0572
B( 31-C , 32-C ) :   1.5757 B( 31-C , 80-H ) :   0.9984 B( 32-C , 33-C ) :   1.1979
B( 32-C , 81-H ) :   0.9937 B( 33-C , 34-S ) :   1.0493 B( 33-C , 35-C ) :   1.4823
B( 35-C , 36-C ) :   1.1863 B( 35-C , 39-S ) :   1.0609 B( 36-C , 37-C ) :   1.5992
B( 36-C , 82-H ) :   0.9963 B( 37-C , 38-C ) :   1.1297 B( 37-C , 83-H ) :   0.9982
B( 38-C , 39-S ) :   1.0386 B( 38-C , 40-C ) :   1.6422 B( 40-C , 41-C ) :   1.0925
B( 40-C , 84-H ) :   0.9540 B( 41-C , 42-S ) :   1.1161 B( 41-C , 45-C ) :   1.5196
B( 42-S , 43-C ) :   1.1107 B( 43-C , 44-C ) :   1.5131 B( 43-C , 52-C ) :   1.1380
B( 44-C , 45-C ) :   1.2998 B( 44-C , 51-C ) :   1.0352 B( 45-C , 46-C ) :   1.0632
B( 46-C , 47-C ) :   1.1062 B( 46-C , 85-H ) :   0.9089 B( 46-C , 86-H ) :   0.8717
B( 47-C , 48-S ) :   0.8260 B( 47-C , 87-H ) :   0.9262 B( 47-C , 88-H ) :   0.9231
B( 48-S , 49-O ) :   1.6726 B( 48-S , 50-O ) :   1.6857 B( 48-S , 51-C ) :   0.8547
B( 51-C , 89-H ) :   0.8908 B( 51-C , 90-H ) :   0.8706 B( 52-C , 53-C ) :   1.6762
B( 52-C , 91-H ) :   0.9480 B( 53-C , 54-C ) :   1.1466 B( 53-C , 92-H ) :   0.9437
B( 54-C , 55-C ) :   1.6554 B( 54-C , 93-H ) :   0.9375 B( 55-C , 56-C ) :   0.9462
B( 55-C , 60-C ) :   1.0365 B( 56-C , 57-O ) :   2.2802 B( 56-C , 58-C ) :   0.9127
B( 58-C , 59-C ) :   1.3329 B( 58-C , 69-C ) :   1.3846 B( 59-C , 60-C ) :   1.0068
B( 59-C , 66-C ) :   1.3659 B( 60-C , 61-C ) :   1.6530 B( 61-C , 62-C ) :   1.1261
B( 61-C , 64-C ) :   1.1678 B( 62-C , 63-N ) :   2.9942 B( 64-C , 65-N ) :   2.9631
B( 66-C , 67-C ) :   1.3820 B( 66-C , 94-H ) :   0.9869 B( 67-C , 68-C ) :   1.3889
B( 67-C , 95-H ) :   0.9859 B( 68-C , 69-C ) :   1.3402 B( 68-C , 70-Br) :   0.9947
B( 69-C , 96-H ) :   1.0067

-----------------------------------------------------------------------------
         ABSORPTION SPECTRUM VIA TRANSITION ELECTRIC DIPOLE MOMENTS
-----------------------------------------------------------------------------
State   Energy  Wavelength   fosc         T2         TX        TY        TZ
        (cm-1)    (nm)                  (au**2)     (au)      (au)      (au)
-----------------------------------------------------------------------------
   0   10377.3    963.6   1.095098784  34.74125   4.25900   2.04041   3.52688
   1   15806.1    632.7   0.405009773   8.43561   0.40984  -1.93989   2.12238
   2   18725.2    534.0   0.276041575   4.85314   0.61545  -1.06267   1.82896
   3   19869.7    503.3   0.374860803   6.21089   0.06585  -2.25507   1.05888
   4   21335.0    468.7   0.079020928   1.21934  -0.09678  -0.83230   0.71920
   5   22441.5    445.6   0.053932549   0.79118  -0.49135  -0.18084   0.71906
   6   24042.1    415.9   0.074406735   1.01886   0.15485   0.84366  -0.53209
   7   24909.9    401.4   0.057178632   0.75568  -0.39382   0.75465  -0.17631
   8   27084.4    369.2   0.072685339   0.88349  -0.44681  -0.41334  -0.71624
   9   27375.1    365.3   0.149050063   1.79247  -0.32961  -1.03446  -0.78341
  10   27696.4    361.1   0.009880264   0.11744   0.11059  -0.32139  -0.04380
  11   27988.3    357.3   0.014860998   0.17480   0.08886  -0.29617   0.28140
  12   28095.0    355.9   0.049766580   0.58316   0.66403   0.37490   0.04081
  13   28566.6    350.1   0.246940059   2.84582  -0.49225  -1.52955  -0.51380
  14   28770.5    347.6   0.060633437   0.69381   0.51676  -0.65182  -0.04353
  15   29081.1    343.9   0.031661706   0.35843   0.13942  -0.58166  -0.02580
  16   29218.5    342.2   0.030137886   0.33957  -0.48429   0.27889   0.16510
  17   29684.9    336.9   0.057303137   0.63550  -0.11614  -0.78798   0.03327
  18   30291.1    330.1   0.031609458   0.34354  -0.30008   0.49283  -0.10302
  19   30830.7    324.4   0.320911816   3.42672   0.88997   1.49770  -0.62574
  20   31237.7    320.1   0.080923216   0.85284  -0.55803   0.61486  -0.40422
  21   31576.2    316.7   0.009669039   0.10081   0.02181  -0.00761  -0.31666
  22   31881.7    313.7   0.127867069   1.32036  -0.39869  -0.73320  -0.78982
  23   32134.0    311.2   0.111713383   1.14450   0.43354   0.96165   0.17825
  24   32156.4    311.0   0.026408191   0.27036  -0.00811  -0.10241   0.50971
  25   32709.6    305.7   0.014936741   0.15033   0.14996   0.24183  -0.26337
  26   33508.6    298.4   0.049086252   0.48226  -0.50680  -0.41797  -0.22519
  27   33656.0    297.1   0.052823627   0.51670   0.18855  -0.50192  -0.47878
  28   33882.7    295.1   0.335287041   3.25772   0.34001   1.76075   0.20466
  29   34215.8    292.3   0.118231685   1.13758  -0.73214   0.57109   0.52480
  30   34613.8    288.9   0.184873287   1.75833  -0.07301  -1.31172   0.17998
  31   34822.5    287.2   0.221799799   2.09689   1.21590   0.65772   0.43113
  32   35129.8    284.7   0.105544179   0.98909   0.45803   0.56127   0.68138
  33   35286.9    283.4   0.039294330   0.36660   0.17816  -0.52205  -0.24964
  34   35821.9    279.2   0.200503770   1.84268   0.18695   1.34340  -0.05475
  35   36355.5    275.1   0.181823054   1.64647   0.14112   1.25324   0.23654
  36   36517.3    273.8   0.084339187   0.76034   0.68843   0.52977  -0.07578
  37   36722.3    272.3   0.012515411   0.11220   0.13034   0.30856  -0.00216
  38   36917.4    270.9   0.030212070   0.26942  -0.38703  -0.24956  -0.23948
  39   37316.9    268.0   0.125239428   1.10487   0.46699   0.91495   0.22285
  40   37713.1    265.2   0.003608171   0.03150  -0.04814  -0.17082   0.00077
  41   37797.9    264.6   0.005071306   0.04417   0.11961   0.16601   0.04799
  42   38003.5    263.1   0.002630321   0.02279   0.04755  -0.13778  -0.03924
  43   38180.3    261.9   0.025773274   0.22223   0.09076   0.39464  -0.24135
  44   38747.8    258.1   0.026494682   0.22511  -0.24010  -0.30915   0.26811
  45   38915.5    257.0   0.048116349   0.40705   0.48250  -0.15697   0.38678
  46   39096.2    255.8   0.035799225   0.30145   0.07388   0.50104   0.21201
  47   39172.6    255.3   0.013815625   0.11611  -0.13825  -0.30072  -0.08103
  48   39296.9    254.5   0.001491981   0.01250  -0.10733   0.03128   0.00052
  49   39457.3    253.4   0.010486795   0.08750  -0.05102  -0.27916  -0.08344
  50   39528.3    253.0   0.035394650   0.29478   0.11702  -0.52909   0.03400
  51   39822.6    251.1   0.019217287   0.15887   0.28942   0.12259   0.24510
  52   39940.8    250.4   0.015119000   0.12462  -0.17444   0.30108  -0.05949
  53   40235.2    248.5   0.048172857   0.39416   0.28741  -0.26280   0.49244
  54   40268.4    248.3   0.007124690   0.05825   0.16528  -0.04967   0.16871

FINAL SINGLE POINT ENERGY    -10238.407226649393

DIPOLE MOMENT
-------------
                                X             Y             Z
Electronic contribution:     16.44331       1.76799    -117.26465
Nuclear contribution   :    -13.39469      -5.17366     119.87303
                        -----------------------------------------
Total Dipole Moment    :      3.04863      -3.40567       2.60838
                        -----------------------------------------
Magnitude (a.u.)       :      5.26273
Magnitude (Debye)      :     13.37679

Rotational constants in cm-1:     0.000915     0.000267     0.000232
Rotational constants in MHz :    27.427518     8.001009     6.954548

                             ****ORCA TERMINATED NORMALLY****
TOTAL RUN TIME: 0 days 0 hours 11 minutes 30 seconds 161 msec
