                         Program Version 4.2.0 -  RELEASE  -
|  1> # ORCA input file
|  2> # SCF done       -187.379469161722          0.000591942613
|  3> ! CAM-B3LYP def2-SVP def2/J RIJCOSX Grid4 TightSCF
|  4> %maxcore 5000
|  5> %tddft
|  6>     Mode sTDDFT
|  7>     Ethresh 5.0
|  8>     maxcore 5000
|  9> end
| 10>
| 11> %pal
| 12>   nprocs 6
| 13>   end
| 14> * xyz 0 1
| 15>    C      -16.70178         4.16602         2.88613
| 16>    O      -16.22494         3.11057         3.28259
| 17>    C      -15.98627         5.45532         2.77790
| 18>    C      -16.91131         6.47048         2.48370
| 19>    C      -16.46915         7.77442         2.33051
| 20>    C      -15.11005         8.03782         2.44828
| 21>    C      -14.21999         7.01222         2.71877
| 22>    C      -14.63671         5.70173         2.90250
| 23>   Br      -12.36678         7.40533         2.81497
| 24>    C      -18.24003         5.86110         2.35470
| 25>    C      -19.39376         6.55645         2.08490
| 26>    C      -19.45687         7.95943         1.96488
| 27>    N      -19.57725         9.09727         1.86305
| 28>    C      -20.67306         5.99597         1.89434
| 29>    N      -21.74782         5.63249         1.71221
| 30>    C      -18.08166         4.43515         2.51124
| 31>    C      -19.10064         3.49253         2.41775
| 32>    C      -19.05108         2.11533         2.25186
| 33>    C      -18.03991         1.26072         1.82323
| 34>    C      -18.24365        -0.12807         1.61327
| 35>    C      -17.17039        -0.78653         1.08935
| 36>    C      -16.06869         0.06042         0.85332
| 37>    S      -16.43938         1.69887         1.33010
| 38>    C      -14.80115        -0.26933         0.39634
| 39>    C      -14.32922        -1.51710        -0.05979
| 40>    C      -13.01022        -1.50759        -0.40810
| 41>    C      -12.37236        -0.25692        -0.23239
| 42>    S      -13.52395         0.92034         0.36077
| 43>    C      -11.03608        -0.00579        -0.45807
| 44>    C      -10.33856         1.18327        -0.23733
| 45>    S      -11.09674         2.63633         0.36004
| 46>    C       -9.59474         3.53484         0.31573
| 47>    C       -8.54441         2.69324        -0.08428
| 48>    C       -8.96377         1.40476        -0.41357
| 49>    C       -7.97757         0.42809        -0.97219
| 50>    C       -7.35246         1.02539        -2.22232
| 51>    S       -6.47919         2.57921        -1.78523
| 52>    O       -6.89494         3.60418        -2.70598
| 53>    O       -5.07224         2.29219        -1.71442
| 54>    C       -7.09727         2.98657        -0.11134
| 55>    C       -9.65988         4.89024         0.67251
| 56>    C       -8.74850         5.88091         0.40019
| 57>    C       -8.91087         7.18458         0.87012
| 58>    C       -8.01429         8.20533         0.62941
| 59>    C       -8.01669         9.49703         1.20248
| 60>    C       -6.91986        10.24780         0.88878
| 61>    C       -6.01481         9.58904         0.03085
| 62>    S       -6.61047         8.00631        -0.39673
| 63>    C       -4.75218         9.98485        -0.38418
| 64>    C       -3.93587        11.03302         0.08439
| 65>    C       -2.64483        10.94656        -0.34947
| 66>    C       -2.37577         9.82909        -1.17999
| 67>    S       -3.85637         8.96460        -1.48389
| 68>    C       -1.13343         9.50441        -1.69591
| 69>    C       -0.73125         8.42834        -2.48698
| 70>    C       -1.31552         7.22204        -2.82285
| 71>    C       -0.84623         6.55772        -4.07027
| 72>    O        0.13717         6.83713        -4.71746
| 73>    C       -1.86621         5.52601        -4.36806
| 74>    C       -2.80485         5.49406        -3.32102
| 75>    C       -2.37740         6.42929        -2.28175
| 76>    C       -2.80324         6.39412        -0.97071
| 77>    C       -3.88289         5.62632        -0.50099
| 78>    N       -4.78617         5.07706        -0.04922
| 79>    C       -2.14885         7.10945         0.05118
| 80>    N       -1.61949         7.67423         0.89934
| 81>    C       -3.90793         4.66460        -3.40248
| 82>    C       -4.04574         3.85155        -4.51821
| 83>    C       -3.08999         3.86803        -5.52123
| 84>    C       -1.98486         4.70968        -5.47283
| 85>   Br       -3.30501         2.71550        -7.01408
| 86>    H      -17.14468         8.58508         2.11365
| 87>    H      -14.74730         9.04641         2.31984
| 88>    H      -13.94513         4.90181         3.11784
| 89>    H      -20.10706         3.88933         2.47076
| 90>    H      -20.00195         1.61161         2.38849
| 91>    H      -19.17779        -0.59884         1.86470
| 92>    H      -17.14151        -1.84311         0.89308
| 93>    H      -14.96674        -2.38028        -0.12077
| 94>    H      -12.47341        -2.36509        -0.77400
| 95>    H      -10.46121        -0.84416        -0.82927
| 96>    H       -8.45113        -0.52431        -1.21198
| 97>    H       -7.18850         0.23207        -0.23983
| 98>    H       -8.10048         1.28951        -2.96446
| 99>    H       -6.59676         0.37657        -2.65503
|100>    H       -6.81604         4.01205         0.09395
|101>    H       -6.53646         2.32438         0.54640
|102>    H      -10.56918         5.18937         1.18037
|103>    H       -7.88097         5.67597        -0.21085
|104>    H       -9.75881         7.40717         1.50443
|105>    H       -8.81146         9.81650         1.85293
|106>    H       -6.73790        11.24330         1.25161
|107>    H       -4.30103        11.78319         0.76219
|108>    H       -1.86285        11.62651        -0.06234
|109>    H       -0.36806        10.24709        -1.50415
|110>    H        0.20588         8.58739        -3.01568
|111>    H       -4.66814         4.63524        -2.64187
|112>    H       -4.90859         3.20831        -4.58824
|113>    H       -1.25005         4.73177        -6.26286
|114> *
|115>
|116>                          ****END OF INPUT****

CARTESIAN COORDINATES (ANGSTROEM)
---------------------------------
  C    -16.701780    4.166020    2.886130
  O    -16.224940    3.110570    3.282590
  C    -15.986270    5.455320    2.777900
  C    -16.911310    6.470480    2.483700
  C    -16.469150    7.774420    2.330510
  C    -15.110050    8.037820    2.448280
  C    -14.219990    7.012220    2.718770
  C    -14.636710    5.701730    2.902500
  Br   -12.366780    7.405330    2.814970
  C    -18.240030    5.861100    2.354700
  C    -19.393760    6.556450    2.084900
  C    -19.456870    7.959430    1.964880
  N    -19.577250    9.097270    1.863050
  C    -20.673060    5.995970    1.894340
  N    -21.747820    5.632490    1.712210
  C    -18.081660    4.435150    2.511240
  C    -19.100640    3.492530    2.417750
  C    -19.051080    2.115330    2.251860
  C    -18.039910    1.260720    1.823230
  C    -18.243650   -0.128070    1.613270
  C    -17.170390   -0.786530    1.089350
  C    -16.068690    0.060420    0.853320
  S    -16.439380    1.698870    1.330100
  C    -14.801150   -0.269330    0.396340
  C    -14.329220   -1.517100   -0.059790
  C    -13.010220   -1.507590   -0.408100
  C    -12.372360   -0.256920   -0.232390
  S    -13.523950    0.920340    0.360770
  C    -11.036080   -0.005790   -0.458070
  C    -10.338560    1.183270   -0.237330
  S    -11.096740    2.636330    0.360040
  C     -9.594740    3.534840    0.315730
  C     -8.544410    2.693240   -0.084280
  C     -8.963770    1.404760   -0.413570
  C     -7.977570    0.428090   -0.972190
  C     -7.352460    1.025390   -2.222320
  S     -6.479190    2.579210   -1.785230
  O     -6.894940    3.604180   -2.705980
  O     -5.072240    2.292190   -1.714420
  C     -7.097270    2.986570   -0.111340
  C     -9.659880    4.890240    0.672510
  C     -8.748500    5.880910    0.400190
  C     -8.910870    7.184580    0.870120
  C     -8.014290    8.205330    0.629410
  C     -8.016690    9.497030    1.202480
  C     -6.919860   10.247800    0.888780
  C     -6.014810    9.589040    0.030850
  S     -6.610470    8.006310   -0.396730
  C     -4.752180    9.984850   -0.384180
  C     -3.935870   11.033020    0.084390
  C     -2.644830   10.946560   -0.349470
  C     -2.375770    9.829090   -1.179990
  S     -3.856370    8.964600   -1.483890
  C     -1.133430    9.504410   -1.695910
  C     -0.731250    8.428340   -2.486980
  C     -1.315520    7.222040   -2.822850
  C     -0.846230    6.557720   -4.070270
  O      0.137170    6.837130   -4.717460
  C     -1.866210    5.526010   -4.368060
  C     -2.804850    5.494060   -3.321020
  C     -2.377400    6.429290   -2.281750
  C     -2.803240    6.394120   -0.970710
  C     -3.882890    5.626320   -0.500990
  N     -4.786170    5.077060   -0.049220
  C     -2.148850    7.109450    0.051180
  N     -1.619490    7.674230    0.899340
  C     -3.907930    4.664600   -3.402480
  C     -4.045740    3.851550   -4.518210
  C     -3.089990    3.868030   -5.521230
  C     -1.984860    4.709680   -5.472830
  Br    -3.305010    2.715500   -7.014080
  H    -17.144680    8.585080    2.113650
  H    -14.747300    9.046410    2.319840
  H    -13.945130    4.901810    3.117840
  H    -20.107060    3.889330    2.470760
  H    -20.001950    1.611610    2.388490
  H    -19.177790   -0.598840    1.864700
  H    -17.141510   -1.843110    0.893080
  H    -14.966740   -2.380280   -0.120770
  H    -12.473410   -2.365090   -0.774000
  H    -10.461210   -0.844160   -0.829270
  H     -8.451130   -0.524310   -1.211980
  H     -7.188500    0.232070   -0.239830
  H     -8.100480    1.289510   -2.964460
  H     -6.596760    0.376570   -2.655030
  H     -6.816040    4.012050    0.093950
  H     -6.536460    2.324380    0.546400
  H    -10.569180    5.189370    1.180370
  H     -7.880970    5.675970   -0.210850
  H     -9.758810    7.407170    1.504430
  H     -8.811460    9.816500    1.852930
  H     -6.737900   11.243300    1.251610
  H     -4.301030   11.783190    0.762190
  H     -1.862850   11.626510   -0.062340
  H     -0.368060   10.247090   -1.504150
  H      0.205880    8.587390   -3.015680
  H     -4.668140    4.635240   -2.641870
  H     -4.908590    3.208310   -4.588240
  H     -1.250050    4.731770   -6.262860

 Total Charge           Charge          ....    0
 Multiplicity           Mult            ....    1
 Number of Electrons    NEL             ....  584
 Basis Dimension        Dim             .... 1194

ORBITAL ENERGIES
----------------

  NO   OCC          E(Eh)            E(eV)
   0   2.0000    -482.880133    -13139.8364
   1   2.0000    -482.855325    -13139.1614
   2   2.0000     -89.143606     -2425.7209
   3   2.0000     -88.980563     -2421.2842
   4   2.0000     -88.976332     -2421.1691
   5   2.0000     -88.968316     -2420.9509
   6   2.0000     -88.964994     -2420.8606
   7   2.0000     -88.964450     -2420.8458
   8   2.0000     -62.557309     -1702.2709
   9   2.0000     -62.533092     -1701.6119
  10   2.0000     -56.391073     -1534.4791
  11   2.0000     -56.388786     -1534.4169
  12   2.0000     -56.388615     -1534.4122
  13   2.0000     -56.366885     -1533.8209
  14   2.0000     -56.364434     -1533.7542
  15   2.0000     -56.364422     -1533.7539
  16   2.0000     -19.207222      -522.6551
  17   2.0000     -19.202286      -522.5208
  18   2.0000     -19.201749      -522.5061
  19   2.0000     -19.197334      -522.3860
  20   2.0000     -14.410059      -392.1176
  21   2.0000     -14.406104      -392.0100
  22   2.0000     -14.405172      -391.9847
  23   2.0000     -14.398860      -391.8129
  24   2.0000     -10.351614      -281.6817
  25   2.0000     -10.350875      -281.6616
  26   2.0000     -10.346010      -281.5293
  27   2.0000     -10.341893      -281.4172
  28   2.0000     -10.338277      -281.3188
  29   2.0000     -10.335369      -281.2397
  30   2.0000     -10.334578      -281.2182
  31   2.0000     -10.332573      -281.1636
  32   2.0000     -10.331288      -281.1286
  33   2.0000     -10.330700      -281.1126
  34   2.0000     -10.328608      -281.0557
  35   2.0000     -10.327225      -281.0181
  36   2.0000     -10.327195      -281.0173
  37   2.0000     -10.326878      -281.0086
  38   2.0000     -10.324967      -280.9566
  39   2.0000     -10.323338      -280.9123
  40   2.0000     -10.322863      -280.8994
  41   2.0000     -10.322600      -280.8922
  42   2.0000     -10.320584      -280.8374
  43   2.0000     -10.319065      -280.7960
  44   2.0000     -10.318991      -280.7940
  45   2.0000     -10.317692      -280.7587
  46   2.0000     -10.316811      -280.7347
  47   2.0000     -10.314274      -280.6657
  48   2.0000     -10.313554      -280.6461
  49   2.0000     -10.311808      -280.5986
  50   2.0000     -10.310952      -280.5753
  51   2.0000     -10.309572      -280.5377
  52   2.0000     -10.309512      -280.5361
  53   2.0000     -10.309010      -280.5224
  54   2.0000     -10.307636      -280.4850
  55   2.0000     -10.306986      -280.4674
  56   2.0000     -10.305508      -280.4271
  57   2.0000     -10.303181      -280.3638
  58   2.0000     -10.302271      -280.3390
  59   2.0000     -10.301905      -280.3291
  60   2.0000     -10.301123      -280.3078
  61   2.0000     -10.300731      -280.2971
  62   2.0000     -10.298827      -280.2453
  63   2.0000     -10.298788      -280.2443
  64   2.0000     -10.298138      -280.2266
  65   2.0000     -10.296646      -280.1860
  66   2.0000     -10.295685      -280.1598
  67   2.0000     -10.294908      -280.1387
  68   2.0000     -10.292509      -280.0734
  69   2.0000     -10.290532      -280.0196
  70   2.0000     -10.287730      -279.9434
  71   2.0000     -10.286070      -279.8982
  72   2.0000     -10.285811      -279.8911
  73   2.0000     -10.285060      -279.8707
  74   2.0000     -10.280889      -279.7572
  75   2.0000     -10.280725      -279.7528
  76   2.0000     -10.279426      -279.7174
  77   2.0000     -10.277713      -279.6708
  78   2.0000     -10.275534      -279.6115
  79   2.0000      -8.786424      -239.0908
  80   2.0000      -8.762394      -238.4369
  81   2.0000      -8.210154      -223.4097
  82   2.0000      -8.075870      -219.7556
  83   2.0000      -8.072402      -219.6612
  84   2.0000      -8.062959      -219.4043
  85   2.0000      -8.060659      -219.3417
  86   2.0000      -8.060175      -219.3285
  87   2.0000      -6.621885      -180.1907
  88   2.0000      -6.608698      -179.8318
  89   2.0000      -6.608370      -179.8229
  90   2.0000      -6.598051      -179.5421
  91   2.0000      -6.584547      -179.1746
  92   2.0000      -6.584250      -179.1666
  93   2.0000      -6.179085      -168.1415
  94   2.0000      -6.178524      -168.1262
  95   2.0000      -6.178173      -168.1166
  96   2.0000      -6.045210      -164.4985
  97   2.0000      -6.042095      -164.4138
  98   2.0000      -6.041007      -164.3842
  99   2.0000      -6.037895      -164.2995
 100   2.0000      -6.037892      -164.2994
 101   2.0000      -6.033497      -164.1798
 102   2.0000      -6.032413      -164.1503
 103   2.0000      -6.030323      -164.0934
 104   2.0000      -6.029677      -164.0758
 105   2.0000      -6.027948      -164.0288
 106   2.0000      -6.026220      -163.9818
 107   2.0000      -6.025441      -163.9606
 108   2.0000      -6.024930      -163.9467
 109   2.0000      -6.021792      -163.8613
 110   2.0000      -6.021670      -163.8580
 111   2.0000      -2.737927       -74.5028
 112   2.0000      -2.734306       -74.4043
 113   2.0000      -2.734016       -74.3964
 114   2.0000      -2.723550       -74.1116
 115   2.0000      -2.723543       -74.1114
 116   2.0000      -2.714038       -73.8527
 117   2.0000      -2.710327       -73.7517
 118   2.0000      -2.710049       -73.7442
 119   2.0000      -2.699339       -73.4527
 120   2.0000      -2.699334       -73.4526
 121   2.0000      -1.205790       -32.8112
 122   2.0000      -1.120702       -30.4959
 123   2.0000      -1.116649       -30.3856
 124   2.0000      -1.084312       -29.5056
 125   2.0000      -1.025622       -27.9086
 126   2.0000      -1.016878       -27.6706
 127   2.0000      -1.016145       -27.6507
 128   2.0000      -1.010148       -27.4875
 129   2.0000      -1.006521       -27.3888
 130   2.0000      -0.994790       -27.0696
 131   2.0000      -0.993858       -27.0442
 132   2.0000      -0.992052       -26.9951
 133   2.0000      -0.985601       -26.8196
 134   2.0000      -0.984291       -26.7839
 135   2.0000      -0.980433       -26.6790
 136   2.0000      -0.958519       -26.0826
 137   2.0000      -0.947743       -25.7894
 138   2.0000      -0.945761       -25.7355
 139   2.0000      -0.938593       -25.5404
 140   2.0000      -0.921060       -25.0633
 141   2.0000      -0.911031       -24.7904
 142   2.0000      -0.904935       -24.6245
 143   2.0000      -0.901753       -24.5379
 144   2.0000      -0.894397       -24.3378
 145   2.0000      -0.889995       -24.2180
 146   2.0000      -0.881219       -23.9792
 147   2.0000      -0.879971       -23.9452
 148   2.0000      -0.872046       -23.7296
 149   2.0000      -0.868054       -23.6209
 150   2.0000      -0.865097       -23.5405
 151   2.0000      -0.855707       -23.2850
 152   2.0000      -0.851077       -23.1590
 153   2.0000      -0.845168       -22.9982
 154   2.0000      -0.844506       -22.9802
 155   2.0000      -0.839177       -22.8352
 156   2.0000      -0.835792       -22.7431
 157   2.0000      -0.829433       -22.5700
 158   2.0000      -0.819259       -22.2932
 159   2.0000      -0.805624       -21.9221
 160   2.0000      -0.790537       -21.5116
 161   2.0000      -0.776446       -21.1282
 162   2.0000      -0.768622       -20.9153
 163   2.0000      -0.759767       -20.6743
 164   2.0000      -0.755392       -20.5553
 165   2.0000      -0.748893       -20.3784
 166   2.0000      -0.741014       -20.1640
 167   2.0000      -0.727669       -19.8009
 168   2.0000      -0.710424       -19.3316
 169   2.0000      -0.709376       -19.3031
 170   2.0000      -0.695094       -18.9145
 171   2.0000      -0.692624       -18.8473
 172   2.0000      -0.687516       -18.7082
 173   2.0000      -0.686419       -18.6784
 174   2.0000      -0.684100       -18.6153
 175   2.0000      -0.670413       -18.2429
 176   2.0000      -0.668873       -18.2010
 177   2.0000      -0.665433       -18.1074
 178   2.0000      -0.663978       -18.0678
 179   2.0000      -0.656654       -17.8685
 180   2.0000      -0.647833       -17.6284
 181   2.0000      -0.641835       -17.4652
 182   2.0000      -0.638952       -17.3868
 183   2.0000      -0.636172       -17.3111
 184   2.0000      -0.629979       -17.1426
 185   2.0000      -0.626286       -17.0421
 186   2.0000      -0.624883       -17.0039
 187   2.0000      -0.623222       -16.9587
 188   2.0000      -0.606818       -16.5124
 189   2.0000      -0.604005       -16.4358
 190   2.0000      -0.599384       -16.3101
 191   2.0000      -0.597706       -16.2644
 192   2.0000      -0.594461       -16.1761
 193   2.0000      -0.590489       -16.0680
 194   2.0000      -0.580980       -15.8093
 195   2.0000      -0.576474       -15.6866
 196   2.0000      -0.571889       -15.5619
 197   2.0000      -0.570068       -15.5123
 198   2.0000      -0.567378       -15.4391
 199   2.0000      -0.559805       -15.2331
 200   2.0000      -0.553987       -15.0747
 201   2.0000      -0.549576       -14.9547
 202   2.0000      -0.548229       -14.9181
 203   2.0000      -0.541286       -14.7291
 204   2.0000      -0.539353       -14.6765
 205   2.0000      -0.537725       -14.6322
 206   2.0000      -0.534514       -14.5449
 207   2.0000      -0.532825       -14.4989
 208   2.0000      -0.530655       -14.4399
 209   2.0000      -0.527834       -14.3631
 210   2.0000      -0.526670       -14.3314
 211   2.0000      -0.525218       -14.2919
 212   2.0000      -0.523389       -14.2421
 213   2.0000      -0.522023       -14.2050
 214   2.0000      -0.518708       -14.1148
 215   2.0000      -0.517519       -14.0824
 216   2.0000      -0.516558       -14.0562
 217   2.0000      -0.514184       -13.9917
 218   2.0000      -0.513324       -13.9683
 219   2.0000      -0.512366       -13.9422
 220   2.0000      -0.509057       -13.8521
 221   2.0000      -0.504825       -13.7370
 222   2.0000      -0.501791       -13.6544
 223   2.0000      -0.498133       -13.5549
 224   2.0000      -0.496654       -13.5146
 225   2.0000      -0.494939       -13.4680
 226   2.0000      -0.493067       -13.4170
 227   2.0000      -0.491890       -13.3850
 228   2.0000      -0.488868       -13.3028
 229   2.0000      -0.484722       -13.1900
 230   2.0000      -0.482511       -13.1298
 231   2.0000      -0.480337       -13.0706
 232   2.0000      -0.478791       -13.0286
 233   2.0000      -0.477803       -13.0017
 234   2.0000      -0.476528       -12.9670
 235   2.0000      -0.470090       -12.7918
 236   2.0000      -0.469387       -12.7727
 237   2.0000      -0.462175       -12.5764
 238   2.0000      -0.460786       -12.5386
 239   2.0000      -0.459196       -12.4954
 240   2.0000      -0.456426       -12.4200
 241   2.0000      -0.450553       -12.2602
 242   2.0000      -0.449079       -12.2201
 243   2.0000      -0.447637       -12.1808
 244   2.0000      -0.446268       -12.1436
 245   2.0000      -0.445582       -12.1249
 246   2.0000      -0.443335       -12.0638
 247   2.0000      -0.439979       -11.9724
 248   2.0000      -0.439665       -11.9639
 249   2.0000      -0.436189       -11.8693
 250   2.0000      -0.434939       -11.8353
 251   2.0000      -0.433194       -11.7878
 252   2.0000      -0.431345       -11.7375
 253   2.0000      -0.429733       -11.6936
 254   2.0000      -0.425414       -11.5761
 255   2.0000      -0.423646       -11.5280
 256   2.0000      -0.420928       -11.4540
 257   2.0000      -0.418367       -11.3843
 258   2.0000      -0.413752       -11.2588
 259   2.0000      -0.413335       -11.2474
 260   2.0000      -0.410026       -11.1574
 261   2.0000      -0.408400       -11.1131
 262   2.0000      -0.404307       -11.0018
 263   2.0000      -0.400269       -10.8919
 264   2.0000      -0.399343       -10.8667
 265   2.0000      -0.398449       -10.8424
 266   2.0000      -0.394021       -10.7219
 267   2.0000      -0.392868       -10.6905
 268   2.0000      -0.384790       -10.4707
 269   2.0000      -0.375484       -10.2174
 270   2.0000      -0.374260       -10.1841
 271   2.0000      -0.373747       -10.1702
 272   2.0000      -0.369380       -10.0513
 273   2.0000      -0.361478        -9.8363
 274   2.0000      -0.359550        -9.7838
 275   2.0000      -0.352102        -9.5812
 276   2.0000      -0.351362        -9.5610
 277   2.0000      -0.350397        -9.5348
 278   2.0000      -0.349090        -9.4992
 279   2.0000      -0.340092        -9.2544
 280   2.0000      -0.337315        -9.1788
 281   2.0000      -0.333229        -9.0676
 282   2.0000      -0.329058        -8.9541
 283   2.0000      -0.327618        -8.9149
 284   2.0000      -0.321034        -8.7358
 285   2.0000      -0.316631        -8.6160
 286   2.0000      -0.308759        -8.4018
 287   2.0000      -0.297352        -8.0914
 288   2.0000      -0.286519        -7.7966
 289   2.0000      -0.282278        -7.6812
 290   2.0000      -0.246385        -6.7045
 291   2.0000      -0.223876        -6.0920
 292   0.0000      -0.128397        -3.4938
 293   0.0000      -0.101473        -2.7612
 294   0.0000      -0.069185        -1.8826
 295   0.0000      -0.056676        -1.5422
 296   0.0000      -0.048527        -1.3205

MULLIKEN ATOMIC CHARGES
-----------------------
   0 C :    0.107366
   1 O :   -0.186133
   2 C :   -0.005803
   3 C :    0.035085
   4 C :   -0.034103
   5 C :    0.044546
   6 C :    0.006933
   7 C :   -0.021701
   8 Br:   -0.051655
   9 C :    0.310396
  10 C :   -0.357967
  11 C :   -0.191562
  12 N :    0.143133
  13 C :   -0.192322
  14 N :    0.148928
  15 C :   -0.092870
  16 C :   -0.000357
  17 C :   -0.010423
  18 C :   -0.002223
  19 C :    0.023727
  20 C :    0.040747
  21 C :   -0.069301
  22 S :    0.168343
  23 C :   -0.010541
  24 C :    0.026497
  25 C :    0.046457
  26 C :   -0.052886
  27 S :    0.100480
  28 C :    0.002725
  29 C :   -0.096604
  30 S :    0.125199
  31 C :   -0.091975
  32 C :   -0.039198
  33 C :   -0.082245
  34 C :    0.102380
  35 C :    0.008230
  36 S :    0.668391
  37 O :   -0.465416
  38 O :   -0.456192
  39 C :    0.108652
  40 C :    0.026993
  41 C :   -0.002995
  42 C :    0.015471
  43 C :   -0.033119
  44 C :    0.052184
  45 C :    0.029740
  46 C :   -0.019091
  47 S :    0.117941
  48 C :   -0.059009
  49 C :    0.045207
  50 C :    0.050563
  51 C :   -0.032494
  52 S :    0.113644
  53 C :   -0.000536
  54 C :    0.030126
  55 C :   -0.137874
  56 C :    0.133617
  57 O :   -0.145445
  58 C :   -0.003802
  59 C :    0.027286
  60 C :    0.263992
  61 C :   -0.369014
  62 C :   -0.142410
  63 N :    0.133498
  64 C :   -0.212280
  65 N :    0.164060
  66 C :   -0.008553
  67 C :    0.058516
  68 C :   -0.002145
  69 C :   -0.022781
  70 Br:   -0.046607
  71 H :    0.006982
  72 H :   -0.000828
  73 H :   -0.007465
  74 H :    0.016702
  75 H :   -0.005647
  76 H :   -0.004707
  77 H :   -0.008840
  78 H :   -0.002842
  79 H :   -0.000692
  80 H :   -0.012260
  81 H :    0.021457
  82 H :    0.039584
  83 H :    0.059373
  84 H :    0.067885
  85 H :    0.065516
  86 H :    0.058525
  87 H :   -0.008995
  88 H :    0.034719
  89 H :   -0.021455
  90 H :    0.000825
  91 H :   -0.001792
  92 H :   -0.007401
  93 H :   -0.003597
  94 H :   -0.001731
  95 H :    0.024106
  96 H :   -0.018277
  97 H :   -0.017902
  98 H :   -0.002661
Sum of atomic charges:   -0.0000000

LOEWDIN ATOMIC CHARGES
----------------------
   0 C :    0.046290
   1 O :   -0.182386
   2 C :   -0.028745
   3 C :   -0.014126
   4 C :    0.007046
   5 C :   -0.023720
   6 C :   -0.103977
   7 C :   -0.012816
   8 Br:    0.104791
   9 C :    0.076699
  10 C :   -0.146742
  11 C :   -0.018391
  12 N :   -0.062665
  13 C :   -0.022255
  14 N :   -0.057231
  15 C :   -0.120634
  16 C :    0.038773
  17 C :   -0.076043
  18 C :   -0.113516
  19 C :   -0.037001
  20 C :   -0.025011
  21 C :   -0.199342
  22 S :    0.499804
  23 C :   -0.137583
  24 C :   -0.041796
  25 C :   -0.007359
  26 C :   -0.165185
  27 S :    0.399692
  28 C :   -0.041628
  29 C :   -0.180384
  30 S :    0.445255
  31 C :   -0.143156
  32 C :   -0.086178
  33 C :   -0.044442
  34 C :   -0.034379
  35 C :   -0.129982
  36 S :    1.170455
  37 O :   -0.514833
  38 O :   -0.505627
  39 C :   -0.122152
  40 C :   -0.034392
  41 C :   -0.013818
  42 C :   -0.027476
  43 C :   -0.146957
  44 C :   -0.009314
  45 C :   -0.032199
  46 C :   -0.144013
  47 S :    0.417700
  48 C :   -0.189998
  49 C :   -0.019875
  50 C :   -0.028820
  51 C :   -0.115161
  52 S :    0.470479
  53 C :   -0.068161
  54 C :    0.037087
  55 C :   -0.104397
  56 C :    0.086180
  57 O :   -0.142833
  58 C :   -0.045735
  59 C :   -0.013793
  60 C :    0.042009
  61 C :   -0.170495
  62 C :    0.006034
  63 N :   -0.086358
  64 C :   -0.033134
  65 N :   -0.063496
  66 C :    0.011017
  67 C :   -0.005773
  68 C :   -0.106838
  69 C :   -0.005387
  70 Br:    0.096418
  71 H :    0.042264
  72 H :    0.037655
  73 H :    0.039154
  74 H :    0.046069
  75 H :    0.039971
  76 H :    0.035906
  77 H :    0.033303
  78 H :    0.036598
  79 H :    0.037987
  80 H :    0.040302
  81 H :    0.037403
  82 H :    0.042579
  83 H :    0.038849
  84 H :    0.041846
  85 H :    0.038969
  86 H :    0.045408
  87 H :    0.029271
  88 H :    0.029446
  89 H :    0.028606
  90 H :    0.038826
  91 H :    0.036763
  92 H :    0.035125
  93 H :    0.037491
  94 H :    0.040934
  95 H :    0.046648
  96 H :    0.024727
  97 H :    0.028979
  98 H :    0.040903

  Mayer bond orders larger than 0.100000
B(  0-C ,  1-O ) :   2.1247 B(  0-C ,  2-C ) :   0.9202 B(  0-C , 15-C ) :   1.0357
B(  2-C ,  3-C ) :   1.3369 B(  2-C ,  7-C ) :   1.3942 B(  3-C ,  4-C ) :   1.3811
B(  3-C ,  9-C ) :   0.9749 B(  4-C ,  5-C ) :   1.3688 B(  4-C , 71-H ) :   0.9819
B(  5-C ,  6-C ) :   1.4056 B(  5-C , 72-H ) :   0.9848 B(  6-C ,  7-C ) :   1.3231
B(  6-C ,  8-Br) :   0.9674 B(  7-C , 73-H ) :   1.0041 B(  9-C , 10-C ) :   1.6001
B(  9-C , 15-C ) :   1.1297 B( 10-C , 11-C ) :   1.1486 B( 10-C , 13-C ) :   1.1450
B( 11-C , 12-N ) :   2.9688 B( 13-C , 14-N ) :   2.9739 B( 15-C , 16-C ) :   1.3713
B( 16-C , 17-C ) :   1.4082 B( 16-C , 74-H ) :   0.9350 B( 17-C , 18-C ) :   1.4055
B( 17-C , 75-H ) :   0.9492 B( 18-C , 19-C ) :   1.1878 B( 18-C , 22-S ) :   1.1410
B( 19-C , 20-C ) :   1.5511 B( 19-C , 76-H ) :   0.9980 B( 20-C , 21-C ) :   1.2039
B( 20-C , 77-H ) :   0.9933 B( 21-C , 22-S ) :   1.0700 B( 21-C , 23-C ) :   1.4461
B( 23-C , 24-C ) :   1.2093 B( 23-C , 27-S ) :   1.0834 B( 24-C , 25-C ) :   1.5590
B( 24-C , 78-H ) :   0.9952 B( 25-C , 26-C ) :   1.1658 B( 25-C , 79-H ) :   0.9992
B( 26-C , 27-S ) :   1.0353 B( 26-C , 28-C ) :   1.5358 B( 28-C , 29-C ) :   1.2291
B( 28-C , 80-H ) :   0.9602 B( 29-C , 30-S ) :   1.0902 B( 29-C , 33-C ) :   1.4196
B( 30-S , 31-C ) :   1.1336 B( 31-C , 32-C ) :   1.4196 B( 31-C , 40-C ) :   1.1684
B( 32-C , 33-C ) :   1.3724 B( 32-C , 39-C ) :   1.0125 B( 33-C , 34-C ) :   1.0617
B( 34-C , 35-C ) :   1.0964 B( 34-C , 81-H ) :   0.9121 B( 34-C , 82-H ) :   0.8968
B( 35-C , 36-S ) :   0.8321 B( 35-C , 83-H ) :   0.9288 B( 35-C , 84-H ) :   0.9285
B( 36-S , 37-O ) :   1.6427 B( 36-S , 38-O ) :   1.7013 B( 36-S , 39-C ) :   0.8456
B( 39-C , 85-H ) :   0.8957 B( 39-C , 86-H ) :   0.9035 B( 40-C , 41-C ) :   1.5903
B( 40-C , 87-H ) :   0.9492 B( 41-C , 42-C ) :   1.2117 B( 41-C , 88-H ) :   0.9596
B( 42-C , 43-C ) :   1.5130 B( 42-C , 89-H ) :   0.9813 B( 43-C , 44-C ) :   1.1632
B( 43-C , 47-S ) :   1.0506 B( 44-C , 45-C ) :   1.5635 B( 44-C , 90-H ) :   0.9991
B( 45-C , 46-C ) :   1.2041 B( 45-C , 91-H ) :   0.9966 B( 46-C , 47-S ) :   1.0909
B( 46-C , 48-C ) :   1.4465 B( 48-C , 49-C ) :   1.2093 B( 48-C , 52-S ) :   1.0457
B( 49-C , 50-C ) :   1.5641 B( 49-C , 92-H ) :   0.9918 B( 50-C , 51-C ) :   1.1711
B( 50-C , 93-H ) :   0.9969 B( 51-C , 52-S ) :   1.1044 B( 51-C , 53-C ) :   1.4568
B( 53-C , 54-C ) :   1.3218 B( 53-C , 94-H ) :   0.9539 B( 54-C , 55-C ) :   1.4934
B( 54-C , 95-H ) :   0.9264 B( 55-C , 56-C ) :   0.9555 B( 55-C , 60-C ) :   1.1261
B( 56-C , 57-O ) :   2.2536 B( 56-C , 58-C ) :   0.9199 B( 58-C , 59-C ) :   1.3231
B( 58-C , 69-C ) :   1.3967 B( 59-C , 60-C ) :   1.0050 B( 59-C , 66-C ) :   1.3817
B( 60-C , 61-C ) :   1.5473 B( 61-C , 62-C ) :   1.1515 B( 61-C , 64-C ) :   1.1600
B( 62-C , 63-N ) :   2.9369 B( 64-C , 65-N ) :   3.0201 B( 66-C , 67-C ) :   1.3770
B( 66-C , 96-H ) :   0.9744 B( 67-C , 68-C ) :   1.3952 B( 67-C , 97-H ) :   0.9793
B( 68-C , 69-C ) :   1.3270 B( 68-C , 70-Br) :   0.9758 B( 69-C , 98-H ) :   1.0064

-----------------------------------------------------------------------------
         ABSORPTION SPECTRUM VIA TRANSITION ELECTRIC DIPOLE MOMENTS
-----------------------------------------------------------------------------
State   Energy  Wavelength   fosc         T2         TX        TY        TZ
        (cm-1)    (nm)                  (au**2)     (au)      (au)      (au)
-----------------------------------------------------------------------------
   0    8311.1   1203.2   1.184634186  46.92460   6.46482   1.48049  -1.71431
   1   13130.4    761.6   0.107839962   2.70382  -0.21536   1.62997  -0.02528
   2   14078.9    710.3   0.021051847   0.49226  -0.51999   0.39677   0.25386
   3   19300.2    518.1   0.290298871   4.95176   0.26732  -2.18346  -0.33589
   4   20128.4    496.8   0.510844058   8.35514  -0.14303   2.86409   0.36287
   5   20859.8    479.4   0.377876699   5.96369   0.14148  -2.26839  -0.89335
   6   21097.6    474.0   0.032002386   0.49937  -0.48655  -0.50882   0.06121
   7   21957.5    455.4   0.152556753   2.28730   0.78171   1.22725  -0.41242
   8   22392.8    446.6   0.069654122   1.02403   0.55094   0.84127  -0.11296
   9   23974.4    417.1   0.410061699   5.63090   0.00817   2.28014   0.65712
  10   24958.2    400.7   0.562380143   7.41809   0.34958   2.57929   0.80196
  11   25306.8    395.2   0.014666328   0.19079  -0.43262  -0.05456   0.02563
  12   26639.6    375.4   0.020124293   0.24870  -0.27402  -0.39309   0.13817
  13   27425.4    364.6   0.005947807   0.07140   0.19640  -0.12896  -0.12725
  14   27512.1    363.5   0.042663909   0.51052   0.26283   0.66390  -0.02604
  15   27932.4    358.0   0.050112646   0.59063  -0.76700   0.04600   0.01519
  16   28207.8    354.5   0.018149294   0.21182   0.25004  -0.38494   0.03345
  17   28589.7    349.8   0.014950896   0.17216   0.23169   0.16886   0.29994
  18   28737.3    348.0   0.014524861   0.16640  -0.39202   0.01563  -0.11169
  19   29044.3    344.3   0.029067304   0.32947  -0.54808  -0.14535  -0.08916
  20   29633.9    337.5   0.013866047   0.15404   0.23608   0.12616  -0.28704
  21   30223.8    330.9   0.034812762   0.37920  -0.26888  -0.51105   0.21384
  22   30394.9    329.0   0.091298086   0.98886  -0.65532   0.74762  -0.02209
  23   30750.1    325.2   0.001892617   0.02026  -0.13033  -0.00004   0.05725
  24   31267.8    319.8   0.022291574   0.23470  -0.31622  -0.17305   0.32367
  25   31684.1    315.6   0.038869869   0.40387   0.57713   0.17445   0.20092
  26   31742.4    315.0   0.068125728   0.70656   0.74191  -0.08603  -0.38565
  27   32073.3    311.8   0.019347054   0.19858  -0.41746  -0.15530  -0.01405
  28   32410.8    308.5   0.249799332   2.53733   0.91815  -0.37108  -1.24765
  29   32779.3    305.1   0.037297554   0.37459  -0.42638  -0.41631  -0.13956
  30   33022.6    302.8   0.034928936   0.34822  -0.23711   0.34206   0.41832
  31   33273.0    300.5   0.021712931   0.21483   0.32973   0.31750  -0.07283
  32   33467.8    298.8   0.112463631   1.10627   0.47369  -0.76044  -0.55101
  33   33671.5    297.0   0.223532151   2.18551  -1.33760  -0.29060  -0.55848
  34   33769.4    296.1   0.007521797   0.07333   0.15853  -0.10606  -0.19222
  35   33951.1    294.5   0.377645194   3.66189  -1.31672   0.26877   1.36231
  36   34228.1    292.2   0.443189016   4.26267  -1.68453  -0.72777  -0.94625
  37   34501.4    289.8   0.026857731   0.25628  -0.49479  -0.07928  -0.07192
  38   34806.5    287.3   0.072200438   0.68290  -0.56397   0.35797   0.48651
  39   34930.0    286.3   0.090632490   0.85420   0.52570   0.66036  -0.37651
  40   35209.8    284.0   0.282444371   2.64085   1.45053  -0.54708  -0.48736
  41   35394.4    282.5   0.026165073   0.24337   0.49204  -0.02768   0.02229
  42   35535.7    281.4   0.076212745   0.70605   0.79606  -0.24534   0.11021
  43   36079.0    277.2   0.055606116   0.50739  -0.32446   0.09079  -0.62760
  44   36286.9    275.6   0.054371454   0.49328   0.30401   0.00070  -0.63314
  45   37025.8    270.1   0.044060715   0.39176  -0.60074  -0.16779  -0.05220
  46   37182.3    268.9   0.036410886   0.32238  -0.33064  -0.23243   0.39880
  47   37374.0    267.6   0.027087623   0.23860   0.44359   0.20281  -0.02653
  48   37491.0    266.7   0.023589179   0.20714  -0.05610   0.31761   0.32112
  49   37807.4    264.5   0.043331111   0.37731   0.20432   0.57772   0.04239
  50   37877.2    264.0   0.010600840   0.09214   0.28796   0.09593   0.00385
  51   38164.4    262.0   0.021302762   0.18376  -0.42408  -0.00759   0.06213
  52   38356.4    260.7   0.046213329   0.39665   0.08985  -0.59744  -0.17789
  53   38466.2    260.0   0.019471874   0.16665  -0.03800   0.37012   0.16798
  54   38819.1    257.6   0.011982097   0.10162   0.31707  -0.02155  -0.02481
  55   38931.1    256.9   0.044906965   0.37975  -0.59365  -0.15938  -0.04386
  56   39263.4    254.7   0.000588249   0.00493  -0.02423  -0.05957   0.02824
  57   39388.0    253.9   0.004192990   0.03505   0.18311   0.02849  -0.02657
  58   39550.3    252.8   0.098938952   0.82356  -0.80808  -0.40948  -0.05379
  59   39684.0    252.0   0.070196376   0.58234   0.43241  -0.30363  -0.55061
  60   39879.9    250.8   0.031369365   0.25896  -0.28013  -0.33575  -0.26030
  61   40141.3    249.1   0.031487196   0.25824   0.40320  -0.30348   0.05971

FINAL SINGLE POINT ENERGY    -10165.374064937365

DIPOLE MOMENT
-------------
                                X             Y             Z
Electronic contribution:     29.81227      14.19451     -37.07573
Nuclear contribution   :    -29.78486     -17.01581      37.60328
                        -----------------------------------------
Total Dipole Moment    :      0.02741      -2.82131       0.52756
                        -----------------------------------------
Magnitude (a.u.)       :      2.87034
Magnitude (Debye)      :      7.29582

Rotational constants in cm-1:     0.001167     0.000337     0.000279
Rotational constants in MHz :    34.997668    10.105430     8.351454

                             ****ORCA TERMINATED NORMALLY****
TOTAL RUN TIME: 0 days 0 hours 11 minutes 7 seconds 533 msec
