                         Program Version 4.2.0 -  RELEASE  -
|  1> # ORCA input file
|  2> # SCF done       -179.307539201722          0.000866490407
|  3> ! CAM-B3LYP def2-SVP def2/J RIJCOSX Grid4 TightSCF
|  4> %maxcore 5000
|  5> %tddft
|  6>     Mode sTDDFT
|  7>     Ethresh 5.0
|  8>     maxcore 5000
|  9> end
| 10>
| 11> %pal
| 12>   nprocs 6
| 13>   end
| 14> * xyz 0 1
| 15>    C       -2.46678        -3.30496        -7.91066
| 16>    S       -3.28094        -1.81458        -8.36652
| 17>    C       -3.63389        -2.43884       -10.00128
| 18>    O       -4.21812        -1.83589       -10.85303
| 19>    N       -3.12722        -3.70541       -10.10678
| 20>    C       -2.47585        -4.24408        -9.01399
| 21>    O       -1.99251        -5.36232        -9.02533
| 22>    C       -3.27910        -4.44823       -11.33904
| 23>    C       -1.93733        -3.47355        -6.66587
| 24>    C       -1.26108        -4.57156        -6.10433
| 25>    C       -0.80445        -4.57052        -4.78465
| 26>    C       -0.17123        -5.75152        -4.43972
| 27>    C       -0.13597        -6.67472        -5.51529
| 28>    S       -0.88787        -6.08455        -6.92940
| 29>    C        0.52219        -7.83739        -5.07094
| 30>    C        0.91143        -7.66212        -3.72283
| 31>    C        0.46758        -6.34572        -3.28056
| 32>    C        0.57413        -5.79679        -2.03532
| 33>    C        1.16357        -6.44466        -0.93312
| 34>    N        1.61936        -6.93281         0.00049
| 35>    C        0.03580        -4.52346        -1.74223
| 36>    N       -0.42790        -3.50396        -1.49833
| 37>    C        1.57130        -8.75682        -3.19287
| 38>    C        1.69434        -9.80178        -4.11524
| 39>    S        0.96807        -9.37414        -5.66951
| 40>    C        2.26028       -11.07617        -3.98582
| 41>    C        2.91262       -11.59830        -2.88942
| 42>    C        3.43842       -12.90788        -2.77183
| 43>    C        4.03797       -13.17230        -1.57192
| 44>    C        4.02628       -12.07944        -0.68651
| 45>    S        3.21999       -10.71221        -1.41585
| 46>    C        4.52783       -11.92398         0.59835
| 47>    C        5.15211       -12.81994         1.48616
| 48>    C        5.47780       -12.25809         2.69053
| 49>    C        5.13886       -10.88914         2.81004
| 50>    S        4.39032       -10.34613         1.32497
| 51>    C        5.26260       -10.08045         3.92146
| 52>    C        4.91346        -8.72290         3.95623
| 53>    C        4.70690        -7.85542         2.88058
| 54>    C        4.24604        -6.61743         3.27880
| 55>    C        4.10368        -6.49189         4.67849
| 56>    S        4.58304        -7.92147         5.49649
| 57>    C        3.57751        -5.21704         4.95437
| 58>    C        3.37418        -4.53108         3.72655
| 59>    C        3.78569        -5.39367         2.63825
| 60>    C        3.73674        -5.15732         1.29606
| 61>    C        3.16721        -3.99836         0.72720
| 62>    N        2.68794        -3.09315         0.21240
| 63>    C        4.25604        -6.06499         0.34665
| 64>    N        4.71951        -6.76046        -0.43943
| 65>    C        2.87283        -3.24951         3.89286
| 66>    C        2.67552        -2.92854         5.23067
| 67>    S        3.11381        -4.27788         6.29595
| 68>    C        2.15136        -1.78400         5.85830
| 69>    C        1.94621        -0.52494         5.35982
| 70>    C        1.28485         0.54150         6.08755
| 71>    C        0.51521         0.41255         7.21543
| 72>    C        0.21220        -0.80061         7.86857
| 73>    N       -0.10033        -1.74337         8.44606
| 74>    C       -0.11891         1.49045         7.86763
| 75>    N       -0.65552         2.32038         8.45237
| 76>    C        1.50617         1.78515         5.35395
| 77>    C        2.21370         1.49199         4.17601
| 78>    C        2.50303         0.04935         4.10792
| 79>    O        3.12693        -0.51455         3.23357
| 80>    C        2.55359         2.48456         3.27694
| 81>    C        2.17858         3.78713         3.56372
| 82>    C        1.48225         4.10035         4.72988
| 83>    C        1.14376         3.09200         5.63136
| 84>    C        1.11736         5.51956         5.03006
| 85>    H       -4.33707        -4.59525       -11.55697
| 86>    H       -2.78473        -5.40840       -11.20119
| 87>    H       -2.82111        -3.89976       -12.16204
| 88>    H       -2.05260        -2.63526        -5.98829
| 89>    H       -0.94407        -3.72946        -4.12956
| 90>    H        1.94202        -8.80244        -2.18651
| 91>    H        2.17276       -11.72653        -4.84673
| 92>    H        3.35603       -13.61745        -3.57624
| 93>    H        4.48917       -14.11330        -1.31229
| 94>    H        5.33118       -13.84890         1.22955
| 95>    H        5.95134       -12.79019         3.49683
| 96>    H        5.58640       -10.54242         4.84411
| 97>    H        4.92981        -8.10429         1.86161
| 98>    H        2.65671        -2.56571         3.09298
| 99>    H        1.89824        -1.93959         6.90106
|100>    H        3.09319         2.23590         2.37612
|101>    H        2.42893         4.57950         2.87337
|102>    H        0.60929         3.34708         6.53233
|103>    H        0.89494         6.06554         4.11623
|104>    H        1.95317         6.01754         5.52301
|105>    H        0.25819         5.56808         5.69412
|106> *
|107>
|108>                          ****END OF INPUT****

CARTESIAN COORDINATES (ANGSTROEM)
---------------------------------
  C     -2.466780   -3.304960   -7.910660
  S     -3.280940   -1.814580   -8.366520
  C     -3.633890   -2.438840  -10.001280
  O     -4.218120   -1.835890  -10.853030
  N     -3.127220   -3.705410  -10.106780
  C     -2.475850   -4.244080   -9.013990
  O     -1.992510   -5.362320   -9.025330
  C     -3.279100   -4.448230  -11.339040
  C     -1.937330   -3.473550   -6.665870
  C     -1.261080   -4.571560   -6.104330
  C     -0.804450   -4.570520   -4.784650
  C     -0.171230   -5.751520   -4.439720
  C     -0.135970   -6.674720   -5.515290
  S     -0.887870   -6.084550   -6.929400
  C      0.522190   -7.837390   -5.070940
  C      0.911430   -7.662120   -3.722830
  C      0.467580   -6.345720   -3.280560
  C      0.574130   -5.796790   -2.035320
  C      1.163570   -6.444660   -0.933120
  N      1.619360   -6.932810    0.000490
  C      0.035800   -4.523460   -1.742230
  N     -0.427900   -3.503960   -1.498330
  C      1.571300   -8.756820   -3.192870
  C      1.694340   -9.801780   -4.115240
  S      0.968070   -9.374140   -5.669510
  C      2.260280  -11.076170   -3.985820
  C      2.912620  -11.598300   -2.889420
  C      3.438420  -12.907880   -2.771830
  C      4.037970  -13.172300   -1.571920
  C      4.026280  -12.079440   -0.686510
  S      3.219990  -10.712210   -1.415850
  C      4.527830  -11.923980    0.598350
  C      5.152110  -12.819940    1.486160
  C      5.477800  -12.258090    2.690530
  C      5.138860  -10.889140    2.810040
  S      4.390320  -10.346130    1.324970
  C      5.262600  -10.080450    3.921460
  C      4.913460   -8.722900    3.956230
  C      4.706900   -7.855420    2.880580
  C      4.246040   -6.617430    3.278800
  C      4.103680   -6.491890    4.678490
  S      4.583040   -7.921470    5.496490
  C      3.577510   -5.217040    4.954370
  C      3.374180   -4.531080    3.726550
  C      3.785690   -5.393670    2.638250
  C      3.736740   -5.157320    1.296060
  C      3.167210   -3.998360    0.727200
  N      2.687940   -3.093150    0.212400
  C      4.256040   -6.064990    0.346650
  N      4.719510   -6.760460   -0.439430
  C      2.872830   -3.249510    3.892860
  C      2.675520   -2.928540    5.230670
  S      3.113810   -4.277880    6.295950
  C      2.151360   -1.784000    5.858300
  C      1.946210   -0.524940    5.359820
  C      1.284850    0.541500    6.087550
  C      0.515210    0.412550    7.215430
  C      0.212200   -0.800610    7.868570
  N     -0.100330   -1.743370    8.446060
  C     -0.118910    1.490450    7.867630
  N     -0.655520    2.320380    8.452370
  C      1.506170    1.785150    5.353950
  C      2.213700    1.491990    4.176010
  C      2.503030    0.049350    4.107920
  O      3.126930   -0.514550    3.233570
  C      2.553590    2.484560    3.276940
  C      2.178580    3.787130    3.563720
  C      1.482250    4.100350    4.729880
  C      1.143760    3.092000    5.631360
  C      1.117360    5.519560    5.030060
  H     -4.337070   -4.595250  -11.556970
  H     -2.784730   -5.408400  -11.201190
  H     -2.821110   -3.899760  -12.162040
  H     -2.052600   -2.635260   -5.988290
  H     -0.944070   -3.729460   -4.129560
  H      1.942020   -8.802440   -2.186510
  H      2.172760  -11.726530   -4.846730
  H      3.356030  -13.617450   -3.576240
  H      4.489170  -14.113300   -1.312290
  H      5.331180  -13.848900    1.229550
  H      5.951340  -12.790190    3.496830
  H      5.586400  -10.542420    4.844110
  H      4.929810   -8.104290    1.861610
  H      2.656710   -2.565710    3.092980
  H      1.898240   -1.939590    6.901060
  H      3.093190    2.235900    2.376120
  H      2.428930    4.579500    2.873370
  H      0.609290    3.347080    6.532330
  H      0.894940    6.065540    4.116230
  H      1.953170    6.017540    5.523010
  H      0.258190    5.568080    5.694120

 Total Charge           Charge          ....    0
 Multiplicity           Mult            ....    1
 Number of Electrons    NEL             ....  524
 Basis Dimension        Dim             .... 1113

ORBITAL ENERGIES
----------------

  NO   OCC          E(Eh)            E(eV)
   0   2.0000     -88.984438     -2421.3897
   1   2.0000     -88.984159     -2421.3821
   2   2.0000     -88.983363     -2421.3604
   3   2.0000     -88.981400     -2421.3070
   4   2.0000     -88.956069     -2420.6177
   5   2.0000     -88.953616     -2420.5509
   6   2.0000     -88.951331     -2420.4888
   7   2.0000     -19.217563      -522.9365
   8   2.0000     -19.213857      -522.8356
   9   2.0000     -19.207389      -522.6596
  10   2.0000     -14.472758      -393.8238
  11   2.0000     -14.430225      -392.6664
  12   2.0000     -14.422476      -392.4555
  13   2.0000     -14.420924      -392.4133
  14   2.0000     -14.419084      -392.3632
  15   2.0000     -14.408227      -392.0678
  16   2.0000     -14.405557      -391.9951
  17   2.0000     -10.409497      -283.2568
  18   2.0000     -10.402608      -283.0694
  19   2.0000     -10.359882      -281.9067
  20   2.0000     -10.358919      -281.8805
  21   2.0000     -10.356727      -281.8209
  22   2.0000     -10.348322      -281.5922
  23   2.0000     -10.342054      -281.4216
  24   2.0000     -10.337276      -281.2916
  25   2.0000     -10.332738      -281.1681
  26   2.0000     -10.331668      -281.1390
  27   2.0000     -10.331385      -281.1313
  28   2.0000     -10.326424      -280.9963
  29   2.0000     -10.325385      -280.9680
  30   2.0000     -10.324704      -280.9495
  31   2.0000     -10.324201      -280.9358
  32   2.0000     -10.324046      -280.9316
  33   2.0000     -10.322498      -280.8894
  34   2.0000     -10.322475      -280.8888
  35   2.0000     -10.321337      -280.8579
  36   2.0000     -10.320803      -280.8433
  37   2.0000     -10.320102      -280.8242
  38   2.0000     -10.320030      -280.8223
  39   2.0000     -10.320016      -280.8219
  40   2.0000     -10.319578      -280.8100
  41   2.0000     -10.319193      -280.7995
  42   2.0000     -10.317717      -280.7594
  43   2.0000     -10.316784      -280.7340
  44   2.0000     -10.316348      -280.7221
  45   2.0000     -10.311480      -280.5896
  46   2.0000     -10.310120      -280.5526
  47   2.0000     -10.309117      -280.5253
  48   2.0000     -10.303039      -280.3599
  49   2.0000     -10.302150      -280.3358
  50   2.0000     -10.301786      -280.3258
  51   2.0000     -10.300986      -280.3041
  52   2.0000     -10.299660      -280.2680
  53   2.0000     -10.298283      -280.2305
  54   2.0000     -10.297927      -280.2208
  55   2.0000     -10.297691      -280.2144
  56   2.0000     -10.297637      -280.2129
  57   2.0000     -10.297621      -280.2125
  58   2.0000     -10.297091      -280.1981
  59   2.0000     -10.296544      -280.1832
  60   2.0000     -10.296221      -280.1744
  61   2.0000     -10.295128      -280.1447
  62   2.0000     -10.292367      -280.0696
  63   2.0000     -10.291514      -280.0463
  64   2.0000     -10.289122      -279.9812
  65   2.0000     -10.284545      -279.8567
  66   2.0000     -10.281332      -279.7693
  67   2.0000     -10.281158      -279.7645
  68   2.0000     -10.278703      -279.6977
  69   2.0000     -10.267750      -279.3997
  70   2.0000      -8.079104      -219.8436
  71   2.0000      -8.079051      -219.8421
  72   2.0000      -8.077957      -219.8124
  73   2.0000      -8.073981      -219.7042
  74   2.0000      -8.052075      -219.1081
  75   2.0000      -8.049895      -219.0488
  76   2.0000      -8.048984      -219.0240
  77   2.0000      -6.048329      -164.5834
  78   2.0000      -6.048195      -164.5797
  79   2.0000      -6.047291      -164.5552
  80   2.0000      -6.044251      -164.4724
  81   2.0000      -6.044117      -164.4688
  82   2.0000      -6.043378      -164.4487
  83   2.0000      -6.043196      -164.4437
  84   2.0000      -6.041445      -164.3961
  85   2.0000      -6.041438      -164.3959
  86   2.0000      -6.040091      -164.3592
  87   2.0000      -6.038738      -164.3224
  88   2.0000      -6.036481      -164.2610
  89   2.0000      -6.021816      -163.8619
  90   2.0000      -6.019637      -163.8027
  91   2.0000      -6.018628      -163.7752
  92   2.0000      -6.017592      -163.7470
  93   2.0000      -6.015337      -163.6856
  94   2.0000      -6.015095      -163.6791
  95   2.0000      -6.013118      -163.6253
  96   2.0000      -6.010900      -163.5649
  97   2.0000      -6.009163      -163.5176
  98   2.0000      -1.168968       -31.8092
  99   2.0000      -1.144222       -31.1359
 100   2.0000      -1.122544       -30.5460
 101   2.0000      -1.056973       -28.7617
 102   2.0000      -1.039205       -28.2782
 103   2.0000      -1.038677       -28.2638
 104   2.0000      -1.019741       -27.7486
 105   2.0000      -1.012199       -27.5433
 106   2.0000      -1.009800       -27.4780
 107   2.0000      -1.009130       -27.4598
 108   2.0000      -1.003122       -27.2963
 109   2.0000      -0.997236       -27.1362
 110   2.0000      -0.994628       -27.0652
 111   2.0000      -0.991440       -26.9785
 112   2.0000      -0.987656       -26.8755
 113   2.0000      -0.984977       -26.8026
 114   2.0000      -0.982344       -26.7309
 115   2.0000      -0.957944       -26.0670
 116   2.0000      -0.953306       -25.9408
 117   2.0000      -0.942905       -25.6577
 118   2.0000      -0.942194       -25.6384
 119   2.0000      -0.917792       -24.9744
 120   2.0000      -0.913824       -24.8664
 121   2.0000      -0.897888       -24.4328
 122   2.0000      -0.893534       -24.3143
 123   2.0000      -0.882899       -24.0249
 124   2.0000      -0.874406       -23.7938
 125   2.0000      -0.871751       -23.7215
 126   2.0000      -0.865021       -23.5384
 127   2.0000      -0.855672       -23.2840
 128   2.0000      -0.853091       -23.2138
 129   2.0000      -0.851234       -23.1633
 130   2.0000      -0.849362       -23.1123
 131   2.0000      -0.847861       -23.0715
 132   2.0000      -0.830192       -22.5907
 133   2.0000      -0.823765       -22.4158
 134   2.0000      -0.813763       -22.1436
 135   2.0000      -0.807674       -21.9779
 136   2.0000      -0.792741       -21.5716
 137   2.0000      -0.782056       -21.2808
 138   2.0000      -0.778252       -21.1773
 139   2.0000      -0.771554       -20.9951
 140   2.0000      -0.766726       -20.8637
 141   2.0000      -0.753051       -20.4915
 142   2.0000      -0.742687       -20.2095
 143   2.0000      -0.733142       -19.9498
 144   2.0000      -0.716905       -19.5080
 145   2.0000      -0.706757       -19.2318
 146   2.0000      -0.699328       -19.0297
 147   2.0000      -0.693868       -18.8811
 148   2.0000      -0.687573       -18.7098
 149   2.0000      -0.685768       -18.6607
 150   2.0000      -0.681278       -18.5385
 151   2.0000      -0.676550       -18.4099
 152   2.0000      -0.672552       -18.3011
 153   2.0000      -0.668602       -18.1936
 154   2.0000      -0.662685       -18.0326
 155   2.0000      -0.652153       -17.7460
 156   2.0000      -0.641844       -17.4655
 157   2.0000      -0.636520       -17.3206
 158   2.0000      -0.633190       -17.2300
 159   2.0000      -0.628714       -17.1082
 160   2.0000      -0.626236       -17.0407
 161   2.0000      -0.618645       -16.8342
 162   2.0000      -0.615594       -16.7512
 163   2.0000      -0.610061       -16.6006
 164   2.0000      -0.607330       -16.5263
 165   2.0000      -0.602387       -16.3918
 166   2.0000      -0.600755       -16.3474
 167   2.0000      -0.591330       -16.0909
 168   2.0000      -0.586633       -15.9631
 169   2.0000      -0.580435       -15.7944
 170   2.0000      -0.577380       -15.7113
 171   2.0000      -0.572924       -15.5901
 172   2.0000      -0.564371       -15.3573
 173   2.0000      -0.556571       -15.1451
 174   2.0000      -0.551750       -15.0139
 175   2.0000      -0.545010       -14.8305
 176   2.0000      -0.543270       -14.7831
 177   2.0000      -0.542655       -14.7664
 178   2.0000      -0.540994       -14.7212
 179   2.0000      -0.533478       -14.5167
 180   2.0000      -0.532752       -14.4969
 181   2.0000      -0.529077       -14.3969
 182   2.0000      -0.526956       -14.3392
 183   2.0000      -0.525027       -14.2867
 184   2.0000      -0.518874       -14.1193
 185   2.0000      -0.516558       -14.0563
 186   2.0000      -0.513753       -13.9799
 187   2.0000      -0.510635       -13.8951
 188   2.0000      -0.509271       -13.8580
 189   2.0000      -0.508078       -13.8255
 190   2.0000      -0.506365       -13.7789
 191   2.0000      -0.504294       -13.7225
 192   2.0000      -0.503805       -13.7092
 193   2.0000      -0.501162       -13.6373
 194   2.0000      -0.498145       -13.5552
 195   2.0000      -0.495639       -13.4870
 196   2.0000      -0.495434       -13.4815
 197   2.0000      -0.492229       -13.3942
 198   2.0000      -0.490193       -13.3388
 199   2.0000      -0.489755       -13.3269
 200   2.0000      -0.488684       -13.2978
 201   2.0000      -0.485937       -13.2230
 202   2.0000      -0.482888       -13.1401
 203   2.0000      -0.481906       -13.1133
 204   2.0000      -0.480885       -13.0856
 205   2.0000      -0.477750       -13.0003
 206   2.0000      -0.470965       -12.8156
 207   2.0000      -0.467828       -12.7302
 208   2.0000      -0.466522       -12.6947
 209   2.0000      -0.463351       -12.6084
 210   2.0000      -0.459792       -12.5116
 211   2.0000      -0.458282       -12.4705
 212   2.0000      -0.453689       -12.3455
 213   2.0000      -0.452572       -12.3151
 214   2.0000      -0.451722       -12.2920
 215   2.0000      -0.447846       -12.1865
 216   2.0000      -0.444287       -12.0897
 217   2.0000      -0.443660       -12.0726
 218   2.0000      -0.442153       -12.0316
 219   2.0000      -0.441467       -12.0129
 220   2.0000      -0.441269       -12.0075
 221   2.0000      -0.440272       -11.9804
 222   2.0000      -0.439383       -11.9562
 223   2.0000      -0.436419       -11.8756
 224   2.0000      -0.435731       -11.8568
 225   2.0000      -0.435208       -11.8426
 226   2.0000      -0.433830       -11.8051
 227   2.0000      -0.433594       -11.7987
 228   2.0000      -0.432048       -11.7566
 229   2.0000      -0.428152       -11.6506
 230   2.0000      -0.425414       -11.5761
 231   2.0000      -0.422988       -11.5101
 232   2.0000      -0.419369       -11.4116
 233   2.0000      -0.418189       -11.3795
 234   2.0000      -0.417723       -11.3668
 235   2.0000      -0.415089       -11.2952
 236   2.0000      -0.412907       -11.2358
 237   2.0000      -0.407823       -11.0974
 238   2.0000      -0.403000       -10.9662
 239   2.0000      -0.400411       -10.8957
 240   2.0000      -0.398046       -10.8314
 241   2.0000      -0.395209       -10.7542
 242   2.0000      -0.385008       -10.4766
 243   2.0000      -0.372071       -10.1246
 244   2.0000      -0.370131       -10.0718
 245   2.0000      -0.359261        -9.7760
 246   2.0000      -0.352544        -9.5932
 247   2.0000      -0.349131        -9.5003
 248   2.0000      -0.345681        -9.4065
 249   2.0000      -0.344716        -9.3802
 250   2.0000      -0.341689        -9.2978
 251   2.0000      -0.333708        -9.0807
 252   2.0000      -0.329908        -8.9773
 253   2.0000      -0.328033        -8.9262
 254   2.0000      -0.323200        -8.7947
 255   2.0000      -0.317322        -8.6348
 256   2.0000      -0.314364        -8.5543
 257   2.0000      -0.308523        -8.3953
 258   2.0000      -0.299864        -8.1597
 259   2.0000      -0.274444        -7.4680
 260   2.0000      -0.253752        -6.9050
 261   2.0000      -0.214168        -5.8278
 262   0.0000      -0.113591        -3.0910
 263   0.0000      -0.101935        -2.7738
 264   0.0000      -0.082398        -2.2422
 265   0.0000      -0.075414        -2.0521
 266   0.0000      -0.055897        -1.5210

MULLIKEN ATOMIC CHARGES
-----------------------
   0 C :   -0.206874
   1 S :    0.058585
   2 C :    0.137419
   3 O :   -0.179946
   4 N :   -0.267173
   5 C :    0.257693
   6 O :   -0.224177
   7 C :    0.125572
   8 C :    0.035835
   9 C :   -0.057310
  10 C :   -0.052032
  11 C :    0.027344
  12 C :   -0.076531
  13 S :    0.229936
  14 C :   -0.102505
  15 C :   -0.001110
  16 C :    0.325199
  17 C :   -0.316806
  18 C :   -0.140941
  19 N :    0.146122
  20 C :   -0.198313
  21 N :    0.184106
  22 C :   -0.036683
  23 C :   -0.097808
  24 S :    0.182829
  25 C :    0.038198
  26 C :   -0.029994
  27 C :    0.035006
  28 C :    0.032536
  29 C :   -0.021354
  30 S :    0.061933
  31 C :   -0.039756
  32 C :    0.038557
  33 C :    0.033882
  34 C :   -0.033116
  35 S :    0.072440
  36 C :    0.031448
  37 C :   -0.086397
  38 C :   -0.044865
  39 C :    0.006547
  40 C :   -0.106239
  41 S :    0.185368
  42 C :   -0.084178
  43 C :   -0.024566
  44 C :    0.325697
  45 C :   -0.292460
  46 C :   -0.199503
  47 N :    0.197068
  48 C :   -0.194262
  49 N :    0.167692
  50 C :    0.023451
  51 C :   -0.116929
  52 S :    0.194951
  53 C :    0.029808
  54 C :   -0.101757
  55 C :    0.305167
  56 C :   -0.349881
  57 C :   -0.202882
  58 N :    0.152818
  59 C :   -0.184330
  60 N :    0.146440
  61 C :    0.040880
  62 C :   -0.023454
  63 C :    0.155218
  64 O :   -0.154491
  65 C :   -0.020199
  66 C :    0.006245
  67 C :   -0.036661
  68 C :   -0.066678
  69 C :    0.084657
  70 H :    0.047594
  71 H :    0.056243
  72 H :    0.047674
  73 H :    0.011552
  74 H :    0.011113
  75 H :    0.032452
  76 H :   -0.013745
  77 H :   -0.007587
  78 H :   -0.010222
  79 H :   -0.009482
  80 H :   -0.008205
  81 H :   -0.011428
  82 H :    0.037920
  83 H :    0.035932
  84 H :    0.014668
  85 H :   -0.005113
  86 H :   -0.017264
  87 H :   -0.012520
  88 H :    0.023410
  89 H :    0.041778
  90 H :    0.030745
Sum of atomic charges:   -0.0000000

LOEWDIN ATOMIC CHARGES
----------------------
   0 C :   -0.231226
   1 S :    0.332108
   2 C :   -0.053096
   3 O :   -0.168542
   4 N :   -0.041613
   5 C :    0.069025
   6 O :   -0.202282
   7 C :    0.040996
   8 C :   -0.000623
   9 C :   -0.182602
  10 C :   -0.006281
  11 C :   -0.078363
  12 C :   -0.175318
  13 S :    0.533962
  14 C :   -0.188583
  15 C :   -0.056668
  16 C :    0.082879
  17 C :   -0.102097
  18 C :   -0.003886
  19 N :   -0.037361
  20 C :   -0.016682
  21 N :   -0.026605
  22 C :   -0.038965
  23 C :   -0.157603
  24 S :    0.470490
  25 C :   -0.074953
  26 C :   -0.146572
  27 C :   -0.026012
  28 C :   -0.035688
  29 C :   -0.169724
  30 S :    0.411352
  31 C :   -0.180532
  32 C :   -0.028678
  33 C :   -0.032845
  34 C :   -0.136141
  35 S :    0.419377
  36 C :   -0.081903
  37 C :   -0.151316
  38 C :   -0.048086
  39 C :   -0.041868
  40 C :   -0.200023
  41 S :    0.461860
  42 C :   -0.153022
  43 C :   -0.076940
  44 C :    0.076431
  45 C :   -0.088135
  46 C :   -0.021899
  47 N :   -0.021314
  48 C :   -0.015707
  49 N :   -0.040631
  50 C :    0.023827
  51 C :   -0.180603
  52 S :    0.482318
  53 C :    0.040275
  54 C :   -0.102370
  55 C :    0.077907
  56 C :   -0.145343
  57 C :   -0.024458
  58 N :   -0.056936
  59 C :   -0.017923
  60 N :   -0.058767
  61 C :   -0.011083
  62 C :   -0.049881
  63 C :    0.084793
  64 O :   -0.141282
  65 C :    0.017171
  66 C :   -0.009678
  67 C :   -0.000405
  68 C :   -0.007886
  69 C :   -0.043694
  70 H :    0.034966
  71 H :    0.037642
  72 H :    0.035247
  73 H :    0.049060
  74 H :    0.042026
  75 H :    0.026156
  76 H :    0.034549
  77 H :    0.034766
  78 H :    0.034202
  79 H :    0.034095
  80 H :    0.034631
  81 H :    0.034651
  82 H :    0.025784
  83 H :    0.045148
  84 H :    0.042341
  85 H :    0.039732
  86 H :    0.030577
  87 H :    0.035940
  88 H :    0.034232
  89 H :    0.043234
  90 H :    0.036948

  Mayer bond orders larger than 0.100000
B(  0-C ,  1-S ) :   1.0243 B(  0-C ,  5-C ) :   0.9957 B(  0-C ,  8-C ) :   1.6461
B(  1-S ,  2-C ) :   1.0006 B(  2-C ,  3-O ) :   2.1303 B(  2-C ,  4-N ) :   1.0568
B(  4-N ,  5-C ) :   1.0912 B(  4-N ,  7-C ) :   0.9321 B(  5-C ,  6-O ) :   2.0264
B(  7-C , 70-H ) :   0.9768 B(  7-C , 71-H ) :   0.9585 B(  7-C , 72-H ) :   0.9762
B(  8-C ,  9-C ) :   1.2400 B(  8-C , 73-H ) :   0.9532 B(  9-C , 10-C ) :   1.3646
B(  9-C , 13-S ) :   1.0835 B( 10-C , 11-C ) :   1.3210 B( 10-C , 74-H ) :   1.0043
B( 11-C , 12-C ) :   1.3668 B( 11-C , 16-C ) :   0.9971 B( 12-C , 13-S ) :   1.1110
B( 12-C , 14-C ) :   1.2209 B( 14-C , 15-C ) :   1.4108 B( 14-C , 24-S ) :   1.1139
B( 15-C , 16-C ) :   0.9916 B( 15-C , 22-C ) :   1.3606 B( 16-C , 17-C ) :   1.6969
B( 17-C , 18-C ) :   1.1580 B( 17-C , 20-C ) :   1.1447 B( 18-C , 19-N ) :   2.8889
B( 20-C , 21-N ) :   2.9782 B( 22-C , 23-C ) :   1.3854 B( 22-C , 75-H ) :   0.9660
B( 23-C , 24-S ) :   1.0960 B( 23-C , 25-C ) :   1.1952 B( 25-C , 26-C ) :   1.5667
B( 25-C , 76-H ) :   0.9514 B( 26-C , 27-C ) :   1.1622 B( 26-C , 30-S ) :   1.0527
B( 27-C , 28-C ) :   1.5694 B( 27-C , 77-H ) :   0.9987 B( 28-C , 29-C ) :   1.2069
B( 28-C , 78-H ) :   0.9949 B( 29-C , 30-S ) :   1.0586 B( 29-C , 31-C ) :   1.4649
B( 31-C , 32-C ) :   1.2053 B( 31-C , 35-S ) :   1.0551 B( 32-C , 33-C ) :   1.5688
B( 32-C , 79-H ) :   0.9953 B( 33-C , 34-C ) :   1.1671 B( 33-C , 80-H ) :   0.9968
B( 34-C , 35-S ) :   1.0564 B( 34-C , 36-C ) :   1.5547 B( 36-C , 37-C ) :   1.1882
B( 36-C , 81-H ) :   0.9600 B( 37-C , 38-C ) :   1.3804 B( 37-C , 41-S ) :   1.0987
B( 38-C , 39-C ) :   1.3704 B( 38-C , 82-H ) :   0.9532 B( 39-C , 40-C ) :   1.4008
B( 39-C , 44-C ) :   0.9979 B( 40-C , 41-S ) :   1.0922 B( 40-C , 42-C ) :   1.2444
B( 42-C , 43-C ) :   1.3567 B( 42-C , 52-S ) :   1.1595 B( 43-C , 44-C ) :   1.0008
B( 43-C , 50-C ) :   1.3431 B( 44-C , 45-C ) :   1.7152 B( 45-C , 46-C ) :   1.1462
B( 45-C , 48-C ) :   1.1304 B( 46-C , 47-N ) :   2.9846 B( 48-C , 49-N ) :   2.9749
B( 50-C , 51-C ) :   1.3926 B( 50-C , 83-H ) :   0.9728 B( 51-C , 52-S ) :   1.0634
B( 51-C , 53-C ) :   1.2232 B( 53-C , 54-C ) :   1.5764 B( 53-C , 84-H ) :   0.9209
B( 54-C , 55-C ) :   1.0855 B( 54-C , 63-C ) :   0.9435 B( 55-C , 56-C ) :   1.6234
B( 55-C , 61-C ) :   0.9796 B( 56-C , 57-C ) :   1.1406 B( 56-C , 59-C ) :   1.1452
B( 57-C , 58-N ) :   2.9874 B( 59-C , 60-N ) :   2.9692 B( 61-C , 62-C ) :   1.3331
B( 61-C , 68-C ) :   1.3660 B( 62-C , 63-C ) :   0.9531 B( 62-C , 65-C ) :   1.3826
B( 63-C , 64-O ) :   2.1841 B( 65-C , 66-C ) :   1.3457 B( 65-C , 85-H ) :   1.0061
B( 66-C , 67-C ) :   1.3841 B( 66-C , 86-H ) :   0.9926 B( 67-C , 68-C ) :   1.3582
B( 67-C , 69-C ) :   1.0523 B( 68-C , 87-H ) :   0.9839 B( 69-C , 88-H ) :   0.9583
B( 69-C , 89-H ) :   0.9515 B( 69-C , 90-H ) :   0.9588

-----------------------------------------------------------------------------
         ABSORPTION SPECTRUM VIA TRANSITION ELECTRIC DIPOLE MOMENTS
-----------------------------------------------------------------------------
State   Energy  Wavelength   fosc         T2         TX        TY        TZ
        (cm-1)    (nm)                  (au**2)     (au)      (au)      (au)
-----------------------------------------------------------------------------
   0    7721.4   1295.1   0.389401195  16.60266  -1.11981  -1.27778  -3.70350
   1    9007.5   1110.2   0.113888437   4.16247  -0.84217   1.85021  -0.17301
   2   13683.8    730.8   0.528539150  12.71584   1.20706   0.67650   3.28652
   3   16234.4    616.0   0.179587872   3.64180   0.74803  -1.75291   0.09782
   4   17588.1    568.6   0.000669546   0.01253   0.00342  -0.04061  -0.10427
   5   18662.2    535.8   1.252326930  22.09180  -2.26071   4.10093  -0.40420
   6   21673.1    461.4   0.178370810   2.70943  -0.65032   1.49350   0.23662
   7   22107.9    452.3   0.530601100   7.90126   1.21601  -2.45166   0.64184
   8   22607.9    442.3   0.279414030   4.06877  -0.61216   1.64584  -0.99259
   9   24249.7    412.4   0.083408405   1.13235   0.18172  -1.04436  -0.09299
  10   24387.4    410.0   0.081820819   1.10452   0.56314  -0.88248   0.09287
  11   25429.5    393.2   0.131592561   1.70360  -0.26487   0.42913   1.20387
  12   26805.8    373.1   0.021109739   0.25926   0.27678  -0.42455  -0.04903
  13   27702.2    361.0   0.186213824   2.21295  -0.35050   1.03077  -1.01372
  14   28250.9    354.0   0.060595980   0.70613  -0.14524   0.74165   0.36742
  15   28881.6    346.2   0.180244420   2.05455   0.12949   0.71469   1.23572
  16   29116.5    343.4   0.132597112   1.49924   0.11288  -0.09905   1.21519
  17   29133.5    343.2   0.152682120   1.72533   0.39512  -0.13796   1.24506
  18   29484.4    339.2   0.052704417   0.58848  -0.08221  -0.75484  -0.10923
  19   29976.9    333.6   0.045097850   0.49527   0.65497   0.05610   0.25128
  20   30271.4    330.3   0.080009657   0.87013  -0.06556   0.42308   0.82875
  21   30746.4    325.2   0.123777298   1.32532  -0.29649   0.01837  -1.11224
  22   31035.2    322.2   0.339181567   3.59793   0.09890   0.01782   1.89416
  23   31189.6    320.6   0.175260532   1.84991   0.18822   0.25114   1.32341
  24   31886.3    313.6   0.053150320   0.54875  -0.22512  -0.66105  -0.24717
  25   31990.4    312.6   0.006013786   0.06189   0.21479   0.09128   0.08613
  26   32156.8    311.0   0.476690603   4.88022  -0.76569   2.00456  -0.52504
  27   32413.9    308.5   0.177016978   1.79787   0.21428  -0.80105  -1.05369
  28   32624.1    306.5   0.163277719   1.64764   0.18721   0.19031   1.25554
  29   32699.4    305.8   0.013059303   0.13148   0.08951   0.30568  -0.17328
  30   33560.8    298.0   0.024495952   0.24029  -0.26528   0.38011   0.15949
  31   33752.5    296.3   0.009869618   0.09627  -0.06531   0.03030   0.30180
  32   33825.9    295.6   0.039032687   0.37989   0.45292  -0.32620  -0.26143
  33   33966.8    294.4   0.113949760   1.10442  -0.11066  -0.90732   0.51859
  34   34376.4    290.9   0.071602625   0.68572  -0.11135   0.11987   0.81176
  35   34512.6    289.7   0.184507701   1.76000  -0.17828   1.11677  -0.69357
  36   34759.1    287.7   0.168237827   1.59342   0.44396   0.06433   1.17991
  37   35003.4    285.7   0.002443208   0.02298   0.08398  -0.06614  -0.10748
  38   35358.2    282.8   0.242829415   2.26093  -0.03254  -0.27728  -1.47749
  39   35674.8    280.3   0.017669618   0.16306   0.00712   0.26769   0.30224
  40   36034.0    277.5   0.022929086   0.20948   0.19310   0.09030   0.40502
  41   36337.8    275.2   0.020437565   0.18516  -0.10642   0.41633  -0.02248
  42   36456.4    274.3   0.009959779   0.08994  -0.02964  -0.27063  -0.12578
  43   36621.1    273.1   0.267420215   2.40402  -0.58979  -0.92116   1.09893
  44   37196.6    268.8   0.027054026   0.23944   0.20383   0.42818  -0.12068
  45   37439.7    267.1   0.004586975   0.04033   0.03046   0.19851  -0.00115
  46   37496.6    266.7   0.051373306   0.45105  -0.20669  -0.28495   0.57195
  47   37644.6    265.6   0.001775204   0.01552  -0.06514  -0.10194   0.02984
  48   37988.5    263.2   0.078455596   0.67990  -0.13985  -0.34240   0.73696
  49   38020.4    263.0   0.016803236   0.14550  -0.01857   0.29629  -0.23950
  50   38205.7    261.7   0.005775190   0.04976  -0.19487  -0.03683   0.10215
  51   38311.7    261.0   0.139458442   1.19836  -0.77334   0.47937   0.60871
  52   38499.1    259.7   0.012656038   0.10822   0.16514   0.19391  -0.20821
  53   38553.2    259.4   0.039488081   0.33719   0.00358  -0.53516   0.22535
  54   38579.9    259.2   0.112057008   0.95621  -0.22428  -0.31783   0.89716
  55   38939.7    256.8   0.005238990   0.04429   0.02786   0.20857   0.00391
  56   39018.1    256.3   0.041525289   0.35037   0.49112  -0.31118  -0.11104
  57   39204.9    255.1   0.008685439   0.07293  -0.08597   0.25366  -0.03463
  58   39399.1    253.8   0.102175077   0.85376  -0.28796   0.69391   0.53790
  59   39666.8    252.1   0.004881806   0.04052  -0.08062   0.12968   0.13115
  60   39825.4    251.1   0.062573941   0.51726   0.27075  -0.65577  -0.11800
  61   39943.6    250.4   0.013229106   0.10903  -0.00280   0.22994  -0.23696
  62   40068.0    249.6   0.009466329   0.07778  -0.18987   0.18813  -0.07958

FINAL SINGLE POINT ENERGY     -5424.203404995815

DIPOLE MOMENT
-------------
                                X             Y             Z
Electronic contribution:      1.10368     -20.65895       2.08739
Nuclear contribution   :      1.05527      16.97885      -3.67824
                        -----------------------------------------
Total Dipole Moment    :      2.15895      -3.68010      -1.59085
                        -----------------------------------------
Magnitude (a.u.)       :      4.55357
Magnitude (Debye)      :     11.57425

Rotational constants in cm-1:     0.000749     0.000472     0.000299
Rotational constants in MHz :    22.465190    14.137944     8.970902

                             ****ORCA TERMINATED NORMALLY****
TOTAL RUN TIME: 0 days 0 hours 10 minutes 34 seconds 553 msec
