                         Program Version 4.2.0 -  RELEASE  -
|  1> # ORCA input file
|  2> # SCF done       -212.938211799839          0.000941129151
|  3> ! CAM-B3LYP def2-SVP def2/J RIJCOSX Grid4 TightSCF
|  4> %maxcore 5000
|  5> %tddft
|  6>     Mode sTDDFT
|  7>     Ethresh 5.0
|  8>     maxcore 5000
|  9> end
| 10>
| 11> %pal
| 12>   nprocs 6
| 13>   end
| 14> * xyz 0 1
| 15>    C       -8.04932         2.74091         3.81111
| 16>    C       -8.84132         3.56987         3.06733
| 17>    F       -9.13490         4.79865         3.51230
| 18>    C       -9.35955         3.14519         1.82727
| 19>    F      -10.13575         3.97829         1.12135
| 20>    C       -9.07699         1.89708         1.34727
| 21>    C       -8.26501         1.01897         2.09101
| 22>    C       -7.74100         1.44679         3.34549
| 23>    C       -6.92675         0.58143         4.11151
| 24>    C       -6.64807        -0.67344         3.63753
| 25>    C       -7.17807        -1.09283         2.38650
| 26>    C       -7.96453        -0.27956         1.62294
| 27>    C       -6.75535        -2.47967         2.10707
| 28>    O       -7.05148        -3.13173         1.12934
| 29>    C       -5.98403        -2.90509         3.30046
| 30>    C       -5.86163        -1.76903         4.19440
| 31>    C       -5.08137        -1.69770         5.31928
| 32>    C       -4.24340        -2.72990         5.79191
| 33>    N       -3.52563        -3.51618         6.22266
| 34>    C       -4.98405        -0.55337         6.13841
| 35>    N       -4.86980         0.34347         6.84572
| 36>    C       -5.63206        -4.18737         3.62732
| 37>    C       -5.61857        -5.33793         2.81630
| 38>    C       -5.57736        -5.49430         1.43592
| 39>    C       -5.54645        -6.82997         1.06166
| 40>    C       -5.57343        -7.71683         2.16320
| 41>    S       -5.58746        -6.89895         3.65167
| 42>    C       -5.59756        -9.04196         1.67208
| 43>    C       -5.57155        -9.00285         0.26593
| 44>    C       -5.52050        -7.61182        -0.16282
| 45>    C       -5.44865        -7.15060        -1.44358
| 46>    C       -5.43636        -8.02774        -2.54940
| 47>    N       -5.42709        -8.74538        -3.44355
| 48>    C       -5.35790        -5.77717        -1.75932
| 49>    N       -5.26109        -4.67080        -2.04189
| 50>    C       -5.61611       -10.26877        -0.31243
| 51>    C       -5.68727       -11.27093         0.64139
| 52>    S       -5.68054       -10.63879         2.27922
| 53>    C       -5.79193       -12.66573         0.41763
| 54>    C       -5.96836       -13.65958         1.36453
| 55>    C       -6.07932       -14.91995         0.78169
| 56>    C       -5.97648       -14.88630        -0.62133
| 57>    S       -5.74749       -13.30486        -1.22081
| 58>    C       -6.12615       -16.20395        -1.11981
| 59>    C       -6.33205       -17.07113        -0.03019
| 60>    C       -6.30257       -16.29551         1.19929
| 61>    C       -6.46025       -16.75504         2.47333
| 62>    C       -6.67617       -18.11924         2.76403
| 63>    N       -6.85389       -19.22451         3.01187
| 64>    C       -6.41826       -15.89097         3.58832
| 65>    N       -6.38681       -15.18719         4.49292
| 66>    C       -6.52411       -18.39470        -0.41588
| 67>    C       -6.45949       -18.55022        -1.79228
| 68>    S       -6.15506       -17.02428        -2.61570
| 69>    C       -6.62529       -19.71876        -2.57288
| 70>    C       -6.90875       -21.01622        -2.14615
| 71>    C       -7.05332       -21.90182        -3.22041
| 72>    O       -7.36207       -23.21170        -3.16238
| 73>    C       -7.86080       -23.69590        -1.93177
| 74>    C       -6.96251       -23.32586        -0.76536
| 75>    S       -7.03887       -21.52859        -0.47011
| 76>    C       -6.84661       -21.30689        -4.48014
| 77>    S       -6.48435       -19.61277        -4.30443
| 78>    C       -6.97843       -22.05005        -5.65757
| 79>    C       -6.81528       -21.65498        -6.96117
| 80>    C       -6.99874       -22.47976        -8.13803
| 81>    C       -7.43375       -23.77988        -8.18240
| 82>    C       -7.59245       -24.51881        -9.37351
| 83>    N       -7.74230       -25.17315       -10.30491
| 84>    C       -7.79547       -24.56789        -7.06967
| 85>    N       -8.11717       -25.27794        -6.22563
| 86>    C       -6.65353       -21.66394        -9.29917
| 87>    C       -6.28433       -20.36978        -8.85386
| 88>    C       -6.38595       -20.32123        -7.38586
| 89>    O       -6.15048       -19.35763        -6.67522
| 90>    C       -5.90436       -19.36774        -9.71285
| 91>    C       -5.88826       -19.65513       -11.08188
| 92>    C       -6.25992       -20.94885       -11.51910
| 93>    C       -6.64356       -21.96227       -10.64857
| 94>    S       -6.17165       -21.08866       -13.24833
| 95>    C       -5.64379       -19.43055       -13.35957
| 96>    C       -5.53819       -18.80255       -12.16414
| 97>   Br       -5.28225       -18.68563       -15.04204
| 98>    H       -7.65997         3.08221         4.75758
| 99>    H       -9.48086         1.58667         0.39636
|100>    H       -6.55158         0.93162         5.05947
|101>    H       -8.35215        -0.62382         0.67622
|102>    H       -5.36071        -4.37331         4.66034
|103>    H       -5.57038        -4.66413         0.75506
|104>    H       -5.61001       -10.47118        -1.36838
|105>    H       -6.02150       -13.45592         2.41908
|106>    H       -6.70548       -19.20606         0.26296
|107>    H       -7.90821       -24.78006        -2.05852
|108>    H       -8.87398       -23.30812        -1.76187
|109>    H       -5.92725       -23.59997        -0.96992
|110>    H       -7.29803       -23.79687         0.15550
|111>    H       -7.24901       -23.08201        -5.47047
|112>    H       -5.62875       -18.39332        -9.34121
|113>    H       -6.91612       -22.93073       -11.03304
|114>    H       -5.22655       -17.78052       -12.04874
|115> *
|116>
|117>                          ****END OF INPUT****

CARTESIAN COORDINATES (ANGSTROEM)
---------------------------------
  C     -8.049320    2.740910    3.811110
  C     -8.841320    3.569870    3.067330
  F     -9.134900    4.798650    3.512300
  C     -9.359550    3.145190    1.827270
  F    -10.135750    3.978290    1.121350
  C     -9.076990    1.897080    1.347270
  C     -8.265010    1.018970    2.091010
  C     -7.741000    1.446790    3.345490
  C     -6.926750    0.581430    4.111510
  C     -6.648070   -0.673440    3.637530
  C     -7.178070   -1.092830    2.386500
  C     -7.964530   -0.279560    1.622940
  C     -6.755350   -2.479670    2.107070
  O     -7.051480   -3.131730    1.129340
  C     -5.984030   -2.905090    3.300460
  C     -5.861630   -1.769030    4.194400
  C     -5.081370   -1.697700    5.319280
  C     -4.243400   -2.729900    5.791910
  N     -3.525630   -3.516180    6.222660
  C     -4.984050   -0.553370    6.138410
  N     -4.869800    0.343470    6.845720
  C     -5.632060   -4.187370    3.627320
  C     -5.618570   -5.337930    2.816300
  C     -5.577360   -5.494300    1.435920
  C     -5.546450   -6.829970    1.061660
  C     -5.573430   -7.716830    2.163200
  S     -5.587460   -6.898950    3.651670
  C     -5.597560   -9.041960    1.672080
  C     -5.571550   -9.002850    0.265930
  C     -5.520500   -7.611820   -0.162820
  C     -5.448650   -7.150600   -1.443580
  C     -5.436360   -8.027740   -2.549400
  N     -5.427090   -8.745380   -3.443550
  C     -5.357900   -5.777170   -1.759320
  N     -5.261090   -4.670800   -2.041890
  C     -5.616110  -10.268770   -0.312430
  C     -5.687270  -11.270930    0.641390
  S     -5.680540  -10.638790    2.279220
  C     -5.791930  -12.665730    0.417630
  C     -5.968360  -13.659580    1.364530
  C     -6.079320  -14.919950    0.781690
  C     -5.976480  -14.886300   -0.621330
  S     -5.747490  -13.304860   -1.220810
  C     -6.126150  -16.203950   -1.119810
  C     -6.332050  -17.071130   -0.030190
  C     -6.302570  -16.295510    1.199290
  C     -6.460250  -16.755040    2.473330
  C     -6.676170  -18.119240    2.764030
  N     -6.853890  -19.224510    3.011870
  C     -6.418260  -15.890970    3.588320
  N     -6.386810  -15.187190    4.492920
  C     -6.524110  -18.394700   -0.415880
  C     -6.459490  -18.550220   -1.792280
  S     -6.155060  -17.024280   -2.615700
  C     -6.625290  -19.718760   -2.572880
  C     -6.908750  -21.016220   -2.146150
  C     -7.053320  -21.901820   -3.220410
  O     -7.362070  -23.211700   -3.162380
  C     -7.860800  -23.695900   -1.931770
  C     -6.962510  -23.325860   -0.765360
  S     -7.038870  -21.528590   -0.470110
  C     -6.846610  -21.306890   -4.480140
  S     -6.484350  -19.612770   -4.304430
  C     -6.978430  -22.050050   -5.657570
  C     -6.815280  -21.654980   -6.961170
  C     -6.998740  -22.479760   -8.138030
  C     -7.433750  -23.779880   -8.182400
  C     -7.592450  -24.518810   -9.373510
  N     -7.742300  -25.173150  -10.304910
  C     -7.795470  -24.567890   -7.069670
  N     -8.117170  -25.277940   -6.225630
  C     -6.653530  -21.663940   -9.299170
  C     -6.284330  -20.369780   -8.853860
  C     -6.385950  -20.321230   -7.385860
  O     -6.150480  -19.357630   -6.675220
  C     -5.904360  -19.367740   -9.712850
  C     -5.888260  -19.655130  -11.081880
  C     -6.259920  -20.948850  -11.519100
  C     -6.643560  -21.962270  -10.648570
  S     -6.171650  -21.088660  -13.248330
  C     -5.643790  -19.430550  -13.359570
  C     -5.538190  -18.802550  -12.164140
  Br    -5.282250  -18.685630  -15.042040
  H     -7.659970    3.082210    4.757580
  H     -9.480860    1.586670    0.396360
  H     -6.551580    0.931620    5.059470
  H     -8.352150   -0.623820    0.676220
  H     -5.360710   -4.373310    4.660340
  H     -5.570380   -4.664130    0.755060
  H     -5.610010  -10.471180   -1.368380
  H     -6.021500  -13.455920    2.419080
  H     -6.705480  -19.206060    0.262960
  H     -7.908210  -24.780060   -2.058520
  H     -8.873980  -23.308120   -1.761870
  H     -5.927250  -23.599970   -0.969920
  H     -7.298030  -23.796870    0.155500
  H     -7.249010  -23.082010   -5.470470
  H     -5.628750  -18.393320   -9.341210
  H     -6.916120  -22.930730  -11.033040
  H     -5.226550  -17.780520  -12.048740

 Total Charge           Charge          ....    0
 Multiplicity           Mult            ....    1
 Number of Electrons    NEL             ....  634
 Basis Dimension        Dim             .... 1293

ORBITAL ENERGIES
----------------

  NO   OCC          E(Eh)            E(eV)
   0   2.0000    -482.885905    -13139.9935
   1   2.0000     -89.005413     -2421.9604
   2   2.0000     -89.004582     -2421.9378
   3   2.0000     -89.002579     -2421.8833
   4   2.0000     -88.998865     -2421.7823
   5   2.0000     -88.975791     -2421.1544
   6   2.0000     -88.972493     -2421.0646
   7   2.0000     -88.951929     -2420.5050
   8   2.0000     -62.563625     -1702.4428
   9   2.0000     -56.397572     -1534.6560
  10   2.0000     -56.394860     -1534.5822
  11   2.0000     -56.394825     -1534.5812
  12   2.0000     -24.799608      -674.8316
  13   2.0000     -24.798754      -674.8084
  14   2.0000     -19.279907      -524.6330
  15   2.0000     -19.222615      -523.0739
  16   2.0000     -19.222533      -523.0717
  17   2.0000     -14.441077      -392.9617
  18   2.0000     -14.440834      -392.9551
  19   2.0000     -14.439535      -392.9197
  20   2.0000     -14.437094      -392.8533
  21   2.0000     -14.419967      -392.3873
  22   2.0000     -14.418248      -392.3405
  23   2.0000     -14.414483      -392.2380
  24   2.0000     -14.412074      -392.1725
  25   2.0000     -10.383016      -282.5362
  26   2.0000     -10.382233      -282.5149
  27   2.0000     -10.376585      -282.3612
  28   2.0000     -10.375791      -282.3396
  29   2.0000     -10.374695      -282.3098
  30   2.0000     -10.369481      -282.1679
  31   2.0000     -10.369014      -282.1552
  32   2.0000     -10.363086      -281.9939
  33   2.0000     -10.362624      -281.9813
  34   2.0000     -10.359098      -281.8854
  35   2.0000     -10.353963      -281.7456
  36   2.0000     -10.353084      -281.7217
  37   2.0000     -10.348318      -281.5920
  38   2.0000     -10.346306      -281.5373
  39   2.0000     -10.346179      -281.5338
  40   2.0000     -10.345266      -281.5090
  41   2.0000     -10.344844      -281.4975
  42   2.0000     -10.343873      -281.4711
  43   2.0000     -10.343442      -281.4594
  44   2.0000     -10.341125      -281.3963
  45   2.0000     -10.341021      -281.3935
  46   2.0000     -10.339649      -281.3562
  47   2.0000     -10.339390      -281.3491
  48   2.0000     -10.338466      -281.3240
  49   2.0000     -10.337494      -281.2975
  50   2.0000     -10.336254      -281.2638
  51   2.0000     -10.333859      -281.1986
  52   2.0000     -10.333444      -281.1873
  53   2.0000     -10.331690      -281.1396
  54   2.0000     -10.325474      -280.9704
  55   2.0000     -10.323749      -280.9235
  56   2.0000     -10.323704      -280.9223
  57   2.0000     -10.322880      -280.8999
  58   2.0000     -10.322555      -280.8910
  59   2.0000     -10.321135      -280.8524
  60   2.0000     -10.320680      -280.8400
  61   2.0000     -10.317473      -280.7527
  62   2.0000     -10.317432      -280.7516
  63   2.0000     -10.317032      -280.7407
  64   2.0000     -10.316965      -280.7389
  65   2.0000     -10.316700      -280.7317
  66   2.0000     -10.315964      -280.7117
  67   2.0000     -10.315615      -280.7022
  68   2.0000     -10.315162      -280.6898
  69   2.0000     -10.313551      -280.6460
  70   2.0000     -10.312365      -280.6137
  71   2.0000     -10.312106      -280.6067
  72   2.0000     -10.311694      -280.5954
  73   2.0000     -10.309701      -280.5412
  74   2.0000     -10.307643      -280.4852
  75   2.0000     -10.307567      -280.4832
  76   2.0000     -10.306119      -280.4438
  77   2.0000     -10.305129      -280.4168
  78   2.0000     -10.304665      -280.4042
  79   2.0000     -10.304320      -280.3948
  80   2.0000     -10.302619      -280.3485
  81   2.0000     -10.301976      -280.3310
  82   2.0000     -10.301887      -280.3286
  83   2.0000     -10.297100      -280.1983
  84   2.0000     -10.295603      -280.1576
  85   2.0000     -10.293181      -280.0917
  86   2.0000     -10.292574      -280.0752
  87   2.0000      -8.793067      -239.2715
  88   2.0000      -8.099950      -220.4109
  89   2.0000      -8.099035      -220.3860
  90   2.0000      -8.097450      -220.3428
  91   2.0000      -8.093473      -220.2346
  92   2.0000      -8.071784      -219.6444
  93   2.0000      -8.065633      -219.4770
  94   2.0000      -8.047048      -218.9713
  95   2.0000      -6.629358      -180.3940
  96   2.0000      -6.614802      -179.9979
  97   2.0000      -6.614614      -179.9928
  98   2.0000      -6.069276      -165.1534
  99   2.0000      -6.068331      -165.1277
 100   2.0000      -6.066572      -165.0798
 101   2.0000      -6.065090      -165.0395
 102   2.0000      -6.064150      -165.0139
 103   2.0000      -6.062818      -164.9777
 104   2.0000      -6.062424      -164.9670
 105   2.0000      -6.062117      -164.9586
 106   2.0000      -6.061293      -164.9362
 107   2.0000      -6.059938      -164.8993
 108   2.0000      -6.058434      -164.8584
 109   2.0000      -6.055784      -164.7863
 110   2.0000      -6.041485      -164.3972
 111   2.0000      -6.037176      -164.2799
 112   2.0000      -6.035452      -164.2330
 113   2.0000      -6.033017      -164.1667
 114   2.0000      -6.030884      -164.1087
 115   2.0000      -6.027101      -164.0058
 116   2.0000      -6.017501      -163.7445
 117   2.0000      -6.013444      -163.6341
 118   2.0000      -6.006603      -163.4480
 119   2.0000      -2.745243       -74.7018
 120   2.0000      -2.741138       -74.5902
 121   2.0000      -2.740996       -74.5863
 122   2.0000      -2.729425       -74.2714
 123   2.0000      -2.729417       -74.2712
 124   2.0000      -1.322134       -35.9771
 125   2.0000      -1.307245       -35.5719
 126   2.0000      -1.190108       -32.3845
 127   2.0000      -1.138532       -30.9810
 128   2.0000      -1.137454       -30.9517
 129   2.0000      -1.059859       -28.8402
 130   2.0000      -1.055888       -28.7322
 131   2.0000      -1.032694       -28.1010
 132   2.0000      -1.031645       -28.0725
 133   2.0000      -1.023768       -27.8582
 134   2.0000      -1.022450       -27.8223
 135   2.0000      -1.021194       -27.7881
 136   2.0000      -1.017322       -27.6827
 137   2.0000      -1.015912       -27.6444
 138   2.0000      -1.012382       -27.5483
 139   2.0000      -1.010924       -27.5087
 140   2.0000      -1.007011       -27.4022
 141   2.0000      -0.998119       -27.1602
 142   2.0000      -0.997452       -27.1420
 143   2.0000      -0.992103       -26.9965
 144   2.0000      -0.988950       -26.9107
 145   2.0000      -0.984576       -26.7917
 146   2.0000      -0.973465       -26.4893
 147   2.0000      -0.965672       -26.2773
 148   2.0000      -0.945696       -25.7337
 149   2.0000      -0.938365       -25.5342
 150   2.0000      -0.937323       -25.5059
 151   2.0000      -0.930605       -25.3231
 152   2.0000      -0.920574       -25.0501
 153   2.0000      -0.908082       -24.7102
 154   2.0000      -0.905000       -24.6263
 155   2.0000      -0.900581       -24.5061
 156   2.0000      -0.894691       -24.3458
 157   2.0000      -0.887430       -24.1482
 158   2.0000      -0.885795       -24.1037
 159   2.0000      -0.883436       -24.0395
 160   2.0000      -0.881778       -23.9944
 161   2.0000      -0.876473       -23.8500
 162   2.0000      -0.872040       -23.7294
 163   2.0000      -0.868649       -23.6371
 164   2.0000      -0.863044       -23.4846
 165   2.0000      -0.845860       -23.0170
 166   2.0000      -0.842520       -22.9261
 167   2.0000      -0.830118       -22.5887
 168   2.0000      -0.827477       -22.5168
 169   2.0000      -0.813652       -22.1406
 170   2.0000      -0.795421       -21.6445
 171   2.0000      -0.790626       -21.5140
 172   2.0000      -0.784151       -21.3378
 173   2.0000      -0.781986       -21.2789
 174   2.0000      -0.770465       -20.9654
 175   2.0000      -0.769918       -20.9505
 176   2.0000      -0.760427       -20.6923
 177   2.0000      -0.758064       -20.6280
 178   2.0000      -0.742920       -20.2159
 179   2.0000      -0.729472       -19.8500
 180   2.0000      -0.723338       -19.6830
 181   2.0000      -0.717573       -19.5261
 182   2.0000      -0.715754       -19.4767
 183   2.0000      -0.707911       -19.2632
 184   2.0000      -0.701119       -19.0784
 185   2.0000      -0.698579       -19.0093
 186   2.0000      -0.693128       -18.8610
 187   2.0000      -0.690839       -18.7987
 188   2.0000      -0.690005       -18.7760
 189   2.0000      -0.687015       -18.6946
 190   2.0000      -0.671484       -18.2720
 191   2.0000      -0.665058       -18.0971
 192   2.0000      -0.660560       -17.9748
 193   2.0000      -0.658223       -17.9111
 194   2.0000      -0.652750       -17.7622
 195   2.0000      -0.647726       -17.6255
 196   2.0000      -0.644201       -17.5296
 197   2.0000      -0.643495       -17.5104
 198   2.0000      -0.642067       -17.4715
 199   2.0000      -0.634442       -17.2640
 200   2.0000      -0.631618       -17.1872
 201   2.0000      -0.626414       -17.0456
 202   2.0000      -0.623730       -16.9726
 203   2.0000      -0.623610       -16.9693
 204   2.0000      -0.614801       -16.7296
 205   2.0000      -0.613282       -16.6883
 206   2.0000      -0.601629       -16.3712
 207   2.0000      -0.597365       -16.2551
 208   2.0000      -0.595885       -16.2148
 209   2.0000      -0.588886       -16.0244
 210   2.0000      -0.586686       -15.9645
 211   2.0000      -0.585242       -15.9252
 212   2.0000      -0.584586       -15.9074
 213   2.0000      -0.577497       -15.7145
 214   2.0000      -0.573565       -15.6075
 215   2.0000      -0.562431       -15.3045
 216   2.0000      -0.562276       -15.3003
 217   2.0000      -0.558257       -15.1909
 218   2.0000      -0.556692       -15.1484
 219   2.0000      -0.555617       -15.1191
 220   2.0000      -0.548595       -14.9280
 221   2.0000      -0.548210       -14.9175
 222   2.0000      -0.546159       -14.8617
 223   2.0000      -0.543979       -14.8024
 224   2.0000      -0.542643       -14.7661
 225   2.0000      -0.541793       -14.7429
 226   2.0000      -0.536892       -14.6096
 227   2.0000      -0.533693       -14.5225
 228   2.0000      -0.531965       -14.4755
 229   2.0000      -0.531163       -14.4537
 230   2.0000      -0.528874       -14.3914
 231   2.0000      -0.523877       -14.2554
 232   2.0000      -0.521993       -14.2041
 233   2.0000      -0.520445       -14.1620
 234   2.0000      -0.519592       -14.1388
 235   2.0000      -0.517397       -14.0791
 236   2.0000      -0.516142       -14.0449
 237   2.0000      -0.514885       -14.0107
 238   2.0000      -0.513138       -13.9632
 239   2.0000      -0.511332       -13.9141
 240   2.0000      -0.509267       -13.8579
 241   2.0000      -0.508852       -13.8466
 242   2.0000      -0.506486       -13.7822
 243   2.0000      -0.501561       -13.6482
 244   2.0000      -0.499012       -13.5788
 245   2.0000      -0.498071       -13.5532
 246   2.0000      -0.496381       -13.5072
 247   2.0000      -0.495170       -13.4742
 248   2.0000      -0.494217       -13.4483
 249   2.0000      -0.492855       -13.4113
 250   2.0000      -0.488057       -13.2807
 251   2.0000      -0.485531       -13.2120
 252   2.0000      -0.480283       -13.0692
 253   2.0000      -0.474236       -12.9046
 254   2.0000      -0.471984       -12.8433
 255   2.0000      -0.471336       -12.8257
 256   2.0000      -0.470577       -12.8051
 257   2.0000      -0.468983       -12.7617
 258   2.0000      -0.468609       -12.7515
 259   2.0000      -0.466998       -12.7076
 260   2.0000      -0.465863       -12.6768
 261   2.0000      -0.465679       -12.6718
 262   2.0000      -0.463886       -12.6230
 263   2.0000      -0.459418       -12.5014
 264   2.0000      -0.457408       -12.4467
 265   2.0000      -0.454510       -12.3678
 266   2.0000      -0.452873       -12.3233
 267   2.0000      -0.452583       -12.3154
 268   2.0000      -0.450099       -12.2478
 269   2.0000      -0.449305       -12.2262
 270   2.0000      -0.448958       -12.2168
 271   2.0000      -0.448527       -12.2050
 272   2.0000      -0.448201       -12.1962
 273   2.0000      -0.447349       -12.1730
 274   2.0000      -0.447243       -12.1701
 275   2.0000      -0.446695       -12.1552
 276   2.0000      -0.445063       -12.1108
 277   2.0000      -0.441921       -12.0253
 278   2.0000      -0.439026       -11.9465
 279   2.0000      -0.436763       -11.8849
 280   2.0000      -0.434835       -11.8325
 281   2.0000      -0.433379       -11.7928
 282   2.0000      -0.431594       -11.7443
 283   2.0000      -0.427720       -11.6389
 284   2.0000      -0.427411       -11.6304
 285   2.0000      -0.426953       -11.6180
 286   2.0000      -0.425444       -11.5769
 287   2.0000      -0.421815       -11.4782
 288   2.0000      -0.416571       -11.3355
 289   2.0000      -0.413837       -11.2611
 290   2.0000      -0.413144       -11.2422
 291   2.0000      -0.408712       -11.1216
 292   2.0000      -0.405136       -11.0243
 293   2.0000      -0.404105       -10.9963
 294   2.0000      -0.400746       -10.9049
 295   2.0000      -0.394271       -10.7286
 296   2.0000      -0.388011       -10.5583
 297   2.0000      -0.386152       -10.5077
 298   2.0000      -0.375275       -10.2118
 299   2.0000      -0.373431       -10.1616
 300   2.0000      -0.370154       -10.0724
 301   2.0000      -0.364827        -9.9275
 302   2.0000      -0.359293        -9.7769
 303   2.0000      -0.352923        -9.6035
 304   2.0000      -0.346686        -9.4338
 305   2.0000      -0.338880        -9.2214
 306   2.0000      -0.336932        -9.1684
 307   2.0000      -0.332917        -9.0591
 308   2.0000      -0.330849        -9.0029
 309   2.0000      -0.320311        -8.7161
 310   2.0000      -0.316830        -8.6214
 311   2.0000      -0.310952        -8.4614
 312   2.0000      -0.301264        -8.1978
 313   2.0000      -0.294249        -8.0069
 314   2.0000      -0.290553        -7.9064
 315   2.0000      -0.275805        -7.5050
 316   2.0000      -0.249564        -6.7910
 317   0.0000      -0.124757        -3.3948
 318   0.0000      -0.115081        -3.1315
 319   0.0000      -0.095860        -2.6085
 320   0.0000      -0.091497        -2.4898
 321   0.0000      -0.065035        -1.7697

MULLIKEN ATOMIC CHARGES
-----------------------
   0 C :   -0.107979
   1 C :    0.243665
   2 F :   -0.170305
   3 C :    0.238278
   4 F :   -0.171749
   5 C :   -0.103652
   6 C :    0.117178
   7 C :    0.113711
   8 C :   -0.083002
   9 C :    0.051889
  10 C :   -0.008259
  11 C :   -0.078893
  12 C :    0.154320
  13 O :   -0.150096
  14 C :   -0.101361
  15 C :    0.302350
  16 C :   -0.343097
  17 C :   -0.205662
  18 N :    0.156536
  19 C :   -0.179968
  20 N :    0.148538
  21 C :    0.032938
  22 C :   -0.115398
  23 C :    0.035644
  24 C :   -0.021796
  25 C :   -0.078335
  26 S :    0.211017
  27 C :   -0.105229
  28 C :    0.025062
  29 C :    0.301486
  30 C :   -0.287085
  31 C :   -0.191248
  32 N :    0.176991
  33 C :   -0.187485
  34 N :    0.189830
  35 C :   -0.069380
  36 C :   -0.042585
  37 S :    0.205725
  38 C :   -0.054522
  39 C :   -0.062313
  40 C :    0.015590
  41 C :   -0.101184
  42 S :    0.204527
  43 C :   -0.090935
  44 C :    0.002407
  45 C :    0.305579
  46 C :   -0.294265
  47 C :   -0.184858
  48 N :    0.177410
  49 C :   -0.191428
  50 N :    0.177223
  51 C :   -0.052833
  52 C :   -0.083988
  53 S :    0.206974
  54 C :   -0.079536
  55 C :   -0.044055
  56 C :    0.187269
  57 O :   -0.283531
  58 C :    0.217585
  59 C :   -0.087180
  60 S :    0.012458
  61 C :   -0.125404
  62 S :    0.180900
  63 C :   -0.031998
  64 C :   -0.098321
  65 C :    0.334532
  66 C :   -0.357981
  67 C :   -0.187773
  68 N :    0.143968
  69 C :   -0.191009
  70 N :    0.143441
  71 C :    0.009055
  72 C :   -0.011806
  73 C :    0.172085
  74 O :   -0.193486
  75 C :   -0.072150
  76 C :    0.117144
  77 C :   -0.093327
  78 C :   -0.020651
  79 S :    0.187086
  80 C :   -0.125728
  81 C :    0.041780
  82 Br:    0.023443
  83 H :    0.007175
  84 H :   -0.000093
  85 H :   -0.005553
  86 H :   -0.008520
  87 H :    0.023139
  88 H :    0.034730
  89 H :    0.015478
  90 H :    0.015145
  91 H :    0.028143
  92 H :    0.051734
  93 H :    0.042090
  94 H :    0.079552
  95 H :    0.071834
  96 H :    0.026401
  97 H :   -0.013052
  98 H :   -0.006313
  99 H :   -0.004684
Sum of atomic charges:   -0.0000000

LOEWDIN ATOMIC CHARGES
----------------------
   0 C :   -0.029167
   1 C :    0.066947
   2 F :   -0.048446
   3 C :    0.067996
   4 F :   -0.048870
   5 C :   -0.032489
   6 C :   -0.008513
   7 C :   -0.006504
   8 C :    0.017837
   9 C :   -0.023426
  10 C :   -0.052012
  11 C :    0.031437
  12 C :    0.084119
  13 O :   -0.138963
  14 C :   -0.097194
  15 C :    0.074790
  16 C :   -0.141044
  17 C :   -0.025543
  18 N :   -0.052142
  19 C :   -0.017856
  20 N :   -0.052638
  21 C :    0.044817
  22 C :   -0.178314
  23 C :    0.026481
  24 C :   -0.076265
  25 C :   -0.156678
  26 S :    0.496747
  27 C :   -0.191170
  28 C :   -0.049721
  29 C :    0.076836
  30 C :   -0.092033
  31 C :   -0.015129
  32 N :   -0.030329
  33 C :   -0.020209
  34 N :   -0.016075
  35 C :   -0.041598
  36 C :   -0.166768
  37 S :    0.490679
  38 C :   -0.183057
  39 C :   -0.032313
  40 C :   -0.065593
  41 C :   -0.175599
  42 S :    0.491103
  43 C :   -0.176851
  44 C :   -0.069153
  45 C :    0.080826
  46 C :   -0.097560
  47 C :   -0.017657
  48 N :   -0.026295
  49 C :   -0.016181
  50 N :   -0.030785
  51 C :   -0.026338
  52 C :   -0.181345
  53 S :    0.485524
  54 C :   -0.190032
  55 C :   -0.229060
  56 C :    0.036233
  57 O :   -0.073619
  58 C :    0.076535
  59 C :   -0.137742
  60 S :    0.317061
  61 C :   -0.215436
  62 S :    0.489840
  63 C :    0.061943
  64 C :   -0.117990
  65 C :    0.077228
  66 C :   -0.146852
  67 C :   -0.018343
  68 N :   -0.058827
  69 C :   -0.021689
  70 N :   -0.056091
  71 C :   -0.019252
  72 C :   -0.050634
  73 C :    0.086566
  74 O :   -0.175198
  75 C :    0.021139
  76 C :   -0.033991
  77 C :   -0.144449
  78 C :   -0.009688
  79 S :    0.433514
  80 C :   -0.272442
  81 C :   -0.070273
  82 Br:    0.136558
  83 H :    0.047681
  84 H :    0.045179
  85 H :    0.040037
  86 H :    0.041047
  87 H :    0.044367
  88 H :    0.045902
  89 H :    0.036773
  90 H :    0.036913
  91 H :    0.028013
  92 H :    0.039197
  93 H :    0.024605
  94 H :    0.034199
  95 H :    0.042130
  96 H :    0.050913
  97 H :    0.040080
  98 H :    0.041195
  99 H :    0.038446

  Mayer bond orders larger than 0.100000
B(  0-C ,  1-C ) :   1.4396 B(  0-C ,  5-C ) :   0.1086 B(  0-C ,  7-C ) :   1.1880
B(  0-C , 83-H ) :   1.0075 B(  1-C ,  2-F ) :   1.1356 B(  1-C ,  3-C ) :   1.1920
B(  3-C ,  4-F ) :   1.1328 B(  3-C ,  5-C ) :   1.4422 B(  5-C ,  6-C ) :   1.1920
B(  5-C , 84-H ) :   1.0074 B(  6-C ,  7-C ) :   1.2589 B(  6-C , 11-C ) :   1.1867
B(  7-C ,  8-C ) :   1.2139 B(  8-C ,  9-C ) :   1.4500 B(  8-C , 85-H ) :   0.9907
B(  9-C , 10-C ) :   1.2217 B(  9-C , 15-C ) :   0.9849 B( 10-C , 11-C ) :   1.4725
B( 10-C , 12-C ) :   0.9446 B( 11-C , 86-H ) :   1.0168 B( 12-C , 13-O ) :   2.1988
B( 12-C , 14-C ) :   0.9472 B( 14-C , 15-C ) :   1.0764 B( 14-C , 21-C ) :   1.5858
B( 15-C , 16-C ) :   1.6348 B( 16-C , 17-C ) :   1.1387 B( 16-C , 19-C ) :   1.1445
B( 17-C , 18-N ) :   2.9924 B( 19-C , 20-N ) :   2.9650 B( 21-C , 22-C ) :   1.2058
B( 21-C , 87-H ) :   0.9262 B( 22-C , 23-C ) :   1.4014 B( 22-C , 26-S ) :   1.0699
B( 23-C , 24-C ) :   1.3440 B( 23-C , 88-H ) :   0.9739 B( 24-C , 25-C ) :   1.3735
B( 24-C , 29-C ) :   0.9962 B( 25-C , 26-S ) :   1.1690 B( 25-C , 27-C ) :   1.2098
B( 27-C , 28-C ) :   1.4377 B( 27-C , 37-S ) :   1.1054 B( 28-C , 29-C ) :   0.9939
B( 28-C , 35-C ) :   1.3127 B( 29-C , 30-C ) :   1.7213 B( 30-C , 31-C ) :   1.1341
B( 30-C , 33-C ) :   1.1343 B( 31-C , 32-N ) :   2.9904 B( 33-C , 34-N ) :   2.9946
B( 35-C , 36-C ) :   1.4403 B( 35-C , 89-H ) :   0.9872 B( 36-C , 37-S ) :   1.1224
B( 36-C , 38-C ) :   1.1753 B( 38-C , 39-C ) :   1.4477 B( 38-C , 42-S ) :   1.1067
B( 39-C , 40-C ) :   1.3107 B( 39-C , 90-H ) :   0.9863 B( 40-C , 41-C ) :   1.4393
B( 40-C , 45-C ) :   0.9909 B( 41-C , 42-S ) :   1.1246 B( 41-C , 43-C ) :   1.1937
B( 43-C , 44-C ) :   1.4265 B( 43-C , 53-S ) :   1.1315 B( 44-C , 45-C ) :   0.9991
B( 44-C , 51-C ) :   1.3144 B( 45-C , 46-C ) :   1.7137 B( 46-C , 47-C ) :   1.1372
B( 46-C , 49-C ) :   1.1336 B( 47-C , 48-N ) :   2.9843 B( 49-C , 50-N ) :   2.9920
B( 51-C , 52-C ) :   1.4541 B( 51-C , 91-H ) :   0.9729 B( 52-C , 53-S ) :   1.0929
B( 52-C , 54-C ) :   1.1838 B( 54-C , 55-C ) :   1.4763 B( 54-C , 61-C ) :   0.1078
B( 54-C , 62-S ) :   1.1017 B( 55-C , 56-C ) :   1.3063 B( 55-C , 60-S ) :   0.9956
B( 56-C , 57-O ) :   1.1873 B( 56-C , 61-C ) :   1.3676 B( 57-O , 58-C ) :   0.9404
B( 58-C , 59-C ) :   1.0423 B( 58-C , 92-H ) :   0.9517 B( 58-C , 93-H ) :   0.9535
B( 59-C , 60-S ) :   1.0038 B( 59-C , 94-H ) :   0.9440 B( 59-C , 95-H ) :   0.9477
B( 61-C , 62-S ) :   1.0603 B( 61-C , 63-C ) :   1.3042 B( 63-C , 64-C ) :   1.4583
B( 63-C , 96-H ) :   0.9305 B( 64-C , 65-C ) :   1.0893 B( 64-C , 73-C ) :   0.9923
B( 65-C , 66-C ) :   1.6141 B( 65-C , 71-C ) :   0.9946 B( 66-C , 67-C ) :   1.1460
B( 66-C , 69-C ) :   1.1476 B( 67-C , 68-N ) :   2.9658 B( 69-C , 70-N ) :   2.9579
B( 71-C , 72-C ) :   1.2742 B( 71-C , 78-C ) :   1.4184 B( 72-C , 73-C ) :   0.9592
B( 72-C , 75-C ) :   1.4239 B( 73-C , 74-O ) :   2.1022 B( 75-C , 76-C ) :   1.2423
B( 75-C , 97-H ) :   1.0164 B( 76-C , 77-C ) :   1.3084 B( 76-C , 81-C ) :   1.1637
B( 77-C , 78-C ) :   1.3253 B( 77-C , 79-S ) :   1.0867 B( 78-C , 98-H ) :   0.9784
B( 79-S , 80-C ) :   1.0873 B( 80-C , 81-C ) :   1.6181 B( 80-C , 82-Br) :   1.0189
B( 81-C , 99-H ) :   0.9994

-----------------------------------------------------------------------------
         ABSORPTION SPECTRUM VIA TRANSITION ELECTRIC DIPOLE MOMENTS
-----------------------------------------------------------------------------
State   Energy  Wavelength   fosc         T2         TX        TY        TZ
        (cm-1)    (nm)                  (au**2)     (au)      (au)      (au)
-----------------------------------------------------------------------------
   0   11186.3    894.0   0.563393181  16.58061   0.20019   3.63313   1.82782
   1   12764.3    783.4   0.185533726   4.78521   0.01643  -2.08672  -0.65614
   2   18733.2    533.8   1.724747378  30.31026  -0.21415  -4.16573  -3.59320
   3   19977.5    500.6   0.384013083   6.32821  -0.08866   2.33101   0.94167
   4   20583.8    485.8   0.220152986   3.52107   0.21273  -1.23710   1.39478
   5   21738.3    460.0   0.120645309   1.82709   0.04279  -1.27663  -0.44213
   6   22084.3    452.8   0.032696116   0.48740   0.10440  -0.19475  -0.66225
   7   25067.8    398.9   0.013403141   0.17602  -0.00847  -0.41425  -0.06594
   8   25509.9    392.0   0.019762690   0.25504  -0.23070   0.34469  -0.28811
   9   26133.6    382.6   0.014041716   0.17689   0.09348  -0.21845  -0.34702
  10   26761.4    373.7   0.037517866   0.46154   0.13566  -0.61977   0.24294
  11   27018.8    370.1   0.002588252   0.03154  -0.01965   0.15435  -0.08559
  12   27152.6    368.3   0.084034802   1.01888   0.46395   0.15934  -0.88218
  13   27414.1    364.8   0.093489812   1.12271  -0.05793   0.99878  -0.34897
  14   27697.3    361.0   0.261356939   3.10650  -0.16529   0.99316  -1.44665
  15   28583.6    349.9   0.293686054   3.38253   0.33341   1.34608  -1.20807
  16   28791.2    347.3   0.049404567   0.56491  -0.28058   0.33372  -0.61222
  17   29104.1    343.6   0.005011559   0.05669  -0.01674  -0.21079   0.10943
  18   29133.9    343.2   0.013470518   0.15222   0.24203   0.19106  -0.23902
  19   29611.3    337.7   0.161831039   1.79920  -0.58119   1.20817   0.04166
  20   29878.7    334.7   0.129289902   1.42455  -0.24314  -0.62003   0.99045
  21   30249.7    330.6   0.382679387   4.16476  -0.32269  -1.78756   0.93020
  22   30472.4    328.2   0.233961846   2.52763   0.36008  -1.46192  -0.51064
  23   30819.8    324.5   0.066699031   0.71247   0.77603  -0.19115   0.27150
  24   30979.6    322.8   0.205736890   2.18631  -0.45648  -0.68618   1.22764
  25   31372.8    318.7   0.745639035   7.82439   0.07107   0.02804  -2.79617
  26   31854.0    313.9   0.004047526   0.04183  -0.09713  -0.17236  -0.05187
  27   32062.9    311.9   0.039358073   0.40412  -0.00969   0.41713  -0.47961
  28   32484.3    307.8   0.139798440   1.41679  -0.58044   1.01185  -0.23675
  29   32797.9    304.9   0.030915534   0.31032  -0.03410   0.55454  -0.04052
  30   32865.1    304.3   0.486937757   4.87768   0.56561   1.83590  -1.08960
  31   33173.7    301.4   0.071376244   0.70833  -0.07450  -0.34447   0.76428
  32   33205.1    301.2   0.052892365   0.52440   0.17943   0.66711  -0.21718
  33   33348.6    299.9   0.051425799   0.50767   0.02801   0.41605  -0.57774
  34   33526.7    298.3   0.002003098   0.01967  -0.02293   0.12720   0.05444
  35   33588.5    297.7   0.110884702   1.08682   0.15866  -1.01164  -0.19550
  36   33971.6    294.4   0.070979976   0.68785  -0.53134   0.34268  -0.53675
  37   34141.0    292.9   0.151283377   1.45878   0.11445  -1.09641   0.49352
  38   34437.4    290.4   0.157029008   1.50116  -0.11396   0.50650   1.10978
  39   34695.5    288.2   0.297898727   2.82665   1.06897  -0.85911   0.97256
  40   34805.8    287.3   0.196164526   1.85543  -0.32667   1.25654  -0.41210
  41   34913.6    286.4   0.072595302   0.68452   0.74464   0.17293   0.31643
  42   35226.4    283.9   0.007628678   0.07129  -0.23110  -0.00718  -0.13354
  43   35433.6    282.2   0.062348507   0.57928   0.32096   0.65945  -0.20343
  44   35549.7    281.3   0.133709603   1.23823   0.46016   0.93972  -0.37870
  45   35927.8    278.3   0.013480410   0.12352   0.15440  -0.20793   0.23759
  46   36084.5    277.1   0.016886970   0.15407   0.19757  -0.21728   0.26043
  47   36129.2    276.8   0.028625751   0.26084   0.19436  -0.36587   0.29867
  48   36269.4    275.7   0.098306818   0.89232  -0.01285  -0.39023   0.86016
  49   36703.7    272.5   0.011418383   0.10242  -0.06426   0.20941  -0.23331
  50   36975.5    270.4   0.010472354   0.09324   0.09636  -0.24284   0.15807
  51   37119.2    269.4   0.105301511   0.93393  -0.32846  -0.06722  -0.90638
  52   37190.6    268.9   0.118650891   1.05030   0.15928  -0.68869   0.74205
  53   37831.7    264.3   0.024356644   0.21195  -0.36907  -0.07829  -0.26384
  54   37912.6    263.8   0.017714984   0.15383   0.16680   0.25924   0.24249
  55   38074.3    262.6   0.049358807   0.42678   0.10975   0.24731   0.59462
  56   38133.8    262.2   0.044835992   0.38707  -0.15889  -0.05440  -0.59905
  57   38521.7    259.6   0.115085107   0.98353  -0.04924   0.24095   0.96076
  58   38837.3    257.5   0.199026126   1.68708   0.10198   0.22695  -1.27482
  59   39015.5    256.3   0.223560812   1.88640   0.27676   0.75510   1.11339
  60   39088.6    255.8   0.023185924   0.19528   0.11727   0.41447  -0.09868
  61   39323.1    254.3   0.007216469   0.06042  -0.03885  -0.16043  -0.18212
  62   39444.1    253.5   0.008905766   0.07433   0.03024  -0.05804  -0.26466

FINAL SINGLE POINT ENERGY     -8592.432103546447

DIPOLE MOMENT
-------------
                                X             Y             Z
Electronic contribution:     10.99842     -16.94023    -123.21508
Nuclear contribution   :    -11.46786      16.40706     122.81265
                        -----------------------------------------
Total Dipole Moment    :     -0.46945      -0.53317      -0.40243
                        -----------------------------------------
Magnitude (a.u.)       :      0.81645
Magnitude (Debye)      :      2.07526

Rotational constants in cm-1:     0.000812     0.000136     0.000119
Rotational constants in MHz :    24.343324     4.072714     3.568753

                             ****ORCA TERMINATED NORMALLY****
TOTAL RUN TIME: 0 days 0 hours 12 minutes 41 seconds 784 msec
