                         Program Version 4.2.0 -  RELEASE  -
|  1> # ORCA input file
|  2> # SCF done       -213.628255435784          0.000629733639
|  3> ! CAM-B3LYP def2-SVP def2/J RIJCOSX Grid4 TightSCF
|  4> %maxcore 5000
|  5> %tddft
|  6>     Mode sTDDFT
|  7>     Ethresh 5.0
|  8>     maxcore 5000
|  9> end
| 10>
| 11> %pal
| 12>   nprocs 6
| 13>   end
| 14> * xyz 0 1
| 15>    C        3.17679         3.75990         5.02439
| 16>    C        1.87373         4.11296         5.26213
| 17>    C        1.40751         4.59717         6.50086
| 18>    N        0.98338         5.01261         7.48312
| 19>    C        0.84227         3.94354         4.31663
| 20>    N       -0.02397         3.78539         3.57963
| 21>    C        4.21584         3.63814         6.03980
| 22>    C        5.22292         2.75438         5.55072
| 23>    C        6.30544         2.41357         6.30939
| 24>    C        6.43698         2.95858         7.60670
| 25>    C        5.44278         3.85667         8.09313
| 26>    C        4.32791         4.18651         7.28862
| 27>    C        5.59101         4.39839         9.38601
| 28>    C        6.66629         4.06704        10.16474
| 29>    C        7.64336         3.18141         9.68611
| 30>    C        7.53108         2.63894         8.43465
| 31>    C        4.88456         2.33941         4.17793
| 32>    O        5.46747         1.55748         3.46400
| 33>    C        3.68791         3.15480         3.81177
| 34>    C        3.34729         3.28723         2.50301
| 35>    C        2.56304         4.28511         1.87564
| 36>    C        1.98471         4.19280         0.61949
| 37>    C        1.30668         5.35465         0.26314
| 38>    C        1.40397         6.36231         1.24400
| 39>    S        2.31066         5.87382         2.59707
| 40>    C        0.68107         7.49486         0.80399
| 41>    C        0.11778         7.20805        -0.45264
| 42>    C        0.49962         5.85513        -0.83597
| 43>    C        0.16298         5.20268        -1.98485
| 44>    C       -0.63800         5.80599        -2.97767
| 45>    N       -1.28756         6.29981        -3.78314
| 46>    C        0.59861         3.88893        -2.26117
| 47>    N        0.95625         2.82597        -2.49727
| 48>    C       -0.64505         8.25798        -0.95662
| 49>    C       -0.66937         9.34014        -0.09147
| 50>    S        0.27634         9.05674         1.36251
| 51>    C       -1.37826        10.55541        -0.24276
| 52>    C       -1.43432        11.60662         0.65656
| 53>    C       -2.27937        12.62246         0.22025
| 54>    C       -2.87180        12.34687        -1.03152
| 55>    S       -2.37455        10.83781        -1.66514
| 56>    C       -3.74614        13.40276        -1.36093
| 57>    C       -3.71680        14.34972        -0.31130
| 58>    C       -2.78187        13.89229         0.70701
| 59>    C       -2.46645        14.52272         1.87512
| 60>    C       -3.05765        15.74880         2.24614
| 61>    N       -3.54670        16.74095         2.54864
| 62>    C       -1.53278        13.98426         2.78591
| 63>    N       -0.77044        13.54533         3.52100
| 64>    C       -4.58017        15.41190        -0.50285
| 65>    C       -5.29540        15.30626        -1.69765
| 66>    S       -4.83534        13.85367        -2.59643
| 67>    C       -6.30269        16.12763        -2.21616
| 68>    C       -6.92259        17.18957        -1.59543
| 69>    C       -7.99480        17.94017        -2.13689
| 70>    C       -8.50868        18.87799        -1.29077
| 71>    C       -7.86119        18.92816        -0.03978
| 72>    S       -6.56609        17.76192         0.02364
| 73>    C       -8.16166        19.72138         1.05537
| 74>    C       -7.48430        19.74983         2.29073
| 75>    C       -8.04339        20.59280         3.20670
| 76>    C       -9.19620        21.26155         2.73833
| 77>    S       -9.52561        20.81447         1.08362
| 78>    C      -10.03024        22.14706         3.40283
| 79>    C       -9.88579        22.48563         4.74079
| 80>    C      -10.67608        23.33526         5.49295
| 81>    C      -10.65688        23.19476         6.96351
| 82>    O       -9.87321        22.55541         7.62969
| 83>    C      -11.83333        23.96125         7.44376
| 84>    C      -12.45095        24.59082         6.34796
| 85>    C      -13.58871        25.35448         6.54636
| 86>    C      -14.10844        25.48141         7.83467
| 87>    C      -13.47543        24.85560         8.92091
| 88>    C      -12.32483        24.08428         8.72342
| 89>    C      -13.98438        24.94451        10.24185
| 90>    N      -14.31396        24.90718        11.33828
| 91>    C      -15.31765        26.32087         8.12405
| 92>    O      -15.51030        26.80675         9.20229
| 93>    O      -16.18240        26.50270         7.11823
| 94>    C      -11.67587        24.29849         5.13565
| 95>    C      -11.79829        24.97955         3.94473
| 96>    C      -10.85701        24.92705         2.89765
| 97>    N      -10.10005        24.96691         2.03529
| 98>    C      -12.84147        25.88224         3.66791
| 99>    N      -13.70458        26.58924         3.39300
|100>    H        7.05267         1.73484         5.92598
|101>    H        3.59326         4.87577         7.67533
|102>    H        4.83427         5.07686         9.75151
|103>    H        6.76940         4.48514        11.15478
|104>    H        8.48546         2.93121        10.31375
|105>    H        8.28035         1.95657         8.06092
|106>    H        3.80387         2.56630         1.83077
|107>    H        2.03812         3.29917         0.02419
|108>    H       -1.17003         8.25172        -1.89508
|109>    H       -0.88957        11.60845         1.58367
|110>    H       -4.68806        16.23231         0.17990
|111>    H       -6.67232        15.87061        -3.20065
|112>    H       -8.36154        17.75270        -3.13044
|113>    H       -9.33207        19.53107        -1.52009
|114>    H       -6.60878        19.14818         2.46483
|115>    H       -7.65686        20.74062         4.19815
|116>    H      -10.86089        22.54589         2.83986
|117>    H       -9.13857        21.95947         5.32349
|118>    H      -14.05113        25.86710         5.71603
|119>    H      -11.83437        23.59934         9.55367
|120>    H      -15.92923        26.06536         6.29396
|121> *
|122>
|123>                          ****END OF INPUT****

CARTESIAN COORDINATES (ANGSTROEM)
---------------------------------
  C      3.176790    3.759900    5.024390
  C      1.873730    4.112960    5.262130
  C      1.407510    4.597170    6.500860
  N      0.983380    5.012610    7.483120
  C      0.842270    3.943540    4.316630
  N     -0.023970    3.785390    3.579630
  C      4.215840    3.638140    6.039800
  C      5.222920    2.754380    5.550720
  C      6.305440    2.413570    6.309390
  C      6.436980    2.958580    7.606700
  C      5.442780    3.856670    8.093130
  C      4.327910    4.186510    7.288620
  C      5.591010    4.398390    9.386010
  C      6.666290    4.067040   10.164740
  C      7.643360    3.181410    9.686110
  C      7.531080    2.638940    8.434650
  C      4.884560    2.339410    4.177930
  O      5.467470    1.557480    3.464000
  C      3.687910    3.154800    3.811770
  C      3.347290    3.287230    2.503010
  C      2.563040    4.285110    1.875640
  C      1.984710    4.192800    0.619490
  C      1.306680    5.354650    0.263140
  C      1.403970    6.362310    1.244000
  S      2.310660    5.873820    2.597070
  C      0.681070    7.494860    0.803990
  C      0.117780    7.208050   -0.452640
  C      0.499620    5.855130   -0.835970
  C      0.162980    5.202680   -1.984850
  C     -0.638000    5.805990   -2.977670
  N     -1.287560    6.299810   -3.783140
  C      0.598610    3.888930   -2.261170
  N      0.956250    2.825970   -2.497270
  C     -0.645050    8.257980   -0.956620
  C     -0.669370    9.340140   -0.091470
  S      0.276340    9.056740    1.362510
  C     -1.378260   10.555410   -0.242760
  C     -1.434320   11.606620    0.656560
  C     -2.279370   12.622460    0.220250
  C     -2.871800   12.346870   -1.031520
  S     -2.374550   10.837810   -1.665140
  C     -3.746140   13.402760   -1.360930
  C     -3.716800   14.349720   -0.311300
  C     -2.781870   13.892290    0.707010
  C     -2.466450   14.522720    1.875120
  C     -3.057650   15.748800    2.246140
  N     -3.546700   16.740950    2.548640
  C     -1.532780   13.984260    2.785910
  N     -0.770440   13.545330    3.521000
  C     -4.580170   15.411900   -0.502850
  C     -5.295400   15.306260   -1.697650
  S     -4.835340   13.853670   -2.596430
  C     -6.302690   16.127630   -2.216160
  C     -6.922590   17.189570   -1.595430
  C     -7.994800   17.940170   -2.136890
  C     -8.508680   18.877990   -1.290770
  C     -7.861190   18.928160   -0.039780
  S     -6.566090   17.761920    0.023640
  C     -8.161660   19.721380    1.055370
  C     -7.484300   19.749830    2.290730
  C     -8.043390   20.592800    3.206700
  C     -9.196200   21.261550    2.738330
  S     -9.525610   20.814470    1.083620
  C    -10.030240   22.147060    3.402830
  C     -9.885790   22.485630    4.740790
  C    -10.676080   23.335260    5.492950
  C    -10.656880   23.194760    6.963510
  O     -9.873210   22.555410    7.629690
  C    -11.833330   23.961250    7.443760
  C    -12.450950   24.590820    6.347960
  C    -13.588710   25.354480    6.546360
  C    -14.108440   25.481410    7.834670
  C    -13.475430   24.855600    8.920910
  C    -12.324830   24.084280    8.723420
  C    -13.984380   24.944510   10.241850
  N    -14.313960   24.907180   11.338280
  C    -15.317650   26.320870    8.124050
  O    -15.510300   26.806750    9.202290
  O    -16.182400   26.502700    7.118230
  C    -11.675870   24.298490    5.135650
  C    -11.798290   24.979550    3.944730
  C    -10.857010   24.927050    2.897650
  N    -10.100050   24.966910    2.035290
  C    -12.841470   25.882240    3.667910
  N    -13.704580   26.589240    3.393000
  H      7.052670    1.734840    5.925980
  H      3.593260    4.875770    7.675330
  H      4.834270    5.076860    9.751510
  H      6.769400    4.485140   11.154780
  H      8.485460    2.931210   10.313750
  H      8.280350    1.956570    8.060920
  H      3.803870    2.566300    1.830770
  H      2.038120    3.299170    0.024190
  H     -1.170030    8.251720   -1.895080
  H     -0.889570   11.608450    1.583670
  H     -4.688060   16.232310    0.179900
  H     -6.672320   15.870610   -3.200650
  H     -8.361540   17.752700   -3.130440
  H     -9.332070   19.531070   -1.520090
  H     -6.608780   19.148180    2.464830
  H     -7.656860   20.740620    4.198150
  H    -10.860890   22.545890    2.839860
  H     -9.138570   21.959470    5.323490
  H    -14.051130   25.867100    5.716030
  H    -11.834370   23.599340    9.553670
  H    -15.929230   26.065360    6.293960

 Total Charge           Charge          ....    0
 Multiplicity           Mult            ....    1
 Number of Electrons    NEL             ....  608
 Basis Dimension        Dim             .... 1319

ORBITAL ENERGIES
----------------

  NO   OCC          E(Eh)            E(eV)
   0   2.0000     -89.011501     -2422.1261
   1   2.0000     -89.009878     -2422.0819
   2   2.0000     -89.008911     -2422.0556
   3   2.0000     -89.004572     -2421.9375
   4   2.0000     -88.982473     -2421.3362
   5   2.0000     -88.976157     -2421.1643
   6   2.0000     -19.265274      -524.2348
   7   2.0000     -19.220581      -523.0186
   8   2.0000     -19.215007      -522.8669
   9   2.0000     -19.203588      -522.5562
  10   2.0000     -14.450549      -393.2194
  11   2.0000     -14.448447      -393.1622
  12   2.0000     -14.444068      -393.0431
  13   2.0000     -14.441849      -392.9827
  14   2.0000     -14.422814      -392.4647
  15   2.0000     -14.422727      -392.4624
  16   2.0000     -14.417366      -392.3165
  17   2.0000     -14.411999      -392.1704
  18   2.0000     -14.397996      -391.7894
  19   2.0000     -10.409495      -283.2568
  20   2.0000     -10.385168      -282.5948
  21   2.0000     -10.379195      -282.4322
  22   2.0000     -10.372479      -282.2495
  23   2.0000     -10.371346      -282.2187
  24   2.0000     -10.366338      -282.0824
  25   2.0000     -10.365427      -282.0576
  26   2.0000     -10.355214      -281.7797
  27   2.0000     -10.353644      -281.7370
  28   2.0000     -10.353512      -281.7334
  29   2.0000     -10.351802      -281.6868
  30   2.0000     -10.351224      -281.6711
  31   2.0000     -10.351036      -281.6660
  32   2.0000     -10.350551      -281.6528
  33   2.0000     -10.350531      -281.6523
  34   2.0000     -10.349948      -281.6364
  35   2.0000     -10.348443      -281.5955
  36   2.0000     -10.348224      -281.5895
  37   2.0000     -10.346150      -281.5330
  38   2.0000     -10.345078      -281.5039
  39   2.0000     -10.344166      -281.4791
  40   2.0000     -10.343057      -281.4489
  41   2.0000     -10.341754      -281.4134
  42   2.0000     -10.341464      -281.4055
  43   2.0000     -10.341205      -281.3985
  44   2.0000     -10.337113      -281.2872
  45   2.0000     -10.336922      -281.2820
  46   2.0000     -10.335035      -281.2306
  47   2.0000     -10.331785      -281.1422
  48   2.0000     -10.330701      -281.1127
  49   2.0000     -10.325647      -280.9751
  50   2.0000     -10.325061      -280.9592
  51   2.0000     -10.324933      -280.9557
  52   2.0000     -10.324774      -280.9514
  53   2.0000     -10.324190      -280.9355
  54   2.0000     -10.323894      -280.9275
  55   2.0000     -10.323112      -280.9062
  56   2.0000     -10.322893      -280.9002
  57   2.0000     -10.322783      -280.8972
  58   2.0000     -10.322144      -280.8798
  59   2.0000     -10.321127      -280.8522
  60   2.0000     -10.321127      -280.8521
  61   2.0000     -10.320811      -280.8436
  62   2.0000     -10.317703      -280.7590
  63   2.0000     -10.317684      -280.7584
  64   2.0000     -10.316264      -280.7198
  65   2.0000     -10.316130      -280.7162
  66   2.0000     -10.314893      -280.6825
  67   2.0000     -10.313974      -280.6575
  68   2.0000     -10.312746      -280.6241
  69   2.0000     -10.310184      -280.5544
  70   2.0000     -10.307180      -280.4726
  71   2.0000     -10.306877      -280.4644
  72   2.0000     -10.304405      -280.3971
  73   2.0000     -10.303764      -280.3797
  74   2.0000     -10.303426      -280.3705
  75   2.0000     -10.303262      -280.3660
  76   2.0000     -10.302989      -280.3586
  77   2.0000     -10.298908      -280.2475
  78   2.0000     -10.295813      -280.1633
  79   2.0000     -10.295443      -280.1532
  80   2.0000     -10.291672      -280.0506
  81   2.0000     -10.291281      -280.0400
  82   2.0000     -10.291049      -280.0337
  83   2.0000     -10.290642      -280.0226
  84   2.0000     -10.288898      -279.9751
  85   2.0000      -8.105857      -220.5716
  86   2.0000      -8.104522      -220.5353
  87   2.0000      -8.103335      -220.5029
  88   2.0000      -8.098789      -220.3793
  89   2.0000      -8.078079      -219.8157
  90   2.0000      -8.072398      -219.6611
  91   2.0000      -6.075183      -165.3141
  92   2.0000      -6.073743      -165.2750
  93   2.0000      -6.072649      -165.2452
  94   2.0000      -6.070990      -165.2000
  95   2.0000      -6.069658      -165.1638
  96   2.0000      -6.068454      -165.1310
  97   2.0000      -6.068094      -165.1212
  98   2.0000      -6.068055      -165.1202
  99   2.0000      -6.066825      -165.0867
 100   2.0000      -6.065582      -165.0529
 101   2.0000      -6.063791      -165.0041
 102   2.0000      -6.061198      -164.9336
 103   2.0000      -6.047813      -164.5694
 104   2.0000      -6.043691      -164.4572
 105   2.0000      -6.042031      -164.4120
 106   2.0000      -6.039143      -164.3334
 107   2.0000      -6.037952      -164.3010
 108   2.0000      -6.033539      -164.1809
 109   2.0000      -1.189013       -32.3547
 110   2.0000      -1.136165       -30.9166
 111   2.0000      -1.129661       -30.7396
 112   2.0000      -1.103917       -30.0391
 113   2.0000      -1.065975       -29.0067
 114   2.0000      -1.061226       -28.8774
 115   2.0000      -1.041199       -28.3325
 116   2.0000      -1.035557       -28.1789
 117   2.0000      -1.030205       -28.0333
 118   2.0000      -1.027708       -27.9653
 119   2.0000      -1.026692       -27.9377
 120   2.0000      -1.022469       -27.8228
 121   2.0000      -1.021502       -27.7965
 122   2.0000      -1.020044       -27.7568
 123   2.0000      -1.010694       -27.5024
 124   2.0000      -1.005504       -27.3611
 125   2.0000      -1.005118       -27.3507
 126   2.0000      -1.004776       -27.3414
 127   2.0000      -1.000659       -27.2293
 128   2.0000      -0.993640       -27.0383
 129   2.0000      -0.984114       -26.7791
 130   2.0000      -0.982167       -26.7261
 131   2.0000      -0.977529       -26.5999
 132   2.0000      -0.971010       -26.4225
 133   2.0000      -0.958466       -26.0812
 134   2.0000      -0.942811       -25.6552
 135   2.0000      -0.935245       -25.4493
 136   2.0000      -0.928018       -25.2527
 137   2.0000      -0.922944       -25.1146
 138   2.0000      -0.909027       -24.7359
 139   2.0000      -0.906078       -24.6556
 140   2.0000      -0.904529       -24.6135
 141   2.0000      -0.890963       -24.2443
 142   2.0000      -0.889104       -24.1937
 143   2.0000      -0.887086       -24.1388
 144   2.0000      -0.883472       -24.0405
 145   2.0000      -0.880565       -23.9614
 146   2.0000      -0.879641       -23.9363
 147   2.0000      -0.873454       -23.7679
 148   2.0000      -0.870177       -23.6787
 149   2.0000      -0.865605       -23.5543
 150   2.0000      -0.860441       -23.4138
 151   2.0000      -0.843994       -22.9662
 152   2.0000      -0.834227       -22.7005
 153   2.0000      -0.831263       -22.6198
 154   2.0000      -0.814746       -22.1704
 155   2.0000      -0.804039       -21.8790
 156   2.0000      -0.796278       -21.6678
 157   2.0000      -0.789555       -21.4849
 158   2.0000      -0.786992       -21.4151
 159   2.0000      -0.777228       -21.1494
 160   2.0000      -0.767886       -20.8952
 161   2.0000      -0.762171       -20.7397
 162   2.0000      -0.744798       -20.2670
 163   2.0000      -0.734979       -19.9998
 164   2.0000      -0.725770       -19.7492
 165   2.0000      -0.722604       -19.6631
 166   2.0000      -0.717057       -19.5121
 167   2.0000      -0.713410       -19.4129
 168   2.0000      -0.710264       -19.3273
 169   2.0000      -0.707316       -19.2470
 170   2.0000      -0.706841       -19.2341
 171   2.0000      -0.701513       -19.0891
 172   2.0000      -0.697390       -18.9770
 173   2.0000      -0.694886       -18.9088
 174   2.0000      -0.690638       -18.7932
 175   2.0000      -0.684313       -18.6211
 176   2.0000      -0.682569       -18.5736
 177   2.0000      -0.668833       -18.1999
 178   2.0000      -0.665382       -18.1060
 179   2.0000      -0.658133       -17.9087
 180   2.0000      -0.655375       -17.8337
 181   2.0000      -0.648668       -17.6512
 182   2.0000      -0.644595       -17.5403
 183   2.0000      -0.643083       -17.4992
 184   2.0000      -0.640269       -17.4226
 185   2.0000      -0.638037       -17.3619
 186   2.0000      -0.635985       -17.3060
 187   2.0000      -0.632353       -17.2072
 188   2.0000      -0.630290       -17.1511
 189   2.0000      -0.621207       -16.9039
 190   2.0000      -0.615747       -16.7553
 191   2.0000      -0.613331       -16.6896
 192   2.0000      -0.610730       -16.6188
 193   2.0000      -0.602197       -16.3866
 194   2.0000      -0.593153       -16.1405
 195   2.0000      -0.589282       -16.0352
 196   2.0000      -0.581345       -15.8192
 197   2.0000      -0.576462       -15.6863
 198   2.0000      -0.570357       -15.5202
 199   2.0000      -0.568702       -15.4752
 200   2.0000      -0.566370       -15.4117
 201   2.0000      -0.563117       -15.3232
 202   2.0000      -0.556806       -15.1515
 203   2.0000      -0.554400       -15.0860
 204   2.0000      -0.553282       -15.0556
 205   2.0000      -0.551392       -15.0041
 206   2.0000      -0.547599       -14.9009
 207   2.0000      -0.545712       -14.8496
 208   2.0000      -0.544048       -14.8043
 209   2.0000      -0.542571       -14.7641
 210   2.0000      -0.538745       -14.6600
 211   2.0000      -0.534888       -14.5550
 212   2.0000      -0.531457       -14.4617
 213   2.0000      -0.531170       -14.4539
 214   2.0000      -0.528849       -14.3907
 215   2.0000      -0.526601       -14.3295
 216   2.0000      -0.525297       -14.2941
 217   2.0000      -0.524767       -14.2796
 218   2.0000      -0.523363       -14.2414
 219   2.0000      -0.522107       -14.2073
 220   2.0000      -0.520647       -14.1675
 221   2.0000      -0.518614       -14.1122
 222   2.0000      -0.518114       -14.0986
 223   2.0000      -0.515443       -14.0259
 224   2.0000      -0.511799       -13.9268
 225   2.0000      -0.509981       -13.8773
 226   2.0000      -0.507866       -13.8197
 227   2.0000      -0.506930       -13.7943
 228   2.0000      -0.505193       -13.7470
 229   2.0000      -0.503806       -13.7093
 230   2.0000      -0.502499       -13.6737
 231   2.0000      -0.500920       -13.6307
 232   2.0000      -0.498188       -13.5564
 233   2.0000      -0.497670       -13.5423
 234   2.0000      -0.495324       -13.4784
 235   2.0000      -0.491813       -13.3829
 236   2.0000      -0.488536       -13.2937
 237   2.0000      -0.483575       -13.1587
 238   2.0000      -0.481398       -13.0995
 239   2.0000      -0.480357       -13.0712
 240   2.0000      -0.477171       -12.9845
 241   2.0000      -0.476221       -12.9586
 242   2.0000      -0.473854       -12.8942
 243   2.0000      -0.473280       -12.8786
 244   2.0000      -0.471794       -12.8382
 245   2.0000      -0.470231       -12.7956
 246   2.0000      -0.468775       -12.7560
 247   2.0000      -0.462187       -12.5767
 248   2.0000      -0.459906       -12.5147
 249   2.0000      -0.459264       -12.4972
 250   2.0000      -0.458772       -12.4838
 251   2.0000      -0.458144       -12.4667
 252   2.0000      -0.458090       -12.4653
 253   2.0000      -0.456392       -12.4191
 254   2.0000      -0.454563       -12.3693
 255   2.0000      -0.454244       -12.3606
 256   2.0000      -0.452744       -12.3198
 257   2.0000      -0.451540       -12.2870
 258   2.0000      -0.450710       -12.2644
 259   2.0000      -0.449904       -12.2425
 260   2.0000      -0.446268       -12.1436
 261   2.0000      -0.445558       -12.1243
 262   2.0000      -0.444585       -12.0978
 263   2.0000      -0.442291       -12.0354
 264   2.0000      -0.440756       -11.9936
 265   2.0000      -0.439251       -11.9526
 266   2.0000      -0.438523       -11.9328
 267   2.0000      -0.436056       -11.8657
 268   2.0000      -0.435519       -11.8511
 269   2.0000      -0.434136       -11.8134
 270   2.0000      -0.433868       -11.8062
 271   2.0000      -0.430779       -11.7221
 272   2.0000      -0.427287       -11.6271
 273   2.0000      -0.425920       -11.5899
 274   2.0000      -0.423633       -11.5276
 275   2.0000      -0.423052       -11.5118
 276   2.0000      -0.416265       -11.3271
 277   2.0000      -0.414449       -11.2777
 278   2.0000      -0.411503       -11.1976
 279   2.0000      -0.409302       -11.1377
 280   2.0000      -0.406302       -11.0560
 281   2.0000      -0.399309       -10.8657
 282   2.0000      -0.393852       -10.7173
 283   2.0000      -0.388088       -10.5604
 284   2.0000      -0.380370       -10.3504
 285   2.0000      -0.372220       -10.1286
 286   2.0000      -0.370673       -10.0865
 287   2.0000      -0.365416        -9.9435
 288   2.0000      -0.363274        -9.8852
 289   2.0000      -0.359174        -9.7736
 290   2.0000      -0.356463        -9.6999
 291   2.0000      -0.351804        -9.5731
 292   2.0000      -0.349446        -9.5089
 293   2.0000      -0.343652        -9.3512
 294   2.0000      -0.341712        -9.2985
 295   2.0000      -0.339523        -9.2389
 296   2.0000      -0.336646        -9.1606
 297   2.0000      -0.328341        -8.9346
 298   2.0000      -0.322348        -8.7715
 299   2.0000      -0.315185        -8.5766
 300   2.0000      -0.301964        -8.2169
 301   2.0000      -0.296291        -8.0625
 302   2.0000      -0.268972        -7.3191
 303   2.0000      -0.238014        -6.4767
 304   0.0000      -0.136451        -3.7130
 305   0.0000      -0.122127        -3.3232
 306   0.0000      -0.117167        -3.1883
 307   0.0000      -0.097132        -2.6431
 308   0.0000      -0.081789        -2.2256

MULLIKEN ATOMIC CHARGES
-----------------------
   0 C :    0.247663
   1 C :   -0.330622
   2 C :   -0.175914
   3 N :    0.160020
   4 C :   -0.206297
   5 N :    0.173516
   6 C :    0.037287
   7 C :    0.012361
   8 C :   -0.082056
   9 C :    0.095927
  10 C :    0.094602
  11 C :   -0.081791
  12 C :   -0.019343
  13 C :    0.038458
  14 C :    0.037848
  15 C :   -0.016093
  16 C :    0.142435
  17 O :   -0.139710
  18 C :   -0.138282
  19 C :    0.047714
  20 C :   -0.094592
  21 C :    0.006488
  22 C :    0.024776
  23 C :   -0.079426
  24 S :    0.210493
  25 C :   -0.098019
  26 C :    0.022180
  27 C :    0.300784
  28 C :   -0.290334
  29 C :   -0.184915
  30 N :    0.170628
  31 C :   -0.191587
  32 N :    0.188008
  33 C :   -0.063787
  34 C :   -0.048597
  35 S :    0.206208
  36 C :   -0.049372
  37 C :   -0.061505
  38 C :    0.015718
  39 C :   -0.101364
  40 S :    0.206989
  41 C :   -0.090005
  42 C :   -0.007558
  43 C :    0.310478
  44 C :   -0.289348
  45 C :   -0.179077
  46 N :    0.172236
  47 C :   -0.187353
  48 N :    0.176131
  49 C :   -0.032667
  50 C :   -0.103926
  51 S :    0.200400
  52 C :    0.053551
  53 C :   -0.043033
  54 C :    0.055599
  55 C :    0.019842
  56 C :   -0.008703
  57 S :    0.070377
  58 C :   -0.068273
  59 C :    0.031765
  60 C :    0.029764
  61 C :   -0.049546
  62 S :    0.141976
  63 C :    0.041646
  64 C :    0.030711
  65 C :   -0.136493
  66 C :    0.144978
  67 O :   -0.143599
  68 C :   -0.004645
  69 C :    0.037139
  70 C :   -0.091346
  71 C :    0.021967
  72 C :   -0.083607
  73 C :   -0.037591
  74 C :   -0.154426
  75 N :    0.133864
  76 C :    0.178199
  77 O :   -0.148735
  78 O :   -0.141943
  79 C :    0.292203
  80 C :   -0.344899
  81 C :   -0.214315
  82 N :    0.166962
  83 C :   -0.167105
  84 N :    0.123129
  85 H :   -0.009718
  86 H :   -0.004313
  87 H :   -0.010064
  88 H :   -0.003566
  89 H :   -0.003351
  90 H :   -0.015676
  91 H :    0.034817
  92 H :    0.019736
  93 H :    0.013152
  94 H :    0.016271
  95 H :    0.029680
  96 H :   -0.003701
  97 H :    0.003789
  98 H :    0.011683
  99 H :    0.022996
 100 H :    0.011550
 101 H :    0.003350
 102 H :    0.007316
 103 H :   -0.016687
 104 H :    0.013340
 105 H :    0.188180
Sum of atomic charges:   -0.0000000

LOEWDIN ATOMIC CHARGES
----------------------
   0 C :    0.060632
   1 C :   -0.144940
   2 C :   -0.020544
   3 N :   -0.048471
   4 C :   -0.036428
   5 N :   -0.049833
   6 C :   -0.023961
   7 C :   -0.057501
   8 C :    0.033969
   9 C :   -0.008533
  10 C :   -0.005198
  11 C :    0.016439
  12 C :   -0.006262
  13 C :   -0.011169
  14 C :   -0.011387
  15 C :   -0.008556
  16 C :    0.083818
  17 O :   -0.140416
  18 C :   -0.096528
  19 C :    0.049001
  20 C :   -0.176080
  21 C :    0.013555
  22 C :   -0.072175
  23 C :   -0.153864
  24 S :    0.513697
  25 C :   -0.183751
  26 C :   -0.053418
  27 C :    0.080145
  28 C :   -0.094668
  29 C :   -0.014976
  30 N :   -0.030890
  31 C :   -0.018193
  32 N :   -0.022325
  33 C :   -0.036505
  34 C :   -0.172756
  35 S :    0.493611
  36 C :   -0.175811
  37 C :   -0.034709
  38 C :   -0.062419
  39 C :   -0.179213
  40 S :    0.489905
  41 C :   -0.175531
  42 C :   -0.064446
  43 C :    0.080534
  44 C :   -0.095390
  45 C :   -0.012878
  46 N :   -0.031810
  47 C :   -0.016974
  48 N :   -0.025052
  49 C :   -0.028550
  50 C :   -0.169392
  51 S :    0.481316
  52 C :   -0.048187
  53 C :   -0.153736
  54 C :   -0.000540
  55 C :   -0.043102
  56 C :   -0.140689
  57 S :    0.419022
  58 C :   -0.191658
  59 C :   -0.003478
  60 C :   -0.036352
  61 C :   -0.096269
  62 S :    0.425366
  63 C :   -0.070379
  64 C :    0.063059
  65 C :   -0.117927
  66 C :    0.077823
  67 O :   -0.145751
  68 C :   -0.030525
  69 C :    0.005218
  70 C :   -0.008387
  71 C :   -0.041573
  72 C :   -0.027236
  73 C :    0.045358
  74 C :   -0.033699
  75 N :   -0.033244
  76 C :    0.081608
  77 O :   -0.121220
  78 O :   -0.016928
  79 C :    0.063860
  80 C :   -0.150843
  81 C :   -0.025830
  82 N :   -0.052987
  83 C :   -0.018695
  84 N :   -0.065618
  85 H :    0.040233
  86 H :    0.038927
  87 H :    0.034550
  88 H :    0.033859
  89 H :    0.033542
  90 H :    0.032545
  91 H :    0.055481
  92 H :    0.047772
  93 H :    0.036959
  94 H :    0.037103
  95 H :    0.025319
  96 H :    0.039802
  97 H :    0.040310
  98 H :    0.037326
  99 H :    0.040128
 100 H :    0.040903
 101 H :    0.033088
 102 H :    0.040256
 103 H :    0.032297
 104 H :    0.051764
 105 H :    0.096257

  Mayer bond orders larger than 0.100000
B(  0-C ,  1-C ) :   1.6525 B(  0-C ,  6-C ) :   1.0047 B(  0-C , 18-C ) :   1.0317
B(  1-C ,  2-C ) :   1.1372 B(  1-C ,  4-C ) :   1.1558 B(  2-C ,  3-N ) :   2.9925
B(  4-C ,  5-N ) :   3.0208 B(  6-C ,  7-C ) :   1.2134 B(  6-C , 11-C ) :   1.4564
B(  7-C ,  8-C ) :   1.4746 B(  7-C , 16-C ) :   0.9220 B(  8-C ,  9-C ) :   1.1844
B(  8-C , 85-H ) :   1.0166 B(  9-C , 10-C ) :   1.2562 B(  9-C , 15-C ) :   1.2441
B( 10-C , 11-C ) :   1.2032 B( 10-C , 12-C ) :   1.2416 B( 11-C , 86-H ) :   0.9949
B( 12-C , 13-C ) :   1.4893 B( 12-C , 87-H ) :   0.9979 B( 13-C , 14-C ) :   1.2608
B( 13-C , 88-H ) :   0.9885 B( 14-C , 15-C ) :   1.4883 B( 14-C , 89-H ) :   0.9889
B( 15-C , 90-H ) :   0.9983 B( 16-C , 17-O ) :   2.2745 B( 16-C , 18-C ) :   0.9329
B( 18-C , 19-C ) :   1.6518 B( 19-C , 20-C ) :   1.1340 B( 19-C , 91-H ) :   0.9459
B( 20-C , 21-C ) :   1.4061 B( 20-C , 24-S ) :   1.0882 B( 21-C , 22-C ) :   1.3021
B( 21-C , 92-H ) :   1.0010 B( 22-C , 23-C ) :   1.3990 B( 22-C , 27-C ) :   0.9950
B( 23-C , 24-S ) :   1.1566 B( 23-C , 25-C ) :   1.2078 B( 25-C , 26-C ) :   1.4380
B( 25-C , 35-S ) :   1.1147 B( 26-C , 27-C ) :   0.9920 B( 26-C , 33-C ) :   1.3149
B( 27-C , 28-C ) :   1.7188 B( 28-C , 29-C ) :   1.1325 B( 28-C , 31-C ) :   1.1361
B( 29-C , 30-N ) :   2.9881 B( 31-C , 32-N ) :   2.9967 B( 33-C , 34-C ) :   1.4418
B( 33-C , 93-H ) :   0.9862 B( 34-C , 35-S ) :   1.1182 B( 34-C , 36-C ) :   1.1803
B( 36-C , 37-C ) :   1.4457 B( 36-C , 40-S ) :   1.1089 B( 37-C , 38-C ) :   1.3132
B( 37-C , 94-H ) :   0.9848 B( 38-C , 39-C ) :   1.4249 B( 38-C , 43-C ) :   0.9994
B( 39-C , 40-S ) :   1.1184 B( 39-C , 41-C ) :   1.2158 B( 41-C , 42-C ) :   1.4014
B( 41-C , 51-S ) :   1.1311 B( 42-C , 43-C ) :   0.9972 B( 42-C , 49-C ) :   1.3680
B( 43-C , 44-C ) :   1.7116 B( 44-C , 45-C ) :   1.1356 B( 44-C , 47-C ) :   1.1325
B( 45-C , 46-N ) :   2.9820 B( 47-C , 48-N ) :   2.9901 B( 49-C , 50-C ) :   1.3840
B( 49-C , 95-H ) :   0.9650 B( 50-C , 51-S ) :   1.0874 B( 50-C , 52-C ) :   1.1977
B( 52-C , 53-C ) :   1.5697 B( 52-C , 96-H ) :   0.9524 B( 53-C , 54-C ) :   1.1611
B( 53-C , 57-S ) :   1.0385 B( 54-C , 55-C ) :   1.5720 B( 54-C , 97-H ) :   1.0007
B( 55-C , 56-C ) :   1.1805 B( 55-C , 98-H ) :   0.9939 B( 56-C , 57-S ) :   1.0805
B( 56-C , 58-C ) :   1.4972 B( 58-C , 59-C ) :   1.1954 B( 58-C , 62-S ) :   1.0486
B( 59-C , 60-C ) :   1.5589 B( 59-C , 99-H ) :   0.9897 B( 60-C , 61-C ) :   1.1999
B( 60-C ,100-H ) :   0.9917 B( 61-C , 62-S ) :   1.1122 B( 61-C , 63-C ) :   1.4288
B( 63-C , 64-C ) :   1.2953 B( 63-C ,101-H ) :   0.9490 B( 64-C , 65-C ) :   1.4820
B( 64-C ,102-H ) :   0.9416 B( 65-C , 66-C ) :   0.9744 B( 65-C , 79-C ) :   1.1060
B( 66-C , 67-O ) :   2.2441 B( 66-C , 68-C ) :   0.9012 B( 68-C , 69-C ) :   1.3396
B( 68-C , 73-C ) :   1.3679 B( 69-C , 70-C ) :   1.4065 B( 69-C , 79-C ) :   0.9893
B( 70-C , 71-C ) :   1.2991 B( 70-C ,103-H ) :   0.9557 B( 71-C , 72-C ) :   1.4037
B( 71-C , 76-C ) :   0.8712 B( 72-C , 73-C ) :   1.3533 B( 72-C , 74-C ) :   1.0659
B( 73-C ,104-H ) :   1.0165 B( 74-C , 75-N ) :   3.0359 B( 76-C , 77-O ) :   2.1641
B( 76-C , 78-O ) :   1.2551 B( 78-O ,105-H ) :   0.9506 B( 79-C , 80-C ) :   1.5909
B( 80-C , 81-C ) :   1.1673 B( 80-C , 83-C ) :   1.1344 B( 81-C , 82-N ) :   3.0098
B( 83-C , 84-N ) :   2.9512

-----------------------------------------------------------------------------
         ABSORPTION SPECTRUM VIA TRANSITION ELECTRIC DIPOLE MOMENTS
-----------------------------------------------------------------------------
State   Energy  Wavelength   fosc         T2         TX        TY        TZ
        (cm-1)    (nm)                  (au**2)     (au)      (au)      (au)
-----------------------------------------------------------------------------
   0    8498.6   1176.7   0.859409161  33.29110  -3.33869   4.57354   1.10767
   1   11669.5    856.9   0.976038012  27.53540  -2.90705   4.12724   1.43191
   2   12726.3    785.8   0.361380556   9.34838  -1.05435   1.31542   2.55077
   3   15872.7    630.0   0.085068721   1.76439  -0.49894   0.60364  -1.07288
   4   18445.5    542.1   0.103828012   1.85310  -0.65922   0.76573  -0.91225
   5   19706.7    507.4   0.268040697   4.47778   0.96276  -1.33972   1.32515
   6   20153.1    496.2   0.362517578   5.92193   0.60114  -0.99449   2.13812
   7   21089.3    474.2   0.009536182   0.14886  -0.25202   0.02575  -0.29101
   8   22551.9    443.4   0.031873227   0.46529  -0.20051   0.47304  -0.44868
   9   23963.5    417.3   0.111001527   1.52495   0.85447  -0.41754   0.78772
  10   24424.5    409.4   0.007855118   0.10588  -0.01559   0.22187  -0.23750
  11   25151.4    397.6   0.038126294   0.49904   0.02061  -0.34165   0.61798
  12   25879.3    386.4   0.070459131   0.89631   0.07675  -0.36174  -0.87153
  13   25953.5    385.3   0.051752885   0.65647   0.37141  -0.35672  -0.62552
  14   27229.3    367.3   0.081503654   0.98541  -0.32886   0.93067  -0.10543
  15   27848.3    359.1   0.200567456   2.37103  -0.88985   1.21182   0.33270
  16   28013.1    357.0   0.295730198   3.47544  -1.08193   1.36549  -0.66354
  17   28649.1    349.1   0.094823595   1.08964  -0.59222   0.85960  -0.00347
  18   28788.6    347.4   0.044750905   0.51175   0.39024  -0.59079  -0.10210
  19   29256.7    341.8   0.037220771   0.41883  -0.05344  -0.06677   0.64149
  20   29470.6    339.3   0.103638810   1.15774   0.86245  -0.43753   0.47169
  21   29860.8    334.9   0.196521227   2.16663  -0.52817  -0.45565  -1.29616
  22   30000.1    333.3   0.066368712   0.72831   0.71071  -0.07022   0.46720
  23   30167.9    331.5   0.075592021   0.82491   0.07606   0.16352  -0.89016
  24   30404.3    328.9   0.093493237   1.01233   0.06015   0.52151   0.85833
  25   30505.8    327.8   0.384767510   4.15233  -0.99088  -0.76267  -1.60899
  26   30978.4    322.8   0.113083112   1.20175  -0.26216  -0.77194  -0.73289
  27   31087.6    321.7   0.198499322   2.10207   0.20195  -0.78459  -1.20238
  28   31358.2    318.9   0.025413977   0.26681  -0.23562   0.35289  -0.29455
  29   31770.5    314.8   0.122015415   1.26434   0.02993   0.28198   1.08809
  30   32059.0    311.9   0.530478332   5.44745  -0.70032  -0.43876  -2.18277
  31   32283.1    309.8   0.107416227   1.09539   0.43039  -0.65345   0.69509
  32   32458.3    308.1   0.066149193   0.67093  -0.46428   0.36756   0.56592
  33   32800.9    304.9   0.046568308   0.46739   0.47062  -0.49069  -0.07163
  34   32893.1    304.0   0.306762181   3.07025   0.85275  -1.36981  -0.68314
  35   33214.8    301.1   0.075860028   0.75190  -0.45696  -0.26613  -0.68721
  36   33320.7    300.1   0.155839993   1.53972  -0.54397   0.99639  -0.50103
  37   33774.1    296.1   0.132954829   1.29597  -0.45928   0.39101  -0.96548
  38   33986.9    294.2   0.044724145   0.43322  -0.17352   0.24607  -0.58528
  39   34139.2    292.9   0.102593947   0.98934   0.98158  -0.15995  -0.01576
  40   34202.4    292.4   0.289659501   2.78809   0.63432   0.14012   1.53821
  41   34504.0    289.8   0.083675558   0.79837   0.50592   0.37690   0.63274
  42   34656.1    288.5   0.088548943   0.84116   0.45762   0.03944   0.79385
  43   34717.3    288.0   0.093960350   0.89099   0.41394  -0.31919   0.78598
  44   34826.8    287.1   0.278139140   2.62920  -1.45117  -0.03749  -0.72243
  45   35002.7    285.7   0.202665663   1.90614   0.27964   0.12186  -1.34651
  46   35377.2    282.7   0.005791226   0.05389   0.15138  -0.03956   0.17149
  47   35716.5    280.0   0.017577114   0.16201  -0.34933  -0.19984   0.00692
  48   35756.7    279.7   0.047378133   0.43621  -0.15463   0.06662  -0.63864
  49   36032.2    277.5   0.217586097   1.98800   1.17364  -0.20211   0.75480
  50   36241.0    275.9   0.002693013   0.02446  -0.08320  -0.01633  -0.13143
  51   36412.5    274.6   0.018379514   0.16617  -0.33757   0.14101  -0.17981
  52   36807.0    271.7   0.015263356   0.13652   0.01268   0.23673   0.28341
  53   36862.6    271.3   0.018982394   0.16953  -0.04636  -0.32992   0.24193
  54   37095.4    269.6   0.010696346   0.09493   0.28420  -0.10327   0.05912
  55   37481.7    266.8   0.006545010   0.05749   0.20160   0.09336  -0.09015
  56   37536.3    266.4   0.084732865   0.74315  -0.46799   0.55422  -0.46581
  57   37804.1    264.5   0.001289121   0.01123  -0.09002  -0.04618  -0.03146
  58   37856.6    264.2   0.060858601   0.52924  -0.11260  -0.11719   0.70911
  59   38024.0    263.0   0.022411863   0.19404   0.02572   0.04750  -0.43718
  60   38299.8    261.1   0.009880894   0.08493  -0.14209   0.21814  -0.13098
  61   38521.4    259.6   0.044168284   0.37747   0.34771  -0.25869   0.43549
  62   38699.1    258.4   0.009282302   0.07896   0.18894  -0.08631  -0.18925
  63   38790.3    257.8   0.008026314   0.06812   0.01415  -0.17542  -0.19273
  64   38857.1    257.4   0.013826390   0.11714  -0.06640  -0.32606   0.08011
  65   39022.8    256.3   0.048661695   0.41053   0.23170   0.26840  -0.53367
  66   39133.6    255.5   0.118180228   0.99419   0.23399  -0.26731   0.93166
  67   39351.2    254.1   0.049087429   0.41067  -0.37568   0.07157   0.51421
  68   39472.7    253.3   0.013615923   0.11356  -0.20524   0.26403   0.04148
  69   39705.9    251.9   0.056111192   0.46523   0.25833  -0.17445  -0.60668
  70   40008.5    249.9   0.052792729   0.43441  -0.29387   0.58932  -0.02745
  71   40225.0    248.6   0.004563342   0.03735  -0.08926  -0.02829   0.16906
  72   40303.2    248.1   0.196743767   1.60708   0.35811  -0.37615  -1.15644

FINAL SINGLE POINT ENERGY     -5705.312680694844

DIPOLE MOMENT
-------------
                                X             Y             Z
Electronic contribution:     -9.77069       0.65113     -25.79276
Nuclear contribution   :     14.79582      -5.18189      21.55344
                        -----------------------------------------
Total Dipole Moment    :      5.02512      -4.53075      -4.23932
                        -----------------------------------------
Magnitude (a.u.)       :      7.98445
Magnitude (Debye)      :     20.29485

Rotational constants in cm-1:     0.000918     0.000127     0.000114
Rotational constants in MHz :    27.522369     3.806438     3.416619

                             ****ORCA TERMINATED NORMALLY****
TOTAL RUN TIME: 0 days 0 hours 12 minutes 41 seconds 141 msec
