                         Program Version 4.2.0 -  RELEASE  -
|  1> # ORCA input file
|  2> # SCF done       -162.934158342257          0.000759380560
|  3> ! CAM-B3LYP def2-SVP def2/J RIJCOSX Grid4 TightSCF
|  4> %maxcore 5000
|  5> %tddft
|  6>     Mode sTDDFT
|  7>     Ethresh 5.0
|  8>     maxcore 5000
|  9> end
| 10>
| 11> %pal
| 12>   nprocs 6
| 13>   end
| 14> * xyz 0 1
| 15>    C       -4.68212         0.71816        -2.54101
| 16>    C       -4.66191         1.56265        -3.62957
| 17>    C       -3.97985         1.27165        -4.82457
| 18>    N       -3.47738         1.02787        -5.82814
| 19>    C       -5.28745         2.81697        -3.61124
| 20>    N       -5.69862         3.89154        -3.56438
| 21>    C       -3.77019        -0.38411        -2.28928
| 22>    C       -3.91189        -0.77002        -0.93383
| 23>    C       -3.14077        -1.75128        -0.36230
| 24>    C       -2.19622        -2.39210        -1.17168
| 25>    C       -2.07496        -2.01001        -2.52830
| 26>    C       -2.84171        -1.00418        -3.10275
| 27>    S       -0.85220        -2.93564        -3.34519
| 28>    C       -0.51548        -3.80094        -1.86908
| 29>    C       -1.28277        -3.42341        -0.81971
| 30>   Br        0.81955        -5.11807        -1.85027
| 31>    C       -4.96927         0.04094        -0.29342
| 32>    O       -5.29637        -0.01743         0.87829
| 33>    C       -5.50948         0.88932        -1.36520
| 34>    C       -6.70343         1.56016        -1.45088
| 35>    N       -7.61359         1.87195        -0.53686
| 36>    C       -7.52127         1.84842         0.90916
| 37>    C       -8.23718         0.61382         1.45559
| 38>    C       -8.35426         0.69385         2.97517
| 39>    N       -9.21686        -0.38174         3.44489
| 40>    S       -9.91661         0.17591         4.94419
| 41>    N      -10.23115         1.68422         4.22543
| 42>    C       -9.04736         2.01587         3.44402
| 43>    C       -9.40497         2.91834         2.27191
| 44>    C       -8.18110         3.18087         1.39635
| 45>    N       -8.59535         3.94721         0.22855
| 46>    S       -9.01347         2.78702        -0.95013
| 47>    C       -7.79474         5.01602        -0.19452
| 48>    C       -8.11521         5.83014        -1.19873
| 49>    C       -9.36802         5.69620        -2.00755
| 50>    C       -7.14902         6.89407        -1.66138
| 51>    N       -6.67107         6.56862        -2.98380
| 52>    C       -7.23869         7.03610        -4.10691
| 53>    C       -7.12165         6.39642        -5.30569
| 54>    C       -7.65590         6.84013        -6.52121
| 55>    C       -7.65316         6.06115        -7.65314
| 56>    C       -8.16960         6.34970        -8.93504
| 57>    C       -8.06047         5.32521        -9.83017
| 58>    C       -7.45421         4.16645        -9.29823
| 59>    S       -6.99904         4.42358        -7.63467
| 60>    C       -7.22003         2.94369        -9.89834
| 61>    C       -7.52154         2.50253       -11.19981
| 62>    C       -7.15801         1.21065       -11.44291
| 63>    C       -6.55481         0.55279       -10.34008
| 64>    S       -6.44917         1.65438        -8.98556
| 65>    C       -6.04833        -0.72289       -10.35033
| 66>    C       -5.48006        -1.44762        -9.28351
| 67>    S       -4.37076        -2.75221        -9.68570
| 68>    C       -4.10579        -3.15688        -8.03236
| 69>    C       -4.83073        -2.34588        -7.21837
| 70>    C       -5.61016        -1.37758        -7.90477
| 71>    S       -6.69287        -0.45011        -6.90188
| 72>    C       -6.24364        -1.18597        -5.39194
| 73>    S       -6.95810        -0.77762        -3.97573
| 74>    S       -4.98088        -2.39088        -5.47871
| 75>    H       -3.25760        -2.01572         0.67714
| 76>    H       -2.70816        -0.73775        -4.13808
| 77>    H       -1.20802        -3.85154         0.16335
| 78>    H       -7.01727         1.85726        -2.44622
| 79>    H       -6.46834         1.80525         1.19585
| 80>    H       -7.65897        -0.26995         1.18512
| 81>    H       -9.22907         0.51941         1.01125
| 82>    H       -7.34528         0.64617         3.40984
| 83>    H       -8.73008        -1.25897         3.57695
| 84>    H      -11.05143         1.61175         3.62829
| 85>    H       -8.36500         2.54498         4.12053
| 86>    H       -9.79098         3.86831         2.64375
| 87>    H      -10.18572         2.45520         1.66554
| 88>    H       -7.45520         3.76924         1.96526
| 89>    H       -6.88295         5.16868         0.37015
| 90>    H       -9.75669         6.68171        -2.25908
| 91>    H      -10.12773         5.14967        -1.45320
| 92>    H       -9.17551         5.16631        -2.94092
| 93>    H       -6.29563         6.95565        -0.97962
| 94>    H       -7.64195         7.87029        -1.69774
| 95>    H       -6.22358         5.65680        -3.07852
| 96>    H       -7.78274         7.96921        -4.02131
| 97>    H       -6.60774         5.44411        -5.31542
| 98>    H       -8.11667         7.81789        -6.57459
| 99>    H       -8.61116         7.30557        -9.15884
|100>    H       -8.40302         5.36887       -10.84869
|101>    H       -7.99907         3.14298       -11.92028
|102>    H       -7.31037         0.70113       -12.37801
|103>    H       -6.01908        -1.21986       -11.31123
|104>    H       -3.44714        -3.95603        -7.76507
|105> *
|106>
|107>                          ****END OF INPUT****

CARTESIAN COORDINATES (ANGSTROEM)
---------------------------------
  C     -4.682120    0.718160   -2.541010
  C     -4.661910    1.562650   -3.629570
  C     -3.979850    1.271650   -4.824570
  N     -3.477380    1.027870   -5.828140
  C     -5.287450    2.816970   -3.611240
  N     -5.698620    3.891540   -3.564380
  C     -3.770190   -0.384110   -2.289280
  C     -3.911890   -0.770020   -0.933830
  C     -3.140770   -1.751280   -0.362300
  C     -2.196220   -2.392100   -1.171680
  C     -2.074960   -2.010010   -2.528300
  C     -2.841710   -1.004180   -3.102750
  S     -0.852200   -2.935640   -3.345190
  C     -0.515480   -3.800940   -1.869080
  C     -1.282770   -3.423410   -0.819710
  Br     0.819550   -5.118070   -1.850270
  C     -4.969270    0.040940   -0.293420
  O     -5.296370   -0.017430    0.878290
  C     -5.509480    0.889320   -1.365200
  C     -6.703430    1.560160   -1.450880
  N     -7.613590    1.871950   -0.536860
  C     -7.521270    1.848420    0.909160
  C     -8.237180    0.613820    1.455590
  C     -8.354260    0.693850    2.975170
  N     -9.216860   -0.381740    3.444890
  S     -9.916610    0.175910    4.944190
  N    -10.231150    1.684220    4.225430
  C     -9.047360    2.015870    3.444020
  C     -9.404970    2.918340    2.271910
  C     -8.181100    3.180870    1.396350
  N     -8.595350    3.947210    0.228550
  S     -9.013470    2.787020   -0.950130
  C     -7.794740    5.016020   -0.194520
  C     -8.115210    5.830140   -1.198730
  C     -9.368020    5.696200   -2.007550
  C     -7.149020    6.894070   -1.661380
  N     -6.671070    6.568620   -2.983800
  C     -7.238690    7.036100   -4.106910
  C     -7.121650    6.396420   -5.305690
  C     -7.655900    6.840130   -6.521210
  C     -7.653160    6.061150   -7.653140
  C     -8.169600    6.349700   -8.935040
  C     -8.060470    5.325210   -9.830170
  C     -7.454210    4.166450   -9.298230
  S     -6.999040    4.423580   -7.634670
  C     -7.220030    2.943690   -9.898340
  C     -7.521540    2.502530  -11.199810
  C     -7.158010    1.210650  -11.442910
  C     -6.554810    0.552790  -10.340080
  S     -6.449170    1.654380   -8.985560
  C     -6.048330   -0.722890  -10.350330
  C     -5.480060   -1.447620   -9.283510
  S     -4.370760   -2.752210   -9.685700
  C     -4.105790   -3.156880   -8.032360
  C     -4.830730   -2.345880   -7.218370
  C     -5.610160   -1.377580   -7.904770
  S     -6.692870   -0.450110   -6.901880
  C     -6.243640   -1.185970   -5.391940
  S     -6.958100   -0.777620   -3.975730
  S     -4.980880   -2.390880   -5.478710
  H     -3.257600   -2.015720    0.677140
  H     -2.708160   -0.737750   -4.138080
  H     -1.208020   -3.851540    0.163350
  H     -7.017270    1.857260   -2.446220
  H     -6.468340    1.805250    1.195850
  H     -7.658970   -0.269950    1.185120
  H     -9.229070    0.519410    1.011250
  H     -7.345280    0.646170    3.409840
  H     -8.730080   -1.258970    3.576950
  H    -11.051430    1.611750    3.628290
  H     -8.365000    2.544980    4.120530
  H     -9.790980    3.868310    2.643750
  H    -10.185720    2.455200    1.665540
  H     -7.455200    3.769240    1.965260
  H     -6.882950    5.168680    0.370150
  H     -9.756690    6.681710   -2.259080
  H    -10.127730    5.149670   -1.453200
  H     -9.175510    5.166310   -2.940920
  H     -6.295630    6.955650   -0.979620
  H     -7.641950    7.870290   -1.697740
  H     -6.223580    5.656800   -3.078520
  H     -7.782740    7.969210   -4.021310
  H     -6.607740    5.444110   -5.315420
  H     -8.116670    7.817890   -6.574590
  H     -8.611160    7.305570   -9.158840
  H     -8.403020    5.368870  -10.848690
  H     -7.999070    3.142980  -11.920280
  H     -7.310370    0.701130  -12.378010
  H     -6.019080   -1.219860  -11.311230
  H     -3.447140   -3.956030   -7.765070

 Total Charge           Charge          ....    0
 Multiplicity           Mult            ....    1
 Number of Electrons    NEL             ....  518
 Basis Dimension        Dim             .... 1044

ORBITAL ENERGIES
----------------

  NO   OCC          E(Eh)            E(eV)
   0   2.0000    -482.881994    -13139.8871
   1   2.0000     -88.997678     -2421.7499
   2   2.0000     -88.970365     -2421.0067
   3   2.0000     -88.957641     -2420.6605
   4   2.0000     -88.954336     -2420.5705
   5   2.0000     -88.947147     -2420.3749
   6   2.0000     -88.945454     -2420.3288
   7   2.0000     -88.922870     -2419.7143
   8   2.0000     -88.922290     -2419.6985
   9   2.0000     -88.883042     -2418.6305
  10   2.0000     -62.559689     -1702.3357
  11   2.0000     -56.393628     -1534.5486
  12   2.0000     -56.390935     -1534.4753
  13   2.0000     -56.390895     -1534.4743
  14   2.0000     -19.210971      -522.7571
  15   2.0000     -14.490086      -394.2953
  16   2.0000     -14.456075      -393.3698
  17   2.0000     -14.419368      -392.3710
  18   2.0000     -14.419127      -392.3644
  19   2.0000     -14.416280      -392.2869
  20   2.0000     -14.406614      -392.0239
  21   2.0000     -14.402805      -391.9203
  22   2.0000     -10.365184      -282.0510
  23   2.0000     -10.360770      -281.9309
  24   2.0000     -10.358624      -281.8725
  25   2.0000     -10.353896      -281.7438
  26   2.0000     -10.336151      -281.2610
  27   2.0000     -10.329499      -281.0800
  28   2.0000     -10.329429      -281.0781
  29   2.0000     -10.325708      -280.9768
  30   2.0000     -10.323619      -280.9200
  31   2.0000     -10.318690      -280.7858
  32   2.0000     -10.311625      -280.5936
  33   2.0000     -10.310326      -280.5582
  34   2.0000     -10.306565      -280.4559
  35   2.0000     -10.305680      -280.4318
  36   2.0000     -10.304134      -280.3897
  37   2.0000     -10.301206      -280.3101
  38   2.0000     -10.299908      -280.2748
  39   2.0000     -10.299529      -280.2644
  40   2.0000     -10.298960      -280.2489
  41   2.0000     -10.298816      -280.2450
  42   2.0000     -10.298026      -280.2235
  43   2.0000     -10.294836      -280.1367
  44   2.0000     -10.294695      -280.1329
  45   2.0000     -10.293591      -280.1029
  46   2.0000     -10.292076      -280.0616
  47   2.0000     -10.290825      -280.0276
  48   2.0000     -10.286975      -279.9228
  49   2.0000     -10.285552      -279.8841
  50   2.0000     -10.281679      -279.7787
  51   2.0000     -10.277799      -279.6731
  52   2.0000     -10.277222      -279.6574
  53   2.0000     -10.276437      -279.6361
  54   2.0000     -10.275584      -279.6129
  55   2.0000     -10.274127      -279.5732
  56   2.0000     -10.271087      -279.4905
  57   2.0000     -10.267890      -279.4035
  58   2.0000     -10.267185      -279.3843
  59   2.0000     -10.265580      -279.3406
  60   2.0000     -10.262501      -279.2569
  61   2.0000     -10.257146      -279.1111
  62   2.0000     -10.256764      -279.1007
  63   2.0000     -10.242385      -278.7095
  64   2.0000      -8.789118      -239.1641
  65   2.0000      -8.088426      -220.0973
  66   2.0000      -8.066387      -219.4976
  67   2.0000      -8.053242      -219.1399
  68   2.0000      -8.049392      -219.0351
  69   2.0000      -8.041110      -218.8097
  70   2.0000      -8.039413      -218.7635
  71   2.0000      -8.019054      -218.2096
  72   2.0000      -8.018506      -218.1946
  73   2.0000      -7.979434      -217.1314
  74   2.0000      -6.625344      -180.2848
  75   2.0000      -6.610874      -179.8910
  76   2.0000      -6.610700      -179.8863
  77   2.0000      -6.061388      -164.9387
  78   2.0000      -6.055793      -164.7865
  79   2.0000      -6.044884      -164.4897
  80   2.0000      -6.036067      -164.2497
  81   2.0000      -6.031816      -164.1341
  82   2.0000      -6.027605      -164.0195
  83   2.0000      -6.023076      -163.8962
  84   2.0000      -6.019311      -163.7938
  85   2.0000      -6.018867      -163.7817
  86   2.0000      -6.014741      -163.6694
  87   2.0000      -6.014117      -163.6524
  88   2.0000      -6.012151      -163.5989
  89   2.0000      -6.010639      -163.5578
  90   2.0000      -6.010349      -163.5499
  91   2.0000      -6.006716      -163.4511
  92   2.0000      -6.006351      -163.4411
  93   2.0000      -6.002887      -163.3469
  94   2.0000      -5.996267      -163.1667
  95   2.0000      -5.988758      -162.9624
  96   2.0000      -5.988218      -162.9477
  97   2.0000      -5.984756      -162.8535
  98   2.0000      -5.984146      -162.8369
  99   2.0000      -5.980021      -162.7247
 100   2.0000      -5.979441      -162.7089
 101   2.0000      -5.949167      -161.8851
 102   2.0000      -5.945621      -161.7886
 103   2.0000      -5.940055      -161.6371
 104   2.0000      -2.741273       -74.5938
 105   2.0000      -2.737138       -74.4813
 106   2.0000      -2.737025       -74.4782
 107   2.0000      -2.725501       -74.1647
 108   2.0000      -2.725497       -74.1645
 109   2.0000      -1.126733       -30.6600
 110   2.0000      -1.117422       -30.4066
 111   2.0000      -1.052376       -28.6366
 112   2.0000      -1.039679       -28.2911
 113   2.0000      -1.029474       -28.0134
 114   2.0000      -1.017032       -27.6748
 115   2.0000      -1.010284       -27.4912
 116   2.0000      -1.000549       -27.2263
 117   2.0000      -0.990369       -26.9493
 118   2.0000      -0.981147       -26.6984
 119   2.0000      -0.973168       -26.4813
 120   2.0000      -0.952296       -25.9133
 121   2.0000      -0.950649       -25.8685
 122   2.0000      -0.945238       -25.7212
 123   2.0000      -0.937979       -25.5237
 124   2.0000      -0.930390       -25.3172
 125   2.0000      -0.902941       -24.5703
 126   2.0000      -0.901268       -24.5248
 127   2.0000      -0.887222       -24.1425
 128   2.0000      -0.883115       -24.0308
 129   2.0000      -0.879725       -23.9385
 130   2.0000      -0.874854       -23.8060
 131   2.0000      -0.856853       -23.3161
 132   2.0000      -0.853584       -23.2272
 133   2.0000      -0.846709       -23.0401
 134   2.0000      -0.846277       -23.0284
 135   2.0000      -0.831470       -22.6255
 136   2.0000      -0.826801       -22.4984
 137   2.0000      -0.823455       -22.4073
 138   2.0000      -0.815736       -22.1973
 139   2.0000      -0.805797       -21.9269
 140   2.0000      -0.802082       -21.8258
 141   2.0000      -0.792016       -21.5519
 142   2.0000      -0.772464       -21.0198
 143   2.0000      -0.767395       -20.8819
 144   2.0000      -0.761608       -20.7244
 145   2.0000      -0.752285       -20.4707
 146   2.0000      -0.746068       -20.3016
 147   2.0000      -0.736168       -20.0321
 148   2.0000      -0.726419       -19.7669
 149   2.0000      -0.719309       -19.5734
 150   2.0000      -0.708696       -19.2846
 151   2.0000      -0.701613       -19.0919
 152   2.0000      -0.688560       -18.7367
 153   2.0000      -0.685623       -18.6568
 154   2.0000      -0.680658       -18.5216
 155   2.0000      -0.662308       -18.0223
 156   2.0000      -0.660936       -17.9850
 157   2.0000      -0.653995       -17.7961
 158   2.0000      -0.648455       -17.6453
 159   2.0000      -0.639428       -17.3997
 160   2.0000      -0.637875       -17.3575
 161   2.0000      -0.634152       -17.2562
 162   2.0000      -0.627224       -17.0676
 163   2.0000      -0.618328       -16.8256
 164   2.0000      -0.616781       -16.7835
 165   2.0000      -0.607462       -16.5299
 166   2.0000      -0.605454       -16.4752
 167   2.0000      -0.604279       -16.4433
 168   2.0000      -0.595244       -16.1974
 169   2.0000      -0.592583       -16.1250
 170   2.0000      -0.587551       -15.9881
 171   2.0000      -0.582660       -15.8550
 172   2.0000      -0.578359       -15.7379
 173   2.0000      -0.576692       -15.6926
 174   2.0000      -0.574977       -15.6459
 175   2.0000      -0.564374       -15.3574
 176   2.0000      -0.561565       -15.2810
 177   2.0000      -0.558514       -15.1979
 178   2.0000      -0.553533       -15.0624
 179   2.0000      -0.547409       -14.8958
 180   2.0000      -0.544675       -14.8214
 181   2.0000      -0.537191       -14.6177
 182   2.0000      -0.535622       -14.5750
 183   2.0000      -0.531663       -14.4673
 184   2.0000      -0.524913       -14.2836
 185   2.0000      -0.520741       -14.1701
 186   2.0000      -0.516921       -14.0661
 187   2.0000      -0.511809       -13.9270
 188   2.0000      -0.508630       -13.8405
 189   2.0000      -0.505055       -13.7432
 190   2.0000      -0.504834       -13.7372
 191   2.0000      -0.501984       -13.6597
 192   2.0000      -0.498604       -13.5677
 193   2.0000      -0.496819       -13.5191
 194   2.0000      -0.493414       -13.4265
 195   2.0000      -0.492883       -13.4120
 196   2.0000      -0.488373       -13.2893
 197   2.0000      -0.485255       -13.2044
 198   2.0000      -0.482655       -13.1337
 199   2.0000      -0.478919       -13.0321
 200   2.0000      -0.476144       -12.9565
 201   2.0000      -0.475574       -12.9410
 202   2.0000      -0.473197       -12.8763
 203   2.0000      -0.469281       -12.7698
 204   2.0000      -0.468045       -12.7361
 205   2.0000      -0.465247       -12.6600
 206   2.0000      -0.462438       -12.5836
 207   2.0000      -0.460191       -12.5224
 208   2.0000      -0.459105       -12.4929
 209   2.0000      -0.455325       -12.3900
 210   2.0000      -0.454329       -12.3629
 211   2.0000      -0.451236       -12.2788
 212   2.0000      -0.450090       -12.2476
 213   2.0000      -0.447887       -12.1876
 214   2.0000      -0.445576       -12.1247
 215   2.0000      -0.442779       -12.0486
 216   2.0000      -0.437469       -11.9041
 217   2.0000      -0.436248       -11.8709
 218   2.0000      -0.433337       -11.7917
 219   2.0000      -0.430555       -11.7160
 220   2.0000      -0.430081       -11.7031
 221   2.0000      -0.429589       -11.6897
 222   2.0000      -0.427036       -11.6202
 223   2.0000      -0.423179       -11.5153
 224   2.0000      -0.419390       -11.4122
 225   2.0000      -0.419199       -11.4070
 226   2.0000      -0.411915       -11.2088
 227   2.0000      -0.411766       -11.2047
 228   2.0000      -0.409463       -11.1421
 229   2.0000      -0.407074       -11.0770
 230   2.0000      -0.405372       -11.0307
 231   2.0000      -0.399947       -10.8831
 232   2.0000      -0.397606       -10.8194
 233   2.0000      -0.394604       -10.7377
 234   2.0000      -0.393275       -10.7016
 235   2.0000      -0.383338       -10.4312
 236   2.0000      -0.380915       -10.3652
 237   2.0000      -0.372090       -10.1251
 238   2.0000      -0.371420       -10.1069
 239   2.0000      -0.362811        -9.8726
 240   2.0000      -0.358772        -9.7627
 241   2.0000      -0.355504        -9.6738
 242   2.0000      -0.341942        -9.3047
 243   2.0000      -0.338069        -9.1993
 244   2.0000      -0.331421        -9.0184
 245   2.0000      -0.328211        -8.9311
 246   2.0000      -0.325917        -8.8687
 247   2.0000      -0.317451        -8.6383
 248   2.0000      -0.309835        -8.4310
 249   2.0000      -0.299964        -8.1624
 250   2.0000      -0.296279        -8.0622
 251   2.0000      -0.291320        -7.9272
 252   2.0000      -0.285164        -7.7597
 253   2.0000      -0.284337        -7.7372
 254   2.0000      -0.276778        -7.5315
 255   2.0000      -0.260126        -7.0784
 256   2.0000      -0.259710        -7.0671
 257   2.0000      -0.245196        -6.6721
 258   2.0000      -0.183777        -5.0008
 259   0.0000      -0.068992        -1.8774
 260   0.0000      -0.053062        -1.4439
 261   0.0000      -0.042722        -1.1625
 262   0.0000      -0.021724        -0.5912
 263   0.0000       0.006259         0.1703

MULLIKEN ATOMIC CHARGES
-----------------------
   0 C :    0.282414
   1 C :   -0.359197
   2 C :   -0.168028
   3 N :    0.146672
   4 C :   -0.157408
   5 N :    0.116735
   6 C :    0.019144
   7 C :    0.007786
   8 C :   -0.083866
   9 C :    0.119158
  10 C :   -0.091537
  11 C :   -0.015133
  12 S :    0.179350
  13 C :   -0.123114
  14 C :    0.037831
  15 Br:    0.018242
  16 C :    0.163307
  17 O :   -0.190292
  18 C :   -0.131877
  19 C :    0.106003
  20 N :   -0.323538
  21 C :    0.009966
  22 C :    0.293153
  23 C :    0.024023
  24 N :   -0.370127
  25 S :    0.208134
  26 N :   -0.308309
  27 C :    0.000623
  28 C :    0.245244
  29 C :   -0.007821
  30 N :   -0.363605
  31 S :    0.332599
  32 C :    0.087226
  33 C :   -0.210035
  34 C :    0.105244
  35 C :    0.213202
  36 N :   -0.132176
  37 C :    0.045123
  38 C :   -0.043081
  39 C :    0.025763
  40 C :   -0.054835
  41 C :    0.051061
  42 C :    0.003031
  43 C :   -0.021720
  44 S :    0.055432
  45 C :   -0.072661
  46 C :    0.040053
  47 C :    0.010858
  48 C :   -0.015317
  49 S :    0.069937
  50 C :   -0.029700
  51 C :   -0.164727
  52 S :    0.117125
  53 C :   -0.142268
  54 C :   -0.001220
  55 C :    0.001048
  56 S :    0.221398
  57 C :   -0.161477
  58 S :   -0.183132
  59 S :    0.173417
  60 H :   -0.015693
  61 H :   -0.004627
  62 H :   -0.005912
  63 H :    0.051388
  64 H :    0.045736
  65 H :    0.015591
  66 H :   -0.033583
  67 H :   -0.003915
  68 H :    0.128218
  69 H :    0.132957
  70 H :   -0.000642
  71 H :    0.021478
  72 H :   -0.027225
  73 H :    0.017538
  74 H :   -0.009332
  75 H :    0.004634
  76 H :    0.013790
  77 H :    0.052984
  78 H :    0.002790
  79 H :    0.010962
  80 H :    0.117957
  81 H :   -0.010222
  82 H :    0.010568
  83 H :   -0.025376
  84 H :   -0.021370
  85 H :   -0.024799
  86 H :   -0.020082
  87 H :   -0.024486
  88 H :   -0.023190
  89 H :    0.019759
Sum of atomic charges:   -0.0000000

LOEWDIN ATOMIC CHARGES
----------------------
   0 C :    0.094767
   1 C :   -0.174930
   2 C :   -0.023370
   3 N :   -0.060068
   4 C :    0.025919
   5 N :   -0.080780
   6 C :   -0.020294
   7 C :   -0.045465
   8 C :    0.017939
   9 C :   -0.034405
  10 C :   -0.146168
  11 C :   -0.009587
  12 S :    0.427832
  13 C :   -0.273869
  14 C :   -0.070556
  15 Br:    0.132594
  16 C :    0.088625
  17 O :   -0.170311
  18 C :   -0.171530
  19 C :    0.096276
  20 N :   -0.098005
  21 C :    0.009625
  22 C :   -0.030805
  23 C :   -0.008800
  24 N :   -0.245744
  25 S :    0.342971
  26 N :   -0.217754
  27 C :   -0.005047
  28 C :   -0.030035
  29 C :    0.014821
  30 N :   -0.191423
  31 S :    0.465812
  32 C :   -0.034405
  33 C :   -0.068350
  34 C :   -0.060044
  35 C :    0.049609
  36 N :    0.012741
  37 C :    0.061020
  38 C :   -0.132063
  39 C :   -0.013107
  40 C :   -0.188142
  41 C :   -0.018372
  42 C :   -0.065642
  43 C :   -0.153588
  44 S :    0.372967
  45 C :   -0.214871
  46 C :   -0.023926
  47 C :   -0.063997
  48 C :   -0.134719
  49 S :    0.372137
  50 C :   -0.132026
  51 C :   -0.171031
  52 S :    0.435450
  53 C :   -0.221209
  54 C :   -0.213184
  55 C :   -0.241724
  56 S :    0.435544
  57 C :   -0.443354
  58 S :   -0.055163
  59 S :    0.405182
  60 H :    0.038478
  61 H :    0.036306
  62 H :    0.037772
  63 H :    0.036107
  64 H :    0.032737
  65 H :    0.028605
  66 H :    0.019924
  67 H :    0.009516
  68 H :    0.052463
  69 H :    0.048862
  70 H :    0.019754
  71 H :    0.033324
  72 H :    0.019672
  73 H :    0.030083
  74 H :    0.018007
  75 H :    0.029593
  76 H :    0.019930
  77 H :    0.040713
  78 H :    0.024164
  79 H :    0.025838
  80 H :    0.055886
  81 H :    0.021311
  82 H :    0.020411
  83 H :    0.029016
  84 H :    0.030297
  85 H :    0.026963
  86 H :    0.029900
  87 H :    0.027542
  88 H :    0.028671
  89 H :    0.024184

  Mayer bond orders larger than 0.100000
B(  0-C ,  1-C ) :   1.5683 B(  0-C ,  6-C ) :   1.0232 B(  0-C , 18-C ) :   1.1108
B(  1-C ,  2-C ) :   1.1374 B(  1-C ,  4-C ) :   1.1734 B(  2-C ,  3-N ) :   2.9669
B(  4-C ,  5-N ) :   2.8872 B(  5-N , 80-H ) :   0.1322 B(  6-C ,  7-C ) :   1.2795
B(  6-C , 11-C ) :   1.4217 B(  7-C ,  8-C ) :   1.4270 B(  7-C , 16-C ) :   0.9560
B(  8-C ,  9-C ) :   1.2394 B(  8-C , 60-H ) :   1.0164 B(  9-C , 10-C ) :   1.3148
B(  9-C , 14-C ) :   1.1628 B( 10-C , 11-C ) :   1.3155 B( 10-C , 12-S ) :   1.0814
B( 11-C , 61-H ) :   0.9805 B( 12-S , 13-C ) :   1.0853 B( 13-C , 14-C ) :   1.6211
B( 13-C , 15-Br) :   1.0163 B( 14-C , 62-H ) :   0.9993 B( 16-C , 17-O ) :   2.1287
B( 16-C , 18-C ) :   0.9598 B( 18-C , 19-C ) :   1.4723 B( 19-C , 20-N ) :   1.3204
B( 19-C , 63-H ) :   0.9280 B( 20-N , 21-C ) :   0.8859 B( 20-N , 31-S ) :   0.9077
B( 21-C , 22-C ) :   1.1028 B( 21-C , 29-C ) :   0.9670 B( 21-C , 64-H ) :   0.9026
B( 22-C , 23-C ) :   1.1121 B( 22-C , 28-C ) :   0.1217 B( 22-C , 65-H ) :   0.9133
B( 22-C , 66-H ) :   0.8375 B( 23-C , 24-N ) :   0.9825 B( 23-C , 27-C ) :   0.9692
B( 23-C , 67-H ) :   0.9110 B( 24-N , 25-S ) :   0.9326 B( 24-N , 68-H ) :   0.9385
B( 25-S , 26-N ) :   1.0330 B( 26-N , 27-C ) :   1.0388 B( 26-N , 69-H ) :   0.9310
B( 27-C , 28-C ) :   1.0984 B( 27-C , 70-H ) :   0.9075 B( 28-C , 29-C ) :   1.0869
B( 28-C , 71-H ) :   0.9367 B( 28-C , 72-H ) :   0.8400 B( 29-C , 30-N ) :   0.9679
B( 29-C , 73-H ) :   0.9093 B( 30-N , 31-S ) :   0.9963 B( 30-N , 32-C ) :   0.9743
B( 32-C , 33-C ) :   1.8579 B( 32-C , 74-H ) :   0.9576 B( 33-C , 34-C ) :   1.0806
B( 33-C , 35-C ) :   1.0552 B( 34-C , 75-H ) :   0.9368 B( 34-C , 76-H ) :   0.9430
B( 34-C , 77-H ) :   0.9408 B( 35-C , 36-N ) :   1.0173 B( 35-C , 78-H ) :   0.9396
B( 35-C , 79-H ) :   0.9295 B( 36-N , 37-C ) :   1.2914 B( 36-N , 80-H ) :   0.8897
B( 37-C , 38-C ) :   1.5348 B( 37-C , 81-H ) :   0.9712 B( 38-C , 39-C ) :   1.2083
B( 38-C , 82-H ) :   0.9557 B( 39-C , 40-C ) :   1.5412 B( 39-C , 83-H ) :   0.9799
B( 40-C , 41-C ) :   1.1728 B( 40-C , 44-S ) :   1.0108 B( 41-C , 42-C ) :   1.5597
B( 41-C , 84-H ) :   0.9962 B( 42-C , 43-C ) :   1.2069 B( 42-C , 85-H ) :   0.9939
B( 43-C , 44-S ) :   1.0780 B( 43-C , 45-C ) :   1.4732 B( 45-C , 46-C ) :   1.2162
B( 45-C , 49-S ) :   1.0248 B( 46-C , 47-C ) :   1.5679 B( 46-C , 86-H ) :   0.9913
B( 47-C , 48-C ) :   1.1564 B( 47-C , 87-H ) :   0.9979 B( 48-C , 49-S ) :   1.0568
B( 48-C , 50-C ) :   1.5850 B( 50-C , 51-C ) :   1.1569 B( 50-C , 88-H ) :   0.9478
B( 51-C , 52-S ) :   1.1371 B( 51-C , 55-C ) :   1.5177 B( 52-S , 53-C ) :   1.1346
B( 53-C , 54-C ) :   1.6025 B( 53-C , 89-H ) :   0.9754 B( 54-C , 55-C ) :   1.2400
B( 54-C , 59-S ) :   0.9769 B( 55-C , 56-S ) :   0.9889 B( 56-S , 57-C ) :   1.1144
B( 56-S , 58-S ) :   0.1315 B( 57-C , 58-S ) :   1.6094 B( 57-C , 59-S ) :   1.0946
B( 58-S , 59-S ) :   0.1210

-----------------------------------------------------------------------------
         ABSORPTION SPECTRUM VIA TRANSITION ELECTRIC DIPOLE MOMENTS
-----------------------------------------------------------------------------
State   Energy  Wavelength   fosc         T2         TX        TY        TZ
        (cm-1)    (nm)                  (au**2)     (au)      (au)      (au)
-----------------------------------------------------------------------------
   0   11338.3    882.0   0.009193704   0.26694   0.13306  -0.49026  -0.09425
   1   14228.8    702.8   0.796918936  18.43830   0.69621  -3.86031  -1.74687
   2   18393.6    543.7   0.108155819   1.93579  -0.04549  -0.79440  -1.14134
   3   20063.6    498.4   0.085025918   1.39514   0.00245   0.72714   0.93081
   4   23128.2    432.4   0.032122055   0.45723   0.00184  -0.61839  -0.27352
   5   24292.1    411.7   0.023723990   0.32151   0.28991  -0.47308   0.11686
   6   25059.9    399.0   0.091803561   1.20602  -0.22164   0.07703  -1.07283
   7   25236.1    396.3   0.072398770   0.94446  -0.09014  -0.31092  -0.91633
   8   27136.1    368.5   0.134371904   1.63018  -1.14452   0.19019   0.53300
   9   28203.0    354.6   0.071434781   0.83386  -0.18293   0.08668  -0.89044
  10   28691.0    348.5   0.831673601   9.54294   0.67732  -0.89242   2.87885
  11   29506.3    338.9   0.004841702   0.05402   0.12352  -0.19471  -0.02915
  12   29590.7    337.9   0.033535370   0.37310  -0.07452   0.07081  -0.60210
  13   29722.9    336.4   0.117264777   1.29883   0.79406  -0.81425  -0.07269
  14   29974.0    333.6   0.023398804   0.25699   0.14571  -0.28622   0.39223
  15   30189.3    331.2   0.006431784   0.07014  -0.11542  -0.21997   0.09182
  16   30365.1    329.3   0.233708814   2.53382  -0.76792   1.26221  -0.59240
  17   30668.4    326.1   0.017746993   0.19051   0.20824  -0.38198   0.03507
  18   31083.6    321.7   0.058801770   0.62278  -0.30104   0.63007  -0.36765
  19   31677.5    315.7   0.000606822   0.00631   0.03133   0.07055  -0.01863
  20   31894.1    313.5   0.118848229   1.22675   0.91504  -0.35953  -0.51010
  21   32481.2    307.9   0.025399427   0.25743  -0.23084   0.42621  -0.14996
  22   32573.1    307.0   0.011934440   0.12062   0.23403  -0.25543   0.02456
  23   32760.8    305.2   0.042081245   0.42287  -0.19893   0.47105  -0.40176
  24   32867.0    304.3   0.028953502   0.29001   0.15092  -0.23314   0.46139
  25   33116.4    302.0   0.050805535   0.50506  -0.41296   0.35019   0.46032
  26   33172.5    301.5   0.063171914   0.62693   0.65530  -0.38226  -0.22668
  27   33448.9    299.0   0.057160442   0.56259  -0.20043   0.56979  -0.44469
  28   33927.7    294.7   0.045290838   0.43947  -0.05474  -0.07323   0.65659
  29   34029.6    293.9   0.705797776   6.82809   1.60052  -1.87763   0.86076
  30   34197.3    292.4   0.062846076   0.60501   0.43761  -0.48187  -0.42581
  31   34695.1    288.2   0.078492349   0.74479   0.34324  -0.32541  -0.72186
  32   35020.8    285.5   0.026070495   0.24507   0.21182   0.17455   0.41199
  33   35603.0    280.9   0.091577099   0.84679  -0.58657   0.44496   0.55203
  34   35901.8    278.5   0.041065649   0.37656   0.48105  -0.38079  -0.01231
  35   36025.0    277.6   0.148951612   1.36118  -0.53654   0.02738   1.03564
  36   36393.4    274.8   0.098640210   0.89229  -0.03259   0.32447  -0.88654
  37   36513.9    273.9   0.060196433   0.54274   0.35129  -0.53514  -0.36464
  38   36621.8    273.1   0.058750698   0.52814  -0.45722   0.45921  -0.32897
  39   36988.2    270.4   0.006084106   0.05415  -0.12888   0.14842   0.12456
  40   37049.2    269.9   0.020844346   0.18522  -0.29042   0.17194   0.26705
  41   37479.4    266.8   0.047628555   0.41836   0.35331  -0.49836   0.21254
  42   37760.8    264.8   0.025937394   0.22613   0.33183  -0.32560  -0.10002
  43   38736.2    258.2   0.082070954   0.69751   0.54654  -0.07299  -0.62727
  44   39179.0    255.2   0.046500313   0.39073  -0.11245   0.60906   0.08446
  45   39443.1    253.5   0.028403219   0.23707   0.31102  -0.20408   0.31414
  46   39771.4    251.4   0.000673218   0.00557  -0.03341   0.06348  -0.02066
  47   39987.7    250.1   0.034647164   0.28524   0.30711  -0.42387  -0.10614

FINAL SINGLE POINT ENERGY     -8230.818758743739

DIPOLE MOMENT
-------------
                                X             Y             Z
Electronic contribution:    106.92707    -114.07296     -14.89938
Nuclear contribution   :   -107.14873     114.96145      16.57329
                        -----------------------------------------
Total Dipole Moment    :     -0.22166       0.88849       1.67392
                        -----------------------------------------
Magnitude (a.u.)       :      1.90802
Magnitude (Debye)      :      4.84981

Rotational constants in cm-1:     0.000850     0.000818     0.000474
Rotational constants in MHz :    25.471953    24.530546    14.207590

                             ****ORCA TERMINATED NORMALLY****
TOTAL RUN TIME: 0 days 0 hours 9 minutes 19 seconds 632 msec
