                         Program Version 4.2.0 -  RELEASE  -
|  1> # ORCA input file
|  2> # SCF done       -177.088351923372          0.000526339266
|  3> ! CAM-B3LYP def2-SVP def2/J RIJCOSX Grid4 TightSCF
|  4> %maxcore 5000
|  5> %tddft
|  6>     Mode sTDDFT
|  7>     Ethresh 5.0
|  8>     maxcore 5000
|  9> end
| 10>
| 11> %pal
| 12>   nprocs 6
| 13>   end
| 14> * xyz 0 1
| 15>    C      -11.53666        -0.47988        -0.82898
| 16>    C      -11.96000        -1.34640        -1.80542
| 17>    C      -13.28658        -1.80394        -1.93344
| 18>    N      -14.35212        -2.20372        -2.08718
| 19>    C      -11.11825        -1.93342        -2.77296
| 20>    N      -10.48880        -2.47562        -3.56609
| 21>    C      -12.34967         0.03773         0.26437
| 22>    C      -11.50967         0.75558         1.15022
| 23>    C      -11.98797         1.37319         2.27963
| 24>    C      -13.36040         1.28395         2.54242
| 25>    C      -14.18845         0.56490         1.64972
| 26>    C      -13.70459        -0.06636         0.51040
| 27>    S      -15.85219         0.59712         2.14894
| 28>    C      -15.41972         1.56861         3.52882
| 29>    C      -14.09867         1.85097         3.61787
| 30>   Br      -16.76539         2.13175         4.71041
| 31>    C      -10.12156         0.74110         0.63437
| 32>    O       -9.16422         1.30174         1.13002
| 33>    C      -10.18539        -0.00156        -0.64091
| 34>    C       -9.21371        -0.01125        -1.61338
| 35>    C       -7.84984         0.29793        -1.49340
| 36>    S       -7.05202         0.93013        -2.91123
| 37>    C       -5.58633         1.08411        -2.04309
| 38>    C       -5.65203         0.64550        -0.75574
| 39>    C       -4.45041         0.67471         0.12865
| 40>    C       -6.95403         0.15854        -0.41517
| 41>    C       -7.35006        -0.54092         0.75794
| 42>    C       -6.68879        -0.65274         1.94275
| 43>    C       -7.19457        -1.40318         3.02314
| 44>    C       -6.48608        -1.64127         4.16714
| 45>    C       -6.96749        -2.35417         5.27503
| 46>    S       -8.63639        -2.80615         5.42818
| 47>    C       -8.39383        -3.61059         6.95507
| 48>    C       -7.03976        -3.50142         7.35123
| 49>    C       -6.24163        -2.79461         6.40291
| 50>    C       -4.87143        -2.60022         6.64344
| 51>    C       -4.32679        -3.07168         7.80562
| 52>    F       -3.01823        -2.89381         8.05012
| 53>    C       -5.12416        -3.72399         8.76581
| 54>    F       -4.56130        -4.13687         9.91400
| 55>    C       -6.45981        -3.93467         8.55400
| 56>    C       -9.50511        -4.18649         7.57524
| 57>    C       -9.51176        -5.15841         8.55183
| 58>    C      -10.64102        -5.60031         9.24253
| 59>    C      -11.87037        -4.97602         9.35735
| 60>    C      -12.97566        -5.47781        10.07977
| 61>    C      -14.05003        -4.63619        10.13209
| 62>    C      -13.84508        -3.41504         9.46140
| 63>    S      -12.25711        -3.38554         8.73149
| 64>    C      -14.70359        -2.33295         9.35827
| 65>    C      -16.02302        -2.21464         9.84339
| 66>    C      -16.58966        -0.99864         9.60644
| 67>    C      -15.74474        -0.08483         8.92793
| 68>    S      -14.20440        -0.84713         8.57827
| 69>    C      -16.05440         1.20944         8.60068
| 70>    C      -15.22792         2.14643         7.96225
| 71>    S      -13.57666         1.86022         7.43731
| 72>    C      -13.37791         3.44250         6.78865
| 73>    C      -14.52413         4.18501         6.95744
| 74>    C      -15.55207         3.45063         7.62077
| 75>    O      -16.66328         4.19632         7.76376
| 76>    C      -16.36475         5.39417         7.19416
| 77>    N      -17.36788         6.39397         7.19705
| 78>    O      -17.07737         7.45036         6.66785
| 79>    O      -18.42767         6.13586         7.72307
| 80>    C      -15.09353         5.46036         6.68977
| 81>    H      -11.32627         1.91375         2.93803
| 82>    H      -14.37568        -0.59499        -0.14570
| 83>    H      -13.66318         2.44024         4.40430
| 84>    H       -9.53942        -0.21474        -2.62785
| 85>    H       -4.72812         1.49604        -2.53880
| 86>    H       -3.58967         1.02999        -0.43342
| 87>    H       -4.22901        -0.32156         0.50811
| 88>    H       -4.61100         1.34755         0.96965
| 89>    H       -8.28738        -1.07656         0.67087
| 90>    H       -5.75516        -0.14202         2.10918
| 91>    H       -8.18873        -1.82237         2.93072
| 92>    H       -5.46930        -1.27762         4.23221
| 93>    H       -4.24419        -2.08421         5.93564
| 94>    H       -7.04435        -4.40505         9.32541
| 95>    H      -10.45947        -3.87168         7.17297
| 96>    H       -8.58946        -5.67830         8.76847
| 97>    H      -10.53946        -6.51732         9.80932
| 98>    H      -12.94413        -6.44607        10.54763
| 99>    H      -14.96519        -4.85615        10.65129
|100>    H      -16.51712        -3.02424        10.34947
|101>    H      -17.58570        -0.72103         9.90166
|102>    H      -17.04173         1.57054         8.85609
|103>    H      -12.44244         3.72976         6.35444
|104>    H      -14.65195         6.30449         6.20242
|105> *
|106>
|107>                          ****END OF INPUT****

CARTESIAN COORDINATES (ANGSTROEM)
---------------------------------
  C    -11.536660   -0.479880   -0.828980
  C    -11.960000   -1.346400   -1.805420
  C    -13.286580   -1.803940   -1.933440
  N    -14.352120   -2.203720   -2.087180
  C    -11.118250   -1.933420   -2.772960
  N    -10.488800   -2.475620   -3.566090
  C    -12.349670    0.037730    0.264370
  C    -11.509670    0.755580    1.150220
  C    -11.987970    1.373190    2.279630
  C    -13.360400    1.283950    2.542420
  C    -14.188450    0.564900    1.649720
  C    -13.704590   -0.066360    0.510400
  S    -15.852190    0.597120    2.148940
  C    -15.419720    1.568610    3.528820
  C    -14.098670    1.850970    3.617870
  Br   -16.765390    2.131750    4.710410
  C    -10.121560    0.741100    0.634370
  O     -9.164220    1.301740    1.130020
  C    -10.185390   -0.001560   -0.640910
  C     -9.213710   -0.011250   -1.613380
  C     -7.849840    0.297930   -1.493400
  S     -7.052020    0.930130   -2.911230
  C     -5.586330    1.084110   -2.043090
  C     -5.652030    0.645500   -0.755740
  C     -4.450410    0.674710    0.128650
  C     -6.954030    0.158540   -0.415170
  C     -7.350060   -0.540920    0.757940
  C     -6.688790   -0.652740    1.942750
  C     -7.194570   -1.403180    3.023140
  C     -6.486080   -1.641270    4.167140
  C     -6.967490   -2.354170    5.275030
  S     -8.636390   -2.806150    5.428180
  C     -8.393830   -3.610590    6.955070
  C     -7.039760   -3.501420    7.351230
  C     -6.241630   -2.794610    6.402910
  C     -4.871430   -2.600220    6.643440
  C     -4.326790   -3.071680    7.805620
  F     -3.018230   -2.893810    8.050120
  C     -5.124160   -3.723990    8.765810
  F     -4.561300   -4.136870    9.914000
  C     -6.459810   -3.934670    8.554000
  C     -9.505110   -4.186490    7.575240
  C     -9.511760   -5.158410    8.551830
  C    -10.641020   -5.600310    9.242530
  C    -11.870370   -4.976020    9.357350
  C    -12.975660   -5.477810   10.079770
  C    -14.050030   -4.636190   10.132090
  C    -13.845080   -3.415040    9.461400
  S    -12.257110   -3.385540    8.731490
  C    -14.703590   -2.332950    9.358270
  C    -16.023020   -2.214640    9.843390
  C    -16.589660   -0.998640    9.606440
  C    -15.744740   -0.084830    8.927930
  S    -14.204400   -0.847130    8.578270
  C    -16.054400    1.209440    8.600680
  C    -15.227920    2.146430    7.962250
  S    -13.576660    1.860220    7.437310
  C    -13.377910    3.442500    6.788650
  C    -14.524130    4.185010    6.957440
  C    -15.552070    3.450630    7.620770
  O    -16.663280    4.196320    7.763760
  C    -16.364750    5.394170    7.194160
  N    -17.367880    6.393970    7.197050
  O    -17.077370    7.450360    6.667850
  O    -18.427670    6.135860    7.723070
  C    -15.093530    5.460360    6.689770
  H    -11.326270    1.913750    2.938030
  H    -14.375680   -0.594990   -0.145700
  H    -13.663180    2.440240    4.404300
  H     -9.539420   -0.214740   -2.627850
  H     -4.728120    1.496040   -2.538800
  H     -3.589670    1.029990   -0.433420
  H     -4.229010   -0.321560    0.508110
  H     -4.611000    1.347550    0.969650
  H     -8.287380   -1.076560    0.670870
  H     -5.755160   -0.142020    2.109180
  H     -8.188730   -1.822370    2.930720
  H     -5.469300   -1.277620    4.232210
  H     -4.244190   -2.084210    5.935640
  H     -7.044350   -4.405050    9.325410
  H    -10.459470   -3.871680    7.172970
  H     -8.589460   -5.678300    8.768470
  H    -10.539460   -6.517320    9.809320
  H    -12.944130   -6.446070   10.547630
  H    -14.965190   -4.856150   10.651290
  H    -16.517120   -3.024240   10.349470
  H    -17.585700   -0.721030    9.901660
  H    -17.041730    1.570540    8.856090
  H    -12.442440    3.729760    6.354440
  H    -14.651950    6.304490    6.202420

 Total Charge           Charge          ....    0
 Multiplicity           Mult            ....    1
 Number of Electrons    NEL             ....  526
 Basis Dimension        Dim             .... 1086

ORBITAL ENERGIES
----------------

  NO   OCC          E(Eh)            E(eV)
   0   2.0000    -482.884959    -13139.9678
   1   2.0000     -88.981312     -2421.3046
   2   2.0000     -88.972768     -2421.0721
   3   2.0000     -88.969825     -2420.9920
   4   2.0000     -88.963697     -2420.8253
   5   2.0000     -88.955242     -2420.5952
   6   2.0000     -88.954412     -2420.5726
   7   2.0000     -62.562214     -1702.4044
   8   2.0000     -56.396178     -1534.6180
   9   2.0000     -56.393480     -1534.5446
  10   2.0000     -56.393426     -1534.5431
  11   2.0000     -24.789369      -674.5530
  12   2.0000     -24.788180      -674.5207
  13   2.0000     -19.314410      -525.5718
  14   2.0000     -19.246812      -523.7324
  15   2.0000     -19.244353      -523.6655
  16   2.0000     -19.211684      -522.7765
  17   2.0000     -14.658447      -398.8766
  18   2.0000     -14.411416      -392.1546
  19   2.0000     -14.410198      -392.1214
  20   2.0000     -10.390784      -282.7476
  21   2.0000     -10.370959      -282.2081
  22   2.0000     -10.369563      -282.1702
  23   2.0000     -10.362282      -281.9720
  24   2.0000     -10.356186      -281.8061
  25   2.0000     -10.349585      -281.6265
  26   2.0000     -10.337547      -281.2990
  27   2.0000     -10.336356      -281.2666
  28   2.0000     -10.322451      -280.8882
  29   2.0000     -10.322253      -280.8828
  30   2.0000     -10.319232      -280.8006
  31   2.0000     -10.318306      -280.7754
  32   2.0000     -10.317151      -280.7439
  33   2.0000     -10.316531      -280.7271
  34   2.0000     -10.316387      -280.7232
  35   2.0000     -10.315552      -280.7004
  36   2.0000     -10.314514      -280.6722
  37   2.0000     -10.314440      -280.6702
  38   2.0000     -10.313409      -280.6421
  39   2.0000     -10.313113      -280.6341
  40   2.0000     -10.312144      -280.6077
  41   2.0000     -10.310534      -280.5639
  42   2.0000     -10.307022      -280.4683
  43   2.0000     -10.304910      -280.4109
  44   2.0000     -10.304291      -280.3940
  45   2.0000     -10.302644      -280.3492
  46   2.0000     -10.302619      -280.3485
  47   2.0000     -10.300459      -280.2897
  48   2.0000     -10.298627      -280.2399
  49   2.0000     -10.298126      -280.2263
  50   2.0000     -10.297344      -280.2050
  51   2.0000     -10.296516      -280.1824
  52   2.0000     -10.294202      -280.1195
  53   2.0000     -10.293837      -280.1095
  54   2.0000     -10.293400      -280.0977
  55   2.0000     -10.292940      -280.0851
  56   2.0000     -10.292251      -280.0664
  57   2.0000     -10.292049      -280.0609
  58   2.0000     -10.291925      -280.0575
  59   2.0000     -10.291904      -280.0570
  60   2.0000     -10.291544      -280.0471
  61   2.0000     -10.290741      -280.0253
  62   2.0000     -10.289948      -280.0037
  63   2.0000     -10.289173      -279.9826
  64   2.0000     -10.286188      -279.9014
  65   2.0000     -10.284277      -279.8494
  66   2.0000     -10.282604      -279.8039
  67   2.0000     -10.282388      -279.7980
  68   2.0000     -10.281836      -279.7830
  69   2.0000     -10.278133      -279.6822
  70   2.0000      -8.791489      -239.2286
  71   2.0000      -8.075487      -219.7452
  72   2.0000      -8.068873      -219.5652
  73   2.0000      -8.065031      -219.4607
  74   2.0000      -8.059997      -219.3237
  75   2.0000      -8.051402      -219.0898
  76   2.0000      -8.050296      -219.0597
  77   2.0000      -6.627756      -180.3504
  78   2.0000      -6.613230      -179.9551
  79   2.0000      -6.613055      -179.9504
  80   2.0000      -6.044860      -164.4890
  81   2.0000      -6.040435      -164.3686
  82   2.0000      -6.038556      -164.3175
  83   2.0000      -6.037905      -164.2998
  84   2.0000      -6.034286      -164.2013
  85   2.0000      -6.033980      -164.1930
  86   2.0000      -6.030068      -164.0865
  87   2.0000      -6.030024      -164.0853
  88   2.0000      -6.029193      -164.0627
  89   2.0000      -6.027711      -164.0224
  90   2.0000      -6.025057      -163.9501
  91   2.0000      -6.022159      -163.8713
  92   2.0000      -6.021160      -163.8441
  93   2.0000      -6.019994      -163.8124
  94   2.0000      -6.017037      -163.7319
  95   2.0000      -6.015815      -163.6986
  96   2.0000      -6.012343      -163.6042
  97   2.0000      -6.011463      -163.5802
  98   2.0000      -2.743588       -74.6568
  99   2.0000      -2.739600       -74.5483
 100   2.0000      -2.739429       -74.5437
 101   2.0000      -2.727903       -74.2300
 102   2.0000      -2.727875       -74.2293
 103   2.0000      -1.330126       -36.1946
 104   2.0000      -1.310601       -35.6633
 105   2.0000      -1.295781       -35.2600
 106   2.0000      -1.234988       -33.6057
 107   2.0000      -1.146492       -31.1976
 108   2.0000      -1.125728       -30.6326
 109   2.0000      -1.019891       -27.7526
 110   2.0000      -1.009782       -27.4776
 111   2.0000      -1.006841       -27.3975
 112   2.0000      -1.005849       -27.3706
 113   2.0000      -0.998380       -27.1673
 114   2.0000      -0.997601       -27.1461
 115   2.0000      -0.989442       -26.9241
 116   2.0000      -0.985564       -26.8186
 117   2.0000      -0.980036       -26.6681
 118   2.0000      -0.947836       -25.7919
 119   2.0000      -0.940284       -25.5864
 120   2.0000      -0.939234       -25.5579
 121   2.0000      -0.926701       -25.2168
 122   2.0000      -0.912688       -24.8355
 123   2.0000      -0.905599       -24.6426
 124   2.0000      -0.903554       -24.5870
 125   2.0000      -0.903355       -24.5815
 126   2.0000      -0.891584       -24.2612
 127   2.0000      -0.883131       -24.0312
 128   2.0000      -0.881248       -23.9800
 129   2.0000      -0.874150       -23.7868
 130   2.0000      -0.867074       -23.5943
 131   2.0000      -0.859722       -23.3942
 132   2.0000      -0.847184       -23.0531
 133   2.0000      -0.843389       -22.9498
 134   2.0000      -0.839237       -22.8368
 135   2.0000      -0.833417       -22.6784
 136   2.0000      -0.828388       -22.5416
 137   2.0000      -0.825970       -22.4758
 138   2.0000      -0.817498       -22.2452
 139   2.0000      -0.798439       -21.7266
 140   2.0000      -0.789758       -21.4904
 141   2.0000      -0.785861       -21.3844
 142   2.0000      -0.768715       -20.9178
 143   2.0000      -0.757387       -20.6095
 144   2.0000      -0.750300       -20.4167
 145   2.0000      -0.746702       -20.3188
 146   2.0000      -0.739019       -20.1097
 147   2.0000      -0.719694       -19.5839
 148   2.0000      -0.712673       -19.3928
 149   2.0000      -0.709827       -19.3154
 150   2.0000      -0.705208       -19.1897
 151   2.0000      -0.689684       -18.7672
 152   2.0000      -0.683990       -18.6123
 153   2.0000      -0.679783       -18.4978
 154   2.0000      -0.678616       -18.4661
 155   2.0000      -0.674705       -18.3596
 156   2.0000      -0.664400       -18.0792
 157   2.0000      -0.656725       -17.8704
 158   2.0000      -0.655077       -17.8256
 159   2.0000      -0.647741       -17.6259
 160   2.0000      -0.643888       -17.5211
 161   2.0000      -0.642279       -17.4773
 162   2.0000      -0.640261       -17.4224
 163   2.0000      -0.634104       -17.2549
 164   2.0000      -0.630200       -17.1486
 165   2.0000      -0.628098       -17.0914
 166   2.0000      -0.621782       -16.9195
 167   2.0000      -0.617645       -16.8070
 168   2.0000      -0.613269       -16.6879
 169   2.0000      -0.610725       -16.6187
 170   2.0000      -0.604630       -16.4528
 171   2.0000      -0.597255       -16.2521
 172   2.0000      -0.596742       -16.2382
 173   2.0000      -0.592802       -16.1310
 174   2.0000      -0.588526       -16.0146
 175   2.0000      -0.587531       -15.9875
 176   2.0000      -0.577756       -15.7215
 177   2.0000      -0.576030       -15.6746
 178   2.0000      -0.571222       -15.5437
 179   2.0000      -0.568727       -15.4759
 180   2.0000      -0.560990       -15.2653
 181   2.0000      -0.556514       -15.1435
 182   2.0000      -0.551986       -15.0203
 183   2.0000      -0.548677       -14.9303
 184   2.0000      -0.542352       -14.7582
 185   2.0000      -0.539475       -14.6799
 186   2.0000      -0.538314       -14.6483
 187   2.0000      -0.537693       -14.6314
 188   2.0000      -0.535666       -14.5762
 189   2.0000      -0.531248       -14.4560
 190   2.0000      -0.529759       -14.4155
 191   2.0000      -0.523939       -14.2571
 192   2.0000      -0.521489       -14.1904
 193   2.0000      -0.519624       -14.1397
 194   2.0000      -0.518557       -14.1107
 195   2.0000      -0.513650       -13.9771
 196   2.0000      -0.510223       -13.8839
 197   2.0000      -0.508556       -13.8385
 198   2.0000      -0.505999       -13.7689
 199   2.0000      -0.505265       -13.7490
 200   2.0000      -0.502167       -13.6647
 201   2.0000      -0.501343       -13.6422
 202   2.0000      -0.497650       -13.5417
 203   2.0000      -0.495821       -13.4920
 204   2.0000      -0.493253       -13.4221
 205   2.0000      -0.490732       -13.3535
 206   2.0000      -0.489838       -13.3292
 207   2.0000      -0.484226       -13.1765
 208   2.0000      -0.482268       -13.1232
 209   2.0000      -0.479399       -13.0451
 210   2.0000      -0.477468       -12.9926
 211   2.0000      -0.474148       -12.9022
 212   2.0000      -0.471222       -12.8226
 213   2.0000      -0.466435       -12.6923
 214   2.0000      -0.464530       -12.6405
 215   2.0000      -0.461154       -12.5486
 216   2.0000      -0.458385       -12.4733
 217   2.0000      -0.458094       -12.4654
 218   2.0000      -0.455394       -12.3919
 219   2.0000      -0.452348       -12.3090
 220   2.0000      -0.446439       -12.1482
 221   2.0000      -0.444923       -12.1070
 222   2.0000      -0.444225       -12.0880
 223   2.0000      -0.439822       -11.9682
 224   2.0000      -0.439267       -11.9531
 225   2.0000      -0.436407       -11.8752
 226   2.0000      -0.434790       -11.8312
 227   2.0000      -0.432104       -11.7581
 228   2.0000      -0.428912       -11.6713
 229   2.0000      -0.426939       -11.6176
 230   2.0000      -0.424719       -11.5572
 231   2.0000      -0.422964       -11.5094
 232   2.0000      -0.421180       -11.4609
 233   2.0000      -0.420298       -11.4369
 234   2.0000      -0.418738       -11.3944
 235   2.0000      -0.413962       -11.2645
 236   2.0000      -0.410423       -11.1682
 237   2.0000      -0.404343       -11.0027
 238   2.0000      -0.401512       -10.9257
 239   2.0000      -0.397767       -10.8238
 240   2.0000      -0.392288       -10.6747
 241   2.0000      -0.389411       -10.5964
 242   2.0000      -0.384505       -10.4629
 243   2.0000      -0.382150       -10.3988
 244   2.0000      -0.375364       -10.2142
 245   2.0000      -0.374426       -10.1886
 246   2.0000      -0.373878       -10.1737
 247   2.0000      -0.365187        -9.9372
 248   2.0000      -0.351549        -9.5661
 249   2.0000      -0.345568        -9.4034
 250   2.0000      -0.345215        -9.3938
 251   2.0000      -0.335992        -9.1428
 252   2.0000      -0.332832        -9.0568
 253   2.0000      -0.329444        -8.9646
 254   2.0000      -0.318734        -8.6732
 255   2.0000      -0.317495        -8.6395
 256   2.0000      -0.313294        -8.5252
 257   2.0000      -0.303829        -8.2676
 258   2.0000      -0.293128        -7.9764
 259   2.0000      -0.288656        -7.8547
 260   2.0000      -0.278375        -7.5750
 261   2.0000      -0.244105        -6.6424
 262   2.0000      -0.205208        -5.5840
 263   0.0000      -0.105224        -2.8633
 264   0.0000      -0.087094        -2.3700
 265   0.0000      -0.068236        -1.8568
 266   0.0000      -0.059528        -1.6198
 267   0.0000      -0.047329        -1.2879

MULLIKEN ATOMIC CHARGES
-----------------------
   0 C :    0.292628
   1 C :   -0.338561
   2 C :   -0.185752
   3 N :    0.147220
   4 C :   -0.214834
   5 N :    0.162051
   6 C :    0.014480
   7 C :   -0.012866
   8 C :   -0.078478
   9 C :    0.122630
  10 C :   -0.093534
  11 C :   -0.021858
  12 S :    0.184795
  13 C :   -0.119887
  14 C :    0.061842
  15 Br:    0.025213
  16 C :    0.127587
  17 O :   -0.143834
  18 C :   -0.121881
  19 C :    0.019982
  20 C :   -0.164788
  21 S :    0.143394
  22 C :   -0.096463
  23 C :   -0.113753
  24 C :    0.120931
  25 C :    0.191466
  26 C :    0.001093
  27 C :    0.008017
  28 C :    0.007785
  29 C :   -0.008794
  30 C :   -0.091642
  31 S :    0.153880
  32 C :   -0.115826
  33 C :    0.124046
  34 C :    0.134482
  35 C :   -0.121992
  36 C :    0.230109
  37 F :   -0.179166
  38 C :    0.223216
  39 F :   -0.180146
  40 C :   -0.119786
  41 C :    0.014116
  42 C :   -0.016854
  43 C :    0.005989
  44 C :   -0.038294
  45 C :    0.040907
  46 C :    0.023830
  47 C :   -0.044137
  48 S :    0.078209
  49 C :   -0.035120
  50 C :    0.027448
  51 C :    0.039242
  52 C :   -0.024972
  53 S :    0.063378
  54 C :   -0.010133
  55 C :   -0.180796
  56 S :    0.141344
  57 C :   -0.156013
  58 C :    0.140371
  59 C :    0.186851
  60 O :   -0.181841
  61 C :    0.231953
  62 N :    0.275718
  63 O :   -0.248332
  64 O :   -0.229608
  65 C :   -0.073542
  66 H :   -0.016557
  67 H :   -0.007312
  68 H :   -0.042537
  69 H :    0.032449
  70 H :    0.024970
  71 H :    0.005720
  72 H :    0.034382
  73 H :    0.046045
  74 H :   -0.008128
  75 H :   -0.027072
  76 H :   -0.007353
  77 H :   -0.015157
  78 H :   -0.012620
  79 H :   -0.012525
  80 H :    0.005617
  81 H :   -0.000490
  82 H :   -0.011386
  83 H :   -0.010858
  84 H :   -0.012536
  85 H :   -0.010473
  86 H :   -0.008033
  87 H :    0.003550
  88 H :    0.035544
  89 H :    0.012043
Sum of atomic charges:   -0.0000000

LOEWDIN ATOMIC CHARGES
----------------------
   0 C :    0.074541
   1 C :   -0.144676
   2 C :   -0.018703
   3 N :   -0.056525
   4 C :   -0.027537
   5 N :   -0.053381
   6 C :   -0.022644
   7 C :   -0.048342
   8 C :    0.016310
   9 C :   -0.033371
  10 C :   -0.145571
  11 C :   -0.010097
  12 S :    0.432024
  13 C :   -0.271396
  14 C :   -0.073064
  15 Br:    0.148169
  16 C :    0.072859
  17 O :   -0.138914
  18 C :   -0.110031
  19 C :    0.046465
  20 C :   -0.178563
  21 S :    0.451910
  22 C :   -0.164232
  23 C :   -0.053915
  24 C :   -0.044023
  25 C :   -0.010498
  26 C :   -0.006002
  27 C :   -0.012062
  28 C :   -0.024848
  29 C :   -0.039144
  30 C :   -0.177719
  31 S :    0.476502
  32 C :   -0.164461
  33 C :   -0.044349
  34 C :   -0.040027
  35 C :   -0.039810
  36 C :    0.061780
  37 F :   -0.057037
  38 C :    0.059748
  39 F :   -0.058032
  40 C :   -0.037299
  41 C :   -0.057872
  42 C :   -0.041062
  43 C :   -0.055711
  44 C :   -0.146286
  45 C :   -0.028925
  46 C :   -0.037860
  47 C :   -0.177668
  48 S :    0.396025
  49 C :   -0.176530
  50 C :   -0.033730
  51 C :   -0.029272
  52 C :   -0.149819
  53 S :    0.367765
  54 C :   -0.069907
  55 C :   -0.201376
  56 S :    0.472202
  57 C :   -0.201516
  58 C :   -0.083340
  59 C :    0.011821
  60 O :    0.004391
  61 C :    0.024857
  62 N :    0.271989
  63 O :   -0.209091
  64 O :   -0.191226
  65 C :   -0.009055
  66 H :    0.037965
  67 H :    0.040752
  68 H :    0.029368
  69 H :    0.044926
  70 H :    0.026367
  71 H :    0.033814
  72 H :    0.036972
  73 H :    0.037571
  74 H :    0.031067
  75 H :    0.026848
  76 H :    0.022485
  77 H :    0.031860
  78 H :    0.039195
  79 H :    0.040180
  80 H :    0.015759
  81 H :    0.030631
  82 H :    0.035610
  83 H :    0.034444
  84 H :    0.032217
  85 H :    0.033472
  86 H :    0.035473
  87 H :    0.045913
  88 H :    0.027093
  89 H :    0.047179

  Mayer bond orders larger than 0.100000
B(  0-C ,  1-C ) :   1.6345 B(  0-C ,  6-C ) :   1.0064 B(  0-C , 18-C ) :   1.0756
B(  1-C ,  2-C ) :   1.1399 B(  1-C ,  4-C ) :   1.1422 B(  2-C ,  3-N ) :   2.9717
B(  4-C ,  5-N ) :   3.0033 B(  6-C ,  7-C ) :   1.2715 B(  6-C , 11-C ) :   1.4118
B(  7-C ,  8-C ) :   1.4300 B(  7-C , 16-C ) :   0.9326 B(  8-C ,  9-C ) :   1.2392
B(  8-C , 66-H ) :   1.0165 B(  9-C , 10-C ) :   1.3076 B(  9-C , 14-C ) :   1.1664
B( 10-C , 11-C ) :   1.3218 B( 10-C , 12-S ) :   1.0855 B( 11-C , 67-H ) :   0.9821
B( 12-S , 13-C ) :   1.0855 B( 13-C , 14-C ) :   1.6167 B( 13-C , 15-Br) :   1.0186
B( 14-C , 68-H ) :   0.9920 B( 16-C , 17-O ) :   2.2127 B( 16-C , 18-C ) :   0.9646
B( 18-C , 19-C ) :   1.5427 B( 19-C , 20-C ) :   1.2435 B( 19-C , 69-H ) :   0.9323
B( 20-C , 21-S ) :   1.1092 B( 20-C , 25-C ) :   1.3496 B( 21-S , 22-C ) :   1.1682
B( 22-C , 23-C ) :   1.5759 B( 22-C , 70-H ) :   0.9640 B( 23-C , 24-C ) :   1.1004
B( 23-C , 25-C ) :   1.2351 B( 24-C , 71-H ) :   0.9417 B( 24-C , 72-H ) :   0.9388
B( 24-C , 73-H ) :   0.9398 B( 25-C , 26-C ) :   1.1517 B( 26-C , 27-C ) :   1.6013
B( 26-C , 74-H ) :   0.9532 B( 27-C , 28-C ) :   1.1691 B( 27-C , 75-H ) :   0.9826
B( 28-C , 29-C ) :   1.5688 B( 28-C , 76-H ) :   0.9872 B( 29-C , 30-C ) :   1.2057
B( 29-C , 77-H ) :   0.9718 B( 30-C , 31-S ) :   1.1324 B( 30-C , 34-C ) :   1.2871
B( 31-S , 32-C ) :   1.1417 B( 32-C , 33-C ) :   1.2974 B( 32-C , 41-C ) :   1.2520
B( 33-C , 34-C ) :   1.2291 B( 33-C , 40-C ) :   1.1769 B( 34-C , 35-C ) :   1.1800
B( 35-C , 36-C ) :   1.4882 B( 35-C , 40-C ) :   0.1123 B( 35-C , 78-H ) :   0.9991
B( 36-C , 37-F ) :   1.1271 B( 36-C , 38-C ) :   1.1694 B( 38-C , 39-F ) :   1.1265
B( 38-C , 40-C ) :   1.4816 B( 40-C , 79-H ) :   0.9979 B( 41-C , 42-C ) :   1.5288
B( 41-C , 80-H ) :   0.9219 B( 42-C , 43-C ) :   1.2613 B( 42-C , 81-H ) :   0.9653
B( 43-C , 44-C ) :   1.5124 B( 43-C , 82-H ) :   0.9622 B( 44-C , 45-C ) :   1.1792
B( 44-C , 48-S ) :   1.0460 B( 45-C , 46-C ) :   1.5593 B( 45-C , 83-H ) :   0.9977
B( 46-C , 47-C ) :   1.2094 B( 46-C , 84-H ) :   0.9936 B( 47-C , 48-S ) :   1.0465
B( 47-C , 49-C ) :   1.4820 B( 49-C , 50-C ) :   1.2003 B( 49-C , 53-S ) :   1.0447
B( 50-C , 51-C ) :   1.5801 B( 50-C , 85-H ) :   0.9927 B( 51-C , 52-C ) :   1.1480
B( 51-C , 86-H ) :   1.0005 B( 52-C , 53-S ) :   1.0378 B( 52-C , 54-C ) :   1.5549
B( 54-C , 55-C ) :   1.1830 B( 54-C , 87-H ) :   0.9735 B( 55-C , 56-S ) :   1.1057
B( 55-C , 57-C ) :   0.1046 B( 55-C , 59-C ) :   1.4348 B( 56-S , 57-C ) :   1.1770
B( 57-C , 58-C ) :   1.4051 B( 57-C , 88-H ) :   0.9663 B( 58-C , 59-C ) :   1.2326
B( 58-C , 65-C ) :   1.0580 B( 59-C , 60-O ) :   1.1262 B( 60-O , 61-C ) :   1.1218
B( 61-C , 62-N ) :   0.9159 B( 61-C , 65-C ) :   1.5751 B( 62-N , 63-O ) :   1.5335
B( 62-N , 64-O ) :   1.5140 B( 63-O , 64-O ) :   0.2805 B( 65-C , 89-H ) :   1.0280

-----------------------------------------------------------------------------
         ABSORPTION SPECTRUM VIA TRANSITION ELECTRIC DIPOLE MOMENTS
-----------------------------------------------------------------------------
State   Energy  Wavelength   fosc         T2         TX        TY        TZ
        (cm-1)    (nm)                  (au**2)     (au)      (au)      (au)
-----------------------------------------------------------------------------
   0    8653.4   1155.6   0.441114518  16.78184  -2.66675   0.88887   2.97997
   1   13527.0    739.3   0.414577332  10.08976  -2.36541   1.86045  -1.01653
   2   16097.0    621.2   0.188443680   3.85400  -1.53859   0.92788  -0.79106
   3   17559.1    569.5   0.593904460  11.13497   0.31389  -2.44086   2.25358
   4   18791.4    532.2   0.219583886   3.84696   1.60706  -0.91861   0.64843
   5   20677.0    483.6   0.190940866   3.04009   1.40971  -0.71059   0.74018
   6   22005.5    454.4   0.707197300  10.57998  -0.86334  -2.67557   1.63583
   7   23416.2    427.1   0.457598061   6.43345   2.25333   1.04799  -0.50762
   8   24807.1    403.1   0.031999795   0.42466  -0.11118  -0.57468   0.28645
   9   25426.1    393.3   0.016406725   0.21243   0.34401   0.27113   0.14344
  10   26298.3    380.3   0.212033979   2.65432  -1.35718   0.30999   0.84634
  11   26846.1    372.5   0.089342260   1.09560   0.64121   0.56591  -0.60349
  12   27229.3    367.3   0.084929311   1.02683   0.41423   0.89879  -0.21775
  13   28112.6    355.7   0.127797785   1.49657  -0.96897  -0.01285  -0.74666
  14   28286.0    353.5   0.020023737   0.23305   0.34329   0.33941  -0.00214
  15   28690.6    348.5   0.031125794   0.35715  -0.58145  -0.09068   0.10418
  16   28991.3    344.9   0.149146065   1.69363   0.88316   0.76216  -0.57687
  17   29430.5    339.8   0.026636183   0.29795  -0.07492  -0.53706  -0.06248
  18   29581.9    338.0   0.074247664   0.82629  -0.22762   0.30645   0.82496
  19   29838.8    335.1   0.071267957   0.78630  -0.12837   0.43895   0.75970
  20   30646.6    326.3   0.076200874   0.81857  -0.21146   0.63120   0.61273
  21   30846.8    324.2   0.009334096   0.09962  -0.12896  -0.25865   0.12684
  22   30987.2    322.7   0.016813031   0.17862  -0.13213  -0.07260  -0.39484
  23   31137.8    321.2   0.293811672   3.10639  -1.11995   0.04981   1.36001
  24   31922.5    313.3   0.195010964   2.01112   0.50556  -0.10133   1.32108
  25   31962.5    312.9   0.151381697   1.55922  -1.22785   0.19234   0.12090
  26   32599.0    306.8   0.400417470   4.04375  -0.91090   1.03212   1.46586
  27   32875.0    304.2   0.123145195   1.23318  -0.51026   0.81848  -0.55036
  28   32989.1    303.1   0.018186060   0.18149  -0.29465  -0.30194  -0.05918
  29   33636.8    297.3   0.057813737   0.56584  -0.73565   0.03304   0.15352
  30   34027.1    293.9   0.128229526   1.24062   0.22114  -0.58539  -0.92143
  31   34570.1    289.3   0.118123681   1.12490   0.36301  -0.11242  -0.99019
  32   34796.9    287.4   0.084366002   0.79818   0.27970  -0.84429   0.08442
  33   34901.2    286.5   0.037794860   0.35651  -0.47356  -0.36003   0.05124
  34   35311.5    283.2   0.077329577   0.72095  -0.47291   0.67357   0.20881
  35   35404.9    282.4   0.047638970   0.44297  -0.21492  -0.07701   0.62518
  36   36048.8    277.4   0.045911711   0.41928   0.19578  -0.47949   0.38864
  37   36222.2    276.1   0.136294362   1.23874  -0.14376   0.21185  -1.08314
  38   36675.3    272.7   0.001548246   0.01390  -0.10963  -0.01827   0.03929
  39   37005.0    270.2   0.021343786   0.18988  -0.22833   0.25287   0.27168
  40   37266.6    268.3   0.058220094   0.51431   0.49312  -0.26624   0.44751
  41   37445.0    267.1   0.043954107   0.38644   0.62117   0.01493  -0.01918
  42   37549.9    266.3   0.007676242   0.06730   0.08631  -0.21433  -0.11796
  43   37602.4    265.9   0.066019761   0.57801  -0.50778   0.45840  -0.33173
  44   37826.1    264.4   0.033064270   0.28777   0.38871   0.33758   0.15071
  45   37918.2    263.7   0.029563179   0.25667  -0.07590  -0.33598  -0.37152
  46   38199.2    261.8   0.132098064   1.13846   0.39066  -0.90761  -0.40260
  47   38584.1    259.2   0.081974298   0.69943   0.64411  -0.12273  -0.51913
  48   38635.9    258.8   0.015585706   0.13280  -0.28551   0.22562   0.01956
  49   39061.6    256.0   0.008551027   0.07207  -0.03175  -0.04790   0.26223
  50   39145.1    255.5   0.136145644   1.14499   0.81937  -0.68618  -0.05278
  51   39369.5    254.0   0.093839642   0.78470  -0.85247  -0.23945  -0.02549
  52   39531.4    253.0   0.011644225   0.09697  -0.12394  -0.25778  -0.12313
  53   39733.4    251.7   0.066591982   0.55175   0.58855  -0.43688  -0.12039
  54   40204.9    248.7   0.008112160   0.06643   0.14031  -0.00427  -0.21615

FINAL SINGLE POINT ENERGY     -7543.519718611988

DIPOLE MOMENT
-------------
                                X             Y             Z
Electronic contribution:    -67.29459      31.70073       5.78914
Nuclear contribution   :     69.04416     -32.13726      -3.85628
                        -----------------------------------------
Total Dipole Moment    :      1.74957      -0.43653       1.93286
                        -----------------------------------------
Magnitude (a.u.)       :      2.64339
Magnitude (Debye)      :      6.71896

Rotational constants in cm-1:     0.000791     0.000620     0.000421
Rotational constants in MHz :    23.720282    18.596551    12.623072

                             ****ORCA TERMINATED NORMALLY****
TOTAL RUN TIME: 0 days 0 hours 13 minutes 23 seconds 561 msec
