                         Program Version 4.2.0 -  RELEASE  -
|  1> # ORCA input file
|  2> # SCF done       -183.432068535495          0.000999863990
|  3> ! CAM-B3LYP def2-SVP def2/J RIJCOSX Grid4 TightSCF
|  4> %maxcore 5000
|  5> %tddft
|  6>     Mode sTDDFT
|  7>     Ethresh 5.0
|  8>     maxcore 5000
|  9> end
| 10>
| 11> %pal
| 12>   nprocs 6
| 13>   end
| 14> * xyz 0 1
| 15>    C       -5.37896        -1.45731         3.46593
| 16>    C       -6.03250        -2.63412         3.73994
| 17>    C       -5.48711        -3.67759         4.51242
| 18>    N       -5.09288        -4.55215         5.14395
| 19>    C       -7.31508        -2.95925         3.25429
| 20>    N       -8.34479        -3.29198         2.86926
| 21>    C       -4.01563        -1.12236         3.86253
| 22>    C       -3.67207         0.12499         3.28671
| 23>    C       -2.44764         0.71647         3.47616
| 24>    C       -1.51334         0.04182         4.26985
| 25>    C       -1.86576        -1.20256         4.84251
| 26>    C       -3.10681        -1.79970         4.65270
| 27>    S       -0.56687        -1.85918         5.79226
| 28>    C        0.41870        -0.47256         5.40973
| 29>    C       -0.19105         0.43649         4.61289
| 30>   Br        2.15945        -0.35443         6.09927
| 31>    C       -4.81583         0.64001         2.50627
| 32>    O       -4.87766         1.71655         1.94845
| 33>    C       -5.88485        -0.37187         2.66082
| 34>    C       -7.19521        -0.15028         2.31647
| 35>    C       -7.64226         0.83038         1.40909
| 36>    S       -9.10887         1.70861         1.78738
| 37>    C       -8.90877         2.74133         0.39750
| 38>    C       -7.80780         2.32411        -0.36464
| 39>    C       -7.11359         1.25296         0.19130
| 40>    C       -5.97763         0.64998        -0.56120
| 41>    C       -5.18083         1.80492        -1.16537
| 42>    C       -6.03618         2.53354        -2.19575
| 43>    C       -7.43062         2.93488        -1.68635
| 44>    C       -8.52104         2.46705        -2.63715
| 45>    O       -8.36914         1.71514        -3.55467
| 46>    C       -9.71527         3.86291         0.17273
| 47>    C      -10.84587         4.18700         0.88626
| 48>    C      -11.58536         5.36340         0.77078
| 49>    C      -11.26982         6.52815         0.08491
| 50>    C      -12.05489         7.69752         0.06746
| 51>    C      -11.49121         8.75602        -0.59887
| 52>    C      -10.23322         8.47064        -1.14389
| 53>    S       -9.79244         6.81690        -0.80977
| 54>    C       -9.35818         9.31224        -1.83292
| 55>    C       -9.50342        10.66968        -2.13744
| 56>    C       -8.40989        11.21099        -2.77383
| 57>    C       -7.37213        10.30131        -3.00284
| 58>    S       -7.81446         8.72332        -2.39509
| 59>    C       -6.13205        10.55120        -3.59412
| 60>    C       -5.18284         9.58497        -3.81807
| 61>    C       -3.91448         9.79989        -4.35615
| 62>    C       -2.95530         8.81750        -4.63395
| 63>    C       -1.77962         9.30929        -5.14402
| 64>    C       -1.76459        10.70502        -5.27688
| 65>    S       -3.28909        11.38169        -4.75755
| 66>    C       -0.71893        11.50680        -5.72754
| 67>    C        0.53957        11.08421        -6.19429
| 68>    C        1.36740        12.11084        -6.55097
| 69>    C        0.80080        13.39286        -6.37490
| 70>    S       -0.82941        13.24934        -5.75327
| 71>    C        1.40356        14.60388        -6.62761
| 72>    C        0.78991        15.84293        -6.40455
| 73>    O       -0.48346        15.90621        -5.91696
| 74>    C        1.24658        17.14305        -6.58158
| 75>    C        2.38065        17.95058        -7.01192
| 76>    O        3.47003        17.64494        -7.42715
| 77>    N        1.93146        19.26453        -6.83775
| 78>    C        0.63805        19.39319        -6.34415
| 79>    O        0.07598        20.43533        -6.12668
| 80>    C        0.19465        18.00322        -6.17839
| 81>    C       -0.85410        17.20689        -5.77520
| 82>    C       -2.15319        17.54616        -5.27384
| 83>    C       -3.06394        16.64067        -4.91690
| 84>    H       -2.21590         1.66889         3.02565
| 85>    H       -3.33131        -2.74601         5.11587
| 86>    H        0.26999         1.34884         4.28098
| 87>    H       -7.96815        -0.69816         2.84274
| 88>    H       -6.38106         0.02532        -1.36518
| 89>    H       -5.35718         0.02252         0.07389
| 90>    H       -4.27847         1.42791        -1.64842
| 91>    H       -4.88344         2.47792        -0.35984
| 92>    H       -6.17733         1.87454        -3.05698
| 93>    H       -5.51171         3.42468        -2.54302
| 94>    H       -7.51824         4.02365        -1.60250
| 95>    H       -9.52200         2.85555        -2.37010
| 96>    H       -9.39804         4.51307        -0.62863
| 97>    H      -11.20423         3.45927         1.60392
| 98>    H      -12.51189         5.40917         1.32910
| 99>    H      -13.01225         7.73675         0.55654
|100>    H      -11.95230         9.72248        -0.69401
|101>    H      -10.38776        11.22460        -1.88109
|102>    H       -8.33719        12.24075        -3.07618
|103>    H       -5.92177        11.57296        -3.88287
|104>    H       -5.42220         8.56067        -3.55868
|105>    H       -3.14729         7.77424        -4.45582
|106>    H       -0.93749         8.69768        -5.41176
|107>    H        0.80704        10.04505        -6.25994
|108>    H        2.36611        11.98808        -6.92972
|109>    H        2.41147        14.62609        -7.01153
|110>    H        2.50927        20.06366        -7.05551
|111>    H       -2.34019        18.60808        -5.20481
|112>    H       -2.86101        15.58512        -4.99068
|113>    H       -4.02884        16.93306        -4.54294
|114> *
|115>
|116>                          ****END OF INPUT****

CARTESIAN COORDINATES (ANGSTROEM)
---------------------------------
  C     -5.378960   -1.457310    3.465930
  C     -6.032500   -2.634120    3.739940
  C     -5.487110   -3.677590    4.512420
  N     -5.092880   -4.552150    5.143950
  C     -7.315080   -2.959250    3.254290
  N     -8.344790   -3.291980    2.869260
  C     -4.015630   -1.122360    3.862530
  C     -3.672070    0.124990    3.286710
  C     -2.447640    0.716470    3.476160
  C     -1.513340    0.041820    4.269850
  C     -1.865760   -1.202560    4.842510
  C     -3.106810   -1.799700    4.652700
  S     -0.566870   -1.859180    5.792260
  C      0.418700   -0.472560    5.409730
  C     -0.191050    0.436490    4.612890
  Br     2.159450   -0.354430    6.099270
  C     -4.815830    0.640010    2.506270
  O     -4.877660    1.716550    1.948450
  C     -5.884850   -0.371870    2.660820
  C     -7.195210   -0.150280    2.316470
  C     -7.642260    0.830380    1.409090
  S     -9.108870    1.708610    1.787380
  C     -8.908770    2.741330    0.397500
  C     -7.807800    2.324110   -0.364640
  C     -7.113590    1.252960    0.191300
  C     -5.977630    0.649980   -0.561200
  C     -5.180830    1.804920   -1.165370
  C     -6.036180    2.533540   -2.195750
  C     -7.430620    2.934880   -1.686350
  C     -8.521040    2.467050   -2.637150
  O     -8.369140    1.715140   -3.554670
  C     -9.715270    3.862910    0.172730
  C    -10.845870    4.187000    0.886260
  C    -11.585360    5.363400    0.770780
  C    -11.269820    6.528150    0.084910
  C    -12.054890    7.697520    0.067460
  C    -11.491210    8.756020   -0.598870
  C    -10.233220    8.470640   -1.143890
  S     -9.792440    6.816900   -0.809770
  C     -9.358180    9.312240   -1.832920
  C     -9.503420   10.669680   -2.137440
  C     -8.409890   11.210990   -2.773830
  C     -7.372130   10.301310   -3.002840
  S     -7.814460    8.723320   -2.395090
  C     -6.132050   10.551200   -3.594120
  C     -5.182840    9.584970   -3.818070
  C     -3.914480    9.799890   -4.356150
  C     -2.955300    8.817500   -4.633950
  C     -1.779620    9.309290   -5.144020
  C     -1.764590   10.705020   -5.276880
  S     -3.289090   11.381690   -4.757550
  C     -0.718930   11.506800   -5.727540
  C      0.539570   11.084210   -6.194290
  C      1.367400   12.110840   -6.550970
  C      0.800800   13.392860   -6.374900
  S     -0.829410   13.249340   -5.753270
  C      1.403560   14.603880   -6.627610
  C      0.789910   15.842930   -6.404550
  O     -0.483460   15.906210   -5.916960
  C      1.246580   17.143050   -6.581580
  C      2.380650   17.950580   -7.011920
  O      3.470030   17.644940   -7.427150
  N      1.931460   19.264530   -6.837750
  C      0.638050   19.393190   -6.344150
  O      0.075980   20.435330   -6.126680
  C      0.194650   18.003220   -6.178390
  C     -0.854100   17.206890   -5.775200
  C     -2.153190   17.546160   -5.273840
  C     -3.063940   16.640670   -4.916900
  H     -2.215900    1.668890    3.025650
  H     -3.331310   -2.746010    5.115870
  H      0.269990    1.348840    4.280980
  H     -7.968150   -0.698160    2.842740
  H     -6.381060    0.025320   -1.365180
  H     -5.357180    0.022520    0.073890
  H     -4.278470    1.427910   -1.648420
  H     -4.883440    2.477920   -0.359840
  H     -6.177330    1.874540   -3.056980
  H     -5.511710    3.424680   -2.543020
  H     -7.518240    4.023650   -1.602500
  H     -9.522000    2.855550   -2.370100
  H     -9.398040    4.513070   -0.628630
  H    -11.204230    3.459270    1.603920
  H    -12.511890    5.409170    1.329100
  H    -13.012250    7.736750    0.556540
  H    -11.952300    9.722480   -0.694010
  H    -10.387760   11.224600   -1.881090
  H     -8.337190   12.240750   -3.076180
  H     -5.921770   11.572960   -3.882870
  H     -5.422200    8.560670   -3.558680
  H     -3.147290    7.774240   -4.455820
  H     -0.937490    8.697680   -5.411760
  H      0.807040   10.045050   -6.259940
  H      2.366110   11.988080   -6.929720
  H      2.411470   14.626090   -7.011530
  H      2.509270   20.063660   -7.055510
  H     -2.340190   18.608080   -5.204810
  H     -2.861010   15.585120   -4.990680
  H     -4.028840   16.933060   -4.542940

 Total Charge           Charge          ....    0
 Multiplicity           Mult            ....    1
 Number of Electrons    NEL             ....  546
 Basis Dimension        Dim             .... 1158

ORBITAL ENERGIES
----------------

  NO   OCC          E(Eh)            E(eV)
   0   2.0000    -482.883115    -13139.9176
   1   2.0000     -88.972029     -2421.0520
   2   2.0000     -88.962419     -2420.7905
   3   2.0000     -88.962001     -2420.7791
   4   2.0000     -88.961467     -2420.7646
   5   2.0000     -88.958690     -2420.6890
   6   2.0000     -88.957415     -2420.6543
   7   2.0000     -62.560842     -1702.3670
   8   2.0000     -56.394790     -1534.5803
   9   2.0000     -56.392078     -1534.5065
  10   2.0000     -56.392045     -1534.5055
  11   2.0000     -19.308597      -525.4136
  12   2.0000     -19.218356      -522.9581
  13   2.0000     -19.209732      -522.7234
  14   2.0000     -19.204463      -522.5800
  15   2.0000     -19.203269      -522.5475
  16   2.0000     -14.447817      -393.1451
  17   2.0000     -14.407586      -392.0504
  18   2.0000     -14.406065      -392.0090
  19   2.0000     -10.394251      -282.8419
  20   2.0000     -10.392844      -282.8037
  21   2.0000     -10.361195      -281.9425
  22   2.0000     -10.359278      -281.8903
  23   2.0000     -10.357438      -281.8402
  24   2.0000     -10.356782      -281.8224
  25   2.0000     -10.355548      -281.7888
  26   2.0000     -10.332915      -281.1729
  27   2.0000     -10.332359      -281.1578
  28   2.0000     -10.326562      -281.0000
  29   2.0000     -10.326320      -280.9935
  30   2.0000     -10.324250      -280.9371
  31   2.0000     -10.321792      -280.8702
  32   2.0000     -10.321332      -280.8577
  33   2.0000     -10.321120      -280.8519
  34   2.0000     -10.320780      -280.8427
  35   2.0000     -10.320047      -280.8228
  36   2.0000     -10.319038      -280.7953
  37   2.0000     -10.315943      -280.7111
  38   2.0000     -10.314871      -280.6819
  39   2.0000     -10.310846      -280.5724
  40   2.0000     -10.309312      -280.5307
  41   2.0000     -10.304370      -280.3962
  42   2.0000     -10.303278      -280.3665
  43   2.0000     -10.302639      -280.3491
  44   2.0000     -10.300590      -280.2933
  45   2.0000     -10.299391      -280.2607
  46   2.0000     -10.299042      -280.2512
  47   2.0000     -10.298221      -280.2288
  48   2.0000     -10.297776      -280.2167
  49   2.0000     -10.297510      -280.2095
  50   2.0000     -10.296914      -280.1933
  51   2.0000     -10.296702      -280.1875
  52   2.0000     -10.296205      -280.1740
  53   2.0000     -10.295920      -280.1662
  54   2.0000     -10.294984      -280.1407
  55   2.0000     -10.294705      -280.1332
  56   2.0000     -10.293669      -280.1050
  57   2.0000     -10.292406      -280.0706
  58   2.0000     -10.291172      -280.0370
  59   2.0000     -10.290558      -280.0203
  60   2.0000     -10.289419      -279.9893
  61   2.0000     -10.288765      -279.9715
  62   2.0000     -10.287720      -279.9431
  63   2.0000     -10.287534      -279.9380
  64   2.0000     -10.287358      -279.9333
  65   2.0000     -10.287304      -279.9318
  66   2.0000     -10.287251      -279.9303
  67   2.0000     -10.286322      -279.9051
  68   2.0000     -10.284074      -279.8439
  69   2.0000     -10.280918      -279.7580
  70   2.0000     -10.266545      -279.3669
  71   2.0000     -10.260284      -279.1965
  72   2.0000     -10.257158      -279.1114
  73   2.0000      -8.790272      -239.1955
  74   2.0000      -8.068037      -219.5424
  75   2.0000      -8.058581      -219.2851
  76   2.0000      -8.057716      -219.2616
  77   2.0000      -8.057581      -219.2579
  78   2.0000      -8.054318      -219.1691
  79   2.0000      -8.053083      -219.1355
  80   2.0000      -6.626571      -180.3182
  81   2.0000      -6.612010      -179.9219
  82   2.0000      -6.611810      -179.9165
  83   2.0000      -6.037723      -164.2948
  84   2.0000      -6.033449      -164.1785
  85   2.0000      -6.029257      -164.0644
  86   2.0000      -6.028160      -164.0346
  87   2.0000      -6.027309      -164.0114
  88   2.0000      -6.027212      -164.0088
  89   2.0000      -6.024178      -163.9262
  90   2.0000      -6.024117      -163.9246
  91   2.0000      -6.023251      -163.9010
  92   2.0000      -6.023069      -163.8960
  93   2.0000      -6.022427      -163.8786
  94   2.0000      -6.019825      -163.8078
  95   2.0000      -6.019775      -163.8064
  96   2.0000      -6.018985      -163.7849
  97   2.0000      -6.018951      -163.7840
  98   2.0000      -6.018441      -163.7701
  99   2.0000      -6.015394      -163.6872
 100   2.0000      -6.014882      -163.6733
 101   2.0000      -2.742405       -74.6246
 102   2.0000      -2.738359       -74.5145
 103   2.0000      -2.738238       -74.5113
 104   2.0000      -2.726650       -74.1959
 105   2.0000      -2.726628       -74.1953
 106   2.0000      -1.224564       -33.3221
 107   2.0000      -1.148222       -31.2447
 108   2.0000      -1.133813       -30.8526
 109   2.0000      -1.127427       -30.6788
 110   2.0000      -1.124585       -30.6015
 111   2.0000      -1.035782       -28.1851
 112   2.0000      -1.017662       -27.6920
 113   2.0000      -1.010493       -27.4969
 114   2.0000      -1.008738       -27.4491
 115   2.0000      -1.006532       -27.3891
 116   2.0000      -0.998133       -27.1606
 117   2.0000      -0.989352       -26.9216
 118   2.0000      -0.985953       -26.8291
 119   2.0000      -0.985633       -26.8204
 120   2.0000      -0.982984       -26.7483
 121   2.0000      -0.938767       -25.5452
 122   2.0000      -0.927862       -25.2484
 123   2.0000      -0.924502       -25.1570
 124   2.0000      -0.919749       -25.0277
 125   2.0000      -0.918334       -24.9891
 126   2.0000      -0.914963       -24.8974
 127   2.0000      -0.903232       -24.5782
 128   2.0000      -0.896731       -24.4013
 129   2.0000      -0.888116       -24.1669
 130   2.0000      -0.881423       -23.9847
 131   2.0000      -0.877967       -23.8907
 132   2.0000      -0.868651       -23.6372
 133   2.0000      -0.861802       -23.4508
 134   2.0000      -0.853874       -23.2351
 135   2.0000      -0.849266       -23.1097
 136   2.0000      -0.844367       -22.9764
 137   2.0000      -0.836225       -22.7548
 138   2.0000      -0.833654       -22.6849
 139   2.0000      -0.829301       -22.5664
 140   2.0000      -0.826051       -22.4780
 141   2.0000      -0.824143       -22.4261
 142   2.0000      -0.810853       -22.0644
 143   2.0000      -0.794620       -21.6227
 144   2.0000      -0.781617       -21.2689
 145   2.0000      -0.770270       -20.9601
 146   2.0000      -0.760786       -20.7021
 147   2.0000      -0.754944       -20.5431
 148   2.0000      -0.751992       -20.4628
 149   2.0000      -0.744070       -20.2472
 150   2.0000      -0.739745       -20.1295
 151   2.0000      -0.725675       -19.7466
 152   2.0000      -0.711917       -19.3722
 153   2.0000      -0.703163       -19.1340
 154   2.0000      -0.696316       -18.9477
 155   2.0000      -0.687876       -18.7181
 156   2.0000      -0.687020       -18.6948
 157   2.0000      -0.685251       -18.6466
 158   2.0000      -0.682794       -18.5798
 159   2.0000      -0.679002       -18.4766
 160   2.0000      -0.669217       -18.2103
 161   2.0000      -0.657610       -17.8945
 162   2.0000      -0.653968       -17.7954
 163   2.0000      -0.649166       -17.6647
 164   2.0000      -0.645669       -17.5695
 165   2.0000      -0.637931       -17.3590
 166   2.0000      -0.636813       -17.3286
 167   2.0000      -0.631552       -17.1854
 168   2.0000      -0.627151       -17.0656
 169   2.0000      -0.620433       -16.8828
 170   2.0000      -0.619879       -16.8678
 171   2.0000      -0.608467       -16.5572
 172   2.0000      -0.607655       -16.5351
 173   2.0000      -0.600216       -16.3327
 174   2.0000      -0.595326       -16.1996
 175   2.0000      -0.593810       -16.1584
 176   2.0000      -0.592453       -16.1215
 177   2.0000      -0.586983       -15.9726
 178   2.0000      -0.582973       -15.8635
 179   2.0000      -0.581250       -15.8166
 180   2.0000      -0.579379       -15.7657
 181   2.0000      -0.577115       -15.7041
 182   2.0000      -0.567752       -15.4493
 183   2.0000      -0.560007       -15.2386
 184   2.0000      -0.555139       -15.1061
 185   2.0000      -0.552370       -15.0307
 186   2.0000      -0.547114       -14.8877
 187   2.0000      -0.539827       -14.6894
 188   2.0000      -0.538980       -14.6664
 189   2.0000      -0.538732       -14.6596
 190   2.0000      -0.537596       -14.6287
 191   2.0000      -0.534398       -14.5417
 192   2.0000      -0.532630       -14.4936
 193   2.0000      -0.529906       -14.4195
 194   2.0000      -0.524943       -14.2844
 195   2.0000      -0.520616       -14.1667
 196   2.0000      -0.519815       -14.1449
 197   2.0000      -0.516657       -14.0590
 198   2.0000      -0.512382       -13.9426
 199   2.0000      -0.511972       -13.9315
 200   2.0000      -0.510800       -13.8996
 201   2.0000      -0.509261       -13.8577
 202   2.0000      -0.508425       -13.8350
 203   2.0000      -0.506692       -13.7878
 204   2.0000      -0.505148       -13.7458
 205   2.0000      -0.503488       -13.7006
 206   2.0000      -0.501856       -13.6562
 207   2.0000      -0.498612       -13.5679
 208   2.0000      -0.497721       -13.5437
 209   2.0000      -0.497277       -13.5316
 210   2.0000      -0.492284       -13.3957
 211   2.0000      -0.487229       -13.2582
 212   2.0000      -0.485156       -13.2018
 213   2.0000      -0.484518       -13.1844
 214   2.0000      -0.481037       -13.0897
 215   2.0000      -0.478427       -13.0187
 216   2.0000      -0.477239       -12.9863
 217   2.0000      -0.475970       -12.9518
 218   2.0000      -0.473279       -12.8786
 219   2.0000      -0.472941       -12.8694
 220   2.0000      -0.470966       -12.8156
 221   2.0000      -0.467719       -12.7273
 222   2.0000      -0.464165       -12.6306
 223   2.0000      -0.460736       -12.5373
 224   2.0000      -0.458052       -12.4642
 225   2.0000      -0.454874       -12.3777
 226   2.0000      -0.453955       -12.3527
 227   2.0000      -0.448434       -12.2025
 228   2.0000      -0.446090       -12.1387
 229   2.0000      -0.442265       -12.0346
 230   2.0000      -0.441223       -12.0063
 231   2.0000      -0.440835       -11.9957
 232   2.0000      -0.440371       -11.9831
 233   2.0000      -0.436604       -11.8806
 234   2.0000      -0.434134       -11.8134
 235   2.0000      -0.430712       -11.7203
 236   2.0000      -0.428797       -11.6682
 237   2.0000      -0.419815       -11.4238
 238   2.0000      -0.417636       -11.3645
 239   2.0000      -0.416019       -11.3205
 240   2.0000      -0.414318       -11.2742
 241   2.0000      -0.410788       -11.1781
 242   2.0000      -0.408826       -11.1247
 243   2.0000      -0.406723       -11.0675
 244   2.0000      -0.403795       -10.9878
 245   2.0000      -0.402398       -10.9498
 246   2.0000      -0.399597       -10.8736
 247   2.0000      -0.394504       -10.7350
 248   2.0000      -0.393021       -10.6947
 249   2.0000      -0.386032       -10.5045
 250   2.0000      -0.382912       -10.4196
 251   2.0000      -0.375882       -10.2283
 252   2.0000      -0.372682       -10.1412
 253   2.0000      -0.367543       -10.0014
 254   2.0000      -0.363150        -9.8818
 255   2.0000      -0.357603        -9.7309
 256   2.0000      -0.353722        -9.6253
 257   2.0000      -0.348591        -9.4856
 258   2.0000      -0.347732        -9.4623
 259   2.0000      -0.341643        -9.2966
 260   2.0000      -0.339051        -9.2260
 261   2.0000      -0.339038        -9.2257
 262   2.0000      -0.334709        -9.1079
 263   2.0000      -0.334257        -9.0956
 264   2.0000      -0.331285        -9.0147
 265   2.0000      -0.316640        -8.6162
 266   2.0000      -0.311454        -8.4751
 267   2.0000      -0.308032        -8.3820
 268   2.0000      -0.294828        -8.0227
 269   2.0000      -0.288725        -7.8566
 270   2.0000      -0.270380        -7.3574
 271   2.0000      -0.241738        -6.5780
 272   2.0000      -0.198091        -5.3903
 273   0.0000      -0.124210        -3.3799
 274   0.0000      -0.086287        -2.3480
 275   0.0000      -0.066397        -1.8068
 276   0.0000      -0.052636        -1.4323
 277   0.0000      -0.033674        -0.9163

MULLIKEN ATOMIC CHARGES
-----------------------
   0 C :    0.297819
   1 C :   -0.343438
   2 C :   -0.183271
   3 N :    0.139983
   4 C :   -0.210949
   5 N :    0.161691
   6 C :    0.021154
   7 C :   -0.014895
   8 C :   -0.073533
   9 C :    0.115772
  10 C :   -0.089002
  11 C :   -0.024283
  12 S :    0.183710
  13 C :   -0.125484
  14 C :    0.040633
  15 Br:    0.019519
  16 C :    0.136374
  17 O :   -0.156341
  18 C :   -0.120193
  19 C :    0.011021
  20 C :   -0.156541
  21 S :    0.129798
  22 C :   -0.065152
  23 C :   -0.083979
  24 C :    0.017657
  25 C :    0.147949
  26 C :    0.009631
  27 C :    0.080093
  28 C :   -0.024715
  29 C :    0.147911
  30 O :   -0.172922
  31 C :   -0.047309
  32 C :    0.012998
  33 C :    0.001969
  34 C :   -0.022200
  35 C :    0.030921
  36 C :    0.025803
  37 C :   -0.032115
  38 S :    0.053597
  39 C :   -0.030571
  40 C :    0.013371
  41 C :    0.033594
  42 C :   -0.031244
  43 S :    0.084211
  44 C :    0.003569
  45 C :   -0.010529
  46 C :   -0.022678
  47 C :    0.028084
  48 C :    0.018964
  49 C :   -0.041737
  50 S :    0.096286
  51 C :   -0.040758
  52 C :    0.023767
  53 C :    0.033426
  54 C :   -0.008349
  55 S :    0.109111
  56 C :   -0.044207
  57 C :    0.090954
  58 O :   -0.236420
  59 C :   -0.030690
  60 C :    0.155345
  61 O :   -0.147909
  62 N :   -0.168596
  63 C :    0.163635
  64 O :   -0.146844
  65 C :   -0.037855
  66 C :    0.069371
  67 C :   -0.025878
  68 C :    0.016391
  69 H :   -0.015769
  70 H :   -0.008214
  71 H :   -0.006109
  72 H :    0.035069
  73 H :    0.023886
  74 H :   -0.001584
  75 H :   -0.001279
  76 H :    0.026216
  77 H :    0.016140
  78 H :   -0.002908
  79 H :    0.031423
  80 H :    0.007595
  81 H :    0.008335
  82 H :   -0.002015
  83 H :   -0.011141
  84 H :   -0.009822
  85 H :   -0.011543
  86 H :   -0.009904
  87 H :   -0.008600
  88 H :   -0.003555
  89 H :   -0.001047
  90 H :   -0.006919
  91 H :   -0.009253
  92 H :   -0.009623
  93 H :   -0.005218
  94 H :    0.008515
  95 H :    0.136387
  96 H :    0.016219
  97 H :    0.031973
  98 H :    0.027256
Sum of atomic charges:   -0.0000000

LOEWDIN ATOMIC CHARGES
----------------------
   0 C :    0.072845
   1 C :   -0.147052
   2 C :   -0.018779
   3 N :   -0.060008
   4 C :   -0.025697
   5 N :   -0.055348
   6 C :   -0.019434
   7 C :   -0.049614
   8 C :    0.018692
   9 C :   -0.034844
  10 C :   -0.144831
  11 C :   -0.011086
  12 S :    0.430986
  13 C :   -0.273119
  14 C :   -0.071070
  15 Br:    0.133550
  16 C :    0.080009
  17 O :   -0.146196
  18 C :   -0.110273
  19 C :    0.050824
  20 C :   -0.181152
  21 S :    0.434192
  22 C :   -0.139528
  23 C :   -0.052622
  24 C :    0.003177
  25 C :   -0.020783
  26 C :   -0.023513
  27 C :   -0.025766
  28 C :   -0.062908
  29 C :    0.122305
  30 O :   -0.117744
  31 C :   -0.070980
  32 C :   -0.022382
  33 C :   -0.062473
  34 C :   -0.138015
  35 C :   -0.035324
  36 C :   -0.035357
  37 C :   -0.184937
  38 S :    0.401934
  39 C :   -0.167547
  40 C :   -0.038181
  41 C :   -0.030815
  42 C :   -0.149757
  43 S :    0.390806
  44 C :   -0.048854
  45 C :   -0.057522
  46 C :   -0.145343
  47 C :   -0.032882
  48 C :   -0.033660
  49 C :   -0.170622
  50 S :    0.390419
  51 C :   -0.182630
  52 C :   -0.026614
  53 C :   -0.034035
  54 C :   -0.131131
  55 S :    0.403838
  56 C :   -0.075177
  57 C :    0.065128
  58 O :    0.002093
  59 C :   -0.103961
  60 C :    0.082502
  61 O :   -0.166906
  62 N :   -0.008426
  63 C :    0.083477
  64 O :   -0.163326
  65 C :   -0.094541
  66 C :    0.067522
  67 C :   -0.039300
  68 C :   -0.015484
  69 H :    0.038979
  70 H :    0.040680
  71 H :    0.037750
  72 H :    0.044769
  73 H :    0.039014
  74 H :    0.028386
  75 H :    0.023705
  76 H :    0.025061
  77 H :    0.025441
  78 H :    0.024719
  79 H :    0.041552
  80 H :   -0.001764
  81 H :    0.008397
  82 H :    0.028758
  83 H :    0.036678
  84 H :    0.034628
  85 H :    0.033098
  86 H :    0.033446
  87 H :    0.035462
  88 H :    0.030866
  89 H :    0.029203
  90 H :    0.035873
  91 H :    0.033526
  92 H :    0.033258
  93 H :    0.036529
  94 H :    0.050796
  95 H :    0.093180
  96 H :    0.046868
  97 H :    0.024957
  98 H :    0.029437

  Mayer bond orders larger than 0.100000
B(  0-C ,  1-C ) :   1.6267 B(  0-C ,  6-C ) :   1.0041 B(  0-C , 18-C ) :   1.0859
B(  1-C ,  2-C ) :   1.1407 B(  1-C ,  4-C ) :   1.1466 B(  2-C ,  3-N ) :   2.9673
B(  4-C ,  5-N ) :   2.9990 B(  6-C ,  7-C ) :   1.2761 B(  6-C , 11-C ) :   1.4121
B(  7-C ,  8-C ) :   1.4284 B(  7-C , 16-C ) :   0.9379 B(  8-C ,  9-C ) :   1.2405
B(  8-C , 69-H ) :   1.0168 B(  9-C , 10-C ) :   1.3135 B(  9-C , 14-C ) :   1.1618
B( 10-C , 11-C ) :   1.3227 B( 10-C , 12-S ) :   1.0838 B( 11-C , 70-H ) :   0.9815
B( 12-S , 13-C ) :   1.0876 B( 13-C , 14-C ) :   1.6177 B( 13-C , 15-Br) :   1.0161
B( 14-C , 71-H ) :   1.0005 B( 16-C , 17-O ) :   2.1741 B( 16-C , 18-C ) :   0.9650
B( 18-C , 19-C ) :   1.5526 B( 19-C , 20-C ) :   1.2032 B( 19-C , 72-H ) :   0.9363
B( 20-C , 21-S ) :   1.0715 B( 20-C , 24-C ) :   1.4273 B( 21-S , 22-C ) :   1.1246
B( 22-C , 23-C ) :   1.3713 B( 22-C , 31-C ) :   1.2652 B( 23-C , 24-C ) :   1.3869
B( 23-C , 28-C ) :   1.0132 B( 24-C , 25-C ) :   1.0713 B( 25-C , 26-C ) :   1.0750
B( 25-C , 73-H ) :   0.9105 B( 25-C , 74-H ) :   0.9025 B( 26-C , 27-C ) :   1.1174
B( 26-C , 75-H ) :   0.9364 B( 26-C , 76-H ) :   0.9383 B( 27-C , 28-C ) :   1.0329
B( 27-C , 77-H ) :   0.9134 B( 27-C , 78-H ) :   0.9282 B( 28-C , 29-C ) :   0.8933
B( 28-C , 79-H ) :   0.8782 B( 29-C , 30-O ) :   2.1929 B( 29-C , 80-H ) :   0.9447
B( 31-C , 32-C ) :   1.5132 B( 31-C , 81-H ) :   0.9323 B( 32-C , 33-C ) :   1.2829
B( 32-C , 82-H ) :   0.9687 B( 33-C , 34-C ) :   1.4721 B( 33-C , 83-H ) :   0.9621
B( 34-C , 35-C ) :   1.2075 B( 34-C , 38-S ) :   1.0577 B( 35-C , 36-C ) :   1.5158
B( 35-C , 84-H ) :   0.9990 B( 36-C , 37-C ) :   1.2552 B( 36-C , 85-H ) :   0.9943
B( 37-C , 38-S ) :   1.0571 B( 37-C , 39-C ) :   1.3926 B( 39-C , 40-C ) :   1.2682
B( 39-C , 43-S ) :   1.0712 B( 40-C , 41-C ) :   1.4893 B( 40-C , 86-H ) :   0.9960
B( 41-C , 42-C ) :   1.2336 B( 41-C , 87-H ) :   1.0006 B( 42-C , 43-S ) :   1.0580
B( 42-C , 44-C ) :   1.4368 B( 44-C , 45-C ) :   1.2899 B( 44-C , 88-H ) :   0.9744
B( 45-C , 46-C ) :   1.4443 B( 45-C , 89-H ) :   0.9692 B( 46-C , 47-C ) :   1.2226
B( 46-C , 50-S ) :   1.0589 B( 47-C , 48-C ) :   1.5040 B( 47-C , 90-H ) :   1.0015
B( 48-C , 49-C ) :   1.2489 B( 48-C , 91-H ) :   0.9953 B( 49-C , 50-S ) :   1.0637
B( 49-C , 51-C ) :   1.4290 B( 51-C , 52-C ) :   1.2267 B( 51-C , 55-S ) :   1.0400
B( 52-C , 53-C ) :   1.5496 B( 52-C , 92-H ) :   0.9965 B( 53-C , 54-C ) :   1.1639
B( 53-C , 93-H ) :   1.0019 B( 54-C , 55-S ) :   1.0627 B( 54-C , 56-C ) :   1.5021
B( 56-C , 57-C ) :   1.2367 B( 56-C , 94-H ) :   0.9632 B( 57-C , 58-O ) :   1.1194
B( 57-C , 59-C ) :   1.3611 B( 58-O , 66-C ) :   1.1337 B( 59-C , 60-C ) :   0.8979
B( 59-C , 65-C ) :   1.2779 B( 60-C , 61-O ) :   2.2637 B( 60-C , 62-N ) :   1.0660
B( 62-N , 63-C ) :   1.0854 B( 62-N , 95-H ) :   0.9143 B( 63-C , 64-O ) :   2.2650
B( 63-C , 65-C ) :   0.8735 B( 65-C , 66-C ) :   1.4336 B( 66-C , 67-C ) :   1.1541
B( 67-C , 68-C ) :   1.8874 B( 67-C , 96-H ) :   0.9520 B( 68-C , 97-H ) :   0.9572
B( 68-C , 98-H ) :   0.9445

-----------------------------------------------------------------------------
         ABSORPTION SPECTRUM VIA TRANSITION ELECTRIC DIPOLE MOMENTS
-----------------------------------------------------------------------------
State   Energy  Wavelength   fosc         T2         TX        TY        TZ
        (cm-1)    (nm)                  (au**2)     (au)      (au)      (au)
-----------------------------------------------------------------------------
   0    4864.3   2055.8   0.772576925  52.28695  -3.58668  -5.30147   3.36408
   1   11999.7    833.4   0.034123556   0.93618  -0.87658   0.37357  -0.16804
   2   14220.1    703.2   0.672267943  15.56380   3.62000  -1.33800   0.81804
   3   17512.4    571.0   0.027227398   0.51184   0.64141   0.31205  -0.05534
   4   19161.5    521.9   0.132118046   2.26991   0.77923  -1.26401   0.25495
   5   20812.2    480.5   0.488925842   7.73395  -1.99911   1.91424  -0.27056
   6   22389.5    446.6   0.209786062   3.08466   1.23013  -1.20267   0.35358
   7   23167.9    431.6   0.015022832   0.21347  -0.23562   0.39632   0.02973
   8   23898.7    418.4   0.086824508   1.19604   0.72566   0.75040  -0.32611
   9   25210.5    396.7   0.384422710   5.02000   1.26977  -1.75949  -0.55845
  10   25965.0    385.1   0.056675056   0.71859  -0.74744  -0.20834  -0.34135
  11   26281.3    380.5   0.351083423   4.39783   1.26378  -1.39920  -0.91812
  12   26601.4    375.9   0.074834081   0.92613  -0.91998   0.27817  -0.04879
  13   27833.6    359.3   0.031004391   0.36672   0.15148   0.58489  -0.04082
  14   28595.7    349.7   0.037974641   0.43719  -0.59180  -0.22268   0.19331
  15   28984.0    345.0   0.061652895   0.70028   0.17620   0.81806  -0.00205
  16   29264.4    341.7   0.002500889   0.02813  -0.12663   0.10843   0.01848
  17   29376.9    340.4   0.002977219   0.03336   0.15092  -0.10038  -0.02261
  18   29600.4    337.8   0.008863212   0.09858   0.10037  -0.14921   0.25737
  19   30119.0    332.0   0.048895727   0.53445   0.66337  -0.20861   0.22556
  20   30555.0    327.3   0.121151934   1.30534  -0.60945  -0.65004  -0.71509
  21   31072.0    321.8   0.354728893   3.75840   1.76831   0.69107   0.39229
  22   31423.8    318.2   0.025102517   0.26299   0.25040   0.44017   0.08083
  23   31961.3    312.9   0.046848691   0.48256  -0.27004   0.59363   0.23924
  24   32179.9    310.8   0.000848222   0.00868  -0.05825  -0.03594   0.06319
  25   32404.0    308.6   0.050063640   0.50863  -0.34856   0.26470  -0.56309
  26   32498.4    307.7   0.026927396   0.27278   0.00187   0.49710  -0.16021
  27   32639.0    306.4   0.093477114   0.94285  -0.83353  -0.29932  -0.39812
  28   32986.5    303.2   0.005112904   0.05103   0.00073   0.06404  -0.21662
  29   33085.6    302.2   0.004985403   0.04961  -0.18261  -0.12048   0.04178
  30   33317.3    300.1   0.112236842   1.10902  -1.02721  -0.22445   0.05912
  31   33595.1    297.7   0.000465483   0.00456  -0.03929   0.01365  -0.05321
  32   33826.3    295.6   0.020355718   0.19811   0.31069   0.28730  -0.13798
  33   33962.5    294.4   0.003160654   0.03064  -0.11290   0.13303  -0.01394
  34   34184.6    292.5   0.017820349   0.17162  -0.40433  -0.04420   0.07860
  35   34525.9    289.6   0.003830871   0.03653  -0.15065  -0.07573  -0.08998
  36   34906.9    286.5   0.082406530   0.77719  -0.83544   0.10024  -0.26302
  37   35035.0    285.4   0.144714404   1.35983  -0.67738  -0.84375   0.43482
  38   35453.6    282.1   0.236502368   2.19610   0.89766   1.17343  -0.11560
  39   36021.2    277.6   0.010601355   0.09689  -0.28902  -0.11310   0.02378
  40   36748.9    272.1   0.006590477   0.05904  -0.19129   0.13553   0.06386
  41   37021.1    270.1   0.087391021   0.77713   0.87186  -0.04954   0.12055
  42   37196.6    268.8   0.077381326   0.68487  -0.59698  -0.57312  -0.00381
  43   38049.2    262.8   0.030772421   0.26625  -0.03546  -0.21420   0.46810
  44   38176.8    261.9   0.047303138   0.40791  -0.18273   0.33738  -0.51059
  45   38503.6    259.7   0.009082527   0.07766  -0.04550  -0.13772   0.23795
  46   39132.4    255.5   0.046569648   0.39178  -0.48775   0.30167   0.25075
  47   39242.9    254.8   0.025624155   0.21496   0.10278   0.35332  -0.28206
  48   39648.3    252.2   0.068289468   0.56703  -0.42554   0.37443  -0.49573
  49   39888.9    250.7   0.036924471   0.30475   0.37529  -0.25892  -0.31123
  50   39995.4    250.0   0.001775768   0.01462   0.06596  -0.03954   0.09329
  51   40196.3    248.8   0.031893739   0.26121  -0.04931   0.33233  -0.38515
  52   40288.2    248.2   0.046602908   0.38081  -0.03485  -0.47169   0.39636

FINAL SINGLE POINT ENERGY     -7575.151450748936

DIPOLE MOMENT
-------------
                                X             Y             Z
Electronic contribution:     89.41749     -82.85731      96.72670
Nuclear contribution   :    -89.50887      85.82944     -97.31107
                        -----------------------------------------
Total Dipole Moment    :     -0.09138       2.97213      -0.58436
                        -----------------------------------------
Magnitude (a.u.)       :      3.03041
Magnitude (Debye)      :      7.70270

Rotational constants in cm-1:     0.000802     0.000233     0.000190
Rotational constants in MHz :    24.033294     6.978366     5.691402

                             ****ORCA TERMINATED NORMALLY****
TOTAL RUN TIME: 0 days 0 hours 11 minutes 29 seconds 309 msec
