                         Program Version 4.2.0 -  RELEASE  -
|  1> # ORCA input file
|  2> # SCF done       -198.039123868495          0.000697501461
|  3> ! CAM-B3LYP def2-SVP def2/J RIJCOSX Grid4 TightSCF
|  4> %maxcore 5000
|  5> %tddft
|  6>     Mode sTDDFT
|  7>     Ethresh 5.0
|  8>     maxcore 5000
|  9> end
| 10>
| 11> %pal
| 12>   nprocs 6
| 13>   end
| 14> * xyz 0 1
| 15>    C       -6.08123        -1.04888        -2.56934
| 16>    C       -4.99025        -1.76689        -2.97458
| 17>    C       -5.05081        -3.09826        -3.43959
| 18>    N       -5.04852        -4.17769        -3.82857
| 19>    C       -3.68455        -1.24180        -3.06007
| 20>    N       -2.60876        -0.86181        -3.18661
| 21>    C       -7.46619        -1.49884        -2.58845
| 22>    C       -8.31736        -0.38822        -2.35344
| 23>    C       -9.68490        -0.49922        -2.29950
| 24>    C      -10.24132        -1.76955        -2.48271
| 25>    C       -9.38538        -2.87266        -2.72404
| 26>    C       -8.00259        -2.75974        -2.78096
| 27>    S      -10.28366        -4.34679        -2.92136
| 28>    C      -11.77447        -3.47518        -2.68030
| 29>    C      -11.61077        -2.14828        -2.46239
| 30>   Br      -13.40447        -4.39865        -2.74224
| 31>    C       -7.49505         0.82444        -2.17690
| 32>    O       -7.86034         1.97480        -2.20064
| 33>    C       -6.08609         0.33404        -2.10803
| 34>    C       -5.05712         1.08049        -1.66090
| 35>    C       -5.23151         2.42338        -1.12276
| 36>    C       -4.58946         3.47235        -1.78950
| 37>    C       -4.76345         4.79015        -1.42897
| 38>    C       -5.57686         5.11999        -0.34965
| 39>    C       -6.18507         4.10219         0.34700
| 40>    C       -6.01711         2.75831        -0.02025
| 41>    N       -6.64353         1.94514         0.90884
| 42>    C       -6.62945         0.51194         0.96683
| 43>    C       -7.26766         2.68358         1.88672
| 44>    O       -7.82842         2.22040         2.84734
| 45>    C       -7.09092         4.15657         1.53788
| 46>    C       -8.46784         4.76993         1.19562
| 47>    C       -9.06350         4.02759        -0.00639
| 48>    O       -9.39909         2.86739        -0.04696
| 49>    N       -9.14419         4.91450        -1.04059
| 50>    C       -9.58657         4.56231        -2.36099
| 51>    C       -8.71769         6.17841        -0.66382
| 52>    C       -8.63725         7.32473        -1.42387
| 53>    C       -8.16319         8.50238        -0.82533
| 54>    C       -7.81030         8.48329         0.52857
| 55>    C       -7.89671         7.32537         1.28551
| 56>    C       -8.34431         6.16851         0.68609
| 57>    C       -8.05814         9.68683        -1.65229
| 58>    C       -7.55202        10.87610        -1.27416
| 59>    C       -7.43118        12.04152        -2.09014
| 60>    S       -7.31424        13.57888        -1.28519
| 61>    C       -7.29862        14.40359        -2.78996
| 62>    C       -7.38124        13.57180        -3.86110
| 63>    C       -7.32447        14.07498        -5.26624
| 64>    C       -7.44908        12.19439        -3.47317
| 65>    C       -7.42018        11.07888        -4.38031
| 66>    C       -8.03575        11.04144        -5.58674
| 67>    C       -7.99267         9.97054        -6.51889
| 68>    C       -7.21725         8.84860        -6.45253
| 69>    C       -7.25924         7.84360        -7.43067
| 70>    C       -6.51175         6.69253        -7.42134
| 71>    C       -6.56785         5.64310        -8.37052
| 72>    C       -5.74530         4.59346        -8.09788
| 73>    C       -4.97731         4.75733        -6.92275
| 74>    S       -5.33586         6.29784        -6.17349
| 75>    C       -4.08514         3.86249        -6.36749
| 76>    C       -3.82880         2.53071        -6.76558
| 77>    C       -2.97516         1.86271        -5.94392
| 78>    C       -2.49336         2.63116        -4.85220
| 79>    S       -3.13845         4.26315        -4.94682
| 80>    C       -1.70975         2.15883        -3.83409
| 81>    C       -1.24841         2.86639        -2.71019
| 82>    S       -1.36315         4.60263        -2.50043
| 83>    C       -0.61812         4.53974        -0.94814
| 84>    C       -0.29478         3.26212        -0.60483
| 85>    C       -0.64259         2.31236        -1.59340
| 86>    S       -0.30211         0.64709        -1.23216
| 87>    C        0.40309         0.94333         0.34502
| 88>    S        0.96822        -0.25746         1.28760
| 89>    S        0.45624         2.63066         0.83884
| 90>    H      -10.30079         0.36344        -2.10020
| 91>    H       -7.39139        -3.62956        -2.95627
| 92>    H      -12.42085        -1.46300        -2.29211
| 93>    H       -4.03816         0.72023        -1.73929
| 94>    H       -3.98036         3.22503        -2.64236
| 95>    H       -4.26866         5.56446        -1.99405
| 96>    H       -5.71570         6.14985        -0.06043
| 97>    H       -5.62334         0.13093         0.78189
| 98>    H       -7.32345         0.08016         0.24104
| 99>    H       -6.95548         0.23154         1.96944
|100>    H       -6.66221         4.70303         2.38196
|101>    H       -9.11834         4.66515         2.06823
|102>    H       -9.74197         3.48572        -2.37277
|103>    H       -8.81907         4.81630        -3.09364
|104>    H      -10.51670         5.07911        -2.60889
|105>    H       -8.91914         7.32534        -2.46569
|106>    H       -7.46256         9.38617         1.00373
|107>    H       -7.61275         7.33336         2.32732
|108>    H       -8.44272         9.57784        -2.65718
|109>    H       -7.23551        11.02276        -0.25010
|110>    H       -7.21916        15.47305        -2.79951
|111>    H       -6.86018        15.05830        -5.29013
|112>    H       -8.32640        14.16757        -5.68525
|113>    H       -6.75089        13.39473        -5.89233
|114>    H       -6.86432        10.21645        -4.03627
|115>    H       -8.66732        11.87248        -5.86654
|116>    H       -8.64404        10.07069        -7.37902
|117>    H       -6.53361         8.70314        -5.62683
|118>    H       -7.94301         7.97305        -8.26061
|119>    H       -7.22300         5.69673        -9.22233
|120>    H       -5.66279         3.71356        -8.71023
|121>    H       -4.30190         2.09562        -7.62763
|122>    H       -2.68128         0.83548        -6.06702
|123>    H       -1.45504         1.10696        -3.85682
|124>    H       -0.46201         5.43810        -0.38865
|125> *
|126>
|127>                          ****END OF INPUT****

CARTESIAN COORDINATES (ANGSTROEM)
---------------------------------
  C     -6.081230   -1.048880   -2.569340
  C     -4.990250   -1.766890   -2.974580
  C     -5.050810   -3.098260   -3.439590
  N     -5.048520   -4.177690   -3.828570
  C     -3.684550   -1.241800   -3.060070
  N     -2.608760   -0.861810   -3.186610
  C     -7.466190   -1.498840   -2.588450
  C     -8.317360   -0.388220   -2.353440
  C     -9.684900   -0.499220   -2.299500
  C    -10.241320   -1.769550   -2.482710
  C     -9.385380   -2.872660   -2.724040
  C     -8.002590   -2.759740   -2.780960
  S    -10.283660   -4.346790   -2.921360
  C    -11.774470   -3.475180   -2.680300
  C    -11.610770   -2.148280   -2.462390
  Br   -13.404470   -4.398650   -2.742240
  C     -7.495050    0.824440   -2.176900
  O     -7.860340    1.974800   -2.200640
  C     -6.086090    0.334040   -2.108030
  C     -5.057120    1.080490   -1.660900
  C     -5.231510    2.423380   -1.122760
  C     -4.589460    3.472350   -1.789500
  C     -4.763450    4.790150   -1.428970
  C     -5.576860    5.119990   -0.349650
  C     -6.185070    4.102190    0.347000
  C     -6.017110    2.758310   -0.020250
  N     -6.643530    1.945140    0.908840
  C     -6.629450    0.511940    0.966830
  C     -7.267660    2.683580    1.886720
  O     -7.828420    2.220400    2.847340
  C     -7.090920    4.156570    1.537880
  C     -8.467840    4.769930    1.195620
  C     -9.063500    4.027590   -0.006390
  O     -9.399090    2.867390   -0.046960
  N     -9.144190    4.914500   -1.040590
  C     -9.586570    4.562310   -2.360990
  C     -8.717690    6.178410   -0.663820
  C     -8.637250    7.324730   -1.423870
  C     -8.163190    8.502380   -0.825330
  C     -7.810300    8.483290    0.528570
  C     -7.896710    7.325370    1.285510
  C     -8.344310    6.168510    0.686090
  C     -8.058140    9.686830   -1.652290
  C     -7.552020   10.876100   -1.274160
  C     -7.431180   12.041520   -2.090140
  S     -7.314240   13.578880   -1.285190
  C     -7.298620   14.403590   -2.789960
  C     -7.381240   13.571800   -3.861100
  C     -7.324470   14.074980   -5.266240
  C     -7.449080   12.194390   -3.473170
  C     -7.420180   11.078880   -4.380310
  C     -8.035750   11.041440   -5.586740
  C     -7.992670    9.970540   -6.518890
  C     -7.217250    8.848600   -6.452530
  C     -7.259240    7.843600   -7.430670
  C     -6.511750    6.692530   -7.421340
  C     -6.567850    5.643100   -8.370520
  C     -5.745300    4.593460   -8.097880
  C     -4.977310    4.757330   -6.922750
  S     -5.335860    6.297840   -6.173490
  C     -4.085140    3.862490   -6.367490
  C     -3.828800    2.530710   -6.765580
  C     -2.975160    1.862710   -5.943920
  C     -2.493360    2.631160   -4.852200
  S     -3.138450    4.263150   -4.946820
  C     -1.709750    2.158830   -3.834090
  C     -1.248410    2.866390   -2.710190
  S     -1.363150    4.602630   -2.500430
  C     -0.618120    4.539740   -0.948140
  C     -0.294780    3.262120   -0.604830
  C     -0.642590    2.312360   -1.593400
  S     -0.302110    0.647090   -1.232160
  C      0.403090    0.943330    0.345020
  S      0.968220   -0.257460    1.287600
  S      0.456240    2.630660    0.838840
  H    -10.300790    0.363440   -2.100200
  H     -7.391390   -3.629560   -2.956270
  H    -12.420850   -1.463000   -2.292110
  H     -4.038160    0.720230   -1.739290
  H     -3.980360    3.225030   -2.642360
  H     -4.268660    5.564460   -1.994050
  H     -5.715700    6.149850   -0.060430
  H     -5.623340    0.130930    0.781890
  H     -7.323450    0.080160    0.241040
  H     -6.955480    0.231540    1.969440
  H     -6.662210    4.703030    2.381960
  H     -9.118340    4.665150    2.068230
  H     -9.741970    3.485720   -2.372770
  H     -8.819070    4.816300   -3.093640
  H    -10.516700    5.079110   -2.608890
  H     -8.919140    7.325340   -2.465690
  H     -7.462560    9.386170    1.003730
  H     -7.612750    7.333360    2.327320
  H     -8.442720    9.577840   -2.657180
  H     -7.235510   11.022760   -0.250100
  H     -7.219160   15.473050   -2.799510
  H     -6.860180   15.058300   -5.290130
  H     -8.326400   14.167570   -5.685250
  H     -6.750890   13.394730   -5.892330
  H     -6.864320   10.216450   -4.036270
  H     -8.667320   11.872480   -5.866540
  H     -8.644040   10.070690   -7.379020
  H     -6.533610    8.703140   -5.626830
  H     -7.943010    7.973050   -8.260610
  H     -7.223000    5.696730   -9.222330
  H     -5.662790    3.713560   -8.710230
  H     -4.301900    2.095620   -7.627630
  H     -2.681280    0.835480   -6.067020
  H     -1.455040    1.106960   -3.856820
  H     -0.462010    5.438100   -0.388650

 Total Charge           Charge          ....    0
 Multiplicity           Mult            ....    1
 Number of Electrons    NEL             ....  604
 Basis Dimension        Dim             .... 1275

ORBITAL ENERGIES
----------------

  NO   OCC          E(Eh)            E(eV)
   0   2.0000    -482.888115    -13140.0536
   1   2.0000     -88.978884     -2421.2385
   2   2.0000     -88.964297     -2420.8416
   3   2.0000     -88.961860     -2420.7753
   4   2.0000     -88.960661     -2420.7427
   5   2.0000     -88.949195     -2420.4306
   6   2.0000     -88.948365     -2420.4081
   7   2.0000     -88.945584     -2420.3324
   8   2.0000     -88.883552     -2418.6444
   9   2.0000     -62.565837     -1702.5030
  10   2.0000     -56.399792     -1534.7164
  11   2.0000     -56.397065     -1534.6422
  12   2.0000     -56.397038     -1534.6414
  13   2.0000     -19.220085      -523.0051
  14   2.0000     -19.183560      -522.0112
  15   2.0000     -19.183037      -521.9970
  16   2.0000     -14.446176      -393.1004
  17   2.0000     -14.445331      -393.0775
  18   2.0000     -14.427748      -392.5990
  19   2.0000     -14.421654      -392.4332
  20   2.0000     -10.369738      -282.1749
  21   2.0000     -10.366289      -282.0811
  22   2.0000     -10.365691      -282.0648
  23   2.0000     -10.365351      -282.0555
  24   2.0000     -10.362338      -281.9735
  25   2.0000     -10.350084      -281.6401
  26   2.0000     -10.349339      -281.6198
  27   2.0000     -10.331220      -281.1268
  28   2.0000     -10.329850      -281.0895
  29   2.0000     -10.324130      -280.9339
  30   2.0000     -10.317081      -280.7420
  31   2.0000     -10.315472      -280.6983
  32   2.0000     -10.313863      -280.6545
  33   2.0000     -10.312926      -280.6290
  34   2.0000     -10.312277      -280.6113
  35   2.0000     -10.311862      -280.6000
  36   2.0000     -10.311130      -280.5801
  37   2.0000     -10.311117      -280.5798
  38   2.0000     -10.310474      -280.5623
  39   2.0000     -10.309994      -280.5492
  40   2.0000     -10.309772      -280.5432
  41   2.0000     -10.308224      -280.5010
  42   2.0000     -10.306595      -280.4567
  43   2.0000     -10.303638      -280.3762
  44   2.0000     -10.302354      -280.3413
  45   2.0000     -10.300863      -280.3007
  46   2.0000     -10.299357      -280.2597
  47   2.0000     -10.298575      -280.2385
  48   2.0000     -10.297117      -280.1988
  49   2.0000     -10.296623      -280.1854
  50   2.0000     -10.292699      -280.0786
  51   2.0000     -10.290699      -280.0242
  52   2.0000     -10.290074      -280.0072
  53   2.0000     -10.288422      -279.9622
  54   2.0000     -10.287110      -279.9265
  55   2.0000     -10.286847      -279.9193
  56   2.0000     -10.283762      -279.8354
  57   2.0000     -10.283379      -279.8250
  58   2.0000     -10.283085      -279.8170
  59   2.0000     -10.282499      -279.8010
  60   2.0000     -10.282142      -279.7913
  61   2.0000     -10.281129      -279.7637
  62   2.0000     -10.281046      -279.7615
  63   2.0000     -10.277150      -279.6555
  64   2.0000     -10.277123      -279.6547
  65   2.0000     -10.276948      -279.6500
  66   2.0000     -10.276135      -279.6278
  67   2.0000     -10.275855      -279.6202
  68   2.0000     -10.275575      -279.6126
  69   2.0000     -10.274763      -279.5905
  70   2.0000     -10.273196      -279.5479
  71   2.0000     -10.272228      -279.5215
  72   2.0000     -10.271891      -279.5124
  73   2.0000     -10.270588      -279.4769
  74   2.0000     -10.270025      -279.4616
  75   2.0000     -10.267597      -279.3955
  76   2.0000     -10.267252      -279.3861
  77   2.0000     -10.264598      -279.3139
  78   2.0000     -10.259113      -279.1647
  79   2.0000      -8.795274      -239.3316
  80   2.0000      -8.074908      -219.7294
  81   2.0000      -8.058942      -219.2950
  82   2.0000      -8.057401      -219.2530
  83   2.0000      -8.056831      -219.2375
  84   2.0000      -8.044669      -218.9066
  85   2.0000      -8.044553      -218.9034
  86   2.0000      -8.041826      -218.8292
  87   2.0000      -7.980854      -217.1701
  88   2.0000      -6.631614      -180.4554
  89   2.0000      -6.617007      -180.0579
  90   2.0000      -6.616764      -180.0513
  91   2.0000      -6.044601      -164.4820
  92   2.0000      -6.040322      -164.3655
  93   2.0000      -6.036107      -164.2508
  94   2.0000      -6.028425      -164.0418
  95   2.0000      -6.027261      -164.0101
  96   2.0000      -6.026759      -163.9965
  97   2.0000      -6.024151      -163.9255
  98   2.0000      -6.022871      -163.8907
  99   2.0000      -6.022520      -163.8811
 100   2.0000      -6.020900      -163.8370
 101   2.0000      -6.018260      -163.7652
 102   2.0000      -6.017378      -163.7412
 103   2.0000      -6.014350      -163.6588
 104   2.0000      -6.013855      -163.6453
 105   2.0000      -6.011558      -163.5828
 106   2.0000      -6.010315      -163.5490
 107   2.0000      -6.009717      -163.5327
 108   2.0000      -6.007601      -163.4751
 109   2.0000      -6.006930      -163.4569
 110   2.0000      -6.005467      -163.4171
 111   2.0000      -6.002692      -163.3416
 112   2.0000      -5.950433      -161.9195
 113   2.0000      -5.947633      -161.8433
 114   2.0000      -5.940810      -161.6577
 115   2.0000      -2.747446       -74.7618
 116   2.0000      -2.743396       -74.6516
 117   2.0000      -2.743230       -74.6471
 118   2.0000      -2.731608       -74.3308
 119   2.0000      -2.731591       -74.3304
 120   2.0000      -1.136786       -30.9335
 121   2.0000      -1.130228       -30.7551
 122   2.0000      -1.123088       -30.5608
 123   2.0000      -1.052240       -28.6329
 124   2.0000      -1.051887       -28.6233
 125   2.0000      -1.028640       -27.9907
 126   2.0000      -1.019875       -27.7522
 127   2.0000      -1.012783       -27.5592
 128   2.0000      -1.003268       -27.3003
 129   2.0000      -0.995577       -27.0910
 130   2.0000      -0.994947       -27.0739
 131   2.0000      -0.980938       -26.6927
 132   2.0000      -0.974509       -26.5177
 133   2.0000      -0.955160       -25.9912
 134   2.0000      -0.954000       -25.9597
 135   2.0000      -0.950626       -25.8678
 136   2.0000      -0.944081       -25.6898
 137   2.0000      -0.925773       -25.1916
 138   2.0000      -0.916740       -24.9458
 139   2.0000      -0.913746       -24.8643
 140   2.0000      -0.902804       -24.5665
 141   2.0000      -0.898938       -24.4613
 142   2.0000      -0.890257       -24.2251
 143   2.0000      -0.889863       -24.2144
 144   2.0000      -0.885563       -24.0974
 145   2.0000      -0.872816       -23.7505
 146   2.0000      -0.869030       -23.6475
 147   2.0000      -0.861533       -23.4435
 148   2.0000      -0.857236       -23.3266
 149   2.0000      -0.849552       -23.1175
 150   2.0000      -0.846411       -23.0320
 151   2.0000      -0.839566       -22.8457
 152   2.0000      -0.835910       -22.7463
 153   2.0000      -0.833717       -22.6866
 154   2.0000      -0.825924       -22.4745
 155   2.0000      -0.823906       -22.4196
 156   2.0000      -0.816682       -22.2231
 157   2.0000      -0.807287       -21.9674
 158   2.0000      -0.797938       -21.7130
 159   2.0000      -0.792285       -21.5592
 160   2.0000      -0.786717       -21.4077
 161   2.0000      -0.776583       -21.1319
 162   2.0000      -0.772089       -21.0096
 163   2.0000      -0.761942       -20.7335
 164   2.0000      -0.761223       -20.7139
 165   2.0000      -0.757618       -20.6158
 166   2.0000      -0.745197       -20.2778
 167   2.0000      -0.731931       -19.9169
 168   2.0000      -0.714812       -19.4510
 169   2.0000      -0.708993       -19.2927
 170   2.0000      -0.703807       -19.1516
 171   2.0000      -0.697078       -18.9685
 172   2.0000      -0.694901       -18.9092
 173   2.0000      -0.690119       -18.7791
 174   2.0000      -0.684778       -18.6338
 175   2.0000      -0.678602       -18.4657
 176   2.0000      -0.673472       -18.3261
 177   2.0000      -0.667249       -18.1568
 178   2.0000      -0.665211       -18.1013
 179   2.0000      -0.656922       -17.8758
 180   2.0000      -0.645988       -17.5782
 181   2.0000      -0.645538       -17.5660
 182   2.0000      -0.639373       -17.3982
 183   2.0000      -0.630749       -17.1635
 184   2.0000      -0.628846       -17.1118
 185   2.0000      -0.626854       -17.0576
 186   2.0000      -0.624173       -16.9846
 187   2.0000      -0.622717       -16.9450
 188   2.0000      -0.611356       -16.6358
 189   2.0000      -0.610093       -16.6015
 190   2.0000      -0.606947       -16.5159
 191   2.0000      -0.602552       -16.3963
 192   2.0000      -0.599066       -16.3014
 193   2.0000      -0.596053       -16.2194
 194   2.0000      -0.592558       -16.1243
 195   2.0000      -0.591024       -16.0826
 196   2.0000      -0.585679       -15.9371
 197   2.0000      -0.581999       -15.8370
 198   2.0000      -0.574118       -15.6225
 199   2.0000      -0.567620       -15.4457
 200   2.0000      -0.563641       -15.3374
 201   2.0000      -0.559799       -15.2329
 202   2.0000      -0.552037       -15.0217
 203   2.0000      -0.550526       -14.9806
 204   2.0000      -0.549410       -14.9502
 205   2.0000      -0.543380       -14.7861
 206   2.0000      -0.542467       -14.7613
 207   2.0000      -0.542004       -14.7487
 208   2.0000      -0.537531       -14.6270
 209   2.0000      -0.533627       -14.5207
 210   2.0000      -0.529304       -14.4031
 211   2.0000      -0.529292       -14.4028
 212   2.0000      -0.527076       -14.3425
 213   2.0000      -0.525324       -14.2948
 214   2.0000      -0.522961       -14.2305
 215   2.0000      -0.522114       -14.2074
 216   2.0000      -0.518171       -14.1001
 217   2.0000      -0.513349       -13.9689
 218   2.0000      -0.511815       -13.9272
 219   2.0000      -0.510416       -13.8891
 220   2.0000      -0.509395       -13.8613
 221   2.0000      -0.506929       -13.7942
 222   2.0000      -0.503917       -13.7123
 223   2.0000      -0.503468       -13.7000
 224   2.0000      -0.499938       -13.6040
 225   2.0000      -0.498037       -13.5523
 226   2.0000      -0.497195       -13.5294
 227   2.0000      -0.495211       -13.4754
 228   2.0000      -0.494057       -13.4440
 229   2.0000      -0.490095       -13.3362
 230   2.0000      -0.489620       -13.3232
 231   2.0000      -0.486844       -13.2477
 232   2.0000      -0.482657       -13.1338
 233   2.0000      -0.480791       -13.0830
 234   2.0000      -0.478989       -13.0340
 235   2.0000      -0.474815       -12.9204
 236   2.0000      -0.470800       -12.8111
 237   2.0000      -0.469526       -12.7765
 238   2.0000      -0.468861       -12.7584
 239   2.0000      -0.467738       -12.7278
 240   2.0000      -0.464263       -12.6332
 241   2.0000      -0.462663       -12.5897
 242   2.0000      -0.461397       -12.5552
 243   2.0000      -0.460655       -12.5351
 244   2.0000      -0.458895       -12.4872
 245   2.0000      -0.455738       -12.4013
 246   2.0000      -0.454011       -12.3543
 247   2.0000      -0.452682       -12.3181
 248   2.0000      -0.450816       -12.2673
 249   2.0000      -0.450000       -12.2451
 250   2.0000      -0.447728       -12.1833
 251   2.0000      -0.446315       -12.1449
 252   2.0000      -0.445119       -12.1123
 253   2.0000      -0.444310       -12.0903
 254   2.0000      -0.443535       -12.0692
 255   2.0000      -0.441806       -12.0222
 256   2.0000      -0.440913       -11.9979
 257   2.0000      -0.436879       -11.8881
 258   2.0000      -0.436506       -11.8779
 259   2.0000      -0.434420       -11.8212
 260   2.0000      -0.433112       -11.7856
 261   2.0000      -0.432342       -11.7646
 262   2.0000      -0.422783       -11.5045
 263   2.0000      -0.420868       -11.4524
 264   2.0000      -0.420600       -11.4451
 265   2.0000      -0.419005       -11.4017
 266   2.0000      -0.416187       -11.3250
 267   2.0000      -0.414865       -11.2891
 268   2.0000      -0.412993       -11.2381
 269   2.0000      -0.411302       -11.1921
 270   2.0000      -0.410704       -11.1758
 271   2.0000      -0.408452       -11.1146
 272   2.0000      -0.396711       -10.7951
 273   2.0000      -0.394794       -10.7429
 274   2.0000      -0.392693       -10.6857
 275   2.0000      -0.391216       -10.6455
 276   2.0000      -0.377445       -10.2708
 277   2.0000      -0.376981       -10.2582
 278   2.0000      -0.375998       -10.2314
 279   2.0000      -0.372434       -10.1344
 280   2.0000      -0.362420        -9.8619
 281   2.0000      -0.355072        -9.6620
 282   2.0000      -0.349998        -9.5239
 283   2.0000      -0.349165        -9.5013
 284   2.0000      -0.337560        -9.1855
 285   2.0000      -0.336452        -9.1553
 286   2.0000      -0.331499        -9.0206
 287   2.0000      -0.327141        -8.9020
 288   2.0000      -0.324121        -8.8198
 289   2.0000      -0.323556        -8.8044
 290   2.0000      -0.319730        -8.7003
 291   2.0000      -0.318262        -8.6604
 292   2.0000      -0.304516        -8.2863
 293   2.0000      -0.297887        -8.1059
 294   2.0000      -0.296405        -8.0656
 295   2.0000      -0.284395        -7.7388
 296   2.0000      -0.281657        -7.6643
 297   2.0000      -0.271693        -7.3931
 298   2.0000      -0.270261        -7.3542
 299   2.0000      -0.264220        -7.1898
 300   2.0000      -0.249807        -6.7976
 301   2.0000      -0.206885        -5.6296
 302   0.0000      -0.089653        -2.4396
 303   0.0000      -0.082544        -2.2461
 304   0.0000      -0.054233        -1.4758
 305   0.0000      -0.039060        -1.0629
 306   0.0000      -0.023716        -0.6453

MULLIKEN ATOMIC CHARGES
-----------------------
   0 C :    0.313754
   1 C :   -0.350822
   2 C :   -0.186742
   3 N :    0.158942
   4 C :   -0.170322
   5 N :    0.149584
   6 C :    0.014346
   7 C :   -0.005387
   8 C :   -0.059722
   9 C :    0.114206
  10 C :   -0.090770
  11 C :   -0.022225
  12 S :    0.188342
  13 C :   -0.122872
  14 C :    0.041801
  15 Br:    0.028060
  16 C :    0.130731
  17 O :   -0.121950
  18 C :   -0.087917
  19 C :   -0.068560
  20 C :   -0.010804
  21 C :    0.032405
  22 C :    0.043305
  23 C :   -0.027282
  24 C :   -0.051412
  25 C :    0.182333
  26 N :   -0.233560
  27 C :    0.149682
  28 C :    0.136734
  29 O :   -0.189274
  30 C :    0.021064
  31 C :    0.050207
  32 C :    0.114997
  33 O :   -0.203478
  34 N :   -0.220390
  35 C :    0.129433
  36 C :    0.240536
  37 C :   -0.167847
  38 C :    0.128176
  39 C :   -0.030767
  40 C :   -0.036940
  41 C :   -0.035166
  42 C :   -0.032862
  43 C :    0.066750
  44 C :   -0.145523
  45 S :    0.110435
  46 C :   -0.127096
  47 C :   -0.078022
  48 C :    0.109096
  49 C :    0.105570
  50 C :   -0.043502
  51 C :    0.001231
  52 C :    0.005647
  53 C :    0.010682
  54 C :   -0.015398
  55 C :   -0.023081
  56 C :    0.038118
  57 C :    0.024020
  58 C :   -0.045513
  59 S :    0.071473
  60 C :   -0.043921
  61 C :    0.029242
  62 C :    0.038121
  63 C :   -0.050968
  64 S :    0.055631
  65 C :   -0.030659
  66 C :   -0.162726
  67 S :    0.128184
  68 C :   -0.131096
  69 C :    0.015637
  70 C :   -0.013457
  71 S :    0.213710
  72 C :   -0.173845
  73 S :   -0.122542
  74 S :    0.184151
  75 H :    0.000530
  76 H :   -0.002210
  77 H :    0.000379
  78 H :    0.038410
  79 H :   -0.053594
  80 H :   -0.027746
  81 H :   -0.024127
  82 H :    0.029804
  83 H :    0.030687
  84 H :    0.053761
  85 H :    0.036419
  86 H :    0.047917
  87 H :    0.059041
  88 H :    0.036068
  89 H :    0.020660
  90 H :   -0.041236
  91 H :   -0.031283
  92 H :   -0.029629
  93 H :   -0.005998
  94 H :   -0.018373
  95 H :    0.012833
  96 H :    0.008178
  97 H :    0.031296
  98 H :    0.031394
  99 H :    0.008075
 100 H :   -0.017530
 101 H :   -0.016641
 102 H :    0.000178
 103 H :   -0.016275
 104 H :   -0.011918
 105 H :   -0.012528
 106 H :   -0.014755
 107 H :   -0.002914
 108 H :    0.012770
 109 H :    0.026441
Sum of atomic charges:   -0.0000000

LOEWDIN ATOMIC CHARGES
----------------------
   0 C :    0.081671
   1 C :   -0.140039
   2 C :   -0.020302
   3 N :   -0.047857
   4 C :   -0.002261
   5 N :   -0.056290
   6 C :   -0.024549
   7 C :   -0.050971
   8 C :    0.027098
   9 C :   -0.028850
  10 C :   -0.143657
  11 C :   -0.008109
  12 S :    0.433787
  13 C :   -0.269537
  14 C :   -0.068536
  15 Br:    0.140497
  16 C :    0.082504
  17 O :   -0.109080
  18 C :   -0.085264
  19 C :    0.081255
  20 C :   -0.066278
  21 C :    0.002319
  22 C :   -0.039588
  23 C :   -0.006353
  24 C :   -0.047793
  25 C :    0.051722
  26 N :   -0.005681
  27 C :    0.033918
  28 C :    0.083771
  29 O :   -0.183094
  30 C :   -0.021273
  31 C :   -0.019150
  32 C :    0.080146
  33 O :   -0.193691
  34 N :   -0.001307
  35 C :    0.032349
  36 C :    0.039194
  37 C :   -0.053085
  38 C :   -0.014634
  39 C :   -0.036123
  40 C :   -0.017415
  41 C :   -0.043909
  42 C :   -0.018938
  43 C :   -0.038292
  44 C :   -0.166844
  45 S :    0.430068
  46 C :   -0.195920
  47 C :   -0.054001
  48 C :   -0.045911
  49 C :   -0.062649
  50 C :   -0.006044
  51 C :   -0.043954
  52 C :   -0.024765
  53 C :   -0.030664
  54 C :   -0.050022
  55 C :   -0.151260
  56 C :   -0.030463
  57 C :   -0.035737
  58 C :   -0.173041
  59 S :    0.364766
  60 C :   -0.182964
  61 C :   -0.033913
  62 C :   -0.031211
  63 C :   -0.151386
  64 S :    0.369072
  65 C :   -0.080775
  66 C :   -0.194067
  67 S :    0.454337
  68 C :   -0.207836
  69 C :   -0.217308
  70 C :   -0.223359
  71 S :    0.424460
  72 C :   -0.443134
  73 S :   -0.023870
  74 S :    0.394125
  75 H :    0.046028
  76 H :    0.041542
  77 H :    0.040542
  78 H :    0.043586
  79 H :    0.017286
  80 H :    0.019851
  81 H :    0.032691
  82 H :    0.026043
  83 H :    0.025081
  84 H :    0.040004
  85 H :    0.047850
  86 H :    0.052653
  87 H :    0.035251
  88 H :    0.030309
  89 H :    0.020979
  90 H :    0.027644
  91 H :    0.023678
  92 H :    0.029131
  93 H :    0.030991
  94 H :    0.024960
  95 H :    0.020486
  96 H :    0.031719
  97 H :    0.033401
  98 H :    0.035338
  99 H :    0.028696
 100 H :    0.028427
 101 H :    0.027592
 102 H :    0.021165
 103 H :    0.032779
 104 H :    0.033630
 105 H :    0.031940
 106 H :    0.032056
 107 H :    0.037227
 108 H :    0.037888
 109 H :    0.027498

  Mayer bond orders larger than 0.100000
B(  0-C ,  1-C ) :   1.6580 B(  0-C ,  6-C ) :   1.0196 B(  0-C , 18-C ) :   1.0230
B(  1-C ,  2-C ) :   1.1255 B(  1-C ,  4-C ) :   1.1590 B(  2-C ,  3-N ) :   2.9856
B(  4-C ,  5-N ) :   2.9471 B(  6-C ,  7-C ) :   1.2660 B(  6-C , 11-C ) :   1.4005
B(  7-C ,  8-C ) :   1.4315 B(  7-C , 16-C ) :   0.9189 B(  8-C ,  9-C ) :   1.2474
B(  8-C , 75-H ) :   1.0188 B(  9-C , 10-C ) :   1.2964 B(  9-C , 14-C ) :   1.1669
B( 10-C , 11-C ) :   1.3411 B( 10-C , 12-S ) :   1.0850 B( 11-C , 76-H ) :   0.9812
B( 12-S , 13-C ) :   1.0866 B( 13-C , 14-C ) :   1.6154 B( 13-C , 15-Br) :   1.0211
B( 14-C , 77-H ) :   1.0002 B( 16-C , 17-O ) :   2.2060 B( 16-C , 18-C ) :   0.9233
B( 18-C , 19-C ) :   1.7545 B( 19-C , 20-C ) :   1.0043 B( 19-C , 78-H ) :   0.9360
B( 20-C , 21-C ) :   1.3566 B( 20-C , 25-C ) :   1.3652 B( 21-C , 22-C ) :   1.4012
B( 21-C , 79-H ) :   0.9807 B( 22-C , 23-C ) :   1.2951 B( 22-C , 80-H ) :   0.9918
B( 23-C , 24-C ) :   1.4520 B( 23-C , 81-H ) :   1.0044 B( 24-C , 25-C ) :   1.3451
B( 24-C , 30-C ) :   0.9405 B( 25-C , 26-N ) :   1.0797 B( 26-N , 27-C ) :   0.9700
B( 26-N , 28-C ) :   1.0975 B( 27-C , 82-H ) :   0.9615 B( 27-C , 83-H ) :   0.9623
B( 27-C , 84-H ) :   0.9485 B( 28-C , 29-O ) :   2.1779 B( 28-C , 30-C ) :   0.9303
B( 30-C , 31-C ) :   1.0409 B( 30-C , 85-H ) :   0.8848 B( 31-C , 32-C ) :   0.9044
B( 31-C , 41-C ) :   0.9833 B( 31-C , 86-H ) :   0.8790 B( 32-C , 33-O ) :   2.1165
B( 32-C , 34-N ) :   1.1436 B( 34-N , 35-C ) :   0.9647 B( 34-N , 36-C ) :   1.0534
B( 35-C , 87-H ) :   0.9536 B( 35-C , 88-H ) :   0.9691 B( 35-C , 89-H ) :   0.9698
B( 36-C , 37-C ) :   1.3404 B( 36-C , 41-C ) :   1.3539 B( 37-C , 38-C ) :   1.2643
B( 37-C , 90-H ) :   1.0183 B( 38-C , 39-C ) :   1.3696 B( 38-C , 42-C ) :   1.0666
B( 39-C , 40-C ) :   1.3553 B( 39-C , 91-H ) :   0.9874 B( 40-C , 41-C ) :   1.4175
B( 40-C , 92-H ) :   1.0047 B( 42-C , 43-C ) :   1.7076 B( 42-C , 93-H ) :   0.9818
B( 43-C , 44-C ) :   1.1162 B( 43-C , 94-H ) :   0.9445 B( 44-C , 45-S ) :   1.1435
B( 44-C , 49-C ) :   1.4425 B( 45-S , 46-C ) :   1.1372 B( 46-C , 47-C ) :   1.5937
B( 46-C , 95-H ) :   0.9690 B( 47-C , 48-C ) :   1.0906 B( 47-C , 49-C ) :   1.2402
B( 48-C , 96-H ) :   0.9482 B( 48-C , 97-H ) :   0.9438 B( 48-C , 98-H ) :   0.9449
B( 49-C , 50-C ) :   1.1037 B( 50-C , 51-C ) :   1.6926 B( 50-C , 99-H ) :   0.9464
B( 51-C , 52-C ) :   1.1398 B( 51-C ,100-H ) :   0.9723 B( 52-C , 53-C ) :   1.6441
B( 52-C ,101-H ) :   0.9765 B( 53-C , 54-C ) :   1.1726 B( 53-C ,102-H ) :   0.9637
B( 54-C , 55-C ) :   1.5543 B( 54-C ,103-H ) :   0.9818 B( 55-C , 56-C ) :   1.1447
B( 55-C , 59-S ) :   1.0254 B( 56-C , 57-C ) :   1.5884 B( 56-C ,104-H ) :   0.9990
B( 57-C , 58-C ) :   1.1870 B( 57-C ,105-H ) :   0.9941 B( 58-C , 59-S ) :   1.0474
B( 58-C , 60-C ) :   1.5149 B( 60-C , 61-C ) :   1.1813 B( 60-C , 64-S ) :   1.0324
B( 61-C , 62-C ) :   1.5889 B( 61-C ,106-H ) :   0.9938 B( 62-C , 63-C ) :   1.1370
B( 62-C ,107-H ) :   1.0014 B( 63-C , 64-S ) :   1.0344 B( 63-C , 65-C ) :   1.5918
B( 65-C , 66-C ) :   1.1735 B( 65-C ,108-H ) :   0.9528 B( 66-C , 67-S ) :   1.1241
B( 66-C , 70-C ) :   1.5178 B( 67-S , 68-C ) :   1.1478 B( 68-C , 69-C ) :   1.5756
B( 68-C ,109-H ) :   0.9743 B( 69-C , 70-C ) :   1.2634 B( 69-C , 74-S ) :   0.9810
B( 70-C , 71-S ) :   1.0096 B( 71-S , 72-C ) :   1.0694 B( 71-S , 73-S ) :   0.1314
B( 72-C , 73-S ) :   1.6917 B( 72-C , 74-S ) :   1.0695 B( 73-S , 74-S ) :   0.1331

-----------------------------------------------------------------------------
         ABSORPTION SPECTRUM VIA TRANSITION ELECTRIC DIPOLE MOMENTS
-----------------------------------------------------------------------------
State   Energy  Wavelength   fosc         T2         TX        TY        TZ
        (cm-1)    (nm)                  (au**2)     (au)      (au)      (au)
-----------------------------------------------------------------------------
   0   12152.8    822.9   0.004132364   0.11194  -0.08203   0.29850  -0.12693
   1   13676.6    731.2   1.004933818  24.18999  -3.14531   3.62540  -1.07402
   2   19989.9    500.3   0.001735786   0.02859   0.10055  -0.10141  -0.09051
   3   20413.7    489.9   0.107093092   1.72709   0.01198   1.16757   0.60310
   4   21401.2    467.3   0.001804108   0.02775  -0.10790   0.07173  -0.10472
   5   23257.2    430.0   0.845133517  11.96310  -0.83508   0.59134  -3.30395
   6   23557.7    424.5   0.037307976   0.52137   0.20784  -0.14020   0.67714
   7   25342.0    394.6   0.089924446   1.16819  -0.16136   0.15572  -1.05731
   8   25492.4    392.3   0.037950425   0.49010  -0.37856  -0.17942  -0.56089
   9   25830.4    387.1   0.008388218   0.10691  -0.05578  -0.24693  -0.20694
  10   25966.4    385.1   0.006788913   0.08607   0.07035   0.04907  -0.28056
  11   26500.0    377.4   0.006467040   0.08034   0.07517   0.25705   0.09283
  12   26902.4    371.7   0.145461945   1.78006   0.29442   1.12904   0.64702
  13   27568.0    362.7   0.000888985   0.01062   0.01365  -0.08592  -0.05520
  14   27785.4    359.9   0.073733176   0.87362   0.54553   0.71957   0.24131
  15   27970.1    357.5   0.092904837   1.09350   0.40531   0.96307   0.04154
  16   28444.3    351.6   0.347125117   4.01759  -1.98324  -0.18000   0.22795
  17   28938.6    345.6   0.392709426   4.46754  -0.35647  -1.30964  -1.62028
  18   28964.8    345.2   0.015945398   0.18123   0.17957   0.27890   0.26684
  19   29774.7    335.9   0.000804651   0.00890   0.05714  -0.03817   0.06461
  20   30184.0    331.3   0.017761331   0.19372   0.27336   0.27698   0.20561
  21   30278.4    330.3   0.137326612   1.49313   0.06367  -1.11275  -0.50086
  22   30638.9    326.4   0.142014123   1.52593   1.18978  -0.26886  -0.19510
  23   30848.4    324.2   0.014926483   0.15929   0.11396   0.35751   0.13598
  24   31396.9    318.5   0.093859520   0.98416  -0.11556  -0.81051   0.56025
  25   31452.2    317.9   0.207812303   2.17518   0.37032   1.31928   0.54549
  26   31614.7    316.3   0.398932657   4.15418  -0.16894  -1.93324   0.62307
  27   31889.1    313.6   0.015946999   0.16463  -0.11167  -0.31350  -0.23212
  28   32050.9    312.0   0.039670649   0.40748  -0.03341  -0.43857  -0.46262
  29   32368.3    308.9   0.000055322   0.00056   0.00523  -0.01064   0.02054
  30   32808.5    304.8   0.000629744   0.00632  -0.02428   0.00296   0.07564
  31   32986.5    303.2   0.004659191   0.04650   0.04666   0.12756   0.16749
  32   33732.2    296.5   0.014652636   0.14300   0.05206  -0.30705  -0.21451
  33   33965.4    294.4   0.007536328   0.07305  -0.15155  -0.18797  -0.12144
  34   34424.0    290.5   0.415370866   3.97237   1.99231   0.02474  -0.04949
  35   34516.5    289.7   0.004168313   0.03976   0.18562   0.06419   0.03438
  36   34579.7    289.2   0.000768781   0.00732   0.01834   0.05722   0.06090
  37   34891.2    286.6   0.007849879   0.07407  -0.12539  -0.22021   0.09924
  38   35016.5    285.6   0.101527513   0.95452   0.93084  -0.27300  -0.11635
  39   35151.3    284.5   0.013924942   0.13042   0.25311   0.24572   0.07728
  40   35640.0    280.6   0.020772113   0.19188  -0.11921  -0.39318  -0.15191
  41   35937.1    278.3   0.027643533   0.25324  -0.03802  -0.50007   0.04152
  42   35975.4    278.0   0.101007385   0.92432  -0.13853  -0.89644   0.31864
  43   36100.0    277.0   0.001871586   0.01707   0.00371  -0.12423   0.04026
  44   36113.1    276.9   0.020427681   0.18622   0.41334  -0.01454   0.12314
  45   36453.7    274.3   0.004423243   0.03995  -0.04799  -0.17812   0.07691
  46   36643.1    272.9   0.016179700   0.14536  -0.32916  -0.19238   0.00219
  47   36693.5    272.5   0.016518528   0.14820  -0.20166  -0.31143   0.10268
  48   36716.2    272.4   0.159153915   1.42704  -0.06435  -1.18986   0.08450
  49   37220.3    268.7   0.020644491   0.18260   0.13625   0.36523   0.17505
  50   37356.1    267.7   0.387544621   3.41536   0.40054  -1.73060   0.50984
  51   37620.9    265.8   0.074621381   0.65300  -0.43110   0.22059  -0.64691
  52   38003.1    263.1   0.006858202   0.05941   0.20565  -0.13021  -0.01278
  53   38030.2    262.9   0.022272191   0.19280  -0.28027   0.33786   0.01009
  54   38552.9    259.4   0.004559703   0.03894   0.08502   0.15554  -0.08669
  55   38570.9    259.3   0.050545544   0.43142  -0.26648  -0.59415  -0.08595
  56   38627.2    258.9   0.194142190   1.65464   0.01208   1.28627  -0.00270
  57   38880.4    257.2   0.043769949   0.37061  -0.07367  -0.47480  -0.37383
  58   38948.4    256.8   0.053653339   0.45351  -0.06814  -0.58246  -0.33107
  59   39137.4    255.5   0.045800859   0.38526   0.32122   0.45312   0.27707
  60   39199.2    255.1   0.003505685   0.02944  -0.02160   0.16851  -0.02411
  61   39598.2    252.5   0.049994686   0.41565   0.41776  -0.43587  -0.22614
  62   39714.3    251.8   0.009805783   0.08129  -0.23027   0.04456   0.16209
  63   39865.9    250.8   0.002317094   0.01913  -0.04389  -0.01765  -0.12999
  64   39952.9    250.3   0.049428451   0.40729  -0.10936   0.18903  -0.59967
  65   40219.4    248.6   0.080729990   0.66081  -0.33442   0.66747  -0.32165

FINAL SINGLE POINT ENERGY     -8469.060787788403

DIPOLE MOMENT
-------------
                                X             Y             Z
Electronic contribution:    -46.39488    -152.71913      13.09479
Nuclear contribution   :     43.92205     155.26925     -15.27236
                        -----------------------------------------
Total Dipole Moment    :     -2.47284       2.55012      -2.17757
                        -----------------------------------------
Magnitude (a.u.)       :      4.16652
Magnitude (Debye)      :     10.59045

Rotational constants in cm-1:     0.000743     0.000458     0.000372
Rotational constants in MHz :    22.278314    13.730597    11.154423

                             ****ORCA TERMINATED NORMALLY****
TOTAL RUN TIME: 0 days 0 hours 14 minutes 4 seconds 648 msec
