                         Program Version 4.2.0 -  RELEASE  -
|  1> # ORCA input file
|  2> # SCF done       -165.817503409694          0.000582065051
|  3> ! CAM-B3LYP def2-SVP def2/J RIJCOSX Grid4 TightSCF
|  4> %maxcore 5000
|  5> %tddft
|  6>     Mode sTDDFT
|  7>     Ethresh 5.0
|  8>     maxcore 5000
|  9> end
| 10>
| 11> %pal
| 12>   nprocs 6
| 13>   end
| 14> * xyz 0 1
| 15>    C       -2.10571         2.01683        -3.61950
| 16>    C       -1.33186         1.29063        -2.74881
| 17>    C       -0.04446         0.80289        -3.05426
| 18>    N        1.00703         0.38059        -3.23956
| 19>    C       -1.69537         0.91748        -1.43861
| 20>    N       -1.91492         0.57043        -0.36557
| 21>    C       -1.72513         2.37929        -4.98276
| 22>    C       -2.79055         3.10089        -5.57590
| 23>    C       -2.73806         3.58301        -6.86044
| 24>    C       -1.57358         3.34433        -7.59839
| 25>    C       -0.51341         2.62466        -6.99877
| 26>    C       -0.56898         2.13497        -5.69896
| 27>    S        0.83153         2.44564        -8.08398
| 28>    C       -0.03677         3.32818        -9.31159
| 29>    C       -1.27062         3.73643        -8.93091
| 30>   Br        0.76722         3.62822       -10.97925
| 31>    C       -3.88655         3.22681        -4.59902
| 32>    O       -4.95694         3.78329        -4.78173
| 33>    C       -3.42744         2.55650        -3.38217
| 34>    C       -4.13395         2.48561        -2.20500
| 35>    C       -5.38919         3.00148        -1.88180
| 36>    S       -6.50405         3.90238        -2.90184
| 37>    C       -7.66539         4.10079        -1.62621
| 38>    C       -7.21818         3.49003        -0.45105
| 39>    C       -5.95521         2.87900        -0.61067
| 40>    S       -5.45720         2.14625         0.86922
| 41>    C       -6.96968         2.71621         1.56496
| 42>    N       -7.75056         3.37125         0.79684
| 43>    C       -8.86198         4.82793        -1.83502
| 44>    C       -9.75453         5.07223        -0.84485
| 45>    C      -10.93898         5.84411        -1.02971
| 46>    C      -11.80312         6.21436        -0.06535
| 47>    C      -11.67387         5.85762         1.37855
| 48>    C      -12.98343         7.09600        -0.42871
| 49>    N      -14.12230         6.96333         0.44147
| 50>    C      -14.22498         7.66722         1.59783
| 51>    C      -15.02327         7.33767         2.63646
| 52>    C      -15.12711         8.09881         3.83445
| 53>    S      -16.12184         7.48341         5.14407
| 54>    C      -15.68312         8.80719         6.13932
| 55>    C      -14.81391         9.68783         5.47783
| 56>    C      -14.50466         9.28722         4.18033
| 57>    C      -14.45091        10.79085         6.37144
| 58>    S      -13.46501        12.04442         6.02820
| 59>    C      -15.15295        10.50025         7.60436
| 60>    C      -15.88886         9.31215         7.44802
| 61>    O      -16.53989         8.99617         8.55786
| 62>    C      -16.23685         9.97751         9.47751
| 63>    C      -15.38343        10.92268         8.91818
| 64>    C      -16.80099         9.86089        10.77340
| 65>    C      -16.55928        10.70826        11.79916
| 66>    C      -17.11783        10.57450        13.09718
| 67>    S      -18.24228         9.31103        13.55933
| 68>    C      -18.38615         9.85346        15.18253
| 69>    C      -17.60715        10.96458        15.38822
| 70>    C      -16.90061        11.35979        14.20734
| 71>    O      -16.14110        12.45336        14.44489
| 72>    C      -16.35501        12.75548        15.75405
| 73>    N      -15.67322        13.87471        16.29003
| 74>    O      -15.88203        14.12337        17.46314
| 75>    O      -14.93842        14.49953        15.55688
| 76>    C      -17.22325        11.90598        16.38318
| 77>    H       -3.56736         4.12849        -7.28268
| 78>    H        0.26686         1.59338        -5.28921
| 79>    H       -1.94031         4.29158        -9.56201
| 80>    H       -3.66445         1.96949        -1.37538
| 81>    H       -7.19158         2.50475         2.59253
| 82>    H       -9.02477         5.20899        -2.83434
| 83>    H       -9.53892         4.66748         0.13220
| 84>    H      -11.12954         6.17761        -2.04312
| 85>    H      -10.69514         5.45119         1.60847
| 86>    H      -12.42440         5.11434         1.65304
| 87>    H      -11.84354         6.73495         2.00167
| 88>    H      -13.29873         6.88575        -1.45536
| 89>    H      -12.65820         8.14278        -0.39143
| 90>    H      -14.59313         6.07006         0.41779
| 91>    H      -13.63363         8.57152         1.62502
| 92>    H      -15.60914         6.43010         2.59095
| 93>    H      -13.85519         9.83627         3.52472
| 94>    H      -14.99112        11.79040         9.40623
| 95>    H      -17.45940         9.01500        10.92145
| 96>    H      -15.89737        11.55290        11.67377
| 97>    H      -19.02036         9.33112        15.86784
| 98>    H      -17.52845        11.96259        17.40734
| 99> *
|100>
|101>                          ****END OF INPUT****

CARTESIAN COORDINATES (ANGSTROEM)
---------------------------------
  C     -2.105710    2.016830   -3.619500
  C     -1.331860    1.290630   -2.748810
  C     -0.044460    0.802890   -3.054260
  N      1.007030    0.380590   -3.239560
  C     -1.695370    0.917480   -1.438610
  N     -1.914920    0.570430   -0.365570
  C     -1.725130    2.379290   -4.982760
  C     -2.790550    3.100890   -5.575900
  C     -2.738060    3.583010   -6.860440
  C     -1.573580    3.344330   -7.598390
  C     -0.513410    2.624660   -6.998770
  C     -0.568980    2.134970   -5.698960
  S      0.831530    2.445640   -8.083980
  C     -0.036770    3.328180   -9.311590
  C     -1.270620    3.736430   -8.930910
  Br     0.767220    3.628220  -10.979250
  C     -3.886550    3.226810   -4.599020
  O     -4.956940    3.783290   -4.781730
  C     -3.427440    2.556500   -3.382170
  C     -4.133950    2.485610   -2.205000
  C     -5.389190    3.001480   -1.881800
  S     -6.504050    3.902380   -2.901840
  C     -7.665390    4.100790   -1.626210
  C     -7.218180    3.490030   -0.451050
  C     -5.955210    2.879000   -0.610670
  S     -5.457200    2.146250    0.869220
  C     -6.969680    2.716210    1.564960
  N     -7.750560    3.371250    0.796840
  C     -8.861980    4.827930   -1.835020
  C     -9.754530    5.072230   -0.844850
  C    -10.938980    5.844110   -1.029710
  C    -11.803120    6.214360   -0.065350
  C    -11.673870    5.857620    1.378550
  C    -12.983430    7.096000   -0.428710
  N    -14.122300    6.963330    0.441470
  C    -14.224980    7.667220    1.597830
  C    -15.023270    7.337670    2.636460
  C    -15.127110    8.098810    3.834450
  S    -16.121840    7.483410    5.144070
  C    -15.683120    8.807190    6.139320
  C    -14.813910    9.687830    5.477830
  C    -14.504660    9.287220    4.180330
  C    -14.450910   10.790850    6.371440
  S    -13.465010   12.044420    6.028200
  C    -15.152950   10.500250    7.604360
  C    -15.888860    9.312150    7.448020
  O    -16.539890    8.996170    8.557860
  C    -16.236850    9.977510    9.477510
  C    -15.383430   10.922680    8.918180
  C    -16.800990    9.860890   10.773400
  C    -16.559280   10.708260   11.799160
  C    -17.117830   10.574500   13.097180
  S    -18.242280    9.311030   13.559330
  C    -18.386150    9.853460   15.182530
  C    -17.607150   10.964580   15.388220
  C    -16.900610   11.359790   14.207340
  O    -16.141100   12.453360   14.444890
  C    -16.355010   12.755480   15.754050
  N    -15.673220   13.874710   16.290030
  O    -15.882030   14.123370   17.463140
  O    -14.938420   14.499530   15.556880
  C    -17.223250   11.905980   16.383180
  H     -3.567360    4.128490   -7.282680
  H      0.266860    1.593380   -5.289210
  H     -1.940310    4.291580   -9.562010
  H     -3.664450    1.969490   -1.375380
  H     -7.191580    2.504750    2.592530
  H     -9.024770    5.208990   -2.834340
  H     -9.538920    4.667480    0.132200
  H    -11.129540    6.177610   -2.043120
  H    -10.695140    5.451190    1.608470
  H    -12.424400    5.114340    1.653040
  H    -11.843540    6.734950    2.001670
  H    -13.298730    6.885750   -1.455360
  H    -12.658200    8.142780   -0.391430
  H    -14.593130    6.070060    0.417790
  H    -13.633630    8.571520    1.625020
  H    -15.609140    6.430100    2.590950
  H    -13.855190    9.836270    3.524720
  H    -14.991120   11.790400    9.406230
  H    -17.459400    9.015000   10.921450
  H    -15.897370   11.552900   11.673770
  H    -19.020360    9.331120   15.867840
  H    -17.528450   11.962590   17.407340

 Total Charge           Charge          ....    0
 Multiplicity           Mult            ....    1
 Number of Electrons    NEL             ....  498
 Basis Dimension        Dim             .... 1020

ORBITAL ENERGIES
----------------

  NO   OCC          E(Eh)            E(eV)
   0   2.0000    -482.884582    -13139.9575
   1   2.0000     -88.976722     -2421.1797
   2   2.0000     -88.974298     -2421.1137
   3   2.0000     -88.972679     -2421.0697
   4   2.0000     -88.971745     -2421.0443
   5   2.0000     -88.967307     -2420.9235
   6   2.0000     -88.903589     -2419.1896
   7   2.0000     -62.562296     -1702.4066
   8   2.0000     -56.396244     -1534.6198
   9   2.0000     -56.393532     -1534.5460
  10   2.0000     -56.393499     -1534.5451
  11   2.0000     -19.304488      -525.3018
  12   2.0000     -19.303622      -525.2783
  13   2.0000     -19.241523      -523.5885
  14   2.0000     -19.238981      -523.5193
  15   2.0000     -19.218758      -522.9690
  16   2.0000     -14.652713      -398.7206
  17   2.0000     -14.442228      -392.9930
  18   2.0000     -14.430510      -392.6741
  19   2.0000     -14.414025      -392.2256
  20   2.0000     -14.410110      -392.1190
  21   2.0000     -10.384603      -282.5794
  22   2.0000     -10.366489      -282.0865
  23   2.0000     -10.357421      -281.8398
  24   2.0000     -10.349891      -281.6348
  25   2.0000     -10.343945      -281.4730
  26   2.0000     -10.342008      -281.4203
  27   2.0000     -10.338132      -281.3149
  28   2.0000     -10.336253      -281.2638
  29   2.0000     -10.333962      -281.2014
  30   2.0000     -10.327895      -281.0363
  31   2.0000     -10.324579      -280.9461
  32   2.0000     -10.323765      -280.9239
  33   2.0000     -10.323524      -280.9174
  34   2.0000     -10.322995      -280.9030
  35   2.0000     -10.322114      -280.8790
  36   2.0000     -10.322100      -280.8786
  37   2.0000     -10.320539      -280.8361
  38   2.0000     -10.317335      -280.7490
  39   2.0000     -10.316242      -280.7192
  40   2.0000     -10.313777      -280.6522
  41   2.0000     -10.312984      -280.6306
  42   2.0000     -10.310309      -280.5578
  43   2.0000     -10.309611      -280.5388
  44   2.0000     -10.307853      -280.4909
  45   2.0000     -10.305569      -280.4288
  46   2.0000     -10.305475      -280.4262
  47   2.0000     -10.303064      -280.3606
  48   2.0000     -10.302896      -280.3561
  49   2.0000     -10.299606      -280.2665
  50   2.0000     -10.298589      -280.2389
  51   2.0000     -10.295517      -280.1553
  52   2.0000     -10.295464      -280.1538
  53   2.0000     -10.291548      -280.0473
  54   2.0000     -10.290229      -280.0114
  55   2.0000     -10.290073      -280.0071
  56   2.0000     -10.289447      -279.9901
  57   2.0000     -10.285387      -279.8796
  58   2.0000     -10.284577      -279.8576
  59   2.0000     -10.279420      -279.7172
  60   2.0000     -10.279371      -279.7159
  61   2.0000     -10.277969      -279.6778
  62   2.0000     -10.277874      -279.6752
  63   2.0000     -10.273732      -279.5625
  64   2.0000     -10.268110      -279.4095
  65   2.0000     -10.266959      -279.3782
  66   2.0000      -8.791725      -239.2350
  67   2.0000      -8.072644      -219.6678
  68   2.0000      -8.070182      -219.6008
  69   2.0000      -8.066739      -219.5071
  70   2.0000      -8.065362      -219.4697
  71   2.0000      -8.061822      -219.3733
  72   2.0000      -7.999458      -217.6763
  73   2.0000      -6.628022      -180.3576
  74   2.0000      -6.613471      -179.9617
  75   2.0000      -6.613259      -179.9559
  76   2.0000      -6.042003      -164.4113
  77   2.0000      -6.039872      -164.3533
  78   2.0000      -6.037900      -164.2996
  79   2.0000      -6.036010      -164.2482
  80   2.0000      -6.035590      -164.2368
  81   2.0000      -6.034866      -164.2171
  82   2.0000      -6.034379      -164.2038
  83   2.0000      -6.031746      -164.1322
  84   2.0000      -6.031445      -164.1240
  85   2.0000      -6.031082      -164.1141
  86   2.0000      -6.030320      -164.0934
  87   2.0000      -6.029129      -164.0609
  88   2.0000      -6.027519      -164.0171
  89   2.0000      -6.027001      -164.0030
  90   2.0000      -6.024145      -163.9253
  91   2.0000      -5.968951      -162.4234
  92   2.0000      -5.967704      -162.3895
  93   2.0000      -5.958322      -162.1342
  94   2.0000      -2.743892       -74.6651
  95   2.0000      -2.739777       -74.5531
  96   2.0000      -2.739688       -74.5507
  97   2.0000      -2.728092       -74.2352
  98   2.0000      -2.728082       -74.2349
  99   2.0000      -1.324253       -36.0347
 100   2.0000      -1.224483       -33.3199
 101   2.0000      -1.217211       -33.1220
 102   2.0000      -1.140586       -31.0369
 103   2.0000      -1.133569       -30.8460
 104   2.0000      -1.083018       -29.4704
 105   2.0000      -1.046389       -28.4737
 106   2.0000      -1.020740       -27.7757
 107   2.0000      -1.011085       -27.5130
 108   2.0000      -1.003252       -27.2999
 109   2.0000      -0.993561       -27.0362
 110   2.0000      -0.991367       -26.9765
 111   2.0000      -0.991052       -26.9679
 112   2.0000      -0.985935       -26.8287
 113   2.0000      -0.945400       -25.7256
 114   2.0000      -0.942025       -25.6338
 115   2.0000      -0.934589       -25.4315
 116   2.0000      -0.933372       -25.3983
 117   2.0000      -0.919275       -25.0147
 118   2.0000      -0.912578       -24.8325
 119   2.0000      -0.906404       -24.6645
 120   2.0000      -0.897100       -24.4113
 121   2.0000      -0.888333       -24.1728
 122   2.0000      -0.884047       -24.0562
 123   2.0000      -0.883513       -24.0416
 124   2.0000      -0.872834       -23.7510
 125   2.0000      -0.866902       -23.5896
 126   2.0000      -0.862243       -23.4628
 127   2.0000      -0.853025       -23.2120
 128   2.0000      -0.834824       -22.7167
 129   2.0000      -0.827731       -22.5237
 130   2.0000      -0.826804       -22.4985
 131   2.0000      -0.823109       -22.3979
 132   2.0000      -0.815001       -22.1773
 133   2.0000      -0.800181       -21.7740
 134   2.0000      -0.790081       -21.4992
 135   2.0000      -0.782828       -21.3018
 136   2.0000      -0.767970       -20.8975
 137   2.0000      -0.759568       -20.6689
 138   2.0000      -0.750810       -20.4306
 139   2.0000      -0.735766       -20.0212
 140   2.0000      -0.718756       -19.5583
 141   2.0000      -0.715476       -19.4691
 142   2.0000      -0.710155       -19.3243
 143   2.0000      -0.703684       -19.1482
 144   2.0000      -0.701086       -19.0775
 145   2.0000      -0.693773       -18.8785
 146   2.0000      -0.689469       -18.7614
 147   2.0000      -0.678167       -18.4539
 148   2.0000      -0.675549       -18.3826
 149   2.0000      -0.657574       -17.8935
 150   2.0000      -0.652906       -17.7665
 151   2.0000      -0.649177       -17.6650
 152   2.0000      -0.643156       -17.5012
 153   2.0000      -0.640815       -17.4375
 154   2.0000      -0.637757       -17.3543
 155   2.0000      -0.637681       -17.3522
 156   2.0000      -0.630031       -17.1440
 157   2.0000      -0.625707       -17.0263
 158   2.0000      -0.622204       -16.9310
 159   2.0000      -0.619518       -16.8579
 160   2.0000      -0.611993       -16.6532
 161   2.0000      -0.600294       -16.3348
 162   2.0000      -0.598767       -16.2933
 163   2.0000      -0.591632       -16.0991
 164   2.0000      -0.588626       -16.0173
 165   2.0000      -0.587095       -15.9757
 166   2.0000      -0.583202       -15.8697
 167   2.0000      -0.578204       -15.7337
 168   2.0000      -0.574373       -15.6295
 169   2.0000      -0.566145       -15.4056
 170   2.0000      -0.562431       -15.3045
 171   2.0000      -0.562021       -15.2934
 172   2.0000      -0.556761       -15.1502
 173   2.0000      -0.552772       -15.0417
 174   2.0000      -0.550397       -14.9771
 175   2.0000      -0.542689       -14.7673
 176   2.0000      -0.541197       -14.7267
 177   2.0000      -0.536590       -14.6014
 178   2.0000      -0.536320       -14.5940
 179   2.0000      -0.534247       -14.5376
 180   2.0000      -0.533514       -14.5177
 181   2.0000      -0.525137       -14.2897
 182   2.0000      -0.522322       -14.2131
 183   2.0000      -0.520207       -14.1555
 184   2.0000      -0.516779       -14.0623
 185   2.0000      -0.510658       -13.8957
 186   2.0000      -0.507639       -13.8135
 187   2.0000      -0.507258       -13.8032
 188   2.0000      -0.504979       -13.7412
 189   2.0000      -0.498159       -13.5556
 190   2.0000      -0.494208       -13.4481
 191   2.0000      -0.493475       -13.4281
 192   2.0000      -0.492977       -13.4146
 193   2.0000      -0.491825       -13.3832
 194   2.0000      -0.488344       -13.2885
 195   2.0000      -0.484884       -13.1944
 196   2.0000      -0.482354       -13.1255
 197   2.0000      -0.478187       -13.0121
 198   2.0000      -0.472466       -12.8565
 199   2.0000      -0.467728       -12.7275
 200   2.0000      -0.465655       -12.6711
 201   2.0000      -0.462722       -12.5913
 202   2.0000      -0.460186       -12.5223
 203   2.0000      -0.457382       -12.4460
 204   2.0000      -0.455525       -12.3955
 205   2.0000      -0.452373       -12.3097
 206   2.0000      -0.451440       -12.2843
 207   2.0000      -0.447383       -12.1739
 208   2.0000      -0.446091       -12.1388
 209   2.0000      -0.445128       -12.1125
 210   2.0000      -0.441112       -12.0033
 211   2.0000      -0.439511       -11.9597
 212   2.0000      -0.437351       -11.9009
 213   2.0000      -0.436611       -11.8808
 214   2.0000      -0.431555       -11.7432
 215   2.0000      -0.430241       -11.7075
 216   2.0000      -0.426116       -11.5952
 217   2.0000      -0.424507       -11.5514
 218   2.0000      -0.424126       -11.5410
 219   2.0000      -0.420526       -11.4431
 220   2.0000      -0.416465       -11.3326
 221   2.0000      -0.410909       -11.1814
 222   2.0000      -0.410407       -11.1677
 223   2.0000      -0.409817       -11.1517
 224   2.0000      -0.403462       -10.9788
 225   2.0000      -0.388400       -10.5689
 226   2.0000      -0.387378       -10.5411
 227   2.0000      -0.386091       -10.5061
 228   2.0000      -0.384003       -10.4492
 229   2.0000      -0.376663       -10.2495
 230   2.0000      -0.374049       -10.1784
 231   2.0000      -0.372588       -10.1386
 232   2.0000      -0.368825       -10.0362
 233   2.0000      -0.364426        -9.9165
 234   2.0000      -0.353666        -9.6237
 235   2.0000      -0.345636        -9.4052
 236   2.0000      -0.344908        -9.3854
 237   2.0000      -0.334756        -9.1092
 238   2.0000      -0.323681        -8.8078
 239   2.0000      -0.321020        -8.7354
 240   2.0000      -0.314875        -8.5682
 241   2.0000      -0.313086        -8.5195
 242   2.0000      -0.312574        -8.5056
 243   2.0000      -0.304754        -8.2928
 244   2.0000      -0.292082        -7.9479
 245   2.0000      -0.287809        -7.8317
 246   2.0000      -0.265050        -7.2124
 247   2.0000      -0.253703        -6.9036
 248   2.0000      -0.216361        -5.8875
 249   0.0000      -0.094957        -2.5839
 250   0.0000      -0.079144        -2.1536
 251   0.0000      -0.064233        -1.7479
 252   0.0000      -0.061764        -1.6807
 253   0.0000      -0.038277        -1.0416

MULLIKEN ATOMIC CHARGES
-----------------------
   0 C :    0.334786
   1 C :   -0.368407
   2 C :   -0.186229
   3 N :    0.147015
   4 C :   -0.184605
   5 N :    0.139402
   6 C :    0.014535
   7 C :   -0.010426
   8 C :   -0.077611
   9 C :    0.122151
  10 C :   -0.093666
  11 C :   -0.024480
  12 S :    0.186201
  13 C :   -0.123676
  14 C :    0.036759
  15 Br:    0.021461
  16 C :    0.162834
  17 O :   -0.188291
  18 C :   -0.105527
  19 C :   -0.034552
  20 C :   -0.146316
  21 S :    0.216609
  22 C :   -0.122348
  23 C :    0.092841
  24 C :   -0.026026
  25 S :    0.136297
  26 C :    0.015952
  27 N :   -0.053322
  28 C :    0.006090
  29 C :    0.026292
  30 C :    0.009182
  31 C :   -0.210565
  32 C :    0.124817
  33 C :    0.188084
  34 N :   -0.158258
  35 C :    0.040611
  36 C :    0.016283
  37 C :   -0.072672
  38 S :    0.168976
  39 C :   -0.094884
  40 C :    0.043998
  41 C :   -0.037390
  42 C :    0.005717
  43 S :   -0.102748
  44 C :    0.031674
  45 C :    0.094795
  46 O :   -0.178574
  47 C :    0.171924
  48 C :   -0.084423
  49 C :   -0.008013
  50 C :    0.004243
  51 C :   -0.192323
  52 S :    0.137741
  53 C :   -0.140338
  54 C :    0.127690
  55 C :    0.199619
  56 O :   -0.188413
  57 C :    0.235102
  58 N :    0.272367
  59 O :   -0.250756
  60 O :   -0.229006
  61 C :   -0.070276
  62 H :   -0.012791
  63 H :   -0.007598
  64 H :   -0.003951
  65 H :    0.000722
  66 H :    0.048461
  67 H :   -0.024602
  68 H :    0.015132
  69 H :   -0.026190
  70 H :    0.025368
  71 H :    0.026011
  72 H :    0.030178
  73 H :    0.022705
  74 H :    0.039197
  75 H :    0.116313
  76 H :    0.007731
  77 H :   -0.036375
  78 H :   -0.024911
  79 H :   -0.007192
  80 H :   -0.002135
  81 H :    0.003658
  82 H :    0.030470
  83 H :    0.011876
Sum of atomic charges:   -0.0000000

LOEWDIN ATOMIC CHARGES
----------------------
   0 C :    0.077486
   1 C :   -0.150431
   2 C :   -0.018617
   3 N :   -0.059480
   4 C :   -0.020708
   5 N :   -0.060247
   6 C :   -0.019322
   7 C :   -0.049916
   8 C :    0.020086
   9 C :   -0.034083
  10 C :   -0.144823
  11 C :   -0.010124
  12 S :    0.432907
  13 C :   -0.272624
  14 C :   -0.070961
  15 Br:    0.135185
  16 C :    0.084326
  17 O :   -0.174677
  18 C :   -0.119029
  19 C :    0.050065
  20 C :   -0.214837
  21 S :    0.523185
  22 C :   -0.144534
  23 C :   -0.082711
  24 C :   -0.173280
  25 S :    0.416626
  26 C :   -0.096120
  27 N :   -0.084994
  28 C :   -0.057814
  29 C :    0.019502
  30 C :   -0.057048
  31 C :   -0.017707
  32 C :   -0.048221
  33 C :    0.038482
  34 N :   -0.009489
  35 C :    0.044180
  36 C :   -0.143253
  37 C :   -0.146917
  38 S :    0.453731
  39 C :   -0.218806
  40 C :   -0.069842
  41 C :   -0.055553
  42 C :   -0.123828
  43 S :    0.091567
  44 C :   -0.106114
  45 C :    0.042711
  46 O :    0.025967
  47 C :    0.015509
  48 C :   -0.023653
  49 C :   -0.037320
  50 C :   -0.044024
  51 C :   -0.197027
  52 S :    0.468966
  53 C :   -0.188253
  54 C :   -0.083359
  55 C :    0.016398
  56 O :   -0.003328
  57 C :    0.026654
  58 N :    0.271743
  59 O :   -0.211867
  60 O :   -0.190893
  61 C :   -0.010356
  62 H :    0.040004
  63 H :    0.040924
  64 H :    0.038346
  65 H :    0.045172
  66 H :    0.022723
  67 H :    0.027533
  68 H :    0.030027
  69 H :    0.025220
  70 H :    0.036094
  71 H :    0.039980
  72 H :    0.038621
  73 H :    0.032557
  74 H :    0.040544
  75 H :    0.077368
  76 H :    0.026066
  77 H :    0.020029
  78 H :    0.028835
  79 H :    0.036195
  80 H :    0.030828
  81 H :    0.039054
  82 H :    0.028191
  83 H :    0.046600

  Mayer bond orders larger than 0.100000
B(  0-C ,  1-C ) :   1.6037 B(  0-C ,  6-C ) :   0.9951 B(  0-C , 18-C ) :   1.0954
B(  1-C ,  2-C ) :   1.1492 B(  1-C ,  4-C ) :   1.1520 B(  2-C ,  3-N ) :   2.9660
B(  4-C ,  5-N ) :   2.9511 B(  6-C ,  7-C ) :   1.2754 B(  6-C , 11-C ) :   1.4177
B(  7-C ,  8-C ) :   1.4250 B(  7-C , 16-C ) :   0.9547 B(  8-C ,  9-C ) :   1.2393
B(  8-C , 62-H ) :   1.0173 B(  9-C , 10-C ) :   1.3102 B(  9-C , 14-C ) :   1.1632
B( 10-C , 11-C ) :   1.3238 B( 10-C , 12-S ) :   1.0867 B( 11-C , 63-H ) :   0.9796
B( 12-S , 13-C ) :   1.0873 B( 13-C , 14-C ) :   1.6173 B( 13-C , 15-Br) :   1.0174
B( 14-C , 64-H ) :   1.0001 B( 16-C , 17-O ) :   2.1182 B( 16-C , 18-C ) :   0.9906
B( 18-C , 19-C ) :   1.4762 B( 19-C , 20-C ) :   1.3249 B( 19-C , 65-H ) :   0.9366
B( 20-C , 21-S ) :   1.0685 B( 20-C , 24-C ) :   1.3696 B( 21-S , 22-C ) :   1.1441
B( 22-C , 23-C ) :   1.3240 B( 22-C , 28-C ) :   1.1422 B( 23-C , 24-C ) :   1.3170
B( 23-C , 27-N ) :   1.2874 B( 24-C , 25-S ) :   1.1031 B( 25-S , 26-C ) :   1.0917
B( 25-S , 27-N ) :   0.1019 B( 26-C , 27-N ) :   1.7756 B( 26-C , 66-H ) :   0.9640
B( 28-C , 29-C ) :   1.6586 B( 28-C , 67-H ) :   0.9687 B( 29-C , 30-C ) :   1.1087
B( 29-C , 68-H ) :   0.9514 B( 30-C , 31-C ) :   1.7544 B( 30-C , 69-H ) :   0.9787
B( 31-C , 32-C ) :   1.0936 B( 31-C , 33-C ) :   1.0007 B( 32-C , 70-H ) :   0.9476
B( 32-C , 71-H ) :   0.9365 B( 32-C , 72-H ) :   0.9330 B( 33-C , 34-N ) :   1.0329
B( 33-C , 73-H ) :   0.9483 B( 33-C , 74-H ) :   0.9260 B( 34-N , 35-C ) :   1.1996
B( 34-N , 75-H ) :   0.9459 B( 35-C , 36-C ) :   1.6663 B( 35-C , 76-H ) :   0.9570
B( 36-C , 37-C ) :   1.1285 B( 36-C , 77-H ) :   0.9501 B( 37-C , 38-S ) :   1.1126
B( 37-C , 41-C ) :   1.4592 B( 38-S , 39-C ) :   1.0638 B( 39-C , 40-C ) :   1.4451
B( 39-C , 45-C ) :   1.1602 B( 40-C , 41-C ) :   1.3147 B( 40-C , 42-C ) :   1.0023
B( 41-C , 78-H ) :   0.9926 B( 42-C , 43-S ) :   1.7484 B( 42-C , 44-C ) :   1.0183
B( 44-C , 45-C ) :   1.4183 B( 44-C , 48-C ) :   1.2394 B( 45-C , 46-O ) :   1.2331
B( 46-O , 47-C ) :   1.0559 B( 47-C , 48-C ) :   1.4546 B( 47-C , 49-C ) :   1.1305
B( 48-C , 79-H ) :   1.0130 B( 49-C , 50-C ) :   1.6415 B( 49-C , 80-H ) :   0.9675
B( 50-C , 51-C ) :   1.1607 B( 50-C , 81-H ) :   0.9795 B( 51-C , 52-S ) :   1.1170
B( 51-C , 53-C ) :   0.1125 B( 51-C , 55-C ) :   1.4656 B( 52-S , 53-C ) :   1.1822
B( 53-C , 54-C ) :   1.4396 B( 53-C , 82-H ) :   0.9763 B( 54-C , 55-C ) :   1.2089
B( 54-C , 61-C ) :   1.0583 B( 55-C , 56-O ) :   1.1102 B( 56-O , 57-C ) :   1.1245
B( 57-C , 58-N ) :   0.9151 B( 57-C , 61-C ) :   1.5834 B( 58-N , 59-O ) :   1.5326
B( 58-N , 60-O ) :   1.5164 B( 59-O , 60-O ) :   0.2800 B( 61-C , 83-H ) :   1.0239

-----------------------------------------------------------------------------
         ABSORPTION SPECTRUM VIA TRANSITION ELECTRIC DIPOLE MOMENTS
-----------------------------------------------------------------------------
State   Energy  Wavelength   fosc         T2         TX        TY        TZ
        (cm-1)    (nm)                  (au**2)     (au)      (au)      (au)
-----------------------------------------------------------------------------
   0   10123.1    987.8   0.065658672   2.13528   0.34215  -0.57279  -1.30005
   1   17800.6    561.8   0.300883949   5.56469  -1.80759   0.75778   1.31266
   2   18485.1    541.0   0.000006326   0.00011   0.00702  -0.00444   0.00661
   3   19102.4    523.5   1.504467856  25.92804   3.97661  -1.46494  -2.82287
   4   19551.2    511.5   0.178559006   3.00666   0.63354  -0.38939   1.56642
   5   23627.2    423.2   0.059612279   0.83062  -0.22448   0.20074   0.86019
   6   24732.5    404.3   0.261514252   3.48099  -0.85754   0.43832   1.59796
   7   25247.4    396.1   1.061033778  13.83530  -0.49166   1.06314   3.53034
   8   26717.7    374.3   0.006102199   0.07519   0.01534   0.04035   0.27079
   9   27896.8    358.5   0.350197493   4.13270  -0.69343  -0.41249   1.86593
  10   29006.3    344.8   0.007161357   0.08128   0.09641  -0.15974   0.21556
  11   29204.1    342.4   0.004402009   0.04962   0.17477  -0.12233  -0.06413
  12   29280.9    341.5   0.002516779   0.02830  -0.16567  -0.02784  -0.00871
  13   29636.8    337.4   0.048373002   0.53734   0.63074  -0.28366  -0.24298
  14   30264.9    330.4   0.066793316   0.72656  -0.70843   0.22730   0.41596
  15   30420.7    328.7   0.130317931   1.41030  -0.36149  -0.42388   1.04878
  16   30734.7    325.4   0.009242934   0.09900  -0.28371   0.08825   0.10356
  17   31432.5    318.1   0.102203162   1.07044  -0.45854   0.65798  -0.65364
  18   31923.3    313.3   0.060134786   0.62015   0.05553   0.52284   0.58626
  19   32497.2    307.7   0.311969619   3.16039  -0.50132   1.05677  -1.33877
  20   32660.3    306.2   0.032777980   0.33040   0.07694  -0.33337   0.46189
  21   32756.6    305.3   0.000001291   0.00001  -0.00245  -0.00253   0.00076
  22   33330.7    300.0   0.459870704   4.54220  -0.13796   0.70881  -2.00518
  23   33933.6    294.7   0.169331825   1.64280   0.07659   0.57110   1.14489
  24   34375.7    290.9   0.000011628   0.00011   0.00091   0.00435   0.00957
  25   35567.8    281.2   0.143721503   1.33027   0.30519   0.72567   0.84293
  26   36027.4    277.6   0.007345090   0.06712   0.00842  -0.08331  -0.24517
  27   36101.4    277.0   0.000036856   0.00034  -0.01171  -0.00977   0.01017
  28   36654.0    272.8   0.649755397   5.83586  -1.02537  -1.97440  -0.94139
  29   36872.7    271.2   0.037107939   0.33131   0.29341   0.46409   0.17276
  30   36898.9    271.0   0.080870983   0.72153  -0.70057   0.29297   0.38066
  31   37526.1    266.5   0.012094690   0.10611   0.30953   0.08857   0.04954
  32   37814.0    264.5   0.000980859   0.00854   0.06197   0.06384   0.02496
  33   38900.5    257.1   0.030600360   0.25897  -0.32912   0.25123  -0.29585
  34   39032.0    256.2   0.081966491   0.69134   0.67970  -0.45209   0.15799
  35   39241.6    254.8   0.035299264   0.29614  -0.29809  -0.29948   0.34292
  36   39294.1    254.5   0.128081583   1.07309   0.96789  -0.33037  -0.16473
  37   39351.8    254.1   0.074232529   0.62102   0.31602   0.43812  -0.57376
  38   39649.0    252.2   0.103041672   0.85557  -0.41179  -0.58533   0.58599
  39   39748.0    251.6   0.204638488   1.69491  -0.50914  -0.85455  -0.83990
  40   39941.4    250.4   0.008948669   0.07376   0.17919  -0.17017   0.11264
  41   40123.7    249.2   0.042538154   0.34902  -0.45276   0.02408   0.37875
  42   40272.5    248.3   0.022523970   0.18412   0.32100  -0.10232  -0.26574

FINAL SINGLE POINT ENERGY     -7337.067168148082

DIPOLE MOMENT
-------------
                                X             Y             Z
Electronic contribution:    135.92927     -34.70986    -132.46829
Nuclear contribution   :   -138.75171      33.45552     129.98878
                        -----------------------------------------
Total Dipole Moment    :     -2.82244      -1.25434      -2.47951
                        -----------------------------------------
Magnitude (a.u.)       :      3.96075
Magnitude (Debye)      :     10.06742

Rotational constants in cm-1:     0.002065     0.000140     0.000137
Rotational constants in MHz :    61.900144     4.186520     4.098465

                             ****ORCA TERMINATED NORMALLY****
TOTAL RUN TIME: 0 days 0 hours 9 minutes 43 seconds 28 msec
