                         Program Version 4.2.0 -  RELEASE  -
|  1> # ORCA input file
|  2> # SCF done       -154.587196651069          0.000771179489
|  3> ! CAM-B3LYP def2-SVP def2/J RIJCOSX Grid4 TightSCF
|  4> %maxcore 5000
|  5> %tddft
|  6>     Mode sTDDFT
|  7>     Ethresh 5.0
|  8>     maxcore 5000
|  9> end
| 10>
| 11> %pal
| 12>   nprocs 6
| 13>   end
| 14> * xyz 0 1
| 15>    C       10.24397       -13.37090        10.99093
| 16>    C       10.07118       -12.26580        10.25231
| 17>    C       10.92352       -11.11494        10.17845
| 18>    C       10.48920       -10.15065         9.33547
| 19>    C        9.26650       -10.45320         8.67775
| 20>    S        8.68380       -12.02951         9.17716
| 21>    C        8.58701        -9.67038         7.77270
| 22>    C        8.93554        -8.38946         7.28693
| 23>    C        8.04507        -7.88141         6.39274
| 24>    C        6.93333        -8.71728         6.11349
| 25>    S        7.07705       -10.19366         7.05116
| 26>    C        5.98641        -8.40884         5.16167
| 27>    C        4.84956        -9.07232         4.68933
| 28>    S        4.30535        -8.56988         3.10544
| 29>    C        3.05304        -9.77061         3.03456
| 30>    C        3.01507       -10.50474         4.23777
| 31>    C        4.00783       -10.09731         5.17854
| 32>    C        4.00410       -10.66221         6.46276
| 33>    C        3.11576       -11.65528         6.79137
| 34>    C        3.11383       -12.27384         8.15386
| 35>    C        2.18265       -12.09374         5.83099
| 36>    C        2.11754       -11.52836         4.58851
| 37>    C        2.28258        -9.87085         1.86560
| 38>    S        0.98758       -11.03546         1.62178
| 39>    C        0.64313       -10.50079        -0.00871
| 40>    C        1.49940        -9.45762        -0.33194
| 41>    C        2.40076        -9.11335         0.71056
| 42>    S        3.41570        -7.80764         0.19570
| 43>    C        2.55089        -7.84642        -1.33994
| 44>    N        1.62597        -8.71321        -1.46426
| 45>    C       -0.35168       -11.08248        -0.82345
| 46>    C       -1.17991       -12.07895        -0.43112
| 47>    C       -2.16656       -12.65323        -1.28809
| 48>    C       -3.03898       -13.60971        -0.92844
| 49>    C       -3.09346       -14.20390         0.44747
| 50>    C       -4.05498       -14.18240        -1.89233
| 51>    N       -4.05539       -13.58464        -3.19839
| 52>    C       -3.36954       -14.05735        -4.24195
| 53>    C       -3.25109       -13.41669        -5.44217
| 54>    C       -2.55485       -13.99657        -6.50890
| 55>    C       -2.38282       -13.42700        -7.74901
| 56>    C       -1.67916       -14.00151        -8.87093
| 57>    C       -1.05274       -15.22387        -8.92808
| 58>    C       -0.38678       -15.72207       -10.06526
| 59>    N        0.16609       -16.19080       -10.95679
| 60>    C       -0.98088       -16.15876        -7.87711
| 61>    N       -0.88007       -16.97566        -7.07440
| 62>    C       -1.74874       -13.04539        -9.97431
| 63>    C       -2.47947       -11.91132        -9.54635
| 64>    C       -2.90359       -12.10665        -8.14246
| 65>    O       -3.54877       -11.31904        -7.47580
| 66>    C       -2.71977       -10.83340       -10.36152
| 67>    C       -2.21414       -10.87497       -11.66550
| 68>    C       -1.48467       -12.01115       -12.08415
| 69>    C       -1.24140       -13.10218       -11.25853
| 70>    S       -0.94953       -11.85621       -13.73147
| 71>    C       -1.70508       -10.28801       -13.83174
| 72>    C       -2.32524        -9.89826       -12.69358
| 73>   Br       -1.60252        -9.31203       -15.43119
| 74>    H       11.10332       -13.47469        11.62946
| 75>    H        9.53929       -14.18157        10.96975
| 76>    H       11.82531       -11.06215        10.76224
| 77>    H       11.00451        -9.22324         9.15820
| 78>    H        9.82910        -7.88301         7.60452
| 79>    H        8.14981        -6.92247         5.91571
| 80>    H        6.21976        -7.50652         4.60434
| 81>    H        4.69229       -10.29727         7.20512
| 82>    H        2.17124       -12.06965         8.66133
| 83>    H        3.92865       -11.88491         8.75824
| 84>    H        3.22144       -13.35480         8.07661
| 85>    H        1.49336       -12.88164         6.09752
| 86>    H        1.37435       -11.85804         3.88098
| 87>    H        2.82051        -7.15228        -2.11153
| 88>    H       -0.41996       -10.66885        -1.82117
| 89>    H       -1.09117       -12.45876         0.57707
| 90>    H       -2.18173       -12.26970        -2.30016
| 91>    H       -2.13832       -14.65684         0.70832
| 92>    H       -3.86346       -14.96871         0.50887
| 93>    H       -3.31056       -13.43715         1.18978
| 94>    H       -5.05526       -14.06878        -1.45596
| 95>    H       -3.86459       -15.25606        -2.00445
| 96>    H       -4.44302       -12.65461        -3.27678
| 97>    H       -2.91224       -15.02905        -4.09942
| 98>    H       -3.70021       -12.44553        -5.58361
| 99>    H       -2.12222       -14.97197        -6.32869
|100>    H       -3.28092        -9.98351       -10.00567
|101>    H       -0.67922       -13.94392       -11.62641
|102>    H       -2.84016        -8.96164       -12.58081
|103> *
|104>
|105>                          ****END OF INPUT****

CARTESIAN COORDINATES (ANGSTROEM)
---------------------------------
  C     10.243970  -13.370900   10.990930
  C     10.071180  -12.265800   10.252310
  C     10.923520  -11.114940   10.178450
  C     10.489200  -10.150650    9.335470
  C      9.266500  -10.453200    8.677750
  S      8.683800  -12.029510    9.177160
  C      8.587010   -9.670380    7.772700
  C      8.935540   -8.389460    7.286930
  C      8.045070   -7.881410    6.392740
  C      6.933330   -8.717280    6.113490
  S      7.077050  -10.193660    7.051160
  C      5.986410   -8.408840    5.161670
  C      4.849560   -9.072320    4.689330
  S      4.305350   -8.569880    3.105440
  C      3.053040   -9.770610    3.034560
  C      3.015070  -10.504740    4.237770
  C      4.007830  -10.097310    5.178540
  C      4.004100  -10.662210    6.462760
  C      3.115760  -11.655280    6.791370
  C      3.113830  -12.273840    8.153860
  C      2.182650  -12.093740    5.830990
  C      2.117540  -11.528360    4.588510
  C      2.282580   -9.870850    1.865600
  S      0.987580  -11.035460    1.621780
  C      0.643130  -10.500790   -0.008710
  C      1.499400   -9.457620   -0.331940
  C      2.400760   -9.113350    0.710560
  S      3.415700   -7.807640    0.195700
  C      2.550890   -7.846420   -1.339940
  N      1.625970   -8.713210   -1.464260
  C     -0.351680  -11.082480   -0.823450
  C     -1.179910  -12.078950   -0.431120
  C     -2.166560  -12.653230   -1.288090
  C     -3.038980  -13.609710   -0.928440
  C     -3.093460  -14.203900    0.447470
  C     -4.054980  -14.182400   -1.892330
  N     -4.055390  -13.584640   -3.198390
  C     -3.369540  -14.057350   -4.241950
  C     -3.251090  -13.416690   -5.442170
  C     -2.554850  -13.996570   -6.508900
  C     -2.382820  -13.427000   -7.749010
  C     -1.679160  -14.001510   -8.870930
  C     -1.052740  -15.223870   -8.928080
  C     -0.386780  -15.722070  -10.065260
  N      0.166090  -16.190800  -10.956790
  C     -0.980880  -16.158760   -7.877110
  N     -0.880070  -16.975660   -7.074400
  C     -1.748740  -13.045390   -9.974310
  C     -2.479470  -11.911320   -9.546350
  C     -2.903590  -12.106650   -8.142460
  O     -3.548770  -11.319040   -7.475800
  C     -2.719770  -10.833400  -10.361520
  C     -2.214140  -10.874970  -11.665500
  C     -1.484670  -12.011150  -12.084150
  C     -1.241400  -13.102180  -11.258530
  S     -0.949530  -11.856210  -13.731470
  C     -1.705080  -10.288010  -13.831740
  C     -2.325240   -9.898260  -12.693580
  Br    -1.602520   -9.312030  -15.431190
  H     11.103320  -13.474690   11.629460
  H      9.539290  -14.181570   10.969750
  H     11.825310  -11.062150   10.762240
  H     11.004510   -9.223240    9.158200
  H      9.829100   -7.883010    7.604520
  H      8.149810   -6.922470    5.915710
  H      6.219760   -7.506520    4.604340
  H      4.692290  -10.297270    7.205120
  H      2.171240  -12.069650    8.661330
  H      3.928650  -11.884910    8.758240
  H      3.221440  -13.354800    8.076610
  H      1.493360  -12.881640    6.097520
  H      1.374350  -11.858040    3.880980
  H      2.820510   -7.152280   -2.111530
  H     -0.419960  -10.668850   -1.821170
  H     -1.091170  -12.458760    0.577070
  H     -2.181730  -12.269700   -2.300160
  H     -2.138320  -14.656840    0.708320
  H     -3.863460  -14.968710    0.508870
  H     -3.310560  -13.437150    1.189780
  H     -5.055260  -14.068780   -1.455960
  H     -3.864590  -15.256060   -2.004450
  H     -4.443020  -12.654610   -3.276780
  H     -2.912240  -15.029050   -4.099420
  H     -3.700210  -12.445530   -5.583610
  H     -2.122220  -14.971970   -6.328690
  H     -3.280920   -9.983510  -10.005670
  H     -0.679220  -13.943920  -11.626410
  H     -2.840160   -8.961640  -12.580810

 Total Charge           Charge          ....    0
 Multiplicity           Mult            ....    1
 Number of Electrons    NEL             ....  478
 Basis Dimension        Dim             .... 1013

ORBITAL ENERGIES
----------------

  NO   OCC          E(Eh)            E(eV)
   0   2.0000    -482.876019    -13139.7245
   1   2.0000     -88.964504     -2420.8472
   2   2.0000     -88.963158     -2420.8106
   3   2.0000     -88.962635     -2420.7964
   4   2.0000     -88.961666     -2420.7700
   5   2.0000     -88.942362     -2420.2447
   6   2.0000     -88.935139     -2420.0482
   7   2.0000     -62.553741     -1702.1738
   8   2.0000     -56.387678     -1534.3867
   9   2.0000     -56.384987     -1534.3135
  10   2.0000     -56.384949     -1534.3125
  11   2.0000     -19.196495      -522.3632
  12   2.0000     -14.467267      -393.6743
  13   2.0000     -14.416636      -392.2966
  14   2.0000     -14.399383      -391.8271
  15   2.0000     -14.395829      -391.7304
  16   2.0000     -10.347104      -281.5590
  17   2.0000     -10.347062      -281.5579
  18   2.0000     -10.345921      -281.5268
  19   2.0000     -10.338688      -281.3300
  20   2.0000     -10.332583      -281.1639
  21   2.0000     -10.322498      -280.8895
  22   2.0000     -10.319765      -280.8151
  23   2.0000     -10.318564      -280.7824
  24   2.0000     -10.311217      -280.5825
  25   2.0000     -10.311117      -280.5798
  26   2.0000     -10.307735      -280.4877
  27   2.0000     -10.305813      -280.4354
  28   2.0000     -10.305592      -280.4294
  29   2.0000     -10.305067      -280.4151
  30   2.0000     -10.304747      -280.4064
  31   2.0000     -10.304606      -280.4026
  32   2.0000     -10.303763      -280.3796
  33   2.0000     -10.303212      -280.3647
  34   2.0000     -10.303143      -280.3628
  35   2.0000     -10.300592      -280.2933
  36   2.0000     -10.300393      -280.2879
  37   2.0000     -10.293549      -280.1017
  38   2.0000     -10.291399      -280.0432
  39   2.0000     -10.290114      -280.0082
  40   2.0000     -10.288416      -279.9620
  41   2.0000     -10.286238      -279.9028
  42   2.0000     -10.286185      -279.9013
  43   2.0000     -10.285926      -279.8943
  44   2.0000     -10.285384      -279.8795
  45   2.0000     -10.282727      -279.8072
  46   2.0000     -10.282165      -279.7919
  47   2.0000     -10.281010      -279.7605
  48   2.0000     -10.281002      -279.7603
  49   2.0000     -10.280822      -279.7554
  50   2.0000     -10.280093      -279.7355
  51   2.0000     -10.277226      -279.6575
  52   2.0000     -10.275901      -279.6215
  53   2.0000     -10.275403      -279.6079
  54   2.0000     -10.273381      -279.5529
  55   2.0000     -10.272666      -279.5335
  56   2.0000     -10.272535      -279.5299
  57   2.0000     -10.268337      -279.4157
  58   2.0000     -10.268285      -279.4142
  59   2.0000     -10.266451      -279.3643
  60   2.0000     -10.263385      -279.2809
  61   2.0000     -10.262768      -279.2641
  62   2.0000     -10.259315      -279.1702
  63   2.0000      -8.783171      -239.0022
  64   2.0000      -8.059167      -219.3011
  65   2.0000      -8.058629      -219.2865
  66   2.0000      -8.057668      -219.2603
  67   2.0000      -8.057538      -219.2568
  68   2.0000      -8.038239      -218.7316
  69   2.0000      -8.031828      -218.5572
  70   2.0000      -6.619421      -180.1236
  71   2.0000      -6.604926      -179.7292
  72   2.0000      -6.604747      -179.7243
  73   2.0000      -6.028882      -164.0542
  74   2.0000      -6.028118      -164.0334
  75   2.0000      -6.027114      -164.0061
  76   2.0000      -6.026787      -163.9972
  77   2.0000      -6.024594      -163.9375
  78   2.0000      -6.024092      -163.9239
  79   2.0000      -6.022928      -163.8922
  80   2.0000      -6.022767      -163.8878
  81   2.0000      -6.020459      -163.8250
  82   2.0000      -6.020358      -163.8223
  83   2.0000      -6.020119      -163.8158
  84   2.0000      -6.018953      -163.7840
  85   2.0000      -6.008016      -163.4864
  86   2.0000      -6.003898      -163.3744
  87   2.0000      -6.001655      -163.3133
  88   2.0000      -5.999153      -163.2453
  89   2.0000      -5.997739      -163.2068
  90   2.0000      -5.992373      -163.0608
  91   2.0000      -2.735279       -74.4307
  92   2.0000      -2.731198       -74.3197
  93   2.0000      -2.731150       -74.3184
  94   2.0000      -2.719586       -74.0037
  95   2.0000      -2.719568       -74.0032
  96   2.0000      -1.109804       -30.1993
  97   2.0000      -1.070059       -29.1178
  98   2.0000      -1.066666       -29.0254
  99   2.0000      -1.007657       -27.4197
 100   2.0000      -0.998885       -27.1810
 101   2.0000      -0.997277       -27.1373
 102   2.0000      -0.988587       -26.9008
 103   2.0000      -0.977063       -26.5872
 104   2.0000      -0.973518       -26.4908
 105   2.0000      -0.972102       -26.4522
 106   2.0000      -0.965036       -26.2600
 107   2.0000      -0.933521       -25.4024
 108   2.0000      -0.930415       -25.3179
 109   2.0000      -0.926162       -25.2022
 110   2.0000      -0.911062       -24.7913
 111   2.0000      -0.898499       -24.4494
 112   2.0000      -0.892928       -24.2978
 113   2.0000      -0.891086       -24.2477
 114   2.0000      -0.876669       -23.8554
 115   2.0000      -0.871367       -23.7111
 116   2.0000      -0.868707       -23.6387
 117   2.0000      -0.860755       -23.4223
 118   2.0000      -0.849652       -23.1202
 119   2.0000      -0.843803       -22.9611
 120   2.0000      -0.839388       -22.8409
 121   2.0000      -0.830296       -22.5935
 122   2.0000      -0.825467       -22.4621
 123   2.0000      -0.820631       -22.3305
 124   2.0000      -0.815071       -22.1792
 125   2.0000      -0.813231       -22.1291
 126   2.0000      -0.802157       -21.8278
 127   2.0000      -0.785410       -21.3721
 128   2.0000      -0.777738       -21.1633
 129   2.0000      -0.772951       -21.0331
 130   2.0000      -0.750812       -20.4306
 131   2.0000      -0.746833       -20.3224
 132   2.0000      -0.740079       -20.1386
 133   2.0000      -0.723505       -19.6876
 134   2.0000      -0.714687       -19.4476
 135   2.0000      -0.711145       -19.3512
 136   2.0000      -0.696352       -18.9487
 137   2.0000      -0.693259       -18.8645
 138   2.0000      -0.682927       -18.5834
 139   2.0000      -0.677526       -18.4364
 140   2.0000      -0.673690       -18.3320
 141   2.0000      -0.663620       -18.0580
 142   2.0000      -0.657020       -17.8784
 143   2.0000      -0.654320       -17.8050
 144   2.0000      -0.643026       -17.4976
 145   2.0000      -0.634611       -17.2687
 146   2.0000      -0.631684       -17.1890
 147   2.0000      -0.622396       -16.9363
 148   2.0000      -0.620346       -16.8805
 149   2.0000      -0.614369       -16.7178
 150   2.0000      -0.612224       -16.6595
 151   2.0000      -0.606217       -16.4960
 152   2.0000      -0.597568       -16.2607
 153   2.0000      -0.595846       -16.2138
 154   2.0000      -0.593769       -16.1573
 155   2.0000      -0.580351       -15.7922
 156   2.0000      -0.577867       -15.7246
 157   2.0000      -0.571604       -15.5541
 158   2.0000      -0.567069       -15.4307
 159   2.0000      -0.559542       -15.2259
 160   2.0000      -0.554863       -15.0986
 161   2.0000      -0.552869       -15.0443
 162   2.0000      -0.543102       -14.7786
 163   2.0000      -0.540983       -14.7209
 164   2.0000      -0.533255       -14.5106
 165   2.0000      -0.531914       -14.4741
 166   2.0000      -0.530014       -14.4224
 167   2.0000      -0.526708       -14.3324
 168   2.0000      -0.522821       -14.2267
 169   2.0000      -0.522135       -14.2080
 170   2.0000      -0.519835       -14.1454
 171   2.0000      -0.515488       -14.0271
 172   2.0000      -0.510853       -13.9010
 173   2.0000      -0.506404       -13.7800
 174   2.0000      -0.504972       -13.7410
 175   2.0000      -0.502541       -13.6748
 176   2.0000      -0.500210       -13.6114
 177   2.0000      -0.497840       -13.5469
 178   2.0000      -0.494665       -13.4605
 179   2.0000      -0.494343       -13.4518
 180   2.0000      -0.493824       -13.4376
 181   2.0000      -0.491640       -13.3782
 182   2.0000      -0.491069       -13.3627
 183   2.0000      -0.488396       -13.2899
 184   2.0000      -0.484522       -13.1845
 185   2.0000      -0.481988       -13.1156
 186   2.0000      -0.478310       -13.0155
 187   2.0000      -0.477608       -12.9964
 188   2.0000      -0.476303       -12.9609
 189   2.0000      -0.471916       -12.8415
 190   2.0000      -0.465431       -12.6650
 191   2.0000      -0.463185       -12.6039
 192   2.0000      -0.459645       -12.5076
 193   2.0000      -0.457995       -12.4627
 194   2.0000      -0.455726       -12.4009
 195   2.0000      -0.450717       -12.2646
 196   2.0000      -0.447289       -12.1713
 197   2.0000      -0.445786       -12.1305
 198   2.0000      -0.443995       -12.0817
 199   2.0000      -0.438374       -11.9288
 200   2.0000      -0.434625       -11.8267
 201   2.0000      -0.433883       -11.8066
 202   2.0000      -0.431811       -11.7502
 203   2.0000      -0.428756       -11.6670
 204   2.0000      -0.427321       -11.6280
 205   2.0000      -0.425440       -11.5768
 206   2.0000      -0.425137       -11.5686
 207   2.0000      -0.423146       -11.5144
 208   2.0000      -0.418722       -11.3940
 209   2.0000      -0.415847       -11.3158
 210   2.0000      -0.412775       -11.2322
 211   2.0000      -0.410677       -11.1751
 212   2.0000      -0.407373       -11.0852
 213   2.0000      -0.407177       -11.0799
 214   2.0000      -0.400051       -10.8859
 215   2.0000      -0.399639       -10.8747
 216   2.0000      -0.392066       -10.6687
 217   2.0000      -0.390938       -10.6380
 218   2.0000      -0.386650       -10.5213
 219   2.0000      -0.377380       -10.2690
 220   2.0000      -0.373966       -10.1761
 221   2.0000      -0.367433        -9.9984
 222   2.0000      -0.365669        -9.9504
 223   2.0000      -0.357341        -9.7238
 224   2.0000      -0.351337        -9.5604
 225   2.0000      -0.336279        -9.1506
 226   2.0000      -0.333913        -9.0862
 227   2.0000      -0.327884        -8.9222
 228   2.0000      -0.322994        -8.7891
 229   2.0000      -0.317663        -8.6440
 230   2.0000      -0.315482        -8.5847
 231   2.0000      -0.311965        -8.4890
 232   2.0000      -0.306038        -8.3277
 233   2.0000      -0.301802        -8.2125
 234   2.0000      -0.281656        -7.6642
 235   2.0000      -0.278369        -7.5748
 236   2.0000      -0.258655        -7.0384
 237   2.0000      -0.244587        -6.6556
 238   2.0000      -0.197823        -5.3830
 239   0.0000      -0.082385        -2.2418
 240   0.0000      -0.066420        -1.8074
 241   0.0000      -0.042964        -1.1691
 242   0.0000      -0.038069        -1.0359
 243   0.0000      -0.013728        -0.3736

MULLIKEN ATOMIC CHARGES
-----------------------
   0 C :   -0.030473
   1 C :   -0.064553
   2 C :    0.048755
   3 C :    0.031676
   4 C :   -0.070517
   5 S :    0.074247
   6 C :   -0.052316
   7 C :    0.032052
   8 C :    0.026740
   9 C :   -0.031118
  10 S :    0.079683
  11 C :   -0.001806
  12 C :   -0.118772
  13 S :    0.125708
  14 C :   -0.096283
  15 C :    0.072068
  16 C :    0.135052
  17 C :   -0.088325
  18 C :   -0.043326
  19 C :    0.089366
  20 C :   -0.006104
  21 C :   -0.039158
  22 C :   -0.132369
  23 S :    0.096814
  24 C :   -0.125982
  25 C :    0.098528
  26 C :   -0.056487
  27 S :    0.093191
  28 C :    0.020062
  29 N :   -0.049032
  30 C :    0.004695
  31 C :   -0.001983
  32 C :    0.015205
  33 C :   -0.232953
  34 C :    0.081500
  35 C :    0.198090
  36 N :   -0.117885
  37 C :    0.092871
  38 C :   -0.025854
  39 C :   -0.031672
  40 C :   -0.097015
  41 C :    0.341319
  42 C :   -0.377505
  43 C :   -0.186293
  44 N :    0.135442
  45 C :   -0.187624
  46 N :    0.124861
  47 C :    0.006135
  48 C :   -0.004314
  49 C :    0.136052
  50 O :   -0.174031
  51 C :   -0.080988
  52 C :    0.119702
  53 C :   -0.091898
  54 C :   -0.026134
  55 S :    0.179076
  56 C :   -0.124354
  57 C :    0.037851
  58 Br:    0.012961
  59 H :    0.019011
  60 H :    0.020651
  61 H :   -0.013086
  62 H :   -0.013517
  63 H :   -0.017014
  64 H :   -0.015028
  65 H :   -0.014186
  66 H :   -0.030111
  67 H :    0.025842
  68 H :    0.015869
  69 H :    0.025876
  70 H :   -0.031682
  71 H :   -0.020343
  72 H :    0.045451
  73 H :    0.001659
  74 H :   -0.017024
  75 H :   -0.025986
  76 H :    0.041228
  77 H :    0.009545
  78 H :    0.038849
  79 H :    0.032984
  80 H :    0.035717
  81 H :    0.138833
  82 H :    0.029820
  83 H :    0.010556
  84 H :   -0.002298
  85 H :   -0.017303
  86 H :   -0.009153
  87 H :   -0.007737
Sum of atomic charges:   -0.0000000

LOEWDIN ATOMIC CHARGES
----------------------
   0 C :   -0.080152
   1 C :   -0.139071
   2 C :   -0.034459
   3 C :   -0.026662
   4 C :   -0.180903
   5 S :    0.347116
   6 C :   -0.181852
   7 C :   -0.040434
   8 C :   -0.032785
   9 C :   -0.155813
  10 S :    0.393057
  11 C :   -0.082928
  12 C :   -0.172327
  13 S :    0.460922
  14 C :   -0.191261
  15 C :   -0.048459
  16 C :   -0.041445
  17 C :   -0.031807
  18 C :   -0.022473
  19 C :   -0.044116
  20 C :   -0.020152
  21 C :   -0.024530
  22 C :   -0.196531
  23 S :    0.449334
  24 C :   -0.176681
  25 C :   -0.064037
  26 C :   -0.218747
  27 S :    0.369521
  28 C :   -0.093610
  29 N :   -0.084100
  30 C :   -0.024874
  31 C :   -0.037150
  32 C :   -0.052853
  33 C :   -0.051282
  34 C :   -0.050879
  35 C :    0.040498
  36 N :    0.041680
  37 C :    0.096043
  38 C :   -0.115438
  39 C :    0.076258
  40 C :   -0.134496
  41 C :    0.080786
  42 C :   -0.162517
  43 C :   -0.018953
  44 N :   -0.070819
  45 C :   -0.018046
  46 N :   -0.074091
  47 C :   -0.019673
  48 C :   -0.047752
  49 C :    0.082605
  50 O :   -0.166541
  51 C :    0.015860
  52 C :   -0.035857
  53 C :   -0.146348
  54 C :   -0.012508
  55 S :    0.426029
  56 C :   -0.274832
  57 C :   -0.071388
  58 Br:    0.128593
  59 H :    0.028137
  60 H :    0.025578
  61 H :    0.032725
  62 H :    0.031843
  63 H :    0.030466
  64 H :    0.031966
  65 H :    0.032982
  66 H :    0.008828
  67 H :    0.034875
  68 H :    0.031810
  69 H :    0.035035
  70 H :    0.026363
  71 H :    0.012186
  72 H :    0.021053
  73 H :    0.041264
  74 H :    0.016972
  75 H :    0.023391
  76 H :    0.040991
  77 H :    0.028440
  78 H :    0.040386
  79 H :    0.035404
  80 H :    0.038297
  81 H :    0.091056
  82 H :    0.039290
  83 H :    0.029792
  84 H :    0.038895
  85 H :    0.038077
  86 H :    0.040077
  87 H :    0.037154

  Mayer bond orders larger than 0.100000
B(  0-C ,  1-C ) :   1.8616 B(  0-C , 59-H ) :   0.9502 B(  0-C , 60-H ) :   0.9412
B(  1-C ,  2-C ) :   1.0829 B(  1-C ,  5-S ) :   1.0078 B(  2-C ,  3-C ) :   1.6543
B(  2-C , 61-H ) :   0.9930 B(  3-C ,  4-C ) :   1.1601 B(  3-C , 62-H ) :   0.9918
B(  4-C ,  5-S ) :   1.0427 B(  4-C ,  6-C ) :   1.5424 B(  6-C ,  7-C ) :   1.1761
B(  6-C , 10-S ) :   1.0368 B(  7-C ,  8-C ) :   1.5912 B(  7-C , 63-H ) :   0.9920
B(  8-C ,  9-C ) :   1.1507 B(  8-C , 64-H ) :   0.9975 B(  9-C , 10-S ) :   1.0282
B(  9-C , 11-C ) :   1.5885 B( 11-C , 12-C ) :   1.1978 B( 11-C , 65-H ) :   0.9352
B( 12-C , 13-S ) :   1.1303 B( 12-C , 14-C ) :   0.1025 B( 12-C , 16-C ) :   1.2876
B( 13-S , 14-C ) :   1.1393 B( 14-C , 15-C ) :   1.3121 B( 14-C , 22-C ) :   1.2407
B( 15-C , 16-C ) :   1.2253 B( 15-C , 21-C ) :   1.2043 B( 16-C , 17-C ) :   1.2110
B( 17-C , 18-C ) :   1.5346 B( 17-C , 66-H ) :   0.9731 B( 18-C , 19-C ) :   1.0500
B( 18-C , 20-C ) :   1.2332 B( 19-C , 67-H ) :   0.9548 B( 19-C , 68-H ) :   0.9611
B( 19-C , 69-H ) :   0.9552 B( 20-C , 21-C ) :   1.5458 B( 20-C , 70-H ) :   0.9904
B( 21-C , 71-H ) :   0.9787 B( 22-C , 23-S ) :   1.1142 B( 22-C , 24-C ) :   0.1054
B( 22-C , 26-C ) :   1.4755 B( 23-S , 24-C ) :   1.0873 B( 24-C , 25-C ) :   1.3996
B( 24-C , 30-C ) :   1.1747 B( 25-C , 26-C ) :   1.2610 B( 25-C , 29-N ) :   1.3107
B( 26-C , 27-S ) :   1.0501 B( 27-S , 28-C ) :   1.0776 B( 27-S , 29-N ) :   0.1053
B( 28-C , 29-N ) :   1.7953 B( 28-C , 72-H ) :   0.9621 B( 30-C , 31-C ) :   1.6237
B( 30-C , 73-H ) :   0.9877 B( 31-C , 32-C ) :   1.1224 B( 31-C , 74-H ) :   0.9720
B( 32-C , 33-C ) :   1.7712 B( 32-C , 75-H ) :   0.9681 B( 33-C , 34-C ) :   1.0791
B( 33-C , 35-C ) :   1.0103 B( 34-C , 76-H ) :   0.9469 B( 34-C , 77-H ) :   0.9567
B( 34-C , 78-H ) :   0.9473 B( 35-C , 36-N ) :   1.0242 B( 35-C , 79-H ) :   0.9319
B( 35-C , 80-H ) :   0.9251 B( 36-N , 37-C ) :   1.3070 B( 36-N , 81-H ) :   0.9311
B( 37-C , 38-C ) :   1.4452 B( 37-C , 82-H ) :   0.9655 B( 38-C , 39-C ) :   1.2812
B( 38-C , 83-H ) :   0.9659 B( 39-C , 40-C ) :   1.4532 B( 39-C , 84-H ) :   0.9548
B( 40-C , 41-C ) :   1.1065 B( 40-C , 49-C ) :   0.9776 B( 41-C , 42-C ) :   1.5898
B( 41-C , 47-C ) :   0.9911 B( 42-C , 43-C ) :   1.1472 B( 42-C , 45-C ) :   1.1551
B( 43-C , 44-N ) :   2.9638 B( 45-C , 46-N ) :   2.9529 B( 47-C , 48-C ) :   1.2820
B( 47-C , 54-C ) :   1.4176 B( 48-C , 49-C ) :   0.9361 B( 48-C , 51-C ) :   1.4289
B( 49-C , 50-O ) :   2.1803 B( 51-C , 52-C ) :   1.2394 B( 51-C , 85-H ) :   1.0159
B( 52-C , 53-C ) :   1.3180 B( 52-C , 57-C ) :   1.1583 B( 53-C , 54-C ) :   1.3239
B( 53-C , 55-S ) :   1.0814 B( 54-C , 86-H ) :   0.9783 B( 55-S , 56-C ) :   1.0863
B( 56-C , 57-C ) :   1.6213 B( 56-C , 58-Br) :   1.0126 B( 57-C , 87-H ) :   0.9998

-----------------------------------------------------------------------------
         ABSORPTION SPECTRUM VIA TRANSITION ELECTRIC DIPOLE MOMENTS
-----------------------------------------------------------------------------
State   Energy  Wavelength   fosc         T2         TX        TY        TZ
        (cm-1)    (nm)                  (au**2)     (au)      (au)      (au)
-----------------------------------------------------------------------------
   0   12317.1    811.9   1.514058151  40.46780   4.46498  -0.05136   4.53090
   1   19469.8    513.6   0.045387689   0.76745  -0.70988   0.32989  -0.39331
   2   20668.6    483.8   0.016429762   0.26170  -0.00704  -0.28489  -0.42483
   3   22300.1    448.4   0.293724736   4.33620   0.15556   1.89949   0.83901
   4   24458.0    408.9   0.040839797   0.54971   0.59011  -0.44322   0.07101
   5   24659.1    405.5   0.503840753   6.72653  -1.07028   0.37988   2.33168
   6   26912.1    371.6   0.010801708   0.13214  -0.05692   0.09402  -0.34649
   7   28064.9    356.3   0.190738886   2.23744   0.73711  -0.39820   1.23917
   8   28628.7    349.3   0.021720842   0.24978   0.44305  -0.20147   0.11354
   9   28817.0    347.0   0.086205328   0.98483  -0.51021   0.23829   0.81714
  10   29911.9    334.3   0.022420991   0.24677   0.19003  -0.30466   0.34327
  11   30524.5    327.6   0.796373143   8.58902  -0.03863  -1.54877   2.48774
  12   30662.0    326.1   0.020631876   0.22152   0.10891   0.36285  -0.27929
  13   31097.1    321.6   0.030011223   0.31772  -0.48808   0.26763  -0.08870
  14   31137.4    321.2   0.000274972   0.00291   0.02927  -0.01311  -0.04334
  15   31965.6    312.8   0.000262107   0.00270   0.02724  -0.03098   0.03158
  16   32004.8    312.5   0.120278661   1.23723  -0.43472   0.53512  -0.87286
  17   32098.1    311.5   0.217289212   2.22861   0.19207   1.06931  -1.02386
  18   32681.5    306.0   0.017333987   0.17461   0.01737   0.15284  -0.38852
  19   32875.3    304.2   0.040232452   0.40289   0.45179   0.44452  -0.03427
  20   33497.5    298.5   0.166588328   1.63722  -0.30642  -0.87696   0.87993
  21   34074.4    293.5   0.027374314   0.26448  -0.39284  -0.33103  -0.02401
  22   35010.9    285.6   0.052582939   0.49444  -0.03998   0.27329  -0.64665
  23   35144.9    284.5   0.330946372   3.10006  -0.62067   1.56373  -0.51920
  24   35718.5    280.0   0.352576869   3.24964  -1.03781  -1.39160   0.48584
  25   36132.0    276.8   0.015054220   0.13716   0.24464   0.24113  -0.13847
  26   36269.8    275.7   0.041272858   0.37462   0.12605   0.38625  -0.45776
  27   36482.9    274.1   0.002399961   0.02166  -0.07852  -0.01283   0.12380
  28   37099.1    269.5   0.035593840   0.31585  -0.48119  -0.28455  -0.05779
  29   37317.2    268.0   0.019130825   0.16877   0.09494   0.30721  -0.25570
  30   37503.6    266.6   0.120829454   1.06066   0.08898   0.71821  -0.73274
  31   37546.2    266.3   0.004168590   0.03655   0.13504  -0.00351   0.13529
  32   37745.6    264.9   0.209442690   1.82673   0.51696   0.95556  -0.80399
  33   37905.7    263.8   0.014293016   0.12414   0.05309  -0.11679   0.32814
  34   38205.4    261.7   0.076374474   0.65811  -0.75949  -0.20776  -0.19524
  35   38877.9    257.2   0.495917991   4.19936  -0.69965  -1.69407   0.91650

FINAL SINGLE POINT ENERGY     -7062.277294013762

DIPOLE MOMENT
-------------
                                X             Y             Z
Electronic contribution:    -28.31176      38.60254    -213.13709
Nuclear contribution   :     27.75314     -36.54178     216.93100
                        -----------------------------------------
Total Dipole Moment    :     -0.55863       2.06075       3.79391
                        -----------------------------------------
Magnitude (a.u.)       :      4.35345
Magnitude (Debye)      :     11.06560

Rotational constants in cm-1:     0.001831     0.000217     0.000207
Rotational constants in MHz :    54.890081     6.493144     6.218243

                             ****ORCA TERMINATED NORMALLY****
TOTAL RUN TIME: 0 days 0 hours 6 minutes 38 seconds 727 msec
