                         Program Version 4.2.0 -  RELEASE  -
|  1> # ORCA input file
|  2> # SCF done       -132.757025579677          0.000642853429
|  3> ! CAM-B3LYP def2-SVP def2/J RIJCOSX Grid4 TightSCF
|  4> %maxcore 5000
|  5> %tddft
|  6>     Mode sTDDFT
|  7>     Ethresh 5.0
|  8>     maxcore 5000
|  9> end
| 10>
| 11> %pal
| 12>   nprocs 6
| 13>   end
| 14> * xyz 0 1
| 15>    C        1.41729       -16.15570         0.92145
| 16>    C        1.32414       -15.50232        -0.24531
| 17>    C        0.77550       -15.97465        -1.48252
| 18>    C        0.81092       -15.07631        -2.49429
| 19>    C        1.38633       -13.82433        -2.15624
| 20>    S        1.89325       -13.83978        -0.47193
| 21>    C        1.56075       -12.71811        -2.95189
| 22>    C        1.20277       -12.55567        -4.31280
| 23>    C        1.51137       -11.33135        -4.81781
| 24>    C        2.13315       -10.45358        -3.89493
| 25>    S        2.30392       -11.25079        -2.34172
| 26>    C        2.55905        -9.17310        -4.14965
| 27>    C        3.18326        -8.36015        -3.18408
| 28>    O        3.32991        -8.90743        -1.94502
| 29>    C        3.96272        -8.02410        -1.14098
| 30>    C        4.23718        -6.86298        -1.86566
| 31>    C        3.73860        -7.06928        -3.17086
| 32>    O        3.83944        -6.12042        -4.14541
| 33>    C        3.30074        -6.37715        -5.41713
| 34>    O        4.86837        -5.80650        -1.29714
| 35>    C        5.11837        -4.67429        -2.10065
| 36>    C        4.24575        -8.35095         0.20392
| 37>    C        3.86118        -9.52718         0.76432
| 38>    C        4.12079        -9.93236         2.08743
| 39>    S        5.06925        -8.97983         3.24071
| 40>    C        3.72382       -11.08992         2.71668
| 41>    N        2.92915       -12.17493         2.42934
| 42>    C        3.05343       -13.08937         3.55332
| 43>    O        3.73400       -12.40167         4.59228
| 44>    C        4.15854       -11.21919         4.05175
| 45>    C        4.90741       -10.17912         4.52581
| 46>    C        5.48583        -9.98217         5.80238
| 47>    S        5.21977       -11.13138         7.11447
| 48>    C        6.26856        -8.95853         6.26493
| 49>    N        6.88274        -7.83288         5.75197
| 50>    C        7.48709        -7.14775         6.88786
| 51>    O        7.38588        -8.00177         8.01706
| 52>    C        6.63485        -9.07182         7.62446
| 53>    C        6.16295       -10.17979         8.26547
| 54>    C        6.31079       -10.58935         9.61751
| 55>    S        7.17897        -9.60575        10.79255
| 56>    C        5.83453       -11.70681        10.24168
| 57>    N        5.17274       -12.87100         9.90119
| 58>    C        4.89866       -13.56196        11.15403
| 59>    O        5.61184       -12.89658        12.18608
| 60>    C        6.14396       -11.77025        11.62653
| 61>    C        6.85905       -10.72378        12.08937
| 62>    H        1.05702       -17.16482         1.01241
| 63>    H        1.84579       -15.70016         1.79540
| 64>    H        0.37621       -16.97054        -1.55803
| 65>    H        0.43958       -15.26712        -3.48595
| 66>    H        0.73100       -13.34102        -4.87599
| 67>    H        1.31481       -11.02538        -5.83104
| 68>    H        2.40428        -8.79574        -5.14587
| 69>    H        3.48194        -5.47088        -5.99483
| 70>    H        2.22385        -6.56307        -5.36643
| 71>    H        3.80290        -7.21971        -5.90258
| 72>    H        5.63366        -3.96714        -1.45244
| 73>    H        4.18961        -4.22929        -2.46476
| 74>    H        5.75410        -4.92152        -2.95374
| 75>    H        4.78804        -7.61146         0.77294
| 76>    H        3.30202       -10.23259         0.16356
| 77>    H        2.86527       -12.55243         1.49772
| 78>    H        3.62220       -14.00051         3.29328
| 79>    H        2.05973       -13.38430         3.92117
| 80>    H        6.41171        -7.28201         5.05215
| 81>    H        6.99000        -6.18936         7.11742
| 82>    H        8.55204        -6.95522         6.69133
| 83>    H        4.45115       -12.84827         9.19816
| 84>    H        5.25378       -14.60149        11.10036
| 85>    H        3.82385       -13.56779        11.40769
| 86>    H        7.21942       -10.51787        13.07458
| 87> *
| 88>
| 89>                          ****END OF INPUT****

CARTESIAN COORDINATES (ANGSTROEM)
---------------------------------
  C      1.417290  -16.155700    0.921450
  C      1.324140  -15.502320   -0.245310
  C      0.775500  -15.974650   -1.482520
  C      0.810920  -15.076310   -2.494290
  C      1.386330  -13.824330   -2.156240
  S      1.893250  -13.839780   -0.471930
  C      1.560750  -12.718110   -2.951890
  C      1.202770  -12.555670   -4.312800
  C      1.511370  -11.331350   -4.817810
  C      2.133150  -10.453580   -3.894930
  S      2.303920  -11.250790   -2.341720
  C      2.559050   -9.173100   -4.149650
  C      3.183260   -8.360150   -3.184080
  O      3.329910   -8.907430   -1.945020
  C      3.962720   -8.024100   -1.140980
  C      4.237180   -6.862980   -1.865660
  C      3.738600   -7.069280   -3.170860
  O      3.839440   -6.120420   -4.145410
  C      3.300740   -6.377150   -5.417130
  O      4.868370   -5.806500   -1.297140
  C      5.118370   -4.674290   -2.100650
  C      4.245750   -8.350950    0.203920
  C      3.861180   -9.527180    0.764320
  C      4.120790   -9.932360    2.087430
  S      5.069250   -8.979830    3.240710
  C      3.723820  -11.089920    2.716680
  N      2.929150  -12.174930    2.429340
  C      3.053430  -13.089370    3.553320
  O      3.734000  -12.401670    4.592280
  C      4.158540  -11.219190    4.051750
  C      4.907410  -10.179120    4.525810
  C      5.485830   -9.982170    5.802380
  S      5.219770  -11.131380    7.114470
  C      6.268560   -8.958530    6.264930
  N      6.882740   -7.832880    5.751970
  C      7.487090   -7.147750    6.887860
  O      7.385880   -8.001770    8.017060
  C      6.634850   -9.071820    7.624460
  C      6.162950  -10.179790    8.265470
  C      6.310790  -10.589350    9.617510
  S      7.178970   -9.605750   10.792550
  C      5.834530  -11.706810   10.241680
  N      5.172740  -12.871000    9.901190
  C      4.898660  -13.561960   11.154030
  O      5.611840  -12.896580   12.186080
  C      6.143960  -11.770250   11.626530
  C      6.859050  -10.723780   12.089370
  H      1.057020  -17.164820    1.012410
  H      1.845790  -15.700160    1.795400
  H      0.376210  -16.970540   -1.558030
  H      0.439580  -15.267120   -3.485950
  H      0.731000  -13.341020   -4.875990
  H      1.314810  -11.025380   -5.831040
  H      2.404280   -8.795740   -5.145870
  H      3.481940   -5.470880   -5.994830
  H      2.223850   -6.563070   -5.366430
  H      3.802900   -7.219710   -5.902580
  H      5.633660   -3.967140   -1.452440
  H      4.189610   -4.229290   -2.464760
  H      5.754100   -4.921520   -2.953740
  H      4.788040   -7.611460    0.772940
  H      3.302020  -10.232590    0.163560
  H      2.865270  -12.552430    1.497720
  H      3.622200  -14.000510    3.293280
  H      2.059730  -13.384300    3.921170
  H      6.411710   -7.282010    5.052150
  H      6.990000   -6.189360    7.117420
  H      8.552040   -6.955220    6.691330
  H      4.451150  -12.848270    9.198160
  H      5.253780  -14.601490   11.100360
  H      3.823850  -13.567790   11.407690
  H      7.219420  -10.517870   13.074580

 Total Charge           Charge          ....    0
 Multiplicity           Mult            ....    1
 Number of Electrons    NEL             ....  372
 Basis Dimension        Dim             ....  803

ORBITAL ENERGIES
----------------

  NO   OCC          E(Eh)            E(eV)
   0   2.0000     -88.935735     -2420.0644
   1   2.0000     -88.933537     -2420.0046
   2   2.0000     -88.933425     -2420.0015
   3   2.0000     -88.933106     -2419.9929
   4   2.0000     -88.925240     -2419.7788
   5   2.0000     -19.277031      -524.5547
   6   2.0000     -19.255763      -523.9759
   7   2.0000     -19.247694      -523.7564
   8   2.0000     -19.244776      -523.6770
   9   2.0000     -19.239840      -523.5427
  10   2.0000     -19.238355      -523.5023
  11   2.0000     -14.422374      -392.4528
  12   2.0000     -14.422080      -392.4447
  13   2.0000     -14.417445      -392.3186
  14   2.0000     -10.358165      -281.8600
  15   2.0000     -10.355838      -281.7967
  16   2.0000     -10.352312      -281.7007
  17   2.0000     -10.335013      -281.2300
  18   2.0000     -10.331452      -281.1331
  19   2.0000     -10.325104      -280.9604
  20   2.0000     -10.319914      -280.8191
  21   2.0000     -10.317392      -280.7505
  22   2.0000     -10.312691      -280.6226
  23   2.0000     -10.311141      -280.5804
  24   2.0000     -10.310606      -280.5659
  25   2.0000     -10.309299      -280.5303
  26   2.0000     -10.301825      -280.3269
  27   2.0000     -10.301689      -280.3232
  28   2.0000     -10.298416      -280.2341
  29   2.0000     -10.297948      -280.2214
  30   2.0000     -10.297265      -280.2028
  31   2.0000     -10.295260      -280.1483
  32   2.0000     -10.295092      -280.1437
  33   2.0000     -10.290927      -280.0303
  34   2.0000     -10.289272      -279.9853
  35   2.0000     -10.286367      -279.9063
  36   2.0000     -10.282823      -279.8098
  37   2.0000     -10.282489      -279.8008
  38   2.0000     -10.281409      -279.7714
  39   2.0000     -10.279076      -279.7079
  40   2.0000     -10.277732      -279.6713
  41   2.0000     -10.274610      -279.5863
  42   2.0000     -10.274158      -279.5741
  43   2.0000     -10.268099      -279.4092
  44   2.0000     -10.267728      -279.3991
  45   2.0000     -10.262119      -279.2465
  46   2.0000     -10.258370      -279.1444
  47   2.0000      -8.031864      -218.5581
  48   2.0000      -8.028052      -218.4544
  49   2.0000      -8.028002      -218.4530
  50   2.0000      -8.027970      -218.4522
  51   2.0000      -8.020160      -218.2396
  52   2.0000      -6.001703      -163.3146
  53   2.0000      -5.998078      -163.2160
  54   2.0000      -5.998061      -163.2155
  55   2.0000      -5.998024      -163.2145
  56   2.0000      -5.998014      -163.2143
  57   2.0000      -5.994026      -163.1057
  58   2.0000      -5.993911      -163.1026
  59   2.0000      -5.993688      -163.0965
  60   2.0000      -5.992390      -163.0612
  61   2.0000      -5.990199      -163.0016
  62   2.0000      -5.988873      -162.9655
  63   2.0000      -5.988744      -162.9620
  64   2.0000      -5.988638      -162.9591
  65   2.0000      -5.985815      -162.8823
  66   2.0000      -5.981096      -162.7539
  67   2.0000      -1.200061       -32.6553
  68   2.0000      -1.170183       -31.8423
  69   2.0000      -1.168102       -31.7857
  70   2.0000      -1.163049       -31.6482
  71   2.0000      -1.156461       -31.4689
  72   2.0000      -1.136161       -30.9165
  73   2.0000      -1.010050       -27.4849
  74   2.0000      -1.009024       -27.4569
  75   2.0000      -1.004249       -27.3270
  76   2.0000      -0.982798       -26.7433
  77   2.0000      -0.966253       -26.2931
  78   2.0000      -0.960978       -26.1495
  79   2.0000      -0.953576       -25.9481
  80   2.0000      -0.938675       -25.5426
  81   2.0000      -0.903856       -24.5952
  82   2.0000      -0.890565       -24.2335
  83   2.0000      -0.879117       -23.9220
  84   2.0000      -0.859917       -23.3995
  85   2.0000      -0.845996       -23.0207
  86   2.0000      -0.836622       -22.7656
  87   2.0000      -0.829383       -22.5687
  88   2.0000      -0.822301       -22.3760
  89   2.0000      -0.819883       -22.3102
  90   2.0000      -0.812765       -22.1165
  91   2.0000      -0.811828       -22.0910
  92   2.0000      -0.803399       -21.8616
  93   2.0000      -0.792903       -21.5760
  94   2.0000      -0.774295       -21.0696
  95   2.0000      -0.770026       -20.9535
  96   2.0000      -0.752365       -20.4729
  97   2.0000      -0.735817       -20.0226
  98   2.0000      -0.731389       -19.9021
  99   2.0000      -0.727097       -19.7853
 100   2.0000      -0.721478       -19.6324
 101   2.0000      -0.701612       -19.0918
 102   2.0000      -0.692633       -18.8475
 103   2.0000      -0.682668       -18.5763
 104   2.0000      -0.680196       -18.5091
 105   2.0000      -0.674639       -18.3579
 106   2.0000      -0.664562       -18.0836
 107   2.0000      -0.645211       -17.5571
 108   2.0000      -0.641747       -17.4628
 109   2.0000      -0.637120       -17.3369
 110   2.0000      -0.632917       -17.2225
 111   2.0000      -0.632434       -17.2094
 112   2.0000      -0.617366       -16.7994
 113   2.0000      -0.612339       -16.6626
 114   2.0000      -0.603209       -16.4142
 115   2.0000      -0.591464       -16.0946
 116   2.0000      -0.588771       -16.0213
 117   2.0000      -0.581960       -15.8359
 118   2.0000      -0.579882       -15.7794
 119   2.0000      -0.577962       -15.7272
 120   2.0000      -0.573560       -15.6074
 121   2.0000      -0.573490       -15.6055
 122   2.0000      -0.566614       -15.4184
 123   2.0000      -0.565078       -15.3765
 124   2.0000      -0.552425       -15.0323
 125   2.0000      -0.545969       -14.8566
 126   2.0000      -0.544209       -14.8087
 127   2.0000      -0.535686       -14.5768
 128   2.0000      -0.533327       -14.5126
 129   2.0000      -0.532094       -14.4790
 130   2.0000      -0.529851       -14.4180
 131   2.0000      -0.525753       -14.3065
 132   2.0000      -0.522721       -14.2240
 133   2.0000      -0.520641       -14.1674
 134   2.0000      -0.516766       -14.0619
 135   2.0000      -0.514815       -14.0088
 136   2.0000      -0.504112       -13.7176
 137   2.0000      -0.501136       -13.6366
 138   2.0000      -0.496403       -13.5078
 139   2.0000      -0.492243       -13.3946
 140   2.0000      -0.486735       -13.2447
 141   2.0000      -0.485703       -13.2167
 142   2.0000      -0.484665       -13.1884
 143   2.0000      -0.480277       -13.0690
 144   2.0000      -0.480002       -13.0615
 145   2.0000      -0.473760       -12.8917
 146   2.0000      -0.471626       -12.8336
 147   2.0000      -0.458504       -12.4765
 148   2.0000      -0.454109       -12.3569
 149   2.0000      -0.453224       -12.3329
 150   2.0000      -0.452110       -12.3025
 151   2.0000      -0.448030       -12.1915
 152   2.0000      -0.443713       -12.0741
 153   2.0000      -0.433072       -11.7845
 154   2.0000      -0.431896       -11.7525
 155   2.0000      -0.431372       -11.7382
 156   2.0000      -0.427997       -11.6464
 157   2.0000      -0.425832       -11.5875
 158   2.0000      -0.421253       -11.4629
 159   2.0000      -0.420121       -11.4321
 160   2.0000      -0.419483       -11.4147
 161   2.0000      -0.414352       -11.2751
 162   2.0000      -0.413279       -11.2459
 163   2.0000      -0.411765       -11.2047
 164   2.0000      -0.400391       -10.8952
 165   2.0000      -0.394312       -10.7298
 166   2.0000      -0.392070       -10.6688
 167   2.0000      -0.389527       -10.5996
 168   2.0000      -0.389138       -10.5890
 169   2.0000      -0.378992       -10.3129
 170   2.0000      -0.375781       -10.2255
 171   2.0000      -0.368732       -10.0337
 172   2.0000      -0.365714        -9.9516
 173   2.0000      -0.357726        -9.7342
 174   2.0000      -0.340812        -9.2740
 175   2.0000      -0.330031        -8.9806
 176   2.0000      -0.321762        -8.7556
 177   2.0000      -0.314810        -8.5664
 178   2.0000      -0.290919        -7.9163
 179   2.0000      -0.285338        -7.7644
 180   2.0000      -0.263075        -7.1586
 181   2.0000      -0.248914        -6.7733
 182   2.0000      -0.242121        -6.5884
 183   2.0000      -0.235853        -6.4179
 184   2.0000      -0.216893        -5.9020
 185   2.0000      -0.190734        -5.1901
 186   0.0000      -0.060447        -1.6448
 187   0.0000      -0.017075        -0.4646
 188   0.0000       0.014075         0.3830
 189   0.0000       0.032133         0.8744
 190   0.0000       0.050591         1.3766

MULLIKEN ATOMIC CHARGES
-----------------------
   0 C :   -0.042167
   1 C :   -0.036540
   2 C :    0.035515
   3 C :    0.033248
   4 C :   -0.060797
   5 S :    0.006253
   6 C :   -0.017462
   7 C :    0.013199
   8 C :    0.028326
   9 C :   -0.014309
  10 S :    0.078006
  11 C :   -0.072840
  12 C :    0.082410
  13 O :   -0.249516
  14 C :    0.119467
  15 C :    0.123416
  16 C :    0.130365
  17 O :   -0.319162
  18 C :    0.181776
  19 O :   -0.309226
  20 C :    0.203021
  21 C :   -0.071922
  22 C :    0.011255
  23 C :   -0.176073
  24 S :    0.056454
  25 C :    0.155611
  26 N :   -0.202889
  27 C :    0.337095
  28 O :   -0.316509
  29 C :    0.142141
  30 C :   -0.156816
  31 C :   -0.187963
  32 S :    0.096955
  33 C :    0.112612
  34 N :   -0.198511
  35 C :    0.343501
  36 O :   -0.311241
  37 C :    0.150549
  38 C :   -0.173375
  39 C :   -0.180701
  40 S :    0.104637
  41 C :    0.075448
  42 N :   -0.205837
  43 C :    0.342080
  44 O :   -0.310100
  45 C :    0.251558
  46 C :   -0.217406
  47 H :    0.016715
  48 H :    0.001000
  49 H :   -0.016644
  50 H :   -0.014880
  51 H :   -0.021670
  52 H :   -0.020892
  53 H :   -0.033086
  54 H :    0.035950
  55 H :    0.031386
  56 H :    0.031597
  57 H :    0.027891
  58 H :    0.018948
  59 H :    0.020407
  60 H :   -0.005145
  61 H :   -0.011759
  62 H :    0.137163
  63 H :    0.025799
  64 H :    0.027648
  65 H :    0.131758
  66 H :    0.020180
  67 H :    0.027131
  68 H :    0.131952
  69 H :    0.023841
  70 H :    0.017021
  71 H :    0.014151
Sum of atomic charges:    0.0000000

LOEWDIN ATOMIC CHARGES
----------------------
   0 C :   -0.098769
   1 C :   -0.132918
   2 C :   -0.046946
   3 C :   -0.022592
   4 C :   -0.191134
   5 S :    0.339118
   6 C :   -0.175775
   7 C :   -0.049058
   8 C :   -0.030993
   9 C :   -0.162005
  10 S :    0.386421
  11 C :   -0.074407
  12 C :   -0.015315
  13 O :   -0.004455
  14 C :    0.022995
  15 C :   -0.011744
  16 C :   -0.005439
  17 O :   -0.101893
  18 C :    0.078231
  19 O :   -0.107905
  20 C :    0.080201
  21 C :   -0.070625
  22 C :   -0.024260
  23 C :   -0.215854
  24 S :    0.369452
  25 C :   -0.010533
  26 N :   -0.049100
  27 C :    0.164190
  28 O :   -0.112842
  29 C :   -0.012126
  30 C :   -0.197496
  31 C :   -0.228607
  32 S :    0.393227
  33 C :   -0.027193
  34 N :   -0.057881
  35 C :    0.165241
  36 O :   -0.109034
  37 C :   -0.006396
  38 C :   -0.206196
  39 C :   -0.227717
  40 S :    0.401612
  41 C :   -0.037509
  42 N :   -0.061990
  43 C :    0.163214
  44 O :   -0.111757
  45 C :    0.002180
  46 C :   -0.226523
  47 H :    0.027643
  48 H :    0.017926
  49 H :    0.031461
  50 H :    0.032164
  51 H :    0.027740
  52 H :    0.029791
  53 H :    0.033284
  54 H :    0.029789
  55 H :    0.016965
  56 H :    0.016743
  57 H :    0.023025
  58 H :    0.014145
  59 H :    0.014526
  60 H :    0.031307
  61 H :    0.027660
  62 H :    0.053334
  63 H :    0.007893
  64 H :    0.014490
  65 H :    0.070545
  66 H :    0.008971
  67 H :    0.015130
  68 H :    0.069624
  69 H :    0.013649
  70 H :    0.006968
  71 H :    0.024131

  Mayer bond orders larger than 0.100000
B(  0-C ,  1-C ) :   1.8569 B(  0-C , 47-H ) :   0.9487 B(  0-C , 48-H ) :   0.9416
B(  1-C ,  2-C ) :   1.0908 B(  1-C ,  5-S ) :   1.0041 B(  2-C ,  3-C ) :   1.6458
B(  2-C , 49-H ) :   0.9923 B(  3-C ,  4-C ) :   1.1729 B(  3-C , 50-H ) :   0.9898
B(  4-C ,  5-S ) :   1.0256 B(  4-C ,  6-C ) :   1.5380 B(  6-C ,  7-C ) :   1.1806
B(  6-C , 10-S ) :   1.0244 B(  7-C ,  8-C ) :   1.5958 B(  7-C , 51-H ) :   0.9931
B(  8-C ,  9-C ) :   1.1498 B(  8-C , 52-H ) :   0.9969 B(  9-C , 10-S ) :   1.0347
B(  9-C , 11-C ) :   1.5555 B( 11-C , 12-C ) :   1.2002 B( 11-C , 53-H ) :   0.9614
B( 12-C , 13-O ) :   1.0744 B( 12-C , 14-C ) :   0.1066 B( 12-C , 16-C ) :   1.2653
B( 13-O , 14-C ) :   1.1217 B( 14-C , 15-C ) :   1.3733 B( 14-C , 21-C ) :   1.1964
B( 15-C , 16-C ) :   1.2580 B( 15-C , 19-O ) :   1.1920 B( 16-C , 17-O ) :   1.1493
B( 17-O , 18-C ) :   0.9559 B( 18-C , 54-H ) :   0.9753 B( 18-C , 55-H ) :   0.9660
B( 18-C , 56-H ) :   0.9664 B( 19-O , 20-C ) :   0.9449 B( 20-C , 57-H ) :   0.9800
B( 20-C , 58-H ) :   0.9733 B( 20-C , 59-H ) :   0.9730 B( 21-C , 22-C ) :   1.5590
B( 21-C , 60-H ) :   0.9706 B( 22-C , 23-C ) :   1.1991 B( 22-C , 61-H ) :   0.9824
B( 23-C , 24-S ) :   1.0105 B( 23-C , 25-C ) :   1.4801 B( 24-S , 30-C ) :   1.0535
B( 25-C , 26-N ) :   1.1547 B( 25-C , 29-C ) :   1.2127 B( 26-N , 27-C ) :   1.0103
B( 26-N , 62-H ) :   0.9025 B( 27-C , 28-O ) :   0.9814 B( 27-C , 63-H ) :   0.9520
B( 27-C , 64-H ) :   0.9566 B( 28-O , 29-C ) :   1.0994 B( 29-C , 30-C ) :   1.5642
B( 30-C , 31-C ) :   1.2042 B( 31-C , 32-S ) :   1.0420 B( 31-C , 33-C ) :   1.5291
B( 32-S , 38-C ) :   1.0462 B( 33-C , 34-N ) :   1.1353 B( 33-C , 37-C ) :   1.2150
B( 34-N , 35-C ) :   1.0058 B( 34-N , 65-H ) :   0.9172 B( 35-C , 36-O ) :   0.9835
B( 35-C , 66-H ) :   0.9563 B( 35-C , 67-H ) :   0.9572 B( 36-O , 37-C ) :   1.1034
B( 37-C , 38-C ) :   1.5879 B( 38-C , 39-C ) :   1.1904 B( 39-C , 40-S ) :   1.0731
B( 39-C , 41-C ) :   1.5331 B( 40-S , 46-C ) :   1.0789 B( 41-C , 42-N ) :   1.1281
B( 41-C , 45-C ) :   1.2127 B( 42-N , 43-C ) :   1.0044 B( 42-N , 68-H ) :   0.9200
B( 43-C , 44-O ) :   0.9891 B( 43-C , 69-H ) :   0.9575 B( 43-C , 70-H ) :   0.9556
B( 44-O , 45-C ) :   1.0913 B( 45-C , 46-C ) :   1.5830 B( 46-C , 71-H ) :   0.9870

-----------------------------------------------------------------------------
         ABSORPTION SPECTRUM VIA TRANSITION ELECTRIC DIPOLE MOMENTS
-----------------------------------------------------------------------------
State   Energy  Wavelength   fosc         T2         TX        TY        TZ
        (cm-1)    (nm)                  (au**2)     (au)      (au)      (au)
-----------------------------------------------------------------------------
   0   13859.5    721.5   0.557918890  13.25252  -1.59062  -2.51153  -2.10112
   1   21000.3    476.2   0.177120095   2.77663   0.22930   1.37967  -0.90585
   2   22914.8    436.4   0.944587698  13.57068   0.47776  -1.59105   3.28801
   3   25104.4    398.3   1.139705076  14.94574  -0.07191  -2.40847   3.02322
   4   27809.5    359.6   0.041457976   0.49078  -0.42913  -0.31666  -0.45426
   5   28701.0    348.4   0.100625291   1.15421  -0.36740  -0.18440  -0.99258
   6   29498.8    339.0   0.014413830   0.16086  -0.19936  -0.29511  -0.18447
   7   30380.7    329.2   0.102751997   1.11344   0.15989   0.78199  -0.69020
   8   31695.1    315.5   0.047277378   0.49106  -0.34673  -0.53140  -0.29741
   9   32048.2    312.0   0.007673882   0.07883   0.12567   0.24920  -0.03061
  10   32420.8    308.4   0.006639128   0.06742  -0.07984  -0.21506   0.12162
  11   32639.0    306.4   0.043987189   0.44368   0.19409  -0.10268   0.62886
  12   33428.1    299.1   0.242240959   2.38567   0.68322   1.34416  -0.33483
  13   33876.9    295.2   0.061749845   0.60008  -0.32864  -0.52105  -0.46966
  14   35636.5    280.6   0.009917615   0.09162  -0.12390  -0.15098  -0.23124
  15   35846.8    279.0   0.012045969   0.11063   0.12278   0.30803   0.02585
  16   36158.4    276.6   0.010799674   0.09833   0.15501   0.26988   0.03825
  17   36504.4    273.9   0.147592433   1.33105   0.50455   1.01072   0.23438
  18   37066.0    269.8   0.102276508   0.90840   0.31622   0.20252   0.87601
  19   37967.9    263.4   0.043775695   0.37957  -0.29630  -0.53656  -0.06230
  20   38619.8    258.9   0.000707661   0.00603  -0.06833   0.03523  -0.01105
  21   38980.5    256.5   0.133585697   1.12820   0.04978   0.50988  -0.93046
  22   39797.6    251.3   0.083660639   0.69205  -0.03101   0.54468  -0.62803

FINAL SINGLE POINT ENERGY     -3876.007195442870

DIPOLE MOMENT
-------------
                                X             Y             Z
Electronic contribution:      9.63693      -1.96136      30.93470
Nuclear contribution   :    -10.83024       2.37231     -33.86139
                        -----------------------------------------
Total Dipole Moment    :     -1.19331       0.41095      -2.92669
                        -----------------------------------------
Magnitude (a.u.)       :      3.18722
Magnitude (Debye)      :      8.10127

Rotational constants in cm-1:     0.002756     0.000760     0.000597
Rotational constants in MHz :    82.619587    22.789305    17.910335

                             ****ORCA TERMINATED NORMALLY****
TOTAL RUN TIME: 0 days 0 hours 7 minutes 47 seconds 895 msec
