                         Program Version 4.2.0 -  RELEASE  -
|  1> # ORCA input file
|  2> # SCF done       -177.011893700742          0.000906160675
|  3> ! CAM-B3LYP def2-SVP def2/J RIJCOSX Grid4 TightSCF
|  4> %maxcore 5000
|  5> %tddft
|  6>     Mode sTDDFT
|  7>     Ethresh 5.0
|  8>     maxcore 5000
|  9> end
| 10>
| 11> %pal
| 12>   nprocs 6
| 13>   end
| 14> * xyz 0 1
| 15>    C       -1.47275         2.49978         5.41222
| 16>    C       -1.21697         1.18588         5.33686
| 17>    C       -1.53933         0.46398         4.13068
| 18>    C       -1.30463        -0.88984         3.99655
| 19>    C       -1.62080        -1.58585         2.81686
| 20>    N       -1.88088        -2.14903         1.85056
| 21>    C       -0.73963        -1.64972         5.03493
| 22>    N       -0.27927        -2.26556         5.88794
| 23>    C       -2.12317         1.24493         3.08819
| 24>    C       -2.35035         2.57765         3.26273
| 25>    O       -2.02693         3.21865         4.41943
| 26>    C       -2.95180         3.44519         2.29613
| 27>    C       -3.41123         3.15643         1.02373
| 28>    C       -3.96216         4.28027         0.41256
| 29>    C       -3.91714         5.42901         1.23055
| 30>    S       -3.19403         5.12437         2.74375
| 31>    C       -4.51883         6.50749         0.54140
| 32>    C       -4.94785         6.03815        -0.71902
| 33>    C       -4.60719         4.62954        -0.84287
| 34>    C       -4.85023         3.81417        -1.90836
| 35>    C       -5.49669         4.27603        -3.07520
| 36>    N       -6.02194         4.64526        -4.02498
| 37>    C       -4.47278         2.45404        -1.91267
| 38>    N       -4.16722         1.34935        -1.91860
| 39>    C       -5.57852         7.01737        -1.47087
| 40>    C       -5.63695         8.23264        -0.79596
| 41>    S       -4.88819         8.15992         0.79070
| 42>    C       -6.23805         9.42826        -1.26119
| 43>    C       -6.23332        10.60423        -0.47350
| 44>    C       -6.85466        11.83952        -0.88464
| 45>    N       -6.82598        12.88987        -0.05140
| 46>    C       -6.22971        12.78951         1.11053
| 47>    C       -5.59256        11.56987         1.50852
| 48>    N       -5.61898        10.52970         0.71243
| 49>    C       -4.93794        11.46388         2.76039
| 50>    N       -4.41614        11.39662         3.77756
| 51>    C       -6.22865        13.89865         1.99567
| 52>    N       -6.20953        14.75633         2.75353
| 53>    C       -7.51579        11.94558        -2.13450
| 54>    C       -7.52243        10.76830        -2.91625
| 55>    C       -6.89757         9.53649        -2.50566
| 56>    N       -7.04826         8.58375        -3.42702
| 57>    S       -7.87781         9.16019        -4.66838
| 58>    N       -8.09762        10.65154        -4.11396
| 59>    C       -8.16255        13.12023        -2.60453
| 60>    C       -8.17306        14.38914        -2.03577
| 61>    C       -8.93939        15.28247        -2.77062
| 62>    C       -9.52947        14.69282        -3.90848
| 63>    S       -9.10962        13.04772        -4.08547
| 64>    C      -10.31045        15.67553        -4.56165
| 65>    C      -10.21494        16.88463        -3.84425
| 66>    C       -9.33812        16.68023        -2.70290
| 67>    C       -8.95531        17.60396        -1.77628
| 68>    C       -9.41671        18.93702        -1.81573
| 69>    N       -9.79684        20.01799        -1.85137
| 70>    C       -8.05843        17.28858        -0.73202
| 71>    N       -7.31867        17.04626         0.10899
| 72>    C      -10.96869        17.91014        -4.41111
| 73>    C      -11.63640        17.48806        -5.54601
| 74>    S      -11.32633        15.80484        -5.92655
| 75>    C      -12.50992        18.27752        -6.36404
| 76>    C      -13.17125        17.80472        -7.45790
| 77>    C      -14.03388        18.65146        -8.21580
| 78>    C      -14.72356        18.20040        -9.32345
| 79>    C      -15.57338        19.04115       -10.06174
| 80>    N      -16.26738        19.73355       -10.65988
| 81>    C      -14.61257        16.87215        -9.76862
| 82>    N      -14.51206        15.78305       -10.11937
| 83>    C      -14.13408        20.00802        -7.73806
| 84>    C      -13.44204        20.38115        -6.65151
| 85>    O      -12.63546        19.56618        -5.94752
| 86>    H       -1.26129         3.11074         6.27658
| 87>    H       -0.77354         0.66222         6.16731
| 88>    H       -2.39024         0.76774         2.15966
| 89>    H       -3.34907         2.18277         0.57395
| 90>    H       -5.99103         6.89256        -2.45511
| 91>    H       -7.64292        14.61655        -1.12995
| 92>    H      -11.04445        18.91294        -4.03211
| 93>    H      -13.04593        16.77498        -7.75591
| 94>    H      -14.76494        20.70987        -8.25763
| 95>    H      -13.46419        21.37571        -6.23223
| 96> *
| 97>
| 98>                          ****END OF INPUT****

CARTESIAN COORDINATES (ANGSTROEM)
---------------------------------
  C     -1.472750    2.499780    5.412220
  C     -1.216970    1.185880    5.336860
  C     -1.539330    0.463980    4.130680
  C     -1.304630   -0.889840    3.996550
  C     -1.620800   -1.585850    2.816860
  N     -1.880880   -2.149030    1.850560
  C     -0.739630   -1.649720    5.034930
  N     -0.279270   -2.265560    5.887940
  C     -2.123170    1.244930    3.088190
  C     -2.350350    2.577650    3.262730
  O     -2.026930    3.218650    4.419430
  C     -2.951800    3.445190    2.296130
  C     -3.411230    3.156430    1.023730
  C     -3.962160    4.280270    0.412560
  C     -3.917140    5.429010    1.230550
  S     -3.194030    5.124370    2.743750
  C     -4.518830    6.507490    0.541400
  C     -4.947850    6.038150   -0.719020
  C     -4.607190    4.629540   -0.842870
  C     -4.850230    3.814170   -1.908360
  C     -5.496690    4.276030   -3.075200
  N     -6.021940    4.645260   -4.024980
  C     -4.472780    2.454040   -1.912670
  N     -4.167220    1.349350   -1.918600
  C     -5.578520    7.017370   -1.470870
  C     -5.636950    8.232640   -0.795960
  S     -4.888190    8.159920    0.790700
  C     -6.238050    9.428260   -1.261190
  C     -6.233320   10.604230   -0.473500
  C     -6.854660   11.839520   -0.884640
  N     -6.825980   12.889870   -0.051400
  C     -6.229710   12.789510    1.110530
  C     -5.592560   11.569870    1.508520
  N     -5.618980   10.529700    0.712430
  C     -4.937940   11.463880    2.760390
  N     -4.416140   11.396620    3.777560
  C     -6.228650   13.898650    1.995670
  N     -6.209530   14.756330    2.753530
  C     -7.515790   11.945580   -2.134500
  C     -7.522430   10.768300   -2.916250
  C     -6.897570    9.536490   -2.505660
  N     -7.048260    8.583750   -3.427020
  S     -7.877810    9.160190   -4.668380
  N     -8.097620   10.651540   -4.113960
  C     -8.162550   13.120230   -2.604530
  C     -8.173060   14.389140   -2.035770
  C     -8.939390   15.282470   -2.770620
  C     -9.529470   14.692820   -3.908480
  S     -9.109620   13.047720   -4.085470
  C    -10.310450   15.675530   -4.561650
  C    -10.214940   16.884630   -3.844250
  C     -9.338120   16.680230   -2.702900
  C     -8.955310   17.603960   -1.776280
  C     -9.416710   18.937020   -1.815730
  N     -9.796840   20.017990   -1.851370
  C     -8.058430   17.288580   -0.732020
  N     -7.318670   17.046260    0.108990
  C    -10.968690   17.910140   -4.411110
  C    -11.636400   17.488060   -5.546010
  S    -11.326330   15.804840   -5.926550
  C    -12.509920   18.277520   -6.364040
  C    -13.171250   17.804720   -7.457900
  C    -14.033880   18.651460   -8.215800
  C    -14.723560   18.200400   -9.323450
  C    -15.573380   19.041150  -10.061740
  N    -16.267380   19.733550  -10.659880
  C    -14.612570   16.872150   -9.768620
  N    -14.512060   15.783050  -10.119370
  C    -14.134080   20.008020   -7.738060
  C    -13.442040   20.381150   -6.651510
  O    -12.635460   19.566180   -5.947520
  H     -1.261290    3.110740    6.276580
  H     -0.773540    0.662220    6.167310
  H     -2.390240    0.767740    2.159660
  H     -3.349070    2.182770    0.573950
  H     -5.991030    6.892560   -2.455110
  H     -7.642920   14.616550   -1.129950
  H    -11.044450   18.912940   -4.032110
  H    -13.045930   16.774980   -7.755910
  H    -14.764940   20.709870   -8.257630
  H    -13.464190   21.375710   -6.232230

 Total Charge           Charge          ....    0
 Multiplicity           Mult            ....    1
 Number of Electrons    NEL             ....  504
 Basis Dimension        Dim             .... 1064

ORBITAL ENERGIES
----------------

  NO   OCC          E(Eh)            E(eV)
   0   2.0000     -89.074144     -2423.8307
   1   2.0000     -89.014708     -2422.2133
   2   2.0000     -89.012424     -2422.1512
   3   2.0000     -89.004108     -2421.9249
   4   2.0000     -89.003602     -2421.9112
   5   2.0000     -19.337632      -526.2037
   6   2.0000     -19.335957      -526.1581
   7   2.0000     -14.491946      -394.3459
   8   2.0000     -14.486084      -394.1864
   9   2.0000     -14.482017      -394.0757
  10   2.0000     -14.481904      -394.0726
  11   2.0000     -14.452317      -393.2675
  12   2.0000     -14.444861      -393.0647
  13   2.0000     -14.444592      -393.0573
  14   2.0000     -14.444024      -393.0419
  15   2.0000     -14.442879      -393.0107
  16   2.0000     -14.442141      -392.9906
  17   2.0000     -14.405268      -391.9873
  18   2.0000     -14.403214      -391.9314
  19   2.0000     -14.402559      -391.9136
  20   2.0000     -14.402448      -391.9105
  21   2.0000     -10.408645      -283.2336
  22   2.0000     -10.406285      -283.1694
  23   2.0000     -10.402486      -283.0660
  24   2.0000     -10.401817      -283.0478
  25   2.0000     -10.385809      -282.6122
  26   2.0000     -10.385360      -282.6000
  27   2.0000     -10.380671      -282.4724
  28   2.0000     -10.380257      -282.4611
  29   2.0000     -10.376241      -282.3519
  30   2.0000     -10.374095      -282.2935
  31   2.0000     -10.371622      -282.2262
  32   2.0000     -10.370448      -282.1942
  33   2.0000     -10.367095      -282.1030
  34   2.0000     -10.367053      -282.1019
  35   2.0000     -10.357392      -281.8390
  36   2.0000     -10.353954      -281.7454
  37   2.0000     -10.348921      -281.6084
  38   2.0000     -10.348638      -281.6007
  39   2.0000     -10.348038      -281.5844
  40   2.0000     -10.347287      -281.5640
  41   2.0000     -10.346951      -281.5549
  42   2.0000     -10.345883      -281.5258
  43   2.0000     -10.345815      -281.5239
  44   2.0000     -10.345727      -281.5216
  45   2.0000     -10.345349      -281.5113
  46   2.0000     -10.344412      -281.4858
  47   2.0000     -10.344090      -281.4770
  48   2.0000     -10.343944      -281.4730
  49   2.0000     -10.343614      -281.4640
  50   2.0000     -10.342302      -281.4283
  51   2.0000     -10.341446      -281.4050
  52   2.0000     -10.336527      -281.2712
  53   2.0000     -10.328994      -281.0662
  54   2.0000     -10.327198      -281.0173
  55   2.0000     -10.326729      -281.0046
  56   2.0000     -10.326157      -280.9890
  57   2.0000     -10.325589      -280.9736
  58   2.0000     -10.324952      -280.9562
  59   2.0000     -10.319484      -280.8074
  60   2.0000     -10.318796      -280.7887
  61   2.0000     -10.317767      -280.7607
  62   2.0000     -10.317089      -280.7423
  63   2.0000     -10.316857      -280.7359
  64   2.0000     -10.315297      -280.6935
  65   2.0000     -10.315156      -280.6897
  66   2.0000     -10.315138      -280.6892
  67   2.0000     -10.308788      -280.5164
  68   2.0000     -10.306784      -280.4619
  69   2.0000     -10.305941      -280.4389
  70   2.0000     -10.305426      -280.4249
  71   2.0000      -8.164954      -222.1797
  72   2.0000      -8.108976      -220.6565
  73   2.0000      -8.106685      -220.5941
  74   2.0000      -8.097305      -220.3389
  75   2.0000      -8.096000      -220.3033
  76   2.0000      -6.136029      -166.9698
  77   2.0000      -6.128166      -166.7559
  78   2.0000      -6.127839      -166.7470
  79   2.0000      -6.078268      -165.3981
  80   2.0000      -6.075881      -165.3331
  81   2.0000      -6.074066      -165.2837
  82   2.0000      -6.071613      -165.2170
  83   2.0000      -6.071296      -165.2084
  84   2.0000      -6.069221      -165.1519
  85   2.0000      -6.066731      -165.0841
  86   2.0000      -6.065585      -165.0530
  87   2.0000      -6.062125      -164.9588
  88   2.0000      -6.060743      -164.9212
  89   2.0000      -6.059715      -164.8932
  90   2.0000      -6.058428      -164.8582
  91   2.0000      -1.248162       -33.9642
  92   2.0000      -1.245990       -33.9051
  93   2.0000      -1.171348       -31.8740
  94   2.0000      -1.148695       -31.2576
  95   2.0000      -1.076206       -29.2851
  96   2.0000      -1.063249       -28.9325
  97   2.0000      -1.061906       -28.8959
  98   2.0000      -1.036726       -28.2108
  99   2.0000      -1.036119       -28.1942
 100   2.0000      -1.035131       -28.1674
 101   2.0000      -1.031281       -28.0626
 102   2.0000      -1.022271       -27.8174
 103   2.0000      -1.021060       -27.7844
 104   2.0000      -1.020692       -27.7744
 105   2.0000      -1.019515       -27.7424
 106   2.0000      -1.013360       -27.5749
 107   2.0000      -1.005435       -27.3593
 108   2.0000      -1.003800       -27.3148
 109   2.0000      -1.001196       -27.2439
 110   2.0000      -0.983445       -26.7609
 111   2.0000      -0.981551       -26.7094
 112   2.0000      -0.978339       -26.6219
 113   2.0000      -0.973456       -26.4891
 114   2.0000      -0.967071       -26.3153
 115   2.0000      -0.966507       -26.3000
 116   2.0000      -0.946253       -25.7488
 117   2.0000      -0.944603       -25.7039
 118   2.0000      -0.935016       -25.4431
 119   2.0000      -0.928822       -25.2745
 120   2.0000      -0.914374       -24.8814
 121   2.0000      -0.902592       -24.5608
 122   2.0000      -0.890477       -24.2311
 123   2.0000      -0.886682       -24.1279
 124   2.0000      -0.883977       -24.0542
 125   2.0000      -0.879389       -23.9294
 126   2.0000      -0.872890       -23.7525
 127   2.0000      -0.872552       -23.7434
 128   2.0000      -0.861982       -23.4557
 129   2.0000      -0.836967       -22.7750
 130   2.0000      -0.834258       -22.7013
 131   2.0000      -0.816293       -22.2125
 132   2.0000      -0.808564       -22.0022
 133   2.0000      -0.799706       -21.7611
 134   2.0000      -0.793243       -21.5852
 135   2.0000      -0.787518       -21.4294
 136   2.0000      -0.780644       -21.2424
 137   2.0000      -0.766190       -20.8491
 138   2.0000      -0.763785       -20.7836
 139   2.0000      -0.747083       -20.3292
 140   2.0000      -0.732656       -19.9366
 141   2.0000      -0.724719       -19.7206
 142   2.0000      -0.721099       -19.6221
 143   2.0000      -0.718890       -19.5620
 144   2.0000      -0.714575       -19.4446
 145   2.0000      -0.701455       -19.0876
 146   2.0000      -0.697931       -18.9917
 147   2.0000      -0.692502       -18.8439
 148   2.0000      -0.686301       -18.6752
 149   2.0000      -0.684440       -18.6246
 150   2.0000      -0.679684       -18.4951
 151   2.0000      -0.676687       -18.4136
 152   2.0000      -0.656537       -17.8653
 153   2.0000      -0.655391       -17.8341
 154   2.0000      -0.653598       -17.7853
 155   2.0000      -0.649714       -17.6796
 156   2.0000      -0.642529       -17.4841
 157   2.0000      -0.634684       -17.2706
 158   2.0000      -0.632266       -17.2048
 159   2.0000      -0.629202       -17.1214
 160   2.0000      -0.620378       -16.8813
 161   2.0000      -0.610268       -16.6062
 162   2.0000      -0.607848       -16.5404
 163   2.0000      -0.605606       -16.4794
 164   2.0000      -0.604182       -16.4406
 165   2.0000      -0.601475       -16.3670
 166   2.0000      -0.598656       -16.2902
 167   2.0000      -0.596676       -16.2364
 168   2.0000      -0.592439       -16.1211
 169   2.0000      -0.584780       -15.9127
 170   2.0000      -0.583720       -15.8838
 171   2.0000      -0.580333       -15.7917
 172   2.0000      -0.575102       -15.6493
 173   2.0000      -0.569056       -15.4848
 174   2.0000      -0.565301       -15.3826
 175   2.0000      -0.563644       -15.3375
 176   2.0000      -0.562573       -15.3084
 177   2.0000      -0.557646       -15.1743
 178   2.0000      -0.541784       -14.7427
 179   2.0000      -0.540070       -14.6960
 180   2.0000      -0.524640       -14.2762
 181   2.0000      -0.520715       -14.1694
 182   2.0000      -0.519744       -14.1429
 183   2.0000      -0.518101       -14.0982
 184   2.0000      -0.516287       -14.0489
 185   2.0000      -0.515637       -14.0312
 186   2.0000      -0.514297       -13.9947
 187   2.0000      -0.513039       -13.9605
 188   2.0000      -0.510454       -13.8901
 189   2.0000      -0.502232       -13.6664
 190   2.0000      -0.502190       -13.6653
 191   2.0000      -0.500910       -13.6304
 192   2.0000      -0.498364       -13.5612
 193   2.0000      -0.497470       -13.5368
 194   2.0000      -0.493068       -13.4171
 195   2.0000      -0.492288       -13.3958
 196   2.0000      -0.490642       -13.3511
 197   2.0000      -0.488671       -13.2974
 198   2.0000      -0.484375       -13.1805
 199   2.0000      -0.482272       -13.1233
 200   2.0000      -0.476778       -12.9738
 201   2.0000      -0.475515       -12.9394
 202   2.0000      -0.473933       -12.8964
 203   2.0000      -0.473622       -12.8879
 204   2.0000      -0.471035       -12.8175
 205   2.0000      -0.469142       -12.7660
 206   2.0000      -0.469056       -12.7637
 207   2.0000      -0.466789       -12.7020
 208   2.0000      -0.464490       -12.6394
 209   2.0000      -0.461265       -12.5517
 210   2.0000      -0.460574       -12.5329
 211   2.0000      -0.453139       -12.3305
 212   2.0000      -0.452991       -12.3265
 213   2.0000      -0.452624       -12.3165
 214   2.0000      -0.452097       -12.3022
 215   2.0000      -0.448932       -12.2161
 216   2.0000      -0.445131       -12.1126
 217   2.0000      -0.441648       -12.0179
 218   2.0000      -0.440971       -11.9994
 219   2.0000      -0.440246       -11.9797
 220   2.0000      -0.439118       -11.9490
 221   2.0000      -0.436661       -11.8822
 222   2.0000      -0.434644       -11.8273
 223   2.0000      -0.432885       -11.7794
 224   2.0000      -0.432468       -11.7681
 225   2.0000      -0.431760       -11.7488
 226   2.0000      -0.428988       -11.6734
 227   2.0000      -0.423625       -11.5274
 228   2.0000      -0.423220       -11.5164
 229   2.0000      -0.421756       -11.4766
 230   2.0000      -0.419778       -11.4227
 231   2.0000      -0.419184       -11.4066
 232   2.0000      -0.418703       -11.3935
 233   2.0000      -0.416989       -11.3469
 234   2.0000      -0.413454       -11.2507
 235   2.0000      -0.412675       -11.2294
 236   2.0000      -0.405899       -11.0451
 237   2.0000      -0.403779       -10.9874
 238   2.0000      -0.398543       -10.8449
 239   2.0000      -0.388331       -10.5670
 240   2.0000      -0.377389       -10.2693
 241   2.0000      -0.375115       -10.2074
 242   2.0000      -0.373218       -10.1558
 243   2.0000      -0.367020        -9.9871
 244   2.0000      -0.366267        -9.9666
 245   2.0000      -0.341616        -9.2958
 246   2.0000      -0.337408        -9.1814
 247   2.0000      -0.335804        -9.1377
 248   2.0000      -0.311520        -8.4769
 249   2.0000      -0.293318        -7.9816
 250   2.0000      -0.283759        -7.7215
 251   2.0000      -0.259639        -7.0651
 252   0.0000      -0.154806        -4.2125
 253   0.0000      -0.120676        -3.2838
 254   0.0000      -0.116484        -3.1697
 255   0.0000      -0.079760        -2.1704
 256   0.0000      -0.076763        -2.0888

MULLIKEN ATOMIC CHARGES
-----------------------
   0 C :    0.190900
   1 C :   -0.064505
   2 C :    0.242404
   3 C :   -0.335581
   4 C :   -0.170573
   5 N :    0.136806
   6 C :   -0.180797
   7 N :    0.133630
   8 C :   -0.151045
   9 C :    0.237847
  10 O :   -0.223005
  11 C :   -0.095994
  12 C :   -0.026724
  13 C :    0.006045
  14 C :   -0.098816
  15 S :    0.241826
  16 C :   -0.063103
  17 C :    0.040107
  18 C :    0.307213
  19 C :   -0.298069
  20 C :   -0.181811
  21 N :    0.176102
  22 C :   -0.194172
  23 N :    0.188053
  24 C :   -0.062448
  25 C :   -0.169728
  26 S :    0.215178
  27 C :    0.181300
  28 C :   -0.052523
  29 C :   -0.073734
  30 N :    0.055703
  31 C :   -0.116591
  32 C :   -0.098875
  33 N :   -0.018119
  34 C :   -0.235851
  35 N :    0.257651
  36 C :   -0.224136
  37 N :    0.262769
  38 C :    0.205142
  39 C :   -0.018261
  40 C :   -0.005403
  41 N :   -0.276303
  42 S :    0.592099
  43 N :   -0.339533
  44 C :   -0.178686
  45 C :   -0.058026
  46 C :    0.047136
  47 C :   -0.068991
  48 S :    0.217235
  49 C :   -0.089100
  50 C :    0.017828
  51 C :    0.298085
  52 C :   -0.288696
  53 C :   -0.189834
  54 N :    0.179799
  55 C :   -0.191632
  56 N :    0.189629
  57 C :   -0.031952
  58 C :   -0.090855
  59 S :    0.213162
  60 C :    0.241414
  61 C :   -0.161940
  62 C :    0.240892
  63 C :   -0.328971
  64 C :   -0.183475
  65 N :    0.133915
  66 C :   -0.175187
  67 N :    0.126584
  68 C :   -0.069372
  69 C :    0.191694
  70 O :   -0.208288
  71 H :    0.042794
  72 H :    0.040942
  73 H :    0.032791
  74 H :    0.021493
  75 H :    0.023276
  76 H :    0.023085
  77 H :    0.020630
  78 H :    0.032356
  79 H :    0.040738
  80 H :    0.044451
Sum of atomic charges:   -0.0000000

LOEWDIN ATOMIC CHARGES
----------------------
   0 C :    0.100945
   1 C :   -0.048376
   2 C :    0.053885
   3 C :   -0.171450
   4 C :   -0.031283
   5 N :   -0.060563
   6 C :   -0.030653
   7 N :   -0.064132
   8 C :   -0.044635
   9 C :    0.069984
  10 O :   -0.011037
  11 C :   -0.186846
  12 C :   -0.004538
  13 C :   -0.062681
  14 C :   -0.172028
  15 S :    0.509866
  16 C :   -0.178999
  17 C :   -0.068785
  18 C :    0.076643
  19 C :   -0.095249
  20 C :   -0.015459
  21 N :   -0.028236
  22 C :   -0.020929
  23 N :   -0.019662
  24 C :   -0.005001
  25 C :   -0.165533
  26 S :    0.515417
  27 C :   -0.033441
  28 C :   -0.013283
  29 C :   -0.003729
  30 N :    0.010399
  31 C :   -0.016738
  32 C :   -0.018373
  33 N :   -0.019171
  34 C :   -0.039618
  35 N :    0.006075
  36 C :   -0.041736
  37 N :    0.017423
  38 C :   -0.041325
  39 C :   -0.044500
  40 C :   -0.037632
  41 N :   -0.265463
  42 S :    0.707731
  43 N :   -0.303046
  44 C :   -0.160870
  45 C :   -0.008013
  46 C :   -0.065872
  47 C :   -0.184177
  48 S :    0.519151
  49 C :   -0.164342
  50 C :   -0.066018
  51 C :    0.076030
  52 C :   -0.093446
  53 C :   -0.016997
  54 N :   -0.026791
  55 C :   -0.019611
  56 N :   -0.017396
  57 C :   -0.003247
  58 C :   -0.189996
  59 S :    0.502840
  60 C :    0.075051
  61 C :   -0.060884
  62 C :    0.055830
  63 C :   -0.175025
  64 C :   -0.031206
  65 N :   -0.064666
  66 C :   -0.028977
  67 N :   -0.068924
  68 C :   -0.050550
  69 C :    0.104368
  70 O :    0.004745
  71 H :    0.041812
  72 H :    0.054389
  73 H :    0.050426
  74 H :    0.046954
  75 H :    0.039121
  76 H :    0.038252
  77 H :    0.046192
  78 H :    0.040511
  79 H :    0.054241
  80 H :    0.042861

  Mayer bond orders larger than 0.100000
B(  0-C ,  1-C ) :   1.6940 B(  0-C , 10-O ) :   1.0973 B(  0-C , 71-H ) :   0.9744
B(  1-C ,  2-C ) :   1.1213 B(  1-C , 72-H ) :   0.9609 B(  2-C ,  3-C ) :   1.5757
B(  2-C ,  8-C ) :   1.1307 B(  3-C ,  4-C ) :   1.1288 B(  3-C ,  6-C ) :   1.1290
B(  4-C ,  5-N ) :   3.0090 B(  6-C ,  7-N ) :   3.0148 B(  8-C ,  9-C ) :   1.5819
B(  8-C , 73-H ) :   0.9634 B(  9-C , 10-O ) :   1.1428 B(  9-C , 11-C ) :   1.0638
B( 11-C , 12-C ) :   1.4865 B( 11-C , 15-S ) :   1.0989 B( 12-C , 13-C ) :   1.3108
B( 12-C , 74-H ) :   0.9854 B( 13-C , 14-C ) :   1.4176 B( 13-C , 18-C ) :   0.9948
B( 14-C , 15-S ) :   1.1313 B( 14-C , 16-C ) :   1.2083 B( 16-C , 17-C ) :   1.4011
B( 16-C , 26-S ) :   1.0867 B( 17-C , 18-C ) :   0.9911 B( 17-C , 24-C ) :   1.2859
B( 18-C , 19-C ) :   1.7160 B( 19-C , 20-C ) :   1.1404 B( 19-C , 22-C ) :   1.1328
B( 20-C , 21-N ) :   2.9834 B( 22-C , 23-N ) :   2.9913 B( 24-C , 25-C ) :   1.4059
B( 24-C , 75-H ) :   0.9816 B( 25-C , 26-S ) :   1.0865 B( 25-C , 27-C ) :   1.2172
B( 27-C , 28-C ) :   1.2462 B( 27-C , 38-C ) :   0.1229 B( 27-C , 40-C ) :   1.2028
B( 28-C , 29-C ) :   1.1068 B( 28-C , 33-N ) :   1.3954 B( 29-C , 30-N ) :   1.4533
B( 29-C , 38-C ) :   1.2567 B( 30-N , 31-C ) :   1.7277 B( 31-C , 32-C ) :   1.2129
B( 31-C , 36-C ) :   1.1629 B( 32-C , 33-N ) :   1.6930 B( 32-C , 34-C ) :   1.1620
B( 34-C , 35-N ) :   3.0417 B( 36-C , 37-N ) :   3.0289 B( 38-C , 39-C ) :   1.1928
B( 38-C , 44-C ) :   1.1934 B( 39-C , 40-C ) :   1.1100 B( 39-C , 43-N ) :   1.4659
B( 40-C , 41-N ) :   1.5128 B( 41-N , 42-S ) :   1.2946 B( 41-N , 43-N ) :   0.1489
B( 42-S , 43-N ) :   1.2746 B( 44-C , 45-C ) :   1.4023 B( 44-C , 48-S ) :   1.1014
B( 45-C , 46-C ) :   1.2782 B( 45-C , 76-H ) :   0.9854 B( 46-C , 47-C ) :   1.3981
B( 46-C , 51-C ) :   0.9920 B( 47-C , 48-S ) :   1.1026 B( 47-C , 49-C ) :   1.2003
B( 49-C , 50-C ) :   1.4228 B( 49-C , 59-S ) :   1.1378 B( 50-C , 51-C ) :   0.9923
B( 50-C , 57-C ) :   1.2740 B( 51-C , 52-C ) :   1.7225 B( 52-C , 53-C ) :   1.1308
B( 52-C , 55-C ) :   1.1345 B( 53-C , 54-N ) :   2.9944 B( 55-C , 56-N ) :   2.9910
B( 57-C , 58-C ) :   1.4345 B( 57-C , 77-H ) :   1.0069 B( 58-C , 59-S ) :   1.1081
B( 58-C , 60-C ) :   1.1081 B( 60-C , 61-C ) :   1.5424 B( 60-C , 70-O ) :   1.1550
B( 61-C , 62-C ) :   1.1510 B( 61-C , 78-H ) :   0.9580 B( 62-C , 63-C ) :   1.5737
B( 62-C , 68-C ) :   1.1252 B( 63-C , 64-C ) :   1.1280 B( 63-C , 66-C ) :   1.1322
B( 64-C , 65-N ) :   3.0168 B( 66-C , 67-N ) :   3.0059 B( 68-C , 69-C ) :   1.6851
B( 68-C , 79-H ) :   0.9620 B( 69-C , 70-O ) :   1.1061 B( 69-C , 80-H ) :   0.9754

-----------------------------------------------------------------------------
         ABSORPTION SPECTRUM VIA TRANSITION ELECTRIC DIPOLE MOMENTS
-----------------------------------------------------------------------------
State   Energy  Wavelength   fosc         T2         TX        TY        TZ
        (cm-1)    (nm)                  (au**2)     (au)      (au)      (au)
-----------------------------------------------------------------------------
   0    8020.9   1246.7   0.702019292  28.81387  -2.42984   4.36016  -1.97452
   1   13797.6    724.8   0.014283059   0.34079  -0.41498   0.02685  -0.40971
   2   14276.7    700.4   0.049635609   1.14457   0.51012  -0.75041   0.56678
   3   16410.0    609.4   0.019244444   0.38608  -0.17319  -0.53977  -0.25442
   4   19632.9    509.3   0.064030584   1.07369  -0.55062   0.56039  -0.67563
   5   21447.5    466.3   0.006240706   0.09579   0.09417  -0.27042   0.11747
   6   22937.5    436.0   0.403500819   5.79126   1.20332  -1.73549   1.15384
   7   23196.8    431.1   0.051358494   0.72889  -0.27655  -0.52538  -0.61350
   8   23621.9    423.3   0.038093347   0.53090  -0.46024   0.32541  -0.46172
   9   24000.2    416.7   0.274679930   3.76779   0.99380  -1.17851   1.17952
  10   24490.5    408.3   0.043920723   0.59040  -0.05282   0.72457   0.25021
  11   24841.6    402.6   0.260520264   3.45253  -0.69615   1.60156  -0.63475
  12   25195.7    396.9   0.176782634   2.30988   0.75945  -1.10973   0.70825
  13   25321.5    394.9   0.012365198   0.16076   0.25254  -0.30554   0.06023
  14   26190.5    381.8   1.170028816  14.70712   1.94512  -2.56893   2.07948
  15   26436.7    378.3   0.070821986   0.88194   0.55490   0.37058   0.66083
  16   27369.7    365.4   0.066141783   0.79558  -0.45758  -0.68151  -0.34891
  17   27725.5    360.7   0.032335540   0.38395  -0.36236  -0.00048  -0.50264
  18   30195.5    331.2   0.013011779   0.14186  -0.18407  -0.19696  -0.26303
  19   30232.0    330.8   0.059819423   0.65140   0.34859   0.08054   0.72347
  20   30671.7    326.0   0.144645684   1.55254   0.47808  -0.39917   1.07919
  21   30898.2    323.6   0.196268881   2.09119   0.48632   0.40876   1.29908
  22   31058.4    322.0   0.108812147   1.15338  -0.05997  -1.01850  -0.33532
  23   31187.2    320.6   0.261269270   2.75796   0.75071   0.49258   1.39705
  24   31591.6    316.5   0.053342757   0.55588  -0.02028   0.44046   0.60121
  25   32115.1    311.4   0.252675089   2.59017  -0.41920  -1.00853  -1.18208
  26   32267.3    309.9   0.015797719   0.16118   0.33146  -0.22555   0.02102
  27   32500.3    307.7   1.189925252  12.05335   0.22181   2.81443   2.02067
  28   33210.3    301.1   0.056911532   0.56416  -0.34845   0.06910  -0.66179
  29   33526.0    298.3   0.018616611   0.18281  -0.10956   0.41287  -0.01847
  30   33555.6    298.0   0.115894075   1.13703  -0.42612  -0.63071  -0.74677
  31   34372.1    290.9   0.280329610   2.68497  -0.88601   0.93555  -1.01227
  32   34816.8    287.2   0.003429344   0.03243  -0.15801   0.03416   0.07933
  33   34941.3    286.2   0.051199640   0.48240  -0.38009   0.08967  -0.57436
  34   35133.3    284.6   0.084624421   0.79296   0.28876   0.58185   0.60912
  35   35368.1    282.7   0.184109270   1.71372  -0.64372   0.57202  -0.98597
  36   35511.6    281.6   0.068940447   0.63912   0.44709   0.06268   0.65977
  37   36070.1    277.2   0.159372380   1.45459   0.38264   0.48996   1.03350
  38   36549.5    273.6   0.090865500   0.81845   0.47635  -0.40739   0.65236
  39   37027.1    270.1   0.097905115   0.87048  -0.43079   0.80553  -0.18981
  40   37365.4    267.6   0.013676596   0.12050  -0.02846   0.22549   0.26238
  41   37762.1    264.8   0.049222143   0.42912   0.23879   0.12471   0.59712
  42   37883.8    264.0   0.007068457   0.06143  -0.03152   0.22359   0.10217
  43   37967.5    263.4   0.265453654   2.30172  -0.71323   0.23219  -1.31875
  44   38149.1    262.1   0.255150219   2.20185   0.09798   1.11364   0.97573
  45   38636.2    258.8   0.003606896   0.03073  -0.10727  -0.11643  -0.07530
  46   39129.5    255.6   0.002655050   0.02234  -0.11844   0.00443   0.09105
  47   39303.8    254.4   0.001044506   0.00875  -0.06750  -0.01137   0.06375
  48   39484.6    253.3   0.053474063   0.44585   0.13766   0.43754   0.48524
  49   39714.3    251.8   0.047748096   0.39581   0.23024   0.16738   0.56105
  50   39889.8    250.7   0.004148928   0.03424  -0.03316  -0.18144  -0.01493
  51   40032.0    249.8   0.231066824   1.90023   0.33614   1.07684   0.79225
  52   40299.6    248.1   0.068999772   0.56367  -0.39100   0.48176  -0.42272

FINAL SINGLE POINT ENERGY     -4814.820336778820

DIPOLE MOMENT
-------------
                                X             Y             Z
Electronic contribution:      2.40408       0.66194      -0.69488
Nuclear contribution   :     -2.08367       1.91412       1.55275
                        -----------------------------------------
Total Dipole Moment    :      0.32041       2.57605       0.85787
                        -----------------------------------------
Magnitude (a.u.)       :      2.73398
Magnitude (Debye)      :      6.94923

Rotational constants in cm-1:     0.002288     0.000252     0.000228
Rotational constants in MHz :    68.584728     7.542073     6.827035

                             ****ORCA TERMINATED NORMALLY****
TOTAL RUN TIME: 0 days 0 hours 7 minutes 47 seconds 845 msec
