                         Program Version 4.2.0 -  RELEASE  -
|  1> # ORCA input file
|  2> # SCF done       -209.820356296088          0.000984297005
|  3> ! CAM-B3LYP def2-SVP def2/J RIJCOSX Grid4 TightSCF
|  4> %maxcore 5000
|  5> %tddft
|  6>     Mode sTDDFT
|  7>     Ethresh 5.0
|  8>     maxcore 5000
|  9> end
| 10>
| 11> %pal
| 12>   nprocs 6
| 13>   end
| 14> * xyz 0 1
| 15>    C       -3.45194         3.19456         3.33175
| 16>    C       -4.06052         4.24973         2.71220
| 17>    F       -3.72382         5.50508         3.03465
| 18>    C       -5.04707         4.03326         1.72868
| 19>    F       -5.62662         5.08707         1.13917
| 20>    C       -5.41104         2.76349         1.37788
| 21>    C       -4.80132         1.65537         1.99760
| 22>    C       -3.80348         1.87240         2.99197
| 23>    C       -3.17330         0.77601         3.62382
| 24>    C       -3.52642        -0.49999         3.26873
| 25>    C       -4.52616        -0.70464         2.27969
| 26>    C       -5.15617         0.33243         1.65431
| 27>    C       -4.73242        -2.14992         2.07413
| 28>    O       -5.54499        -2.64806         1.32529
| 29>    C       -3.79895        -2.82704         3.00830
| 30>    C       -3.04724        -1.80411         3.71826
| 31>    C       -2.01461        -1.99747         4.59919
| 32>    C       -1.47210        -3.24122         4.98673
| 33>    N       -0.96275        -4.20590         5.34650
| 34>    C       -1.31355        -0.94976         5.23464
| 35>    N       -0.70560        -0.14926         5.78873
| 36>    C       -3.70191        -4.16799         3.26864
| 37>    C       -4.24283        -5.27731         2.58967
| 38>    C       -4.88264        -5.40165         1.36174
| 39>    C       -5.16520        -6.72291         1.04985
| 40>    C       -4.75046        -7.63371         2.04845
| 41>    S       -3.99928        -6.85534         3.35777
| 42>    C       -5.08693        -8.94396         1.62642
| 43>    C       -5.70300        -8.86482         0.36341
| 44>    C       -5.77321        -7.46914        -0.04020
| 45>    C       -6.28697        -6.97538        -1.20161
| 46>    C       -6.86157        -7.81346        -2.18257
| 47>    N       -7.33561        -8.48445        -2.98186
| 48>    C       -6.27380        -5.60115        -1.52898
| 49>    N       -6.26152        -4.49675        -1.83430
| 50>    C       -6.04667       -10.11413        -0.14795
| 51>    C       -5.70434       -11.13578         0.71700
| 52>    S       -4.94790       -10.55382         2.18299
| 53>    C       -5.92003       -12.53217         0.46497
| 54>    C       -5.65938       -13.55233         1.39484
| 55>    N       -5.86718       -14.81880         1.12176
| 56>    C       -6.34174       -15.12849        -0.09406
| 57>    C       -6.61045       -14.10587        -1.02130
| 58>    N       -6.40624       -12.84261        -0.74771
| 59>    C       -6.57004       -16.51346        -0.39202
| 60>    C       -6.45442       -17.58129         0.47630
| 61>    C       -6.77977       -18.78949        -0.14207
| 62>    C       -7.13155       -18.62811        -1.49492
| 63>    S       -7.07239       -17.00161        -1.99782
| 64>    C       -7.45016       -19.89646        -2.04084
| 65>    C       -7.31618       -20.86214        -1.02366
| 66>    C       -6.87345       -20.20184         0.19483
| 67>    C       -6.57751       -20.80349         1.38189
| 68>    C       -6.70431       -22.20000         1.54425
| 69>    N       -6.82097       -23.33489         1.65797
| 70>    C       -6.13297       -20.08008         2.50912
| 71>    N       -5.78020       -19.49411         3.42873
| 72>    C       -7.59872       -22.14941        -1.46119
| 73>    C       -7.93073       -22.18464        -2.80930
| 74>    S       -7.92677       -20.57498        -3.52379
| 75>    C       -8.30088       -23.27515        -3.62338
| 76>    C       -8.17557       -24.61470        -3.40869
| 77>    C       -9.01822       -25.53238        -4.23048
| 78>    O       -9.63729       -25.23989        -5.22638
| 79>    C       -8.97225       -26.83068        -3.53293
| 80>    C       -9.67103       -27.97253        -3.80006
| 81>    C       -9.49815       -29.09446        -2.95928
| 82>    C       -8.60827       -29.00632        -1.84910
| 83>    C       -8.45397       -30.12444        -1.00514
| 84>    C       -9.14577       -31.27650        -1.25463
| 85>    C      -10.02160       -31.36388        -2.35581
| 86>    C      -10.19510       -30.29627        -3.19121
| 87>    F      -10.68618       -32.50559        -2.57616
| 88>    F       -8.99811       -32.33777        -0.45207
| 89>    C       -7.88888       -27.81372        -1.60458
| 90>    C       -8.06108       -26.74439        -2.44188
| 91>    C       -7.44073       -25.42021        -2.45718
| 92>    C       -6.23813       -25.11677        -1.87373
| 93>    C       -5.53784       -23.91754        -2.10513
| 94>    N       -4.93344       -22.95751        -2.28206
| 95>    C       -5.51703       -26.01216        -1.05497
| 96>    N       -4.88968       -26.70911        -0.39436
| 97>    H       -2.69795         3.37843         4.08114
| 98>    H       -6.16714         2.61364         0.62321
| 99>    H       -2.42664         0.97715         4.37446
|100>    H       -5.90998         0.14277         0.90542
|101>    H       -3.10631        -4.44724         4.12986
|102>    H       -5.12648        -4.55461         0.74691
|103>    H       -6.51911       -10.30839        -1.09294
|104>    H       -5.27611       -13.33203         2.38282
|105>    H       -7.00374       -14.32430        -2.00580
|106>    H       -6.15292       -17.45238         1.49960
|107>    H       -7.61524       -23.01866        -0.83003
|108>    H       -8.82798       -23.02009        -4.53877
|109>    H      -10.34836       -28.01811        -4.63917
|110>    H       -7.78484       -30.07617        -0.16033
|111>    H      -10.86956       -30.37825        -4.02914
|112>    H       -7.22885       -27.77106        -0.75292
|113> *
|114>
|115>                          ****END OF INPUT****

CARTESIAN COORDINATES (ANGSTROEM)
---------------------------------
  C     -3.451940    3.194560    3.331750
  C     -4.060520    4.249730    2.712200
  F     -3.723820    5.505080    3.034650
  C     -5.047070    4.033260    1.728680
  F     -5.626620    5.087070    1.139170
  C     -5.411040    2.763490    1.377880
  C     -4.801320    1.655370    1.997600
  C     -3.803480    1.872400    2.991970
  C     -3.173300    0.776010    3.623820
  C     -3.526420   -0.499990    3.268730
  C     -4.526160   -0.704640    2.279690
  C     -5.156170    0.332430    1.654310
  C     -4.732420   -2.149920    2.074130
  O     -5.544990   -2.648060    1.325290
  C     -3.798950   -2.827040    3.008300
  C     -3.047240   -1.804110    3.718260
  C     -2.014610   -1.997470    4.599190
  C     -1.472100   -3.241220    4.986730
  N     -0.962750   -4.205900    5.346500
  C     -1.313550   -0.949760    5.234640
  N     -0.705600   -0.149260    5.788730
  C     -3.701910   -4.167990    3.268640
  C     -4.242830   -5.277310    2.589670
  C     -4.882640   -5.401650    1.361740
  C     -5.165200   -6.722910    1.049850
  C     -4.750460   -7.633710    2.048450
  S     -3.999280   -6.855340    3.357770
  C     -5.086930   -8.943960    1.626420
  C     -5.703000   -8.864820    0.363410
  C     -5.773210   -7.469140   -0.040200
  C     -6.286970   -6.975380   -1.201610
  C     -6.861570   -7.813460   -2.182570
  N     -7.335610   -8.484450   -2.981860
  C     -6.273800   -5.601150   -1.528980
  N     -6.261520   -4.496750   -1.834300
  C     -6.046670  -10.114130   -0.147950
  C     -5.704340  -11.135780    0.717000
  S     -4.947900  -10.553820    2.182990
  C     -5.920030  -12.532170    0.464970
  C     -5.659380  -13.552330    1.394840
  N     -5.867180  -14.818800    1.121760
  C     -6.341740  -15.128490   -0.094060
  C     -6.610450  -14.105870   -1.021300
  N     -6.406240  -12.842610   -0.747710
  C     -6.570040  -16.513460   -0.392020
  C     -6.454420  -17.581290    0.476300
  C     -6.779770  -18.789490   -0.142070
  C     -7.131550  -18.628110   -1.494920
  S     -7.072390  -17.001610   -1.997820
  C     -7.450160  -19.896460   -2.040840
  C     -7.316180  -20.862140   -1.023660
  C     -6.873450  -20.201840    0.194830
  C     -6.577510  -20.803490    1.381890
  C     -6.704310  -22.200000    1.544250
  N     -6.820970  -23.334890    1.657970
  C     -6.132970  -20.080080    2.509120
  N     -5.780200  -19.494110    3.428730
  C     -7.598720  -22.149410   -1.461190
  C     -7.930730  -22.184640   -2.809300
  S     -7.926770  -20.574980   -3.523790
  C     -8.300880  -23.275150   -3.623380
  C     -8.175570  -24.614700   -3.408690
  C     -9.018220  -25.532380   -4.230480
  O     -9.637290  -25.239890   -5.226380
  C     -8.972250  -26.830680   -3.532930
  C     -9.671030  -27.972530   -3.800060
  C     -9.498150  -29.094460   -2.959280
  C     -8.608270  -29.006320   -1.849100
  C     -8.453970  -30.124440   -1.005140
  C     -9.145770  -31.276500   -1.254630
  C    -10.021600  -31.363880   -2.355810
  C    -10.195100  -30.296270   -3.191210
  F    -10.686180  -32.505590   -2.576160
  F     -8.998110  -32.337770   -0.452070
  C     -7.888880  -27.813720   -1.604580
  C     -8.061080  -26.744390   -2.441880
  C     -7.440730  -25.420210   -2.457180
  C     -6.238130  -25.116770   -1.873730
  C     -5.537840  -23.917540   -2.105130
  N     -4.933440  -22.957510   -2.282060
  C     -5.517030  -26.012160   -1.054970
  N     -4.889680  -26.709110   -0.394360
  H     -2.697950    3.378430    4.081140
  H     -6.167140    2.613640    0.623210
  H     -2.426640    0.977150    4.374460
  H     -5.909980    0.142770    0.905420
  H     -3.106310   -4.447240    4.129860
  H     -5.126480   -4.554610    0.746910
  H     -6.519110  -10.308390   -1.092940
  H     -5.276110  -13.332030    2.382820
  H     -7.003740  -14.324300   -2.005800
  H     -6.152920  -17.452380    1.499600
  H     -7.615240  -23.018660   -0.830030
  H     -8.827980  -23.020090   -4.538770
  H    -10.348360  -28.018110   -4.639170
  H     -7.784840  -30.076170   -0.160330
  H    -10.869560  -30.378250   -4.029140
  H     -7.228850  -27.771060   -0.752920

 Total Charge           Charge          ....    0
 Multiplicity           Mult            ....    1
 Number of Electrons    NEL             ....  574
 Basis Dimension        Dim             .... 1244

ORBITAL ENERGIES
----------------

  NO   OCC          E(Eh)            E(eV)
   0   2.0000     -89.006521     -2421.9906
   1   2.0000     -89.005072     -2421.9511
   2   2.0000     -89.004060     -2421.9236
   3   2.0000     -89.003796     -2421.9164
   4   2.0000     -24.800626      -674.8593
   5   2.0000     -24.800067      -674.8441
   6   2.0000     -24.799671      -674.8334
   7   2.0000     -24.799131      -674.8187
   8   2.0000     -19.224292      -523.1196
   9   2.0000     -19.222121      -523.0605
  10   2.0000     -14.447188      -393.1280
  11   2.0000     -14.447058      -393.1244
  12   2.0000     -14.439673      -392.9235
  13   2.0000     -14.437975      -392.8773
  14   2.0000     -14.437593      -392.8669
  15   2.0000     -14.435802      -392.8181
  16   2.0000     -14.424537      -392.5116
  17   2.0000     -14.423128      -392.4733
  18   2.0000     -14.419217      -392.3668
  19   2.0000     -14.419207      -392.3666
  20   2.0000     -10.383921      -282.5609
  21   2.0000     -10.383540      -282.5505
  22   2.0000     -10.383397      -282.5466
  23   2.0000     -10.382810      -282.5306
  24   2.0000     -10.375824      -282.3405
  25   2.0000     -10.375674      -282.3364
  26   2.0000     -10.375291      -282.3260
  27   2.0000     -10.373322      -282.2724
  28   2.0000     -10.362223      -281.9704
  29   2.0000     -10.361328      -281.9461
  30   2.0000     -10.354667      -281.7648
  31   2.0000     -10.351392      -281.6757
  32   2.0000     -10.351163      -281.6695
  33   2.0000     -10.351053      -281.6665
  34   2.0000     -10.350823      -281.6602
  35   2.0000     -10.349588      -281.6266
  36   2.0000     -10.347912      -281.5810
  37   2.0000     -10.347340      -281.5654
  38   2.0000     -10.347256      -281.5631
  39   2.0000     -10.346811      -281.5511
  40   2.0000     -10.341515      -281.4069
  41   2.0000     -10.340906      -281.3904
  42   2.0000     -10.339724      -281.3582
  43   2.0000     -10.337605      -281.3005
  44   2.0000     -10.337258      -281.2911
  45   2.0000     -10.337199      -281.2895
  46   2.0000     -10.336458      -281.2693
  47   2.0000     -10.336199      -281.2623
  48   2.0000     -10.335625      -281.2467
  49   2.0000     -10.335064      -281.2314
  50   2.0000     -10.334732      -281.2224
  51   2.0000     -10.332332      -281.1570
  52   2.0000     -10.325990      -280.9845
  53   2.0000     -10.325315      -280.9661
  54   2.0000     -10.322325      -280.8848
  55   2.0000     -10.321403      -280.8597
  56   2.0000     -10.321194      -280.8540
  57   2.0000     -10.320126      -280.8249
  58   2.0000     -10.318796      -280.7887
  59   2.0000     -10.316502      -280.7263
  60   2.0000     -10.316460      -280.7251
  61   2.0000     -10.313932      -280.6564
  62   2.0000     -10.313805      -280.6529
  63   2.0000     -10.313463      -280.6436
  64   2.0000     -10.313179      -280.6359
  65   2.0000     -10.312907      -280.6285
  66   2.0000     -10.312648      -280.6214
  67   2.0000     -10.312157      -280.6081
  68   2.0000     -10.311677      -280.5950
  69   2.0000     -10.310542      -280.5641
  70   2.0000     -10.308552      -280.5100
  71   2.0000     -10.307658      -280.4856
  72   2.0000     -10.306861      -280.4639
  73   2.0000     -10.305912      -280.4381
  74   2.0000     -10.305319      -280.4220
  75   2.0000     -10.304737      -280.4061
  76   2.0000     -10.303837      -280.3817
  77   2.0000     -10.303000      -280.3589
  78   2.0000     -10.302771      -280.3526
  79   2.0000     -10.302394      -280.3424
  80   2.0000     -10.298126      -280.2263
  81   2.0000     -10.295791      -280.1627
  82   2.0000      -8.100965      -220.4385
  83   2.0000      -8.099654      -220.4028
  84   2.0000      -8.098829      -220.3803
  85   2.0000      -8.098548      -220.3727
  86   2.0000      -6.070175      -165.1778
  87   2.0000      -6.068846      -165.1417
  88   2.0000      -6.067947      -165.1172
  89   2.0000      -6.067646      -165.1090
  90   2.0000      -6.066029      -165.0650
  91   2.0000      -6.064671      -165.0281
  92   2.0000      -6.063833      -165.0053
  93   2.0000      -6.063512      -164.9966
  94   2.0000      -6.063408      -164.9937
  95   2.0000      -6.062136      -164.9591
  96   2.0000      -6.061353      -164.9378
  97   2.0000      -6.061086      -164.9305
  98   2.0000      -1.323300       -36.0088
  99   2.0000      -1.322711       -35.9928
 100   2.0000      -1.308402       -35.6034
 101   2.0000      -1.307835       -35.5880
 102   2.0000      -1.140410       -31.0321
 103   2.0000      -1.138124       -30.9699
 104   2.0000      -1.105590       -30.0846
 105   2.0000      -1.058978       -28.8163
 106   2.0000      -1.058028       -28.7904
 107   2.0000      -1.031878       -28.0788
 108   2.0000      -1.030282       -28.0354
 109   2.0000      -1.028717       -27.9928
 110   2.0000      -1.025951       -27.9175
 111   2.0000      -1.025141       -27.8955
 112   2.0000      -1.016099       -27.6495
 113   2.0000      -1.013942       -27.5908
 114   2.0000      -1.010931       -27.5088
 115   2.0000      -1.009594       -27.4725
 116   2.0000      -1.008707       -27.4483
 117   2.0000      -1.008320       -27.4378
 118   2.0000      -0.999626       -27.2012
 119   2.0000      -0.999425       -27.1957
 120   2.0000      -0.986018       -26.8309
 121   2.0000      -0.985337       -26.8124
 122   2.0000      -0.972088       -26.4519
 123   2.0000      -0.970390       -26.4057
 124   2.0000      -0.939317       -25.5601
 125   2.0000      -0.938367       -25.5343
 126   2.0000      -0.932202       -25.3665
 127   2.0000      -0.927087       -25.2273
 128   2.0000      -0.913358       -24.8537
 129   2.0000      -0.906664       -24.6716
 130   2.0000      -0.900165       -24.4947
 131   2.0000      -0.896102       -24.3842
 132   2.0000      -0.894837       -24.3497
 133   2.0000      -0.886718       -24.1288
 134   2.0000      -0.885975       -24.1086
 135   2.0000      -0.878527       -23.9059
 136   2.0000      -0.870067       -23.6757
 137   2.0000      -0.868951       -23.6454
 138   2.0000      -0.868328       -23.6284
 139   2.0000      -0.844237       -22.9729
 140   2.0000      -0.843364       -22.9491
 141   2.0000      -0.839674       -22.8487
 142   2.0000      -0.824016       -22.4226
 143   2.0000      -0.814820       -22.1724
 144   2.0000      -0.792883       -21.5754
 145   2.0000      -0.789529       -21.4842
 146   2.0000      -0.783863       -21.3300
 147   2.0000      -0.772179       -21.0120
 148   2.0000      -0.771987       -21.0068
 149   2.0000      -0.769176       -20.9303
 150   2.0000      -0.765740       -20.8368
 151   2.0000      -0.747508       -20.3407
 152   2.0000      -0.741058       -20.1652
 153   2.0000      -0.726007       -19.7557
 154   2.0000      -0.723387       -19.6844
 155   2.0000      -0.720223       -19.5983
 156   2.0000      -0.716596       -19.4996
 157   2.0000      -0.713323       -19.4105
 158   2.0000      -0.707142       -19.2423
 159   2.0000      -0.696939       -18.9647
 160   2.0000      -0.696398       -18.9500
 161   2.0000      -0.693212       -18.8633
 162   2.0000      -0.689026       -18.7494
 163   2.0000      -0.685673       -18.6581
 164   2.0000      -0.679976       -18.5031
 165   2.0000      -0.669047       -18.2057
 166   2.0000      -0.664619       -18.0852
 167   2.0000      -0.658383       -17.9155
 168   2.0000      -0.656792       -17.8722
 169   2.0000      -0.650823       -17.7098
 170   2.0000      -0.646025       -17.5792
 171   2.0000      -0.645136       -17.5550
 172   2.0000      -0.643683       -17.5155
 173   2.0000      -0.640105       -17.4182
 174   2.0000      -0.631246       -17.1771
 175   2.0000      -0.627631       -17.0787
 176   2.0000      -0.624459       -16.9924
 177   2.0000      -0.621549       -16.9132
 178   2.0000      -0.617277       -16.7970
 179   2.0000      -0.615822       -16.7574
 180   2.0000      -0.611938       -16.6517
 181   2.0000      -0.603780       -16.4297
 182   2.0000      -0.592039       -16.1102
 183   2.0000      -0.591507       -16.0957
 184   2.0000      -0.587820       -15.9954
 185   2.0000      -0.587131       -15.9767
 186   2.0000      -0.587083       -15.9753
 187   2.0000      -0.581591       -15.8259
 188   2.0000      -0.579439       -15.7673
 189   2.0000      -0.578066       -15.7300
 190   2.0000      -0.563753       -15.3405
 191   2.0000      -0.563265       -15.3272
 192   2.0000      -0.560299       -15.2465
 193   2.0000      -0.557901       -15.1813
 194   2.0000      -0.556253       -15.1364
 195   2.0000      -0.553114       -15.0510
 196   2.0000      -0.549960       -14.9652
 197   2.0000      -0.549419       -14.9505
 198   2.0000      -0.548615       -14.9286
 199   2.0000      -0.546176       -14.8622
 200   2.0000      -0.544806       -14.8249
 201   2.0000      -0.543348       -14.7853
 202   2.0000      -0.542566       -14.7640
 203   2.0000      -0.539431       -14.6787
 204   2.0000      -0.534550       -14.5458
 205   2.0000      -0.533908       -14.5284
 206   2.0000      -0.530737       -14.4421
 207   2.0000      -0.528162       -14.3720
 208   2.0000      -0.524068       -14.2606
 209   2.0000      -0.520437       -14.1618
 210   2.0000      -0.519268       -14.1300
 211   2.0000      -0.517536       -14.0829
 212   2.0000      -0.516351       -14.0506
 213   2.0000      -0.514790       -14.0082
 214   2.0000      -0.513789       -13.9809
 215   2.0000      -0.511778       -13.9262
 216   2.0000      -0.510341       -13.8871
 217   2.0000      -0.507785       -13.8175
 218   2.0000      -0.506680       -13.7875
 219   2.0000      -0.504119       -13.7178
 220   2.0000      -0.500856       -13.6290
 221   2.0000      -0.499161       -13.5829
 222   2.0000      -0.497320       -13.5328
 223   2.0000      -0.494333       -13.4515
 224   2.0000      -0.490629       -13.3507
 225   2.0000      -0.488021       -13.2797
 226   2.0000      -0.485477       -13.2105
 227   2.0000      -0.483061       -13.1448
 228   2.0000      -0.479620       -13.0511
 229   2.0000      -0.472421       -12.8552
 230   2.0000      -0.470867       -12.8130
 231   2.0000      -0.469348       -12.7716
 232   2.0000      -0.467440       -12.7197
 233   2.0000      -0.466311       -12.6890
 234   2.0000      -0.466113       -12.6836
 235   2.0000      -0.465887       -12.6774
 236   2.0000      -0.464923       -12.6512
 237   2.0000      -0.462481       -12.5847
 238   2.0000      -0.460451       -12.5295
 239   2.0000      -0.457037       -12.4366
 240   2.0000      -0.455085       -12.3835
 241   2.0000      -0.454830       -12.3766
 242   2.0000      -0.454202       -12.3595
 243   2.0000      -0.453227       -12.3329
 244   2.0000      -0.449965       -12.2442
 245   2.0000      -0.449659       -12.2358
 246   2.0000      -0.448141       -12.1945
 247   2.0000      -0.447921       -12.1885
 248   2.0000      -0.447422       -12.1750
 249   2.0000      -0.446545       -12.1511
 250   2.0000      -0.446120       -12.1396
 251   2.0000      -0.445497       -12.1226
 252   2.0000      -0.437425       -11.9029
 253   2.0000      -0.435413       -11.8482
 254   2.0000      -0.435033       -11.8378
 255   2.0000      -0.434551       -11.8247
 256   2.0000      -0.432531       -11.7698
 257   2.0000      -0.431804       -11.7500
 258   2.0000      -0.431118       -11.7313
 259   2.0000      -0.428233       -11.6528
 260   2.0000      -0.427117       -11.6225
 261   2.0000      -0.425444       -11.5769
 262   2.0000      -0.417420       -11.3586
 263   2.0000      -0.413567       -11.2537
 264   2.0000      -0.409905       -11.1541
 265   2.0000      -0.407842       -11.0980
 266   2.0000      -0.407142       -11.0789
 267   2.0000      -0.399349       -10.8668
 268   2.0000      -0.391538       -10.6543
 269   2.0000      -0.389083       -10.5875
 270   2.0000      -0.380097       -10.3430
 271   2.0000      -0.370018       -10.0687
 272   2.0000      -0.362714        -9.8699
 273   2.0000      -0.359981        -9.7956
 274   2.0000      -0.351141        -9.5550
 275   2.0000      -0.348835        -9.4923
 276   2.0000      -0.346221        -9.4212
 277   2.0000      -0.341992        -9.3061
 278   2.0000      -0.334252        -9.0955
 279   2.0000      -0.332563        -9.0495
 280   2.0000      -0.324450        -8.8287
 281   2.0000      -0.320891        -8.7319
 282   2.0000      -0.319979        -8.7071
 283   2.0000      -0.305520        -8.3136
 284   2.0000      -0.303648        -8.2627
 285   2.0000      -0.284826        -7.7505
 286   2.0000      -0.265556        -7.2262
 287   0.0000      -0.125168        -3.4060
 288   0.0000      -0.117774        -3.2048
 289   0.0000      -0.097575        -2.6551
 290   0.0000      -0.096021        -2.6129
 291   0.0000      -0.069474        -1.8905

MULLIKEN ATOMIC CHARGES
-----------------------
   0 C :   -0.108757
   1 C :    0.241565
   2 F :   -0.169811
   3 C :    0.239978
   4 F :   -0.171047
   5 C :   -0.103667
   6 C :    0.115297
   7 C :    0.113067
   8 C :   -0.083782
   9 C :    0.051461
  10 C :   -0.003644
  11 C :   -0.079566
  12 C :    0.154665
  13 O :   -0.149697
  14 C :   -0.091387
  15 C :    0.317169
  16 C :   -0.355145
  17 C :   -0.193707
  18 N :    0.153934
  19 C :   -0.184543
  20 N :    0.151593
  21 C :    0.037730
  22 C :   -0.114204
  23 C :    0.003888
  24 C :   -0.009798
  25 C :   -0.080173
  26 S :    0.212067
  27 C :   -0.101251
  28 C :    0.032810
  29 C :    0.307366
  30 C :   -0.294402
  31 C :   -0.195526
  32 N :    0.184466
  33 C :   -0.189969
  34 N :    0.193794
  35 C :   -0.036704
  36 C :   -0.044899
  37 S :    0.200928
  38 C :   -0.009494
  39 C :   -0.005445
  40 N :   -0.023182
  41 C :   -0.008682
  42 C :   -0.011970
  43 N :   -0.023264
  44 C :   -0.043234
  45 C :   -0.035279
  46 C :    0.028267
  47 C :   -0.097895
  48 S :    0.188813
  49 C :   -0.070266
  50 C :   -0.002129
  51 C :    0.298035
  52 C :   -0.282711
  53 C :   -0.182342
  54 N :    0.170678
  55 C :   -0.191879
  56 N :    0.187039
  57 C :    0.000392
  58 C :   -0.107602
  59 S :    0.214997
  60 C :    0.083611
  61 C :   -0.138192
  62 C :    0.135123
  63 O :   -0.141960
  64 C :    0.019929
  65 C :   -0.085183
  66 C :    0.115984
  67 C :    0.112759
  68 C :   -0.109562
  69 C :    0.244077
  70 C :    0.240719
  71 C :   -0.108037
  72 F :   -0.170480
  73 F :   -0.169833
  74 C :   -0.080458
  75 C :    0.031030
  76 C :    0.268104
  77 C :   -0.323286
  78 C :   -0.203295
  79 N :    0.167056
  80 C :   -0.167590
  81 N :    0.161605
  82 H :    0.009498
  83 H :    0.001822
  84 H :   -0.006326
  85 H :   -0.004996
  86 H :    0.010682
  87 H :    0.039703
  88 H :    0.021904
  89 H :    0.012411
  90 H :    0.016330
  91 H :    0.021830
  92 H :    0.025012
  93 H :    0.021310
  94 H :   -0.007567
  95 H :    0.008643
  96 H :    0.000987
  97 H :    0.003688
Sum of atomic charges:   -0.0000000

LOEWDIN ATOMIC CHARGES
----------------------
   0 C :   -0.029311
   1 C :    0.066930
   2 F :   -0.047936
   3 C :    0.068309
   4 F :   -0.048373
   5 C :   -0.032447
   6 C :   -0.008254
   7 C :   -0.006375
   8 C :    0.018107
   9 C :   -0.023950
  10 C :   -0.052636
  11 C :    0.032320
  12 C :    0.085923
  13 O :   -0.136443
  14 C :   -0.096344
  15 C :    0.076226
  16 C :   -0.141347
  17 C :   -0.024095
  18 N :   -0.052384
  19 C :   -0.017485
  20 N :   -0.052293
  21 C :    0.044833
  22 C :   -0.175925
  23 C :    0.020716
  24 C :   -0.072730
  25 C :   -0.159082
  26 S :    0.499708
  27 C :   -0.185187
  28 C :   -0.053646
  29 C :    0.073416
  30 C :   -0.089215
  31 C :   -0.017441
  32 N :   -0.024143
  33 C :   -0.021962
  34 N :   -0.013819
  35 C :   -0.005241
  36 C :   -0.170679
  37 S :    0.487283
  38 C :   -0.028560
  39 C :    0.008169
  40 N :   -0.036823
  41 C :   -0.027486
  42 C :    0.004870
  43 N :   -0.033600
  44 C :   -0.171771
  45 C :   -0.002217
  46 C :   -0.057815
  47 C :   -0.179253
  48 S :    0.488915
  49 C :   -0.162250
  50 C :   -0.063255
  51 C :    0.079914
  52 C :   -0.092165
  53 C :   -0.011902
  54 N :   -0.029620
  55 C :   -0.019013
  56 N :   -0.021974
  57 C :    0.012403
  58 C :   -0.178689
  59 S :    0.502088
  60 C :    0.042001
  61 C :   -0.091168
  62 C :    0.083471
  63 O :   -0.142023
  64 C :   -0.055176
  65 C :    0.031537
  66 C :   -0.009287
  67 C :   -0.004974
  68 C :   -0.029122
  69 C :    0.067778
  70 C :    0.067518
  71 C :   -0.032963
  72 F :   -0.048546
  73 F :   -0.047573
  74 C :    0.016887
  75 C :   -0.020100
  76 C :    0.065180
  77 C :   -0.134551
  78 C :   -0.015224
  79 N :   -0.044492
  80 C :   -0.018364
  81 N :   -0.043213
  82 H :    0.048082
  83 H :    0.045644
  84 H :    0.039935
  85 H :    0.042089
  86 H :    0.043068
  87 H :    0.044146
  88 H :    0.046314
  89 H :    0.023694
  90 H :    0.021813
  91 H :    0.047800
  92 H :    0.042904
  93 H :    0.045869
  94 H :    0.041056
  95 H :    0.048261
  96 H :    0.045124
  97 H :    0.041613

  Mayer bond orders larger than 0.100000
B(  0-C ,  1-C ) :   1.4410 B(  0-C ,  5-C ) :   0.1078 B(  0-C ,  7-C ) :   1.1898
B(  0-C , 82-H ) :   1.0069 B(  1-C ,  2-F ) :   1.1366 B(  1-C ,  3-C ) :   1.1882
B(  3-C ,  4-F ) :   1.1347 B(  3-C ,  5-C ) :   1.4430 B(  5-C ,  6-C ) :   1.1919
B(  5-C , 83-H ) :   1.0077 B(  6-C ,  7-C ) :   1.2558 B(  6-C , 11-C ) :   1.1880
B(  7-C ,  8-C ) :   1.2177 B(  8-C ,  9-C ) :   1.4473 B(  8-C , 84-H ) :   0.9903
B(  9-C , 10-C ) :   1.2237 B(  9-C , 15-C ) :   0.9827 B( 10-C , 11-C ) :   1.4692
B( 10-C , 12-C ) :   0.9486 B( 11-C , 85-H ) :   1.0177 B( 12-C , 13-O ) :   2.1785
B( 12-C , 14-C ) :   0.9410 B( 14-C , 15-C ) :   1.0852 B( 14-C , 21-C ) :   1.5864
B( 15-C , 16-C ) :   1.6213 B( 16-C , 17-C ) :   1.1406 B( 16-C , 19-C ) :   1.1503
B( 17-C , 18-N ) :   2.9719 B( 19-C , 20-N ) :   2.9617 B( 21-C , 22-C ) :   1.2159
B( 21-C , 86-H ) :   0.9136 B( 22-C , 23-C ) :   1.3971 B( 22-C , 26-S ) :   1.0772
B( 23-C , 24-C ) :   1.3235 B( 23-C , 87-H ) :   0.9698 B( 24-C , 25-C ) :   1.3808
B( 24-C , 29-C ) :   0.9972 B( 25-C , 26-S ) :   1.1682 B( 25-C , 27-C ) :   1.2031
B( 27-C , 28-C ) :   1.4276 B( 27-C , 37-S ) :   1.1225 B( 28-C , 29-C ) :   0.9932
B( 28-C , 35-C ) :   1.2545 B( 29-C , 30-C ) :   1.7202 B( 30-C , 31-C ) :   1.1369
B( 30-C , 33-C ) :   1.1349 B( 31-C , 32-N ) :   2.9958 B( 33-C , 34-N ) :   2.9946
B( 35-C , 36-C ) :   1.4691 B( 35-C , 88-H ) :   1.0067 B( 36-C , 37-S ) :   1.1207
B( 36-C , 38-C ) :   1.0598 B( 38-C , 39-C ) :   1.3003 B( 38-C , 43-N ) :   1.5405
B( 39-C , 40-N ) :   1.6015 B( 39-C , 89-H ) :   0.9766 B( 40-N , 41-C ) :   1.5518
B( 41-C , 42-C ) :   1.2881 B( 41-C , 44-C ) :   1.0662 B( 42-C , 43-N ) :   1.6173
B( 42-C , 90-H ) :   0.9728 B( 44-C , 45-C ) :   1.4689 B( 44-C , 48-S ) :   1.1180
B( 45-C , 46-C ) :   1.2578 B( 45-C , 91-H ) :   1.0100 B( 46-C , 47-C ) :   1.4318
B( 46-C , 51-C ) :   0.9921 B( 47-C , 48-S ) :   1.1309 B( 47-C , 49-C ) :   1.1916
B( 49-C , 50-C ) :   1.4123 B( 49-C , 59-S ) :   1.1563 B( 50-C , 51-C ) :   0.9993
B( 50-C , 57-C ) :   1.3591 B( 51-C , 52-C ) :   1.7236 B( 52-C , 53-C ) :   1.1327
B( 52-C , 55-C ) :   1.1327 B( 53-C , 54-N ) :   2.9822 B( 55-C , 56-N ) :   3.0013
B( 57-C , 58-C ) :   1.3884 B( 57-C , 92-H ) :   0.9791 B( 58-C , 59-S ) :   1.0910
B( 58-C , 60-C ) :   1.1459 B( 60-C , 61-C ) :   1.6679 B( 60-C , 93-H ) :   0.9224
B( 61-C , 62-C ) :   0.9433 B( 61-C , 76-C ) :   1.0365 B( 62-C , 63-O ) :   2.2646
B( 62-C , 64-C ) :   0.9199 B( 64-C , 65-C ) :   1.4722 B( 64-C , 75-C ) :   1.2213
B( 65-C , 66-C ) :   1.1934 B( 65-C , 94-H ) :   1.0172 B( 66-C , 67-C ) :   1.2566
B( 66-C , 71-C ) :   1.1913 B( 67-C , 68-C ) :   1.1895 B( 67-C , 74-C ) :   1.2149
B( 68-C , 69-C ) :   1.4417 B( 68-C , 71-C ) :   0.1088 B( 68-C , 95-H ) :   1.0074
B( 69-C , 70-C ) :   1.1912 B( 69-C , 73-F ) :   1.1353 B( 70-C , 71-C ) :   1.4437
B( 70-C , 72-F ) :   1.1350 B( 71-C , 96-H ) :   1.0074 B( 74-C , 75-C ) :   1.4589
B( 74-C , 97-H ) :   0.9943 B( 75-C , 76-C ) :   0.9944 B( 76-C , 77-C ) :   1.6525
B( 77-C , 78-C ) :   1.1727 B( 77-C , 80-C ) :   1.1257 B( 78-C , 79-N ) :   2.9896
B( 80-C , 81-N ) :   2.9919

-----------------------------------------------------------------------------
         ABSORPTION SPECTRUM VIA TRANSITION ELECTRIC DIPOLE MOMENTS
-----------------------------------------------------------------------------
State   Energy  Wavelength   fosc         T2         TX        TY        TZ
        (cm-1)    (nm)                  (au**2)     (au)      (au)      (au)
-----------------------------------------------------------------------------
   0   14215.7    703.4   0.868097386  20.10365   0.75974   4.28466   1.08082
   1   15106.9    661.9   0.046171786   1.00618   0.33889   0.90958   0.25298
   2   20349.8    491.4   2.066402308  33.42960   0.81577   5.55393   1.38492
   3   21766.3    459.4   0.224569210   3.39658  -1.05930  -1.32753  -0.71564
   4   23178.1    431.4   0.005539505   0.07868  -0.20203  -0.02193  -0.19335
   5   24459.6    408.8   0.010288290   0.13847   0.02989   0.07931   0.36234
   6   25971.2    385.0   0.013622552   0.17268   0.31091   0.27323   0.03691
   7   26078.0    383.5   0.030971640   0.39099  -0.27952   0.55916  -0.01419
   8   27472.0    364.0   0.080280363   0.96204   0.16433   0.96387   0.07741
   9   27644.0    361.7   0.482466981   5.74570   0.32144   2.37536   0.00630
  10   28274.1    353.7   0.062957516   0.73305   0.34415   0.74174   0.25384
  11   28572.3    350.0   0.079451048   0.91544   0.14283   0.94555   0.03119
  12   28952.3    345.4   0.012341823   0.14034   0.01729   0.30122   0.22205
  13   29002.0    344.8   0.100873976   1.14506  -0.43533   0.83304  -0.51145
  14   29417.0    339.9   0.012195537   0.13648  -0.04400   0.35246   0.10160
  15   29793.4    335.6   0.024606559   0.27190  -0.49431   0.01744  -0.16508
  16   30158.9    331.6   0.372539219   4.06661   0.11922  -0.84631   1.82651
  17   30705.6    325.7   0.289350088   3.10228  -1.23352  -0.22017  -1.23783
  18   30807.7    324.6   0.003883002   0.04149  -0.18575   0.08004  -0.02417
  19   30867.3    324.0   0.047071357   0.50204   0.45288  -0.24210   0.48818
  20   31047.6    322.1   0.010259590   0.10879  -0.30376   0.11522  -0.05695
  21   31231.7    320.2   0.648089782   6.83148  -0.26651   2.46102  -0.83893
  22   31557.4    316.9   0.013886107   0.14486  -0.07694   0.37202   0.02327
  23   31897.6    313.5   0.310618370   3.20586  -0.63721  -1.10180  -1.25931
  24   32591.8    306.8   0.138156738   1.39553   0.31492   1.07591  -0.37252
  25   32828.9    304.6   0.046813142   0.46945  -0.10364  -0.67463  -0.05989
  26   33032.3    302.7   0.273744057   2.72823  -0.02976   1.65010  -0.06713
  27   33195.7    301.2   0.012561294   0.12457   0.24442   0.23599   0.09560
  28   33603.3    297.6   0.046319325   0.45379  -0.19252  -0.64476   0.03178
  29   34263.3    291.9   0.046149865   0.44342   0.56163   0.28742   0.21305
  30   34270.9    291.8   0.079933212   0.76785  -0.70136  -0.41491  -0.32218
  31   34396.3    290.7   0.003484820   0.03335  -0.05841  -0.16992   0.03271
  32   34470.1    290.1   0.066204386   0.63229  -0.29431  -0.63441   0.37841
  33   34655.0    288.6   0.097938250   0.93038  -0.03430  -0.96379  -0.01764
  34   34866.3    286.8   0.030721258   0.29007  -0.01884  -0.38724  -0.37385
  35   35060.5    285.2   0.790928812   7.42669   1.06139  -1.78944   1.76012
  36   35221.8    283.9   0.138007066   1.28993   0.01243   0.35230   1.07966
  37   35468.3    281.9   0.351494275   3.26253  -0.84891  -1.57600  -0.24106
  38   35611.7    280.8   0.010866238   0.10045   0.02850   0.25537   0.18554
  39   35646.9    280.5   0.251142904   2.31939  -1.16584  -0.29965  -0.93296
  40   36321.0    275.3   0.009748015   0.08836  -0.20336  -0.08303  -0.20027
  41   36442.4    274.4   0.068747988   0.62105   0.29286   0.66482  -0.30546
  42   36891.5    271.1   0.034696065   0.30962  -0.06282  -0.43733   0.33826
  43   37442.7    267.1   0.015637037   0.13749   0.21172  -0.25341   0.16865
  44   37664.4    265.5   0.075463130   0.65960  -0.39228   0.28266  -0.65255
  45   37998.2    263.2   0.020404426   0.17678  -0.28163  -0.18090  -0.25444
  46   38061.5    262.7   0.049693209   0.42982   0.49729   0.23051   0.35971
  47   38143.3    262.2   0.002923022   0.02523  -0.15433  -0.03589   0.01115
  48   38170.6    262.0   0.064220122   0.55388  -0.61514   0.20605  -0.36472
  49   38310.8    261.0   0.011054823   0.09500  -0.12279   0.01988  -0.28200
  50   38444.6    260.1   0.016607207   0.14221   0.11148   0.21346   0.29021
  51   38899.9    257.1   0.052456206   0.44394   0.27413   0.18999   0.57680
  52   39022.2    256.3   0.018009365   0.15194   0.25582  -0.12505   0.26619
  53   39097.2    255.8   0.149379552   1.25783  -0.65102  -0.65986  -0.63134
  54   39525.8    253.0   0.082960128   0.69098  -0.15510  -0.81660   0.00907
  55   39680.6    252.0   0.100590044   0.83455   0.62523   0.14140   0.65088
  56   40226.5    248.6   0.039845809   0.32610  -0.04991  -0.56751  -0.03915

FINAL SINGLE POINT ENERGY     -5057.360514647995

DIPOLE MOMENT
-------------
                                X             Y             Z
Electronic contribution:     -1.36562       0.35931       1.53906
Nuclear contribution   :     -1.05307      -0.57753      -2.63204
                        -----------------------------------------
Total Dipole Moment    :     -2.41869      -0.21822      -1.09298
                        -----------------------------------------
Magnitude (a.u.)       :      2.66313
Magnitude (Debye)      :      6.76915

Rotational constants in cm-1:     0.003128     0.000115     0.000112
Rotational constants in MHz :    93.767962     3.443433     3.349784

                             ****ORCA TERMINATED NORMALLY****
TOTAL RUN TIME: 0 days 0 hours 10 minutes 27 seconds 135 msec
