                         Program Version 4.2.0 -  RELEASE  -
|  1> # ORCA input file
|  2> # SCF done       -187.372665608459          0.000599117092
|  3> ! CAM-B3LYP def2-SVP def2/J RIJCOSX Grid4 TightSCF
|  4> %maxcore 5000
|  5> %tddft
|  6>     Mode sTDDFT
|  7>     Ethresh 5.0
|  8>     maxcore 5000
|  9> end
| 10>
| 11> %pal
| 12>   nprocs 6
| 13>   end
| 14> * xyz 0 1
| 15>    C       -3.77339         2.12622         2.93478
| 16>    C       -4.84777         1.79960         2.14832
| 17>    C       -6.09719         2.44823         2.21168
| 18>    N       -7.13142         2.94663         2.22399
| 19>    C       -4.85322         0.71969         1.24097
| 20>    N       -4.93059        -0.17741         0.52822
| 21>    C       -3.76236         3.10549         4.01293
| 22>    C       -2.55285         2.96123         4.73593
| 23>    C       -2.24642         3.74245         5.82286
| 24>    C       -3.17603         4.71336         6.21225
| 25>    C       -4.37844         4.85304         5.47928
| 26>    C       -4.69054         4.06045         4.38111
| 27>    S       -5.37717         6.11991         6.12494
| 28>    C       -4.18420         6.43839         7.35595
| 29>    C       -3.09307         5.63903         7.28817
| 30>   Br       -4.49134         7.79496         8.61433
| 31>    C       -1.73396         1.89339         4.12374
| 32>    O       -0.64618         1.51466         4.50564
| 33>    C       -2.48786         1.46098         2.92798
| 34>    C       -1.96931         0.75232         1.87882
| 35>    C       -0.74792         0.04248         1.85122
| 36>    S        0.17413         0.06943         0.36522
| 37>    C        1.47032        -0.75455         1.12110
| 38>    C        1.22066        -1.08628         2.41882
| 39>    C        2.17563        -1.83326         3.28728
| 40>    C       -0.07034        -0.66282         2.84472
| 41>    C       -0.64003        -1.05564         4.10577
| 42>    C       -1.94079        -1.36252         4.28512
| 43>    C       -2.49304        -1.76624         5.53456
| 44>    C       -3.78753        -2.11734         5.69592
| 45>    C       -4.33662        -2.50949         6.95760
| 46>    C       -5.59519        -2.90652         7.20995
| 47>    C       -6.68692        -3.04422         6.19899
| 48>    C       -5.97981        -3.31087         8.61773
| 49>    N       -5.75246        -4.72335         8.83199
| 50>    C       -4.60784        -5.23141         9.31403
| 51>    C       -4.28911        -6.55733         9.30002
| 52>    C       -3.11289        -7.07050         9.86298
| 53>    C       -2.76310        -8.39863         9.86129
| 54>    C       -1.59292        -8.98022        10.39811
| 55>    C       -1.51805       -10.33339        10.24500
| 56>    C       -2.62889       -10.89504         9.57973
| 57>    S       -3.77314        -9.65457         9.14973
| 58>    C       -2.85248       -12.23027         9.27699
| 59>    C       -2.01670       -13.33062         9.53740
| 60>    C       -2.53018       -14.52392         9.10968
| 61>    C       -3.79299       -14.42005         8.49415
| 62>    S       -4.31827       -12.75721         8.47506
| 63>    C       -4.55075       -15.46398         7.98432
| 64>    C       -5.78202       -15.29036         7.37791
| 65>    C       -6.62803       -16.25750         6.86026
| 66>    C       -7.64742       -15.86016         5.87318
| 67>    O       -7.98191       -14.73120         5.57363
| 68>    C       -8.14553       -17.12590         5.28794
| 69>    C       -9.03215       -17.31334         4.26959
| 70>    C       -9.32532       -18.63078         3.84714
| 71>    C       -8.68628       -19.72759         4.49232
| 72>    C       -8.97367       -21.03734         4.06082
| 73>    C       -9.85651       -21.24860         3.03888
| 74>    C      -10.48929       -20.16389         2.40370
| 75>    C      -10.23040       -18.88106         2.79836
| 76>    F      -11.35247       -20.39923         1.40148
| 77>    F      -10.12829       -22.49857         2.63014
| 78>    C       -7.77876       -19.50022         5.55444
| 79>    C       -7.51660       -18.21757         5.94999
| 80>    C       -6.66182       -17.68088         7.01341
| 81>    C       -6.16830       -18.42660         8.06324
| 82>    C       -5.61741       -17.88581         9.23958
| 83>    N       -5.20320       -17.51237        10.24463
| 84>    C       -6.25874       -19.82805         8.14107
| 85>    N       -6.27756       -20.97231         8.24964
| 86>    H       -1.31789         3.61156         6.35601
| 87>    H       -5.61493         4.20739         3.84741
| 88>    H       -2.26195         5.70018         7.96673
| 89>    H       -2.48302         0.81639         0.92525
| 90>    H        2.36124        -0.95609         0.55817
| 91>    H        3.09673        -2.04000         2.74914
| 92>    H        1.73709        -2.77702         3.60891
| 93>    H        2.41138        -1.24726         4.17456
| 94>    H        0.05251        -1.16899         4.92805
| 95>    H       -2.62070        -1.31955         3.44310
| 96>    H       -1.82418        -1.78084         6.38587
| 97>    H       -4.44006        -2.09760         4.83458
| 98>    H       -3.64150        -2.46801         7.78843
| 99>    H       -6.32336        -2.93736         5.18296
|100>    H       -7.45047        -2.28468         6.37316
|101>    H       -7.16823        -4.01774         6.29024
|102>    H       -7.03932        -3.10315         8.79270
|103>    H       -5.38750        -2.75910         9.35091
|104>    H       -6.35789        -5.35844         8.33098
|105>    H       -3.93886        -4.51653         9.77429
|106>    H       -4.96912        -7.25911         8.83585
|107>    H       -2.42411        -6.37822        10.32989
|108>    H       -0.84110        -8.38178        10.88226
|109>    H       -0.70056       -10.93769        10.59408
|110>    H       -1.06480       -13.22435        10.02603
|111>    H       -2.04175       -15.47451         9.22788
|112>    H       -4.11618       -16.44959         8.06078
|113>    H       -6.10598       -14.26952         7.19449
|114>    H       -9.50363       -16.46946         3.78916
|115>    H       -8.49941       -21.88006         4.53919
|116>    H      -10.72310       -18.06019         2.30106
|117>    H       -7.30880       -20.35086         6.02127
|118> *
|119>
|120>                          ****END OF INPUT****

CARTESIAN COORDINATES (ANGSTROEM)
---------------------------------
  C     -3.773390    2.126220    2.934780
  C     -4.847770    1.799600    2.148320
  C     -6.097190    2.448230    2.211680
  N     -7.131420    2.946630    2.223990
  C     -4.853220    0.719690    1.240970
  N     -4.930590   -0.177410    0.528220
  C     -3.762360    3.105490    4.012930
  C     -2.552850    2.961230    4.735930
  C     -2.246420    3.742450    5.822860
  C     -3.176030    4.713360    6.212250
  C     -4.378440    4.853040    5.479280
  C     -4.690540    4.060450    4.381110
  S     -5.377170    6.119910    6.124940
  C     -4.184200    6.438390    7.355950
  C     -3.093070    5.639030    7.288170
  Br    -4.491340    7.794960    8.614330
  C     -1.733960    1.893390    4.123740
  O     -0.646180    1.514660    4.505640
  C     -2.487860    1.460980    2.927980
  C     -1.969310    0.752320    1.878820
  C     -0.747920    0.042480    1.851220
  S      0.174130    0.069430    0.365220
  C      1.470320   -0.754550    1.121100
  C      1.220660   -1.086280    2.418820
  C      2.175630   -1.833260    3.287280
  C     -0.070340   -0.662820    2.844720
  C     -0.640030   -1.055640    4.105770
  C     -1.940790   -1.362520    4.285120
  C     -2.493040   -1.766240    5.534560
  C     -3.787530   -2.117340    5.695920
  C     -4.336620   -2.509490    6.957600
  C     -5.595190   -2.906520    7.209950
  C     -6.686920   -3.044220    6.198990
  C     -5.979810   -3.310870    8.617730
  N     -5.752460   -4.723350    8.831990
  C     -4.607840   -5.231410    9.314030
  C     -4.289110   -6.557330    9.300020
  C     -3.112890   -7.070500    9.862980
  C     -2.763100   -8.398630    9.861290
  C     -1.592920   -8.980220   10.398110
  C     -1.518050  -10.333390   10.245000
  C     -2.628890  -10.895040    9.579730
  S     -3.773140   -9.654570    9.149730
  C     -2.852480  -12.230270    9.276990
  C     -2.016700  -13.330620    9.537400
  C     -2.530180  -14.523920    9.109680
  C     -3.792990  -14.420050    8.494150
  S     -4.318270  -12.757210    8.475060
  C     -4.550750  -15.463980    7.984320
  C     -5.782020  -15.290360    7.377910
  C     -6.628030  -16.257500    6.860260
  C     -7.647420  -15.860160    5.873180
  O     -7.981910  -14.731200    5.573630
  C     -8.145530  -17.125900    5.287940
  C     -9.032150  -17.313340    4.269590
  C     -9.325320  -18.630780    3.847140
  C     -8.686280  -19.727590    4.492320
  C     -8.973670  -21.037340    4.060820
  C     -9.856510  -21.248600    3.038880
  C    -10.489290  -20.163890    2.403700
  C    -10.230400  -18.881060    2.798360
  F    -11.352470  -20.399230    1.401480
  F    -10.128290  -22.498570    2.630140
  C     -7.778760  -19.500220    5.554440
  C     -7.516600  -18.217570    5.949990
  C     -6.661820  -17.680880    7.013410
  C     -6.168300  -18.426600    8.063240
  C     -5.617410  -17.885810    9.239580
  N     -5.203200  -17.512370   10.244630
  C     -6.258740  -19.828050    8.141070
  N     -6.277560  -20.972310    8.249640
  H     -1.317890    3.611560    6.356010
  H     -5.614930    4.207390    3.847410
  H     -2.261950    5.700180    7.966730
  H     -2.483020    0.816390    0.925250
  H      2.361240   -0.956090    0.558170
  H      3.096730   -2.040000    2.749140
  H      1.737090   -2.777020    3.608910
  H      2.411380   -1.247260    4.174560
  H      0.052510   -1.168990    4.928050
  H     -2.620700   -1.319550    3.443100
  H     -1.824180   -1.780840    6.385870
  H     -4.440060   -2.097600    4.834580
  H     -3.641500   -2.468010    7.788430
  H     -6.323360   -2.937360    5.182960
  H     -7.450470   -2.284680    6.373160
  H     -7.168230   -4.017740    6.290240
  H     -7.039320   -3.103150    8.792700
  H     -5.387500   -2.759100    9.350910
  H     -6.357890   -5.358440    8.330980
  H     -3.938860   -4.516530    9.774290
  H     -4.969120   -7.259110    8.835850
  H     -2.424110   -6.378220   10.329890
  H     -0.841100   -8.381780   10.882260
  H     -0.700560  -10.937690   10.594080
  H     -1.064800  -13.224350   10.026030
  H     -2.041750  -15.474510    9.227880
  H     -4.116180  -16.449590    8.060780
  H     -6.105980  -14.269520    7.194490
  H     -9.503630  -16.469460    3.789160
  H     -8.499410  -21.880060    4.539190
  H    -10.723100  -18.060190    2.301060
  H     -7.308800  -20.350860    6.021270

 Total Charge           Charge          ....    0
 Multiplicity           Mult            ....    1
 Number of Electrons    NEL             ....  542
 Basis Dimension        Dim             .... 1188

ORBITAL ENERGIES
----------------

  NO   OCC          E(Eh)            E(eV)
   0   2.0000    -482.892113    -13140.1624
   1   2.0000     -88.982045     -2421.3246
   2   2.0000     -88.970716     -2421.0163
   3   2.0000     -88.958780     -2420.6915
   4   2.0000     -88.949373     -2420.4355
   5   2.0000     -62.569821     -1702.6114
   6   2.0000     -56.403774     -1534.8247
   7   2.0000     -56.401052     -1534.7507
   8   2.0000     -56.401023     -1534.7499
   9   2.0000     -24.777519      -674.2306
  10   2.0000     -24.776421      -674.2007
  11   2.0000     -19.222098      -523.0599
  12   2.0000     -19.180109      -521.9173
  13   2.0000     -14.471781      -393.7972
  14   2.0000     -14.421108      -392.4183
  15   2.0000     -14.420421      -392.3996
  16   2.0000     -14.384110      -391.4115
  17   2.0000     -14.381606      -391.3434
  18   2.0000     -10.371644      -282.2268
  19   2.0000     -10.365515      -282.0600
  20   2.0000     -10.358167      -281.8600
  21   2.0000     -10.357532      -281.8428
  22   2.0000     -10.352806      -281.7142
  23   2.0000     -10.347372      -281.5663
  24   2.0000     -10.346244      -281.5356
  25   2.0000     -10.337849      -281.3072
  26   2.0000     -10.331745      -281.1411
  27   2.0000     -10.331644      -281.1383
  28   2.0000     -10.331179      -281.1257
  29   2.0000     -10.330478      -281.1066
  30   2.0000     -10.323993      -280.9301
  31   2.0000     -10.323575      -280.9187
  32   2.0000     -10.316304      -280.7209
  33   2.0000     -10.314888      -280.6824
  34   2.0000     -10.314113      -280.6613
  35   2.0000     -10.313815      -280.6532
  36   2.0000     -10.312420      -280.6152
  37   2.0000     -10.312382      -280.6142
  38   2.0000     -10.312147      -280.6078
  39   2.0000     -10.310600      -280.5657
  40   2.0000     -10.307739      -280.4878
  41   2.0000     -10.307178      -280.4726
  42   2.0000     -10.306400      -280.4514
  43   2.0000     -10.305058      -280.4149
  44   2.0000     -10.303457      -280.3713
  45   2.0000     -10.303353      -280.3685
  46   2.0000     -10.302659      -280.3496
  47   2.0000     -10.302373      -280.3418
  48   2.0000     -10.300000      -280.2772
  49   2.0000     -10.298834      -280.2455
  50   2.0000     -10.295073      -280.1432
  51   2.0000     -10.293158      -280.0911
  52   2.0000     -10.291724      -280.0520
  53   2.0000     -10.289582      -279.9938
  54   2.0000     -10.289219      -279.9839
  55   2.0000     -10.289011      -279.9782
  56   2.0000     -10.288816      -279.9729
  57   2.0000     -10.288250      -279.9575
  58   2.0000     -10.288098      -279.9534
  59   2.0000     -10.285992      -279.8961
  60   2.0000     -10.285374      -279.8793
  61   2.0000     -10.284721      -279.8615
  62   2.0000     -10.284450      -279.8541
  63   2.0000     -10.284320      -279.8506
  64   2.0000     -10.282240      -279.7940
  65   2.0000     -10.282188      -279.7926
  66   2.0000     -10.278652      -279.6964
  67   2.0000     -10.278523      -279.6928
  68   2.0000     -10.277502      -279.6651
  69   2.0000     -10.275917      -279.6219
  70   2.0000     -10.274614      -279.5864
  71   2.0000     -10.273177      -279.5474
  72   2.0000     -10.264479      -279.3107
  73   2.0000     -10.261906      -279.2406
  74   2.0000     -10.255888      -279.0769
  75   2.0000      -8.799244      -239.4396
  76   2.0000      -8.078058      -219.8151
  77   2.0000      -8.066776      -219.5081
  78   2.0000      -8.055045      -219.1889
  79   2.0000      -8.045508      -218.9294
  80   2.0000      -6.635551      -180.5625
  81   2.0000      -6.620986      -180.1662
  82   2.0000      -6.620766      -180.1602
  83   2.0000      -6.047735      -164.5672
  84   2.0000      -6.043477      -164.4514
  85   2.0000      -6.039276      -164.3370
  86   2.0000      -6.036059      -164.2495
  87   2.0000      -6.031801      -164.1336
  88   2.0000      -6.028948      -164.0560
  89   2.0000      -6.024628      -163.9385
  90   2.0000      -6.020667      -163.8307
  91   2.0000      -6.016183      -163.7087
  92   2.0000      -6.015044      -163.6777
  93   2.0000      -6.011073      -163.5696
  94   2.0000      -6.006782      -163.4528
  95   2.0000      -2.751433       -74.8703
  96   2.0000      -2.747304       -74.7579
  97   2.0000      -2.747191       -74.7549
  98   2.0000      -2.735596       -74.4394
  99   2.0000      -2.735580       -74.4389
 100   2.0000      -1.298710       -35.3397
 101   2.0000      -1.283998       -34.9394
 102   2.0000      -1.136328       -30.9210
 103   2.0000      -1.094075       -29.7713
 104   2.0000      -1.070779       -29.1374
 105   2.0000      -1.029190       -28.0057
 106   2.0000      -1.019220       -27.7344
 107   2.0000      -1.004300       -27.3284
 108   2.0000      -1.003589       -27.3090
 109   2.0000      -0.999490       -27.1975
 110   2.0000      -0.994847       -27.0712
 111   2.0000      -0.988101       -26.8876
 112   2.0000      -0.979235       -26.6463
 113   2.0000      -0.975801       -26.5529
 114   2.0000      -0.962141       -26.1812
 115   2.0000      -0.952023       -25.9059
 116   2.0000      -0.949271       -25.8310
 117   2.0000      -0.941195       -25.6112
 118   2.0000      -0.923400       -25.1270
 119   2.0000      -0.914560       -24.8864
 120   2.0000      -0.913021       -24.8446
 121   2.0000      -0.910609       -24.7789
 122   2.0000      -0.904700       -24.6181
 123   2.0000      -0.892240       -24.2791
 124   2.0000      -0.889444       -24.2030
 125   2.0000      -0.883471       -24.0405
 126   2.0000      -0.878174       -23.8963
 127   2.0000      -0.870653       -23.6917
 128   2.0000      -0.864515       -23.5246
 129   2.0000      -0.857801       -23.3420
 130   2.0000      -0.853333       -23.2204
 131   2.0000      -0.846579       -23.0366
 132   2.0000      -0.835515       -22.7355
 133   2.0000      -0.830855       -22.6087
 134   2.0000      -0.826041       -22.4777
 135   2.0000      -0.820302       -22.3215
 136   2.0000      -0.814107       -22.1530
 137   2.0000      -0.805377       -21.9154
 138   2.0000      -0.796661       -21.6783
 139   2.0000      -0.787524       -21.4296
 140   2.0000      -0.776257       -21.1230
 141   2.0000      -0.766262       -20.8511
 142   2.0000      -0.758580       -20.6420
 143   2.0000      -0.756680       -20.5903
 144   2.0000      -0.737591       -20.0709
 145   2.0000      -0.734212       -19.9789
 146   2.0000      -0.719718       -19.5845
 147   2.0000      -0.717450       -19.5228
 148   2.0000      -0.707159       -19.2428
 149   2.0000      -0.701790       -19.0967
 150   2.0000      -0.698205       -18.9991
 151   2.0000      -0.690616       -18.7926
 152   2.0000      -0.686314       -18.6756
 153   2.0000      -0.684200       -18.6180
 154   2.0000      -0.669931       -18.2297
 155   2.0000      -0.664923       -18.0935
 156   2.0000      -0.664695       -18.0873
 157   2.0000      -0.652023       -17.7425
 158   2.0000      -0.651500       -17.7282
 159   2.0000      -0.648519       -17.6471
 160   2.0000      -0.640736       -17.4353
 161   2.0000      -0.637202       -17.3391
 162   2.0000      -0.632127       -17.2010
 163   2.0000      -0.631304       -17.1786
 164   2.0000      -0.624960       -17.0060
 165   2.0000      -0.624185       -16.9849
 166   2.0000      -0.616463       -16.7748
 167   2.0000      -0.611924       -16.6513
 168   2.0000      -0.605229       -16.4691
 169   2.0000      -0.605014       -16.4633
 170   2.0000      -0.601521       -16.3682
 171   2.0000      -0.600434       -16.3386
 172   2.0000      -0.592126       -16.1126
 173   2.0000      -0.586707       -15.9651
 174   2.0000      -0.585158       -15.9230
 175   2.0000      -0.578921       -15.7532
 176   2.0000      -0.564621       -15.3641
 177   2.0000      -0.563765       -15.3408
 178   2.0000      -0.563643       -15.3375
 179   2.0000      -0.559254       -15.2181
 180   2.0000      -0.557587       -15.1727
 181   2.0000      -0.550317       -14.9749
 182   2.0000      -0.549754       -14.9596
 183   2.0000      -0.547045       -14.8858
 184   2.0000      -0.544769       -14.8239
 185   2.0000      -0.542578       -14.7643
 186   2.0000      -0.537098       -14.6152
 187   2.0000      -0.532976       -14.5030
 188   2.0000      -0.532299       -14.4846
 189   2.0000      -0.529762       -14.4156
 190   2.0000      -0.525956       -14.3120
 191   2.0000      -0.524446       -14.2709
 192   2.0000      -0.520158       -14.1542
 193   2.0000      -0.516618       -14.0579
 194   2.0000      -0.515729       -14.0337
 195   2.0000      -0.514160       -13.9910
 196   2.0000      -0.510900       -13.9023
 197   2.0000      -0.510562       -13.8931
 198   2.0000      -0.509159       -13.8549
 199   2.0000      -0.506107       -13.7719
 200   2.0000      -0.505487       -13.7550
 201   2.0000      -0.503582       -13.7032
 202   2.0000      -0.501787       -13.6543
 203   2.0000      -0.500855       -13.6290
 204   2.0000      -0.499691       -13.5973
 205   2.0000      -0.495317       -13.4783
 206   2.0000      -0.494076       -13.4445
 207   2.0000      -0.489563       -13.3217
 208   2.0000      -0.487569       -13.2674
 209   2.0000      -0.484226       -13.1765
 210   2.0000      -0.480978       -13.0881
 211   2.0000      -0.480797       -13.0832
 212   2.0000      -0.479056       -13.0358
 213   2.0000      -0.473782       -12.8923
 214   2.0000      -0.472918       -12.8688
 215   2.0000      -0.470279       -12.7969
 216   2.0000      -0.467665       -12.7258
 217   2.0000      -0.467443       -12.7198
 218   2.0000      -0.465136       -12.6570
 219   2.0000      -0.463995       -12.6259
 220   2.0000      -0.462598       -12.5879
 221   2.0000      -0.458454       -12.4752
 222   2.0000      -0.455816       -12.4034
 223   2.0000      -0.455020       -12.3817
 224   2.0000      -0.454018       -12.3544
 225   2.0000      -0.452950       -12.3254
 226   2.0000      -0.449644       -12.2354
 227   2.0000      -0.448443       -12.2028
 228   2.0000      -0.444925       -12.1070
 229   2.0000      -0.442345       -12.0368
 230   2.0000      -0.439812       -11.9679
 231   2.0000      -0.438185       -11.9236
 232   2.0000      -0.434896       -11.8341
 233   2.0000      -0.433927       -11.8078
 234   2.0000      -0.433388       -11.7931
 235   2.0000      -0.432316       -11.7639
 236   2.0000      -0.428492       -11.6599
 237   2.0000      -0.427006       -11.6194
 238   2.0000      -0.422980       -11.5099
 239   2.0000      -0.419227       -11.4077
 240   2.0000      -0.418530       -11.3888
 241   2.0000      -0.414971       -11.2919
 242   2.0000      -0.413923       -11.2634
 243   2.0000      -0.409672       -11.1477
 244   2.0000      -0.403147       -10.9702
 245   2.0000      -0.398797       -10.8518
 246   2.0000      -0.395490       -10.7618
 247   2.0000      -0.395172       -10.7532
 248   2.0000      -0.390831       -10.6351
 249   2.0000      -0.384143       -10.4531
 250   2.0000      -0.383015       -10.4224
 251   2.0000      -0.381569       -10.3830
 252   2.0000      -0.380857       -10.3636
 253   2.0000      -0.373772       -10.1709
 254   2.0000      -0.362294        -9.8585
 255   2.0000      -0.353089        -9.6080
 256   2.0000      -0.349940        -9.5224
 257   2.0000      -0.346551        -9.4301
 258   2.0000      -0.343080        -9.3357
 259   2.0000      -0.327377        -8.9084
 260   2.0000      -0.326262        -8.8781
 261   2.0000      -0.322254        -8.7690
 262   2.0000      -0.317006        -8.6262
 263   2.0000      -0.305383        -8.3099
 264   2.0000      -0.302213        -8.2236
 265   2.0000      -0.295045        -8.0286
 266   2.0000      -0.291261        -7.9256
 267   2.0000      -0.278806        -7.5867
 268   2.0000      -0.269973        -7.3463
 269   2.0000      -0.265326        -7.2199
 270   2.0000      -0.211320        -5.7503
 271   0.0000      -0.097522        -2.6537
 272   0.0000      -0.094255        -2.5648
 273   0.0000      -0.070455        -1.9172
 274   0.0000      -0.043348        -1.1796
 275   0.0000      -0.033592        -0.9141

MULLIKEN ATOMIC CHARGES
-----------------------
   0 C :    0.285891
   1 C :   -0.337346
   2 C :   -0.185626
   3 N :    0.149688
   4 C :   -0.215528
   5 N :    0.162640
   6 C :    0.017996
   7 C :   -0.012397
   8 C :   -0.075509
   9 C :    0.116637
  10 C :   -0.089249
  11 C :   -0.022701
  12 S :    0.186242
  13 C :   -0.125516
  14 C :    0.036957
  15 Br:    0.024896
  16 C :    0.160471
  17 O :   -0.149004
  18 C :   -0.105687
  19 C :    0.005090
  20 C :   -0.191196
  21 S :    0.141622
  22 C :   -0.105241
  23 C :   -0.093376
  24 C :    0.114349
  25 C :    0.178302
  26 C :   -0.011837
  27 C :    0.025178
  28 C :    0.004048
  29 C :    0.009113
  30 C :    0.022866
  31 C :   -0.185773
  32 C :    0.101687
  33 C :    0.183287
  34 N :   -0.123810
  35 C :    0.077586
  36 C :   -0.034914
  37 C :    0.022038
  38 C :   -0.057748
  39 C :    0.060289
  40 C :    0.004832
  41 C :   -0.018541
  42 S :    0.092576
  43 C :   -0.072127
  44 C :    0.043033
  45 C :    0.022212
  46 C :   -0.011753
  47 S :    0.104144
  48 C :   -0.006439
  49 C :    0.018291
  50 C :   -0.137938
  51 C :    0.134089
  52 O :   -0.167502
  53 C :    0.005478
  54 C :   -0.091508
  55 C :    0.113324
  56 C :    0.110375
  57 C :   -0.107737
  58 C :    0.236009
  59 C :    0.232733
  60 C :   -0.106821
  61 F :   -0.181517
  62 F :   -0.179825
  63 C :   -0.088798
  64 C :    0.041691
  65 C :    0.296917
  66 C :   -0.362614
  67 C :   -0.222991
  68 N :    0.150285
  69 C :   -0.176525
  70 N :    0.119579
  71 H :   -0.013488
  72 H :   -0.005589
  73 H :   -0.002591
  74 H :    0.032901
  75 H :    0.027115
  76 H :    0.011963
  77 H :    0.033844
  78 H :    0.038212
  79 H :   -0.012538
  80 H :    0.008599
  81 H :   -0.015635
  82 H :   -0.006888
  83 H :   -0.034293
  84 H :    0.026388
  85 H :    0.037972
  86 H :    0.008997
  87 H :    0.019317
  88 H :    0.022975
  89 H :    0.130524
  90 H :    0.008251
  91 H :   -0.002657
  92 H :   -0.010122
  93 H :   -0.009076
  94 H :   -0.011374
  95 H :   -0.010244
  96 H :   -0.002988
  97 H :    0.002942
  98 H :    0.007905
  99 H :   -0.019778
 100 H :    0.001108
 101 H :   -0.007953
 102 H :   -0.011150
Sum of atomic charges:   -0.0000000

LOEWDIN ATOMIC CHARGES
----------------------
   0 C :    0.076343
   1 C :   -0.145616
   2 C :   -0.020151
   3 N :   -0.054443
   4 C :   -0.028558
   5 N :   -0.054364
   6 C :   -0.022122
   7 C :   -0.046705
   8 C :    0.018497
   9 C :   -0.033149
  10 C :   -0.145718
  11 C :   -0.009846
  12 S :    0.432640
  13 C :   -0.271891
  14 C :   -0.071653
  15 Br:    0.137426
  16 C :    0.083189
  17 O :   -0.132850
  18 C :   -0.100256
  19 C :    0.052717
  20 C :   -0.185744
  21 S :    0.451497
  22 C :   -0.166131
  23 C :   -0.056536
  24 C :   -0.043344
  25 C :   -0.011950
  26 C :   -0.008379
  27 C :   -0.014832
  28 C :   -0.019102
  29 C :   -0.023492
  30 C :   -0.042182
  31 C :   -0.044498
  32 C :   -0.046609
  33 C :    0.047525
  34 N :    0.026970
  35 C :    0.075118
  36 C :   -0.124862
  37 C :    0.003719
  38 C :   -0.189159
  39 C :   -0.005240
  40 C :   -0.058658
  41 C :   -0.135248
  42 S :    0.390624
  43 C :   -0.212620
  44 C :   -0.005720
  45 C :   -0.052417
  46 C :   -0.096748
  47 S :    0.402852
  48 C :   -0.081391
  49 C :    0.049537
  50 C :   -0.123435
  51 C :    0.073918
  52 O :   -0.170910
  53 C :   -0.047933
  54 C :    0.018429
  55 C :   -0.012731
  56 C :   -0.008875
  57 C :   -0.032232
  58 C :    0.060887
  59 C :    0.061108
  60 C :   -0.036398
  61 F :   -0.058252
  62 F :   -0.057112
  63 C :    0.004999
  64 C :   -0.014699
  65 C :    0.067119
  66 C :   -0.166827
  67 C :   -0.024147
  68 N :   -0.073635
  69 C :   -0.019256
  70 N :   -0.079439
  71 H :    0.039546
  72 H :    0.040944
  73 H :    0.038653
  74 H :    0.045782
  75 H :    0.026930
  76 H :    0.034541
  77 H :    0.038544
  78 H :    0.038845
  79 H :    0.030099
  80 H :    0.031281
  81 H :    0.026556
  82 H :    0.028178
  83 H :    0.022259
  84 H :    0.034003
  85 H :    0.041885
  86 H :    0.028989
  87 H :    0.030404
  88 H :    0.033817
  89 H :    0.085085
  90 H :    0.031309
  91 H :    0.022181
  92 H :    0.035745
  93 H :    0.035315
  94 H :    0.032570
  95 H :    0.033563
  96 H :    0.037864
  97 H :    0.036414
  98 H :    0.031193
  99 H :    0.036141
 100 H :    0.045194
 101 H :    0.041660
 102 H :    0.037458

  Mayer bond orders larger than 0.100000
B(  0-C ,  1-C ) :   1.6422 B(  0-C ,  6-C ) :   1.0075 B(  0-C , 18-C ) :   1.0634
B(  1-C ,  2-C ) :   1.1362 B(  1-C ,  4-C ) :   1.1440 B(  2-C ,  3-N ) :   2.9788
B(  4-C ,  5-N ) :   3.0020 B(  6-C ,  7-C ) :   1.2708 B(  6-C , 11-C ) :   1.4155
B(  7-C ,  8-C ) :   1.4278 B(  7-C , 16-C ) :   0.9440 B(  8-C ,  9-C ) :   1.2448
B(  8-C , 71-H ) :   1.0169 B(  9-C , 10-C ) :   1.3087 B(  9-C , 14-C ) :   1.1625
B( 10-C , 11-C ) :   1.3242 B( 10-C , 12-S ) :   1.0838 B( 11-C , 72-H ) :   0.9825
B( 12-S , 13-C ) :   1.0882 B( 13-C , 14-C ) :   1.6180 B( 13-C , 15-Br) :   1.0196
B( 14-C , 73-H ) :   0.9999 B( 16-C , 17-O ) :   2.1914 B( 16-C , 18-C ) :   0.9587
B( 18-C , 19-C ) :   1.5909 B( 19-C , 20-C ) :   1.1840 B( 19-C , 74-H ) :   0.9390
B( 20-C , 21-S ) :   1.1075 B( 20-C , 25-C ) :   1.4149 B( 21-S , 22-C ) :   1.1751
B( 22-C , 23-C ) :   1.5552 B( 22-C , 75-H ) :   0.9664 B( 23-C , 24-C ) :   1.0954
B( 23-C , 25-C ) :   1.2684 B( 24-C , 76-H ) :   0.9500 B( 24-C , 77-H ) :   0.9427
B( 24-C , 78-H ) :   0.9451 B( 25-C , 26-C ) :   1.0710 B( 26-C , 27-C ) :   1.7130
B( 26-C , 79-H ) :   0.9506 B( 27-C , 28-C ) :   1.1195 B( 27-C , 80-H ) :   0.9741
B( 28-C , 29-C ) :   1.6824 B( 28-C , 81-H ) :   0.9922 B( 29-C , 30-C ) :   1.0956
B( 29-C , 82-H ) :   0.9773 B( 30-C , 31-C ) :   1.7749 B( 30-C , 83-H ) :   0.9691
B( 31-C , 32-C ) :   1.0793 B( 31-C , 33-C ) :   1.0245 B( 32-C , 84-H ) :   0.9549
B( 32-C , 85-H ) :   0.9443 B( 32-C , 86-H ) :   0.9481 B( 33-C , 34-N ) :   1.0055
B( 33-C , 87-H ) :   0.9403 B( 33-C , 88-H ) :   0.9395 B( 34-N , 35-C ) :   1.2875
B( 34-N , 89-H ) :   0.9338 B( 35-C , 36-C ) :   1.5274 B( 35-C , 90-H ) :   0.9689
B( 36-C , 37-C ) :   1.2242 B( 36-C , 91-H ) :   0.9644 B( 37-C , 38-C ) :   1.5316
B( 37-C , 92-H ) :   0.9777 B( 38-C , 39-C ) :   1.1792 B( 38-C , 42-S ) :   1.0133
B( 39-C , 40-C ) :   1.5458 B( 39-C , 93-H ) :   0.9978 B( 40-C , 41-C ) :   1.2275
B( 40-C , 94-H ) :   0.9942 B( 41-C , 42-S ) :   1.1019 B( 41-C , 43-C ) :   1.4185
B( 43-C , 44-C ) :   1.2599 B( 43-C , 47-S ) :   1.0383 B( 44-C , 45-C ) :   1.4976
B( 44-C , 95-H ) :   0.9934 B( 45-C , 46-C ) :   1.2226 B( 45-C , 96-H ) :   1.0012
B( 46-C , 47-S ) :   1.1031 B( 46-C , 48-C ) :   1.4293 B( 48-C , 49-C ) :   1.2925
B( 48-C , 97-H ) :   0.9637 B( 49-C , 50-C ) :   1.4467 B( 49-C , 98-H ) :   0.9405
B( 50-C , 51-C ) :   0.9857 B( 50-C , 65-C ) :   1.1245 B( 51-C , 52-O ) :   2.2365
B( 51-C , 53-C ) :   0.9127 B( 53-C , 54-C ) :   1.4915 B( 53-C , 64-C ) :   1.2211
B( 54-C , 55-C ) :   1.1798 B( 54-C , 99-H ) :   1.0150 B( 55-C , 56-C ) :   1.2650
B( 55-C , 60-C ) :   1.1974 B( 56-C , 57-C ) :   1.1951 B( 56-C , 63-C ) :   1.2008
B( 57-C , 58-C ) :   1.4357 B( 57-C , 60-C ) :   0.1093 B( 57-C ,100-H ) :   1.0069
B( 58-C , 59-C ) :   1.1994 B( 58-C , 62-F ) :   1.1257 B( 59-C , 60-C ) :   1.4388
B( 59-C , 61-F ) :   1.1233 B( 60-C ,101-H ) :   1.0066 B( 63-C , 64-C ) :   1.4714
B( 63-C ,102-H ) :   0.9912 B( 64-C , 65-C ) :   0.9838 B( 65-C , 66-C ) :   1.5655
B( 66-C , 67-C ) :   1.1739 B( 66-C , 69-C ) :   1.1404 B( 67-C , 68-N ) :   3.0095
B( 69-C , 70-N ) :   2.9635

-----------------------------------------------------------------------------
         ABSORPTION SPECTRUM VIA TRANSITION ELECTRIC DIPOLE MOMENTS
-----------------------------------------------------------------------------
State   Energy  Wavelength   fosc         T2         TX        TY        TZ
        (cm-1)    (nm)                  (au**2)     (au)      (au)      (au)
-----------------------------------------------------------------------------
   0   11862.4    843.0   1.541712716  42.78630   1.75547   6.17099   1.27416
   1   17011.4    587.8   0.025614460   0.49570   0.13732  -0.53564   0.43581
   2   19202.9    520.8   0.208632903   3.57678  -0.57594   1.66499  -0.68766
   3   21966.0    455.2   0.009568562   0.14341  -0.20881   0.29674   0.10840
   4   22897.5    436.7   0.019884472   0.28589  -0.01464  -0.33022   0.42028
   5   23729.3    421.4   0.030357620   0.42117   0.38279  -0.52324  -0.02942
   6   24388.4    410.0   0.099095537   1.33766  -0.85294   0.71749   0.30880
   7   24855.6    402.3   0.190394054   2.52177   1.30499   0.28984  -0.85718
   8   25180.9    397.1   0.237936501   3.11075   1.43796  -0.98746   0.26067
   9   26607.0    375.8   0.191111822   2.36465  -0.98143   0.26004  -1.15492
  10   27480.1    363.9   0.174364607   2.08889  -1.24861   0.20118  -0.69956
  11   27781.9    359.9   0.000726234   0.00861  -0.02200  -0.07819  -0.04482
  12   27868.8    358.8   0.302210843   3.56999  -0.48103   1.50410   1.03744
  13   28388.9    352.3   0.097991888   1.13636   0.90505   0.24343   0.50792
  14   28840.3    346.7   0.008719497   0.09953  -0.17797  -0.21081   0.15303
  15   29215.6    342.3   0.014256156   0.16064   0.09355   0.00911   0.38963
  16   29738.0    336.3   0.009463703   0.10477   0.10328   0.00947  -0.30661
  17   30070.7    332.5   0.042098524   0.46089   0.28612  -0.52645  -0.31918
  18   30550.5    327.3   0.231908200   2.49904  -0.47924   0.84647   1.24614
  19   30898.2    323.6   0.061617077   0.65651  -0.72688   0.16702  -0.31665
  20   31957.5    312.9   0.078840385   0.81218   0.79146  -0.06022   0.42679
  21   32389.0    308.7   0.159662741   1.62286  -0.79307   0.28674  -0.95482
  22   32989.9    303.1   0.502654265   5.01608  -0.83760  -1.37595  -1.55604
  23   33012.8    302.9   0.023461512   0.23396  -0.12069  -0.20031  -0.42341
  24   33502.7    298.5   0.021021827   0.20657   0.03007   0.18815   0.41263
  25   33528.6    298.3   0.020419607   0.20050  -0.43278   0.00617  -0.11474
  26   33675.9    296.9   0.014271483   0.13952  -0.15034  -0.14670  -0.30886
  27   34250.9    292.0   0.581104090   5.58543   1.41793   0.52690   1.81584
  28   34530.6    289.6   0.183946279   1.75373   0.60494   0.29551  -1.14038
  29   34915.4    286.4   0.031630010   0.29823  -0.04517   0.47827  -0.25971
  30   35273.2    283.5   0.063030046   0.58827   0.44883  -0.32909   0.52775
  31   35422.4    282.3   0.026930543   0.25029   0.03687  -0.07150  -0.49378
  32   35601.3    280.9   0.037885392   0.35033   0.48045  -0.29673  -0.17735
  33   36140.5    276.7   0.718347374   6.54358   1.87653  -0.10421  -1.73533
  34   36701.0    272.5   0.147688103   1.32478   0.95865  -0.60985   0.18397
  35   36879.0    271.2   0.031015867   0.27687   0.25554  -0.09827  -0.44935
  36   37117.8    269.4   0.047242228   0.41901   0.15910  -0.01132  -0.62735
  37   37597.8    266.0   0.127080745   1.11274  -0.39480  -0.74146  -0.63805
  38   38115.3    262.4   0.017016043   0.14697   0.26147  -0.22564   0.16641
  39   38229.4    261.6   0.078643656   0.67724  -0.59883   0.34511  -0.44670
  40   38568.7    259.3   0.121864811   1.04021  -0.48259   0.15910  -0.88431
  41   38863.8    257.3   0.011740006   0.09945  -0.20423  -0.21353   0.11020
  42   39157.7    255.4   0.005712670   0.04803  -0.04967   0.20513   0.05900
  43   39503.5    253.1   0.042731792   0.35612  -0.03345  -0.53591   0.26038
  44   39691.2    251.9   0.056078501   0.46513  -0.18521  -0.60746   0.24864
  45   39893.6    250.7   0.070706912   0.58349   0.30992   0.68869  -0.11468
  46   40024.6    249.8   0.023656796   0.19458   0.24304  -0.25021   0.27002
  47   40261.7    248.4   0.160553203   1.31281   0.90749  -0.65001   0.25838

FINAL SINGLE POINT ENERGY     -6977.756655601560

DIPOLE MOMENT
-------------
                                X             Y             Z
Electronic contribution:    -34.61409     106.58304       5.92577
Nuclear contribution   :     38.81687     -97.94261      -4.40744
                        -----------------------------------------
Total Dipole Moment    :      4.20278       8.64043       1.51832
                        -----------------------------------------
Magnitude (a.u.)       :      9.72757
Magnitude (Debye)      :     24.72553

Rotational constants in cm-1:     0.001132     0.000158     0.000153
Rotational constants in MHz :    33.935361     4.739099     4.600728

                             ****ORCA TERMINATED NORMALLY****
TOTAL RUN TIME: 0 days 0 hours 10 minutes 44 seconds 71 msec
