                         Program Version 4.2.0 -  RELEASE  -
|  1> # ORCA input file
|  2> # SCF done       -197.918160096094          0.000474470757
|  3> ! CAM-B3LYP def2-SVP def2/J RIJCOSX Grid4 TightSCF
|  4> %maxcore 5000
|  5> %tddft
|  6>     Mode sTDDFT
|  7>     Ethresh 5.0
|  8>     maxcore 5000
|  9> end
| 10>
| 11> %pal
| 12>   nprocs 6
| 13>   end
| 14> * xyz 0 1
| 15>    C       -4.30861         6.23854         3.44929
| 16>    C       -3.36061         5.25994         3.59856
| 17>    C       -2.39844         5.23981         4.63000
| 18>    N       -1.58850         5.17310         5.44016
| 19>    C       -3.22791         4.13864         2.75439
| 20>    N       -3.08180         3.20450         2.10250
| 21>    C       -4.51375         7.37046         4.34388
| 22>    C       -5.63941         8.10730         3.89827
| 23>    C       -6.09114         9.23453         4.54020
| 24>    C       -5.40144         9.65389         5.68255
| 25>    C       -4.27685         8.91326         6.12081
| 26>    C       -3.81893         7.77489         5.46855
| 27>    S       -3.57066         9.60897         7.54668
| 28>    C       -4.77854        10.86632         7.53733
| 29>    C       -5.66657        10.77202         6.51836
| 30>   Br       -4.75076        12.18572         8.86847
| 31>    C       -6.19240         7.47465         2.69119
| 32>    O       -7.10694         7.88665         2.00326
| 33>    C       -5.33590         6.29878         2.42697
| 34>    C       -5.39619         5.53199         1.29738
| 35>    N       -6.43673         5.46425         0.43520
| 36>    C       -7.76111         5.68418         0.70767
| 37>    S       -8.41916         5.35007         2.27201
| 38>    C       -9.99623         5.72971         1.66983
| 39>    N      -11.06855         5.66821         2.57414
| 40>    O      -12.17732         5.93275         2.15438
| 41>    O      -10.79828         5.34893         3.71753
| 42>    C      -10.01535         6.07264         0.34836
| 43>    C       -8.73034         6.04464        -0.23862
| 44>    C       -8.42573         6.36511        -1.59703
| 45>    C       -9.33056         6.79189        -2.51552
| 46>    C       -9.02586         7.09002        -3.85754
| 47>    S       -7.44615         6.84834        -4.53067
| 48>    C       -7.93020         7.34966        -6.12972
| 49>    C       -9.28107         7.77647        -6.11318
| 50>    C       -9.89971         7.60013        -4.83964
| 51>    C      -11.24817         7.95328        -4.65746
| 52>    C      -11.93995         8.49421        -5.70532
| 53>    F      -13.22626         8.83576        -5.54998
| 54>    C      -11.31068         8.72928        -6.94419
| 55>    F      -12.00706         9.31213        -7.93024
| 56>    C      -10.00138         8.38613        -7.15240
| 57>    C       -7.00118         7.24958        -7.16559
| 58>    C       -7.29353         7.23668        -8.51526
| 59>    C       -6.38058         7.21570        -9.56267
| 60>    C       -6.69076         6.83434       -10.89196
| 61>    C       -7.90534         6.42881       -11.46255
| 62>    C       -7.92655         6.03616       -12.77520
| 63>    C       -6.74349         5.98901       -13.53431
| 64>    C       -5.54208         6.38405       -13.00623
| 65>    C       -5.49978         6.85997       -11.68625
| 66>    C       -4.41974         7.31358       -10.89127
| 67>    C       -4.95659         7.57182        -9.55016
| 68>    C       -4.30374         8.24933        -8.59565
| 69>    C       -3.08834         7.52225       -11.24636
| 70>    C       -2.53029         7.74982       -12.48808
| 71>    C       -1.09502         7.45451       -12.70436
| 72>    O       -0.28134         7.15022       -11.85720
| 73>    C       -0.88664         7.56624       -14.16239
| 74>    C        0.22676         7.28887       -14.89958
| 75>    C        0.17983         7.44319       -16.30447
| 76>    C       -1.02880         7.88249       -16.91767
| 77>    C       -1.07241         8.02523       -18.31756
| 78>    C        0.04319         7.74316       -19.05616
| 79>    C        1.24143         7.31230       -18.47242
| 80>    C        1.30016         7.16738       -17.11375
| 81>    F        0.00281         7.87901       -20.39509
| 82>    C       -2.16561         8.17275       -16.12552
| 83>    C       -2.09297         8.02129       -14.76871
| 84>    C       -3.07947         8.25544       -13.71367
| 85>    C       -4.21836         9.01871       -13.85273
| 86>    C       -5.00992         9.44726       -12.77332
| 87>    N       -5.66279         9.86086       -11.92266
| 88>    C       -4.67623         9.52882       -15.08102
| 89>    N       -5.10720         9.94789       -16.06013
| 90>    H       -6.95220         9.77265         4.17629
| 91>    H       -2.95635         7.24754         5.84003
| 92>    H       -6.47545        11.46205         6.36193
| 93>    H       -4.54296         4.93223         1.00791
| 94>    H       -6.23126         5.13984        -0.50234
| 95>    H      -10.92509         6.33672        -0.15759
| 96>    H       -7.39253         6.27825        -1.90789
| 97>    H      -10.36166         6.92417        -2.22618
| 98>    H      -11.74426         7.81923        -3.71077
| 99>    H       -9.54299         8.62899        -8.09562
|100>    H       -5.98023         7.06400        -6.86027
|101>    H       -8.33215         7.14048        -8.79832
|102>    H       -8.81181         6.42235       -10.87642
|103>    H       -8.85511         5.73408       -13.23542
|104>    H       -6.79031         5.62982       -14.55166
|105>    H       -4.63794         6.30421       -13.58940
|106>    H       -4.77925         8.57413        -7.68794
|107>    H       -3.27087         8.52855        -8.71972
|108>    H       -2.35354         7.44186       -10.44966
|109>    H        1.13411         6.95397       -14.41961
|110>    H       -1.97763         8.35853       -18.80072
|111>    H        2.08945         7.10461       -19.10548
|112>    H        2.21257         6.83634       -16.64083
|113>    H       -3.06855         8.49939       -16.61659
|114> *
|115>
|116>                          ****END OF INPUT****

CARTESIAN COORDINATES (ANGSTROEM)
---------------------------------
  C     -4.308610    6.238540    3.449290
  C     -3.360610    5.259940    3.598560
  C     -2.398440    5.239810    4.630000
  N     -1.588500    5.173100    5.440160
  C     -3.227910    4.138640    2.754390
  N     -3.081800    3.204500    2.102500
  C     -4.513750    7.370460    4.343880
  C     -5.639410    8.107300    3.898270
  C     -6.091140    9.234530    4.540200
  C     -5.401440    9.653890    5.682550
  C     -4.276850    8.913260    6.120810
  C     -3.818930    7.774890    5.468550
  S     -3.570660    9.608970    7.546680
  C     -4.778540   10.866320    7.537330
  C     -5.666570   10.772020    6.518360
  Br    -4.750760   12.185720    8.868470
  C     -6.192400    7.474650    2.691190
  O     -7.106940    7.886650    2.003260
  C     -5.335900    6.298780    2.426970
  C     -5.396190    5.531990    1.297380
  N     -6.436730    5.464250    0.435200
  C     -7.761110    5.684180    0.707670
  S     -8.419160    5.350070    2.272010
  C     -9.996230    5.729710    1.669830
  N    -11.068550    5.668210    2.574140
  O    -12.177320    5.932750    2.154380
  O    -10.798280    5.348930    3.717530
  C    -10.015350    6.072640    0.348360
  C     -8.730340    6.044640   -0.238620
  C     -8.425730    6.365110   -1.597030
  C     -9.330560    6.791890   -2.515520
  C     -9.025860    7.090020   -3.857540
  S     -7.446150    6.848340   -4.530670
  C     -7.930200    7.349660   -6.129720
  C     -9.281070    7.776470   -6.113180
  C     -9.899710    7.600130   -4.839640
  C    -11.248170    7.953280   -4.657460
  C    -11.939950    8.494210   -5.705320
  F    -13.226260    8.835760   -5.549980
  C    -11.310680    8.729280   -6.944190
  F    -12.007060    9.312130   -7.930240
  C    -10.001380    8.386130   -7.152400
  C     -7.001180    7.249580   -7.165590
  C     -7.293530    7.236680   -8.515260
  C     -6.380580    7.215700   -9.562670
  C     -6.690760    6.834340  -10.891960
  C     -7.905340    6.428810  -11.462550
  C     -7.926550    6.036160  -12.775200
  C     -6.743490    5.989010  -13.534310
  C     -5.542080    6.384050  -13.006230
  C     -5.499780    6.859970  -11.686250
  C     -4.419740    7.313580  -10.891270
  C     -4.956590    7.571820   -9.550160
  C     -4.303740    8.249330   -8.595650
  C     -3.088340    7.522250  -11.246360
  C     -2.530290    7.749820  -12.488080
  C     -1.095020    7.454510  -12.704360
  O     -0.281340    7.150220  -11.857200
  C     -0.886640    7.566240  -14.162390
  C      0.226760    7.288870  -14.899580
  C      0.179830    7.443190  -16.304470
  C     -1.028800    7.882490  -16.917670
  C     -1.072410    8.025230  -18.317560
  C      0.043190    7.743160  -19.056160
  C      1.241430    7.312300  -18.472420
  C      1.300160    7.167380  -17.113750
  F      0.002810    7.879010  -20.395090
  C     -2.165610    8.172750  -16.125520
  C     -2.092970    8.021290  -14.768710
  C     -3.079470    8.255440  -13.713670
  C     -4.218360    9.018710  -13.852730
  C     -5.009920    9.447260  -12.773320
  N     -5.662790    9.860860  -11.922660
  C     -4.676230    9.528820  -15.081020
  N     -5.107200    9.947890  -16.060130
  H     -6.952200    9.772650    4.176290
  H     -2.956350    7.247540    5.840030
  H     -6.475450   11.462050    6.361930
  H     -4.542960    4.932230    1.007910
  H     -6.231260    5.139840   -0.502340
  H    -10.925090    6.336720   -0.157590
  H     -7.392530    6.278250   -1.907890
  H    -10.361660    6.924170   -2.226180
  H    -11.744260    7.819230   -3.710770
  H     -9.542990    8.628990   -8.095620
  H     -5.980230    7.064000   -6.860270
  H     -8.332150    7.140480   -8.798320
  H     -8.811810    6.422350  -10.876420
  H     -8.855110    5.734080  -13.235420
  H     -6.790310    5.629820  -14.551660
  H     -4.637940    6.304210  -13.589400
  H     -4.779250    8.574130   -7.687940
  H     -3.270870    8.528550   -8.719720
  H     -2.353540    7.441860  -10.449660
  H      1.134110    6.953970  -14.419610
  H     -1.977630    8.358530  -18.800720
  H      2.089450    7.104610  -19.105480
  H      2.212570    6.836340  -16.640830
  H     -3.068550    8.499390  -16.616590

 Total Charge           Charge          ....    0
 Multiplicity           Mult            ....    1
 Number of Electrons    NEL             ....  556
 Basis Dimension        Dim             .... 1200

ORBITAL ENERGIES
----------------

  NO   OCC          E(Eh)            E(eV)
   0   2.0000    -482.892072    -13140.1613
   1   2.0000     -88.995865     -2421.7006
   2   2.0000     -88.994310     -2421.6583
   3   2.0000     -88.983703     -2421.3697
   4   2.0000     -62.569768     -1702.6100
   5   2.0000     -56.403725     -1534.8234
   6   2.0000     -56.400994     -1534.7491
   7   2.0000     -56.400968     -1534.7484
   8   2.0000     -24.804661      -674.9691
   9   2.0000     -24.804504      -674.9649
  10   2.0000     -24.775062      -674.1637
  11   2.0000     -19.250244      -523.8258
  12   2.0000     -19.249914      -523.8168
  13   2.0000     -19.229896      -523.2721
  14   2.0000     -19.193756      -522.2887
  15   2.0000     -14.661495      -398.9596
  16   2.0000     -14.518370      -395.0649
  17   2.0000     -14.429606      -392.6495
  18   2.0000     -14.424364      -392.5069
  19   2.0000     -14.395965      -391.7341
  20   2.0000     -14.395441      -391.7199
  21   2.0000     -10.389167      -282.7036
  22   2.0000     -10.388656      -282.6897
  23   2.0000     -10.382966      -282.5349
  24   2.0000     -10.381934      -282.5068
  25   2.0000     -10.381505      -282.4951
  26   2.0000     -10.366773      -282.0942
  27   2.0000     -10.357342      -281.8376
  28   2.0000     -10.357144      -281.8322
  29   2.0000     -10.356139      -281.8049
  30   2.0000     -10.353126      -281.7229
  31   2.0000     -10.344856      -281.4978
  32   2.0000     -10.340760      -281.3864
  33   2.0000     -10.335329      -281.2386
  34   2.0000     -10.334316      -281.2110
  35   2.0000     -10.332368      -281.1580
  36   2.0000     -10.327168      -281.0165
  37   2.0000     -10.321936      -280.8742
  38   2.0000     -10.320256      -280.8284
  39   2.0000     -10.319696      -280.8132
  40   2.0000     -10.319412      -280.8055
  41   2.0000     -10.319368      -280.8043
  42   2.0000     -10.318416      -280.7784
  43   2.0000     -10.318396      -280.7778
  44   2.0000     -10.318327      -280.7760
  45   2.0000     -10.317512      -280.7538
  46   2.0000     -10.316683      -280.7312
  47   2.0000     -10.316576      -280.7283
  48   2.0000     -10.315652      -280.7032
  49   2.0000     -10.313327      -280.6399
  50   2.0000     -10.312450      -280.6160
  51   2.0000     -10.311291      -280.5845
  52   2.0000     -10.311142      -280.5804
  53   2.0000     -10.310864      -280.5729
  54   2.0000     -10.309651      -280.5399
  55   2.0000     -10.304061      -280.3878
  56   2.0000     -10.303231      -280.3652
  57   2.0000     -10.303098      -280.3615
  58   2.0000     -10.303024      -280.3595
  59   2.0000     -10.300158      -280.2816
  60   2.0000     -10.299830      -280.2726
  61   2.0000     -10.295074      -280.1432
  62   2.0000     -10.292896      -280.0839
  63   2.0000     -10.291865      -280.0559
  64   2.0000     -10.289962      -280.0041
  65   2.0000     -10.289809      -279.9999
  66   2.0000     -10.289433      -279.9897
  67   2.0000     -10.288611      -279.9673
  68   2.0000     -10.286782      -279.9176
  69   2.0000     -10.285541      -279.8838
  70   2.0000     -10.284457      -279.8543
  71   2.0000     -10.283371      -279.8248
  72   2.0000     -10.282171      -279.7921
  73   2.0000     -10.281631      -279.7774
  74   2.0000     -10.280116      -279.7362
  75   2.0000     -10.279767      -279.7267
  76   2.0000     -10.276783      -279.6455
  77   2.0000     -10.273291      -279.5505
  78   2.0000     -10.271877      -279.5120
  79   2.0000      -8.799210      -239.4387
  80   2.0000      -8.091059      -220.1689
  81   2.0000      -8.089429      -220.1246
  82   2.0000      -8.079644      -219.8583
  83   2.0000      -6.635515      -180.5616
  84   2.0000      -6.620947      -180.1651
  85   2.0000      -6.620716      -180.1588
  86   2.0000      -6.060681      -164.9195
  87   2.0000      -6.058357      -164.8563
  88   2.0000      -6.056308      -164.8005
  89   2.0000      -6.054535      -164.7523
  90   2.0000      -6.052556      -164.6984
  91   2.0000      -6.052086      -164.6856
  92   2.0000      -6.049319      -164.6103
  93   2.0000      -6.045037      -164.4938
  94   2.0000      -6.040913      -164.3816
  95   2.0000      -2.751429       -74.8702
  96   2.0000      -2.747281       -74.7573
  97   2.0000      -2.747119       -74.7529
  98   2.0000      -2.735522       -74.4373
  99   2.0000      -2.735514       -74.4371
 100   2.0000      -1.332055       -36.2471
 101   2.0000      -1.327488       -36.1228
 102   2.0000      -1.312523       -35.7156
 103   2.0000      -1.289627       -35.0925
 104   2.0000      -1.151411       -31.3315
 105   2.0000      -1.147587       -31.2274
 106   2.0000      -1.115341       -30.3500
 107   2.0000      -1.107972       -30.1495
 108   2.0000      -1.033861       -28.1328
 109   2.0000      -1.029609       -28.0171
 110   2.0000      -1.023993       -27.8643
 111   2.0000      -1.020272       -27.7630
 112   2.0000      -1.006057       -27.3762
 113   2.0000      -1.004362       -27.3301
 114   2.0000      -1.000016       -27.2118
 115   2.0000      -0.995770       -27.0963
 116   2.0000      -0.983860       -26.7722
 117   2.0000      -0.974728       -26.5237
 118   2.0000      -0.968221       -26.3466
 119   2.0000      -0.959646       -26.1133
 120   2.0000      -0.952617       -25.9220
 121   2.0000      -0.948396       -25.8072
 122   2.0000      -0.937690       -25.5159
 123   2.0000      -0.925322       -25.1793
 124   2.0000      -0.918535       -24.9946
 125   2.0000      -0.913210       -24.8497
 126   2.0000      -0.906853       -24.6767
 127   2.0000      -0.897111       -24.4116
 128   2.0000      -0.895347       -24.3636
 129   2.0000      -0.891184       -24.2504
 130   2.0000      -0.879856       -23.9421
 131   2.0000      -0.871845       -23.7241
 132   2.0000      -0.868453       -23.6318
 133   2.0000      -0.865984       -23.5646
 134   2.0000      -0.861967       -23.4553
 135   2.0000      -0.861012       -23.4293
 136   2.0000      -0.857400       -23.3310
 137   2.0000      -0.845138       -22.9974
 138   2.0000      -0.838632       -22.8203
 139   2.0000      -0.826009       -22.4769
 140   2.0000      -0.820007       -22.3135
 141   2.0000      -0.811977       -22.0950
 142   2.0000      -0.798236       -21.7211
 143   2.0000      -0.785048       -21.3622
 144   2.0000      -0.774142       -21.0655
 145   2.0000      -0.767360       -20.8809
 146   2.0000      -0.762591       -20.7512
 147   2.0000      -0.758068       -20.6281
 148   2.0000      -0.748356       -20.3638
 149   2.0000      -0.743553       -20.2331
 150   2.0000      -0.731338       -19.9007
 151   2.0000      -0.721233       -19.6258
 152   2.0000      -0.714018       -19.4294
 153   2.0000      -0.712435       -19.3863
 154   2.0000      -0.700904       -19.0726
 155   2.0000      -0.695548       -18.9268
 156   2.0000      -0.694425       -18.8963
 157   2.0000      -0.690446       -18.7880
 158   2.0000      -0.683512       -18.5993
 159   2.0000      -0.679374       -18.4867
 160   2.0000      -0.672480       -18.2991
 161   2.0000      -0.669116       -18.2076
 162   2.0000      -0.662726       -18.0337
 163   2.0000      -0.661347       -17.9962
 164   2.0000      -0.658609       -17.9217
 165   2.0000      -0.649836       -17.6829
 166   2.0000      -0.645703       -17.5705
 167   2.0000      -0.642867       -17.4933
 168   2.0000      -0.640233       -17.4216
 169   2.0000      -0.636577       -17.3221
 170   2.0000      -0.632911       -17.2224
 171   2.0000      -0.629468       -17.1287
 172   2.0000      -0.623370       -16.9628
 173   2.0000      -0.621576       -16.9139
 174   2.0000      -0.618582       -16.8325
 175   2.0000      -0.617509       -16.8033
 176   2.0000      -0.611449       -16.6384
 177   2.0000      -0.605980       -16.4895
 178   2.0000      -0.597231       -16.2515
 179   2.0000      -0.596034       -16.2189
 180   2.0000      -0.592425       -16.1207
 181   2.0000      -0.589583       -16.0434
 182   2.0000      -0.582874       -15.8608
 183   2.0000      -0.580263       -15.7898
 184   2.0000      -0.574025       -15.6200
 185   2.0000      -0.569466       -15.4959
 186   2.0000      -0.568768       -15.4770
 187   2.0000      -0.565756       -15.3950
 188   2.0000      -0.560804       -15.2603
 189   2.0000      -0.558923       -15.2091
 190   2.0000      -0.553876       -15.0717
 191   2.0000      -0.553768       -15.0688
 192   2.0000      -0.553214       -15.0537
 193   2.0000      -0.551170       -14.9981
 194   2.0000      -0.548297       -14.9199
 195   2.0000      -0.547248       -14.8914
 196   2.0000      -0.545897       -14.8546
 197   2.0000      -0.539495       -14.6804
 198   2.0000      -0.538024       -14.6404
 199   2.0000      -0.535198       -14.5635
 200   2.0000      -0.533992       -14.5307
 201   2.0000      -0.527256       -14.3474
 202   2.0000      -0.526646       -14.3308
 203   2.0000      -0.524945       -14.2845
 204   2.0000      -0.523322       -14.2403
 205   2.0000      -0.519382       -14.1331
 206   2.0000      -0.517646       -14.0859
 207   2.0000      -0.514535       -14.0012
 208   2.0000      -0.513447       -13.9716
 209   2.0000      -0.512632       -13.9494
 210   2.0000      -0.510149       -13.8819
 211   2.0000      -0.509136       -13.8543
 212   2.0000      -0.506938       -13.7945
 213   2.0000      -0.504671       -13.7328
 214   2.0000      -0.502316       -13.6687
 215   2.0000      -0.498257       -13.5583
 216   2.0000      -0.495952       -13.4955
 217   2.0000      -0.494547       -13.4573
 218   2.0000      -0.489659       -13.3243
 219   2.0000      -0.486159       -13.2291
 220   2.0000      -0.480810       -13.0835
 221   2.0000      -0.477726       -12.9996
 222   2.0000      -0.476434       -12.9644
 223   2.0000      -0.473743       -12.8912
 224   2.0000      -0.467903       -12.7323
 225   2.0000      -0.467804       -12.7296
 226   2.0000      -0.467648       -12.7253
 227   2.0000      -0.464933       -12.6515
 228   2.0000      -0.463391       -12.6095
 229   2.0000      -0.461334       -12.5535
 230   2.0000      -0.457675       -12.4540
 231   2.0000      -0.455027       -12.3819
 232   2.0000      -0.454150       -12.3581
 233   2.0000      -0.450088       -12.2475
 234   2.0000      -0.448536       -12.2053
 235   2.0000      -0.446293       -12.1443
 236   2.0000      -0.443938       -12.0802
 237   2.0000      -0.442431       -12.0392
 238   2.0000      -0.440161       -11.9774
 239   2.0000      -0.438758       -11.9392
 240   2.0000      -0.437078       -11.8935
 241   2.0000      -0.435220       -11.8429
 242   2.0000      -0.433584       -11.7984
 243   2.0000      -0.427715       -11.6387
 244   2.0000      -0.425981       -11.5915
 245   2.0000      -0.423016       -11.5109
 246   2.0000      -0.422744       -11.5035
 247   2.0000      -0.419551       -11.4166
 248   2.0000      -0.419319       -11.4103
 249   2.0000      -0.413164       -11.2428
 250   2.0000      -0.410965       -11.1829
 251   2.0000      -0.407537       -11.0897
 252   2.0000      -0.399686       -10.8760
 253   2.0000      -0.397351       -10.8125
 254   2.0000      -0.396457       -10.7881
 255   2.0000      -0.393264       -10.7012
 256   2.0000      -0.388607       -10.5745
 257   2.0000      -0.383844       -10.4449
 258   2.0000      -0.381428       -10.3792
 259   2.0000      -0.380453       -10.3526
 260   2.0000      -0.378405       -10.2969
 261   2.0000      -0.372431       -10.1344
 262   2.0000      -0.365379        -9.9425
 263   2.0000      -0.363410        -9.8889
 264   2.0000      -0.352101        -9.5812
 265   2.0000      -0.342117        -9.3095
 266   2.0000      -0.337911        -9.1950
 267   2.0000      -0.336073        -9.1450
 268   2.0000      -0.332872        -9.0579
 269   2.0000      -0.325230        -8.8500
 270   2.0000      -0.324136        -8.8202
 271   2.0000      -0.315764        -8.5924
 272   2.0000      -0.306239        -8.3332
 273   2.0000      -0.301253        -8.1975
 274   2.0000      -0.296067        -8.0564
 275   2.0000      -0.283638        -7.7182
 276   2.0000      -0.273341        -7.4380
 277   2.0000      -0.226108        -6.1527
 278   0.0000      -0.127344        -3.4652
 279   0.0000      -0.096752        -2.6328
 280   0.0000      -0.075761        -2.0615
 281   0.0000      -0.070580        -1.9206
 282   0.0000      -0.056999        -1.5510

MULLIKEN ATOMIC CHARGES
-----------------------
   0 C :    0.299654
   1 C :   -0.337561
   2 C :   -0.183666
   3 N :    0.157198
   4 C :   -0.212757
   5 N :    0.152738
   6 C :    0.015772
   7 C :   -0.006216
   8 C :   -0.066805
   9 C :    0.116734
  10 C :   -0.091220
  11 C :   -0.018868
  12 S :    0.192036
  13 C :   -0.123701
  14 C :    0.040118
  15 Br:    0.031140
  16 C :    0.150612
  17 O :   -0.155503
  18 C :   -0.160172
  19 C :    0.036774
  20 N :   -0.013265
  21 C :   -0.081436
  22 S :    0.203351
  23 C :   -0.000367
  24 N :    0.276573
  25 O :   -0.242101
  26 O :   -0.255168
  27 C :    0.004369
  28 C :    0.147100
  29 C :   -0.036056
  30 C :    0.005322
  31 C :   -0.082417
  32 S :    0.147071
  33 C :   -0.123445
  34 C :    0.133086
  35 C :    0.123680
  36 C :   -0.115875
  37 C :    0.231380
  38 F :   -0.169929
  39 C :    0.231741
  40 F :   -0.169232
  41 C :   -0.124055
  42 C :    0.040702
  43 C :   -0.070490
  44 C :    0.126891
  45 C :    0.059890
  46 C :   -0.019751
  47 C :    0.032849
  48 C :    0.037563
  49 C :    0.012068
  50 C :    0.018009
  51 C :    0.080741
  52 C :    0.012830
  53 C :   -0.003584
  54 C :   -0.037007
  55 C :   -0.158711
  56 C :    0.130745
  57 O :   -0.163647
  58 C :    0.021980
  59 C :   -0.093929
  60 C :    0.102365
  61 C :    0.104178
  62 C :   -0.101083
  63 C :    0.301354
  64 C :   -0.033421
  65 C :   -0.011771
  66 F :   -0.194969
  67 C :   -0.099846
  68 C :    0.042184
  69 C :    0.252825
  70 C :   -0.358333
  71 C :   -0.192025
  72 N :    0.147590
  73 C :   -0.186716
  74 N :    0.138221
  75 H :   -0.008338
  76 H :   -0.004374
  77 H :    0.000128
  78 H :    0.048116
  79 H :    0.162747
  80 H :    0.008970
  81 H :   -0.031404
  82 H :   -0.011340
  83 H :   -0.006192
  84 H :    0.006430
  85 H :   -0.005922
  86 H :   -0.008248
  87 H :   -0.026792
  88 H :   -0.007956
  89 H :    0.000202
  90 H :   -0.011178
  91 H :    0.031976
  92 H :    0.044047
  93 H :    0.007338
  94 H :   -0.018877
  95 H :   -0.006856
  96 H :   -0.002018
  97 H :   -0.013811
  98 H :   -0.010982
Sum of atomic charges:   -0.0000000

LOEWDIN ATOMIC CHARGES
----------------------
   0 C :    0.080427
   1 C :   -0.145539
   2 C :   -0.019934
   3 N :   -0.048532
   4 C :   -0.023582
   5 N :   -0.054844
   6 C :   -0.022954
   7 C :   -0.050117
   8 C :    0.024626
   9 C :   -0.030650
  10 C :   -0.143917
  11 C :   -0.006290
  12 S :    0.437823
  13 C :   -0.269533
  14 C :   -0.069954
  15 Br:    0.142568
  16 C :    0.070575
  17 O :   -0.156050
  18 C :   -0.145255
  19 C :    0.099456
  20 N :    0.065841
  21 C :   -0.101937
  22 S :    0.497414
  23 C :   -0.192746
  24 N :    0.273650
  25 O :   -0.208608
  26 O :   -0.221109
  27 C :   -0.000121
  28 C :   -0.082455
  29 C :   -0.021615
  30 C :   -0.036774
  31 C :   -0.159660
  32 S :    0.471884
  33 C :   -0.173044
  34 C :   -0.034345
  35 C :   -0.041972
  36 C :   -0.035401
  37 C :    0.065038
  38 F :   -0.049013
  39 C :    0.069823
  40 F :   -0.047639
  41 C :   -0.038529
  42 C :   -0.021850
  43 C :   -0.029339
  44 C :    0.032838
  45 C :   -0.014748
  46 C :    0.000695
  47 C :   -0.022342
  48 C :    0.014893
  49 C :   -0.019300
  50 C :    0.020434
  51 C :   -0.056678
  52 C :   -0.003279
  53 C :    0.058201
  54 C :    0.048336
  55 C :   -0.118599
  56 C :    0.077199
  57 O :   -0.164484
  58 C :   -0.056926
  59 C :    0.026848
  60 C :   -0.021827
  61 C :    0.001747
  62 C :   -0.044506
  63 C :    0.089689
  64 C :   -0.043083
  65 C :    0.002091
  66 F :   -0.069009
  67 C :    0.001584
  68 C :   -0.014693
  69 C :    0.054012
  70 C :   -0.159134
  71 C :   -0.010635
  72 N :   -0.072545
  73 C :   -0.020701
  74 N :   -0.074122
  75 H :    0.042078
  76 H :    0.041835
  77 H :    0.040022
  78 H :    0.045052
  79 H :    0.104912
  80 H :    0.042904
  81 H :    0.014885
  82 H :    0.034573
  83 H :    0.041720
  84 H :    0.045435
  85 H :    0.030499
  86 H :    0.033041
  87 H :    0.028836
  88 H :    0.031931
  89 H :    0.035873
  90 H :    0.034690
  91 H :    0.029984
  92 H :    0.037321
  93 H :    0.038048
  94 H :    0.036791
  95 H :    0.041429
  96 H :    0.039488
  97 H :    0.033710
  98 H :    0.037168

  Mayer bond orders larger than 0.100000
B(  0-C ,  1-C ) :   1.6391 B(  0-C ,  6-C ) :   1.0157 B(  0-C , 18-C ) :   1.0988
B(  1-C ,  2-C ) :   1.1407 B(  1-C ,  4-C ) :   1.1416 B(  2-C ,  3-N ) :   2.9735
B(  4-C ,  5-N ) :   2.9834 B(  6-C ,  7-C ) :   1.2726 B(  6-C , 11-C ) :   1.4121
B(  7-C ,  8-C ) :   1.4268 B(  7-C , 16-C ) :   0.9503 B(  8-C ,  9-C ) :   1.2445
B(  8-C , 75-H ) :   1.0176 B(  9-C , 10-C ) :   1.3043 B(  9-C , 14-C ) :   1.1652
B( 10-C , 11-C ) :   1.3303 B( 10-C , 12-S ) :   1.0883 B( 11-C , 76-H ) :   0.9799
B( 12-S , 13-C ) :   1.0889 B( 13-C , 14-C ) :   1.6144 B( 13-C , 15-Br) :   1.0241
B( 14-C , 77-H ) :   1.0002 B( 16-C , 17-O ) :   2.2098 B( 16-C , 18-C ) :   0.9428
B( 18-C , 19-C ) :   1.5423 B( 19-C , 20-N ) :   1.2777 B( 19-C , 78-H ) :   0.9366
B( 20-N , 21-C ) :   1.1217 B( 20-N , 79-H ) :   0.9085 B( 21-C , 22-S ) :   1.1474
B( 21-C , 28-C ) :   1.3948 B( 22-S , 23-C ) :   1.1044 B( 23-C , 24-N ) :   0.9566
B( 23-C , 27-C ) :   1.5205 B( 24-N , 25-O ) :   1.5374 B( 24-N , 26-O ) :   1.5209
B( 25-O , 26-O ) :   0.2649 B( 27-C , 28-C ) :   1.2059 B( 27-C , 80-H ) :   0.9947
B( 28-C , 29-C ) :   1.1028 B( 29-C , 30-C ) :   1.6518 B( 29-C , 81-H ) :   0.9677
B( 30-C , 31-C ) :   1.1993 B( 30-C , 82-H ) :   0.9653 B( 31-C , 32-S ) :   1.1499
B( 31-C , 35-C ) :   1.2939 B( 32-S , 33-C ) :   1.1208 B( 33-C , 34-C ) :   1.2850
B( 33-C , 42-C ) :   1.2550 B( 34-C , 35-C ) :   1.2320 B( 34-C , 41-C ) :   1.1826
B( 35-C , 36-C ) :   1.1735 B( 36-C , 37-C ) :   1.4934 B( 36-C , 41-C ) :   0.1093
B( 36-C , 83-H ) :   0.9979 B( 37-C , 38-F ) :   1.1389 B( 37-C , 39-C ) :   1.1671
B( 39-C , 40-F ) :   1.1371 B( 39-C , 41-C ) :   1.4767 B( 41-C , 84-H ) :   0.9955
B( 42-C , 43-C ) :   1.4749 B( 42-C , 85-H ) :   0.9475 B( 43-C , 44-C ) :   1.3060
B( 43-C , 86-H ) :   0.9533 B( 44-C , 45-C ) :   1.2684 B( 44-C , 52-C ) :   1.0103
B( 45-C , 46-C ) :   1.2251 B( 45-C , 50-C ) :   1.1995 B( 46-C , 47-C ) :   1.5200
B( 46-C , 87-H ) :   0.9903 B( 47-C , 48-C ) :   1.2262 B( 47-C , 88-H ) :   0.9851
B( 48-C , 49-C ) :   1.5041 B( 48-C , 89-H ) :   0.9850 B( 49-C , 50-C ) :   1.2483
B( 49-C , 90-H ) :   0.9838 B( 50-C , 51-C ) :   1.2591 B( 51-C , 52-C ) :   1.0379
B( 51-C , 54-C ) :   1.2667 B( 52-C , 53-C ) :   1.8643 B( 53-C , 91-H ) :   0.9381
B( 53-C , 92-H ) :   0.9262 B( 54-C , 55-C ) :   1.4677 B( 54-C , 93-H ) :   0.9365
B( 55-C , 56-C ) :   0.9652 B( 55-C , 69-C ) :   1.1248 B( 56-C , 57-O ) :   2.2461
B( 56-C , 58-C ) :   0.9148 B( 58-C , 59-C ) :   1.4785 B( 58-C , 68-C ) :   1.2180
B( 59-C , 60-C ) :   1.1779 B( 59-C , 94-H ) :   1.0157 B( 60-C , 61-C ) :   1.2617
B( 60-C , 65-C ) :   1.2409 B( 61-C , 62-C ) :   1.2063 B( 61-C , 67-C ) :   1.1901
B( 62-C , 63-C ) :   1.4366 B( 62-C , 95-H ) :   1.0065 B( 63-C , 64-C ) :   1.2609
B( 63-C , 66-F ) :   1.0842 B( 64-C , 65-C ) :   1.4543 B( 64-C , 96-H ) :   0.9926
B( 65-C , 97-H ) :   0.9960 B( 67-C , 68-C ) :   1.4747 B( 67-C , 98-H ) :   0.9944
B( 68-C , 69-C ) :   0.9837 B( 69-C , 70-C ) :   1.5826 B( 70-C , 71-C ) :   1.1795
B( 70-C , 73-C ) :   1.1450 B( 71-C , 72-N ) :   2.9979 B( 73-C , 74-N ) :   2.9749

-----------------------------------------------------------------------------
         ABSORPTION SPECTRUM VIA TRANSITION ELECTRIC DIPOLE MOMENTS
-----------------------------------------------------------------------------
State   Energy  Wavelength   fosc         T2         TX        TY        TZ
        (cm-1)    (nm)                  (au**2)     (au)      (au)      (au)
-----------------------------------------------------------------------------
   0    6767.4   1477.7   0.565597663  27.51456  -2.41644  -0.46310   4.63259
   1   16596.5    602.5   0.031118374   0.61727  -0.33516   0.12787   0.69899
   2   17052.2    586.4   0.729538205  14.08453   0.57708  -0.05601   3.70788
   3   19177.0    521.5   0.259317663   4.45171  -1.61236  -0.33877   1.31805
   4   19696.6    507.7   0.044694188   0.74702   0.18273   0.26148   0.80328
   5   20773.4    481.4   0.115772016   1.83473  -0.32427  -0.82707   1.02251
   6   22511.7    444.2   0.016924533   0.24751  -0.46094  -0.18438  -0.03238
   7   23552.5    424.6   0.026585301   0.37160   0.56283  -0.17458   0.15604
   8   24467.7    408.7   0.411865217   5.54163   2.27092  -0.10993   0.61032
   9   25196.2    396.9   0.072175843   0.94304  -0.82079  -0.01296   0.51882
  10   25642.4    390.0   0.000757080   0.00972   0.08463  -0.04667  -0.01948
  11   26072.3    383.5   0.081343095   1.02711   0.90098   0.46401   0.00636
  12   26270.0    380.7   0.035889530   0.44976   0.33962   0.00691   0.57825
  13   27151.2    368.3   0.095399199   1.15673  -0.95633  -0.04979   0.48957
  14   27575.7    362.6   0.170197636   2.03190  -0.18009   0.99377   1.00593
  15   28772.2    347.6   0.031862549   0.36457   0.40608   0.38336   0.22958
  16   28803.7    347.2   0.025468238   0.29109   0.07193   0.29088   0.44867
  17   29237.2    342.0   0.042175349   0.47490   0.08348  -0.23637  -0.64192
  18   29409.4    340.0   0.207932572   2.32762   0.02962   1.50718   0.23481
  19   29931.8    334.1   0.123282251   1.35595   0.75513   0.20898   0.86143
  20   30006.3    333.3   0.054010342   0.59257  -0.06292   0.39892   0.65534
  21   30596.8    326.8   0.103516971   1.11381   0.60991   0.61129   0.60675
  22   30817.0    324.5   0.141372551   1.51026  -0.06376   0.05523  -1.22603
  23   31074.0    321.8   0.175873747   1.86329  -0.76918   0.17170   1.11453
  24   31154.1    321.0   0.079085796   0.83572   0.21375  -0.82613   0.32792
  25   31478.6    317.7   0.124395230   1.30096  -0.94536   0.55729   0.31095
  26   32445.3    308.2   0.261026576   2.64855   0.83188  -1.35672   0.34036
  27   32770.2    305.2   0.067011409   0.67320  -0.65784   0.45686   0.17812
  28   32794.8    304.9   0.094062054   0.94424   0.51319  -0.25914   0.78341
  29   32986.1    303.2   0.205840984   2.05436  -0.64702   0.76370   1.02591
  30   33089.8    302.2   0.041517444   0.41306  -0.25242  -0.42776  -0.40788
  31   33316.6    300.2   0.030390926   0.30030   0.30897   0.28977  -0.34767
  32   33461.2    298.9   0.175374154   1.72544   0.93386  -0.52980  -0.75673
  33   33719.0    296.6   0.115079064   1.12356   0.71581  -0.48347  -0.61436
  34   33872.8    295.2   0.056539599   0.54951  -0.11154  -0.47976  -0.55399
  35   34476.3    290.1   0.111796044   1.06753  -0.75526   0.67676  -0.19776
  36   34575.1    289.2   0.066227589   0.63060   0.31876   0.49895   0.52918
  37   34739.1    287.9   0.077053474   0.73021  -0.80255   0.01995   0.29280
  38   35496.2    281.7   0.053881834   0.49973  -0.37182   0.51967  -0.30237
  39   35754.3    279.7   0.024223138   0.22304   0.43892   0.14629  -0.09479
  40   35846.5    279.0   0.009935695   0.09125  -0.14558  -0.05867   0.25810
  41   36367.8    275.0   0.399836016   3.61943  -1.61958   0.51388   0.85575
  42   36702.0    272.5   0.050016724   0.44864   0.39803  -0.44088  -0.30959
  43   36915.7    270.9   0.081841461   0.72986  -0.79026   0.32453   0.00443
  44   37088.7    269.6   0.051629032   0.45828   0.64093  -0.21410  -0.04062
  45   37224.0    268.6   0.027209539   0.24064  -0.09872   0.15286   0.45556
  46   37671.6    265.5   0.000928510   0.00811  -0.07713   0.01950  -0.04224
  47   37800.8    264.5   0.009191934   0.08005   0.04722  -0.10230   0.25953
  48   38246.9    261.5   0.030240892   0.26030  -0.43374   0.18204   0.19756
  49   38257.9    261.4   0.020698598   0.17811   0.15404   0.27674   0.27892
  50   38775.6    257.9   0.087529618   0.74314  -0.77119   0.36942  -0.10924
  51   38851.4    257.4   0.073151943   0.61986  -0.15304  -0.02240   0.77197
  52   38942.9    256.8   0.050616978   0.42790   0.53351   0.10398   0.36394
  53   39256.8    254.7   0.022400925   0.18786   0.28542  -0.10063  -0.31027
  54   39507.9    253.1   0.056397891   0.46995   0.19578  -0.23958  -0.61174
  55   39653.7    252.2   0.081833673   0.67940  -0.78375   0.20075  -0.15758
  56   39992.3    250.0   0.021020270   0.17304   0.03632  -0.15536  -0.38416
  57   40124.9    249.2   0.271297416   2.22591   0.21730   0.30165   1.44489
  58   40199.7    248.8   0.040030152   0.32782  -0.24233  -0.10165  -0.50869

FINAL SINGLE POINT ENERGY     -6917.574380833834

DIPOLE MOMENT
-------------
                                X             Y             Z
Electronic contribution:     -4.82382      53.35089     177.13291
Nuclear contribution   :      4.34292     -53.67080    -175.40627
                        -----------------------------------------
Total Dipole Moment    :     -0.48091      -0.31992       1.72664
                        -----------------------------------------
Magnitude (a.u.)       :      1.82068
Magnitude (Debye)      :      4.62781

Rotational constants in cm-1:     0.001067     0.000192     0.000176
Rotational constants in MHz :    31.973678     5.757094     5.267407

                             ****ORCA TERMINATED NORMALLY****
TOTAL RUN TIME: 0 days 0 hours 23 minutes 30 seconds 303 msec
