                         Program Version 4.2.0 -  RELEASE  -
|  1> # ORCA input file
|  2> # SCF done       -198.244766433051          0.000521519312
|  3> ! CAM-B3LYP def2-SVP def2/J RIJCOSX Grid4 TightSCF
|  4> %maxcore 5000
|  5> %tddft
|  6>     Mode sTDDFT
|  7>     Ethresh 5.0
|  8>     maxcore 5000
|  9> end
| 10>
| 11> %pal
| 12>   nprocs 6
| 13>   end
| 14> * xyz 0 1
| 15>    C       -7.94712       -14.94647       -18.47539
| 16>    C       -6.69590       -14.73491       -18.04684
| 17>    C       -5.47439       -14.95333       -18.77030
| 18>    C       -4.35717       -14.64896       -18.07703
| 19>    C       -4.59937       -14.17023       -16.75513
| 20>    S       -6.31400       -14.11766       -16.42966
| 21>    C       -3.65951       -13.78923       -15.82621
| 22>    C       -2.24928       -13.78841       -15.97653
| 23>    C       -1.58821       -13.35129       -14.87608
| 24>    C       -2.43472       -12.99245       -13.78785
| 25>    S       -4.10596       -13.23057       -14.22280
| 26>    C       -1.97136       -12.47726       -12.60304
| 27>    C       -2.69005       -12.12887       -11.44801
| 28>    O       -2.00692       -11.38268       -10.52538
| 29>    C       -3.97002       -12.36439       -10.94616
| 30>    C       -5.23069       -13.07270       -11.14494
| 31>    O       -5.60518       -13.83628       -11.99992
| 32>    N       -5.99916       -12.71853       -10.02912
| 33>    C       -5.35586       -11.91758        -9.09797
| 34>    O       -5.82928       -11.51978        -8.06224
| 35>    C       -4.03402       -11.70916        -9.69060
| 36>    C       -2.80891       -11.11936        -9.46003
| 37>    C       -2.36111       -10.37186        -8.34461
| 38>    C       -1.14149        -9.79062        -8.24589
| 39>    C       -0.73731        -9.05776        -7.10077
| 40>    O       -1.54891        -8.98879        -6.00707
| 41>    C        0.40331        -8.32634        -6.83711
| 42>    C        1.69019        -7.88926        -7.38326
| 43>    O        2.21825        -8.10366        -8.44350
| 44>    N        2.23441        -7.11714        -6.35779
| 45>    C        1.44969        -7.00366        -5.20989
| 46>    O        1.75233        -6.38363        -4.22339
| 47>    C        0.25954        -7.79218        -5.53034
| 48>    C       -0.95746        -8.22874        -5.04838
| 49>    C       -1.59638        -8.00930        -3.79488
| 50>    C       -2.76801        -8.58576        -3.45888
| 51>    C       -3.39184        -8.42321        -2.16608
| 52>    C       -2.61054        -8.30166        -1.05061
| 53>    S       -3.47040        -8.20386         0.42641
| 54>    C       -4.96830        -8.29408        -0.44725
| 55>    C       -4.80130        -8.41122        -1.83536
| 56>    C       -5.95658        -8.42750        -2.65355
| 57>    C       -5.78248        -8.48468        -4.14947
| 58>    C       -5.76795        -9.92941        -4.65910
| 59>    C       -7.22722        -8.39069        -2.08592
| 60>    C       -8.44992        -8.44777        -2.96564
| 61>    C       -9.06614        -7.05999        -3.15644
| 62>    C       -7.38747        -8.26871        -0.68180
| 63>    C       -8.56530        -8.10749         0.15605
| 64>    C       -8.22344        -7.96831         1.48046
| 65>    S       -6.55435        -8.03301         1.81012
| 66>    C       -6.23105        -8.21951         0.11212
| 67>    C       -9.94983        -8.06315        -0.21778
| 68>    C      -10.91658        -7.45867         0.52138
| 69>    C      -12.26669        -7.46092         0.10868
| 70>    C      -13.29722        -6.89081         0.80511
| 71>    C      -14.69159        -6.84547         0.41042
| 72>    C      -15.23056        -7.28247        -0.77339
| 73>    C      -16.60144        -7.20566        -1.09555
| 74>    N      -17.70320        -7.17480        -1.41743
| 75>    C      -14.50916        -7.85178        -1.84279
| 76>    N      -13.99601        -8.31621        -2.75970
| 77>    C      -15.43922        -6.21529         1.49399
| 78>    C      -14.53390        -5.84559         2.51815
| 79>    C      -13.16554        -6.24299         2.13086
| 80>    O      -12.15880        -6.07367         2.78824
| 81>    C      -14.93465        -5.22124         3.67392
| 82>    C      -16.29772        -4.94965         3.83011
| 83>    C      -17.19648        -5.32568         2.80379
| 84>    C      -16.79021        -5.95539         1.63393
| 85>    S      -18.83417        -4.90065         3.20169
| 86>    C      -18.29569        -4.23312         4.71970
| 87>    C      -16.95953        -4.32187         4.92067
| 88>   Br      -19.54824        -3.48036         5.89570
| 89>    H       -8.13310       -15.32217       -19.46628
| 90>    H       -8.79905       -14.74999       -17.85073
| 91>    H       -5.49237       -15.33078       -19.77730
| 92>    H       -3.35788       -14.75148       -18.46083
| 93>    H       -1.76967       -14.10767       -16.88416
| 94>    H       -0.51823       -13.27623       -14.79538
| 95>    H       -0.91130       -12.26745       -12.54375
| 96>    H       -6.93740       -13.06794        -9.89722
| 97>    H       -3.07774       -10.27870        -7.54152
| 98>    H       -0.42335        -9.85301        -9.04929
| 99>    H        3.13673        -6.67086        -6.44008
|100>    H       -1.07775        -7.33355        -3.13179
|101>    H       -3.23352        -9.24605        -4.17362
|102>    H       -1.53856        -8.31683        -1.02075
|103>    H       -6.57962        -7.93315        -4.64646
|104>    H       -4.85074        -7.98421        -4.41402
|105>    H       -6.71325       -10.42235        -4.44568
|106>    H       -4.98539       -10.50720        -4.17190
|107>    H       -5.60962        -9.95950        -5.73444
|108>    H       -9.17394        -9.13354        -2.52726
|109>    H       -8.20515        -8.85893        -3.94110
|110>    H       -9.29497        -6.59476        -2.20035
|111>    H       -9.98402        -7.13132        -3.73524
|112>    H       -8.37182        -6.41236        -3.68743
|113>    H       -8.90307        -7.86803         2.30392
|114>    H      -10.25739        -8.54136        -1.13393
|115>    H      -10.67543        -6.93263         1.43127
|116>    H      -12.48391        -7.95438        -0.82998
|117>    H      -14.21848        -4.95130         4.43419
|118>    H      -17.51552        -6.22200         0.88372
|119>    H      -16.45955        -3.96041         5.80065
|120> *
|121>
|122>                          ****END OF INPUT****

CARTESIAN COORDINATES (ANGSTROEM)
---------------------------------
  C     -7.947120  -14.946470  -18.475390
  C     -6.695900  -14.734910  -18.046840
  C     -5.474390  -14.953330  -18.770300
  C     -4.357170  -14.648960  -18.077030
  C     -4.599370  -14.170230  -16.755130
  S     -6.314000  -14.117660  -16.429660
  C     -3.659510  -13.789230  -15.826210
  C     -2.249280  -13.788410  -15.976530
  C     -1.588210  -13.351290  -14.876080
  C     -2.434720  -12.992450  -13.787850
  S     -4.105960  -13.230570  -14.222800
  C     -1.971360  -12.477260  -12.603040
  C     -2.690050  -12.128870  -11.448010
  O     -2.006920  -11.382680  -10.525380
  C     -3.970020  -12.364390  -10.946160
  C     -5.230690  -13.072700  -11.144940
  O     -5.605180  -13.836280  -11.999920
  N     -5.999160  -12.718530  -10.029120
  C     -5.355860  -11.917580   -9.097970
  O     -5.829280  -11.519780   -8.062240
  C     -4.034020  -11.709160   -9.690600
  C     -2.808910  -11.119360   -9.460030
  C     -2.361110  -10.371860   -8.344610
  C     -1.141490   -9.790620   -8.245890
  C     -0.737310   -9.057760   -7.100770
  O     -1.548910   -8.988790   -6.007070
  C      0.403310   -8.326340   -6.837110
  C      1.690190   -7.889260   -7.383260
  O      2.218250   -8.103660   -8.443500
  N      2.234410   -7.117140   -6.357790
  C      1.449690   -7.003660   -5.209890
  O      1.752330   -6.383630   -4.223390
  C      0.259540   -7.792180   -5.530340
  C     -0.957460   -8.228740   -5.048380
  C     -1.596380   -8.009300   -3.794880
  C     -2.768010   -8.585760   -3.458880
  C     -3.391840   -8.423210   -2.166080
  C     -2.610540   -8.301660   -1.050610
  S     -3.470400   -8.203860    0.426410
  C     -4.968300   -8.294080   -0.447250
  C     -4.801300   -8.411220   -1.835360
  C     -5.956580   -8.427500   -2.653550
  C     -5.782480   -8.484680   -4.149470
  C     -5.767950   -9.929410   -4.659100
  C     -7.227220   -8.390690   -2.085920
  C     -8.449920   -8.447770   -2.965640
  C     -9.066140   -7.059990   -3.156440
  C     -7.387470   -8.268710   -0.681800
  C     -8.565300   -8.107490    0.156050
  C     -8.223440   -7.968310    1.480460
  S     -6.554350   -8.033010    1.810120
  C     -6.231050   -8.219510    0.112120
  C     -9.949830   -8.063150   -0.217780
  C    -10.916580   -7.458670    0.521380
  C    -12.266690   -7.460920    0.108680
  C    -13.297220   -6.890810    0.805110
  C    -14.691590   -6.845470    0.410420
  C    -15.230560   -7.282470   -0.773390
  C    -16.601440   -7.205660   -1.095550
  N    -17.703200   -7.174800   -1.417430
  C    -14.509160   -7.851780   -1.842790
  N    -13.996010   -8.316210   -2.759700
  C    -15.439220   -6.215290    1.493990
  C    -14.533900   -5.845590    2.518150
  C    -13.165540   -6.242990    2.130860
  O    -12.158800   -6.073670    2.788240
  C    -14.934650   -5.221240    3.673920
  C    -16.297720   -4.949650    3.830110
  C    -17.196480   -5.325680    2.803790
  C    -16.790210   -5.955390    1.633930
  S    -18.834170   -4.900650    3.201690
  C    -18.295690   -4.233120    4.719700
  C    -16.959530   -4.321870    4.920670
  Br   -19.548240   -3.480360    5.895700
  H     -8.133100  -15.322170  -19.466280
  H     -8.799050  -14.749990  -17.850730
  H     -5.492370  -15.330780  -19.777300
  H     -3.357880  -14.751480  -18.460830
  H     -1.769670  -14.107670  -16.884160
  H     -0.518230  -13.276230  -14.795380
  H     -0.911300  -12.267450  -12.543750
  H     -6.937400  -13.067940   -9.897220
  H     -3.077740  -10.278700   -7.541520
  H     -0.423350   -9.853010   -9.049290
  H      3.136730   -6.670860   -6.440080
  H     -1.077750   -7.333550   -3.131790
  H     -3.233520   -9.246050   -4.173620
  H     -1.538560   -8.316830   -1.020750
  H     -6.579620   -7.933150   -4.646460
  H     -4.850740   -7.984210   -4.414020
  H     -6.713250  -10.422350   -4.445680
  H     -4.985390  -10.507200   -4.171900
  H     -5.609620   -9.959500   -5.734440
  H     -9.173940   -9.133540   -2.527260
  H     -8.205150   -8.858930   -3.941100
  H     -9.294970   -6.594760   -2.200350
  H     -9.984020   -7.131320   -3.735240
  H     -8.371820   -6.412360   -3.687430
  H     -8.903070   -7.868030    2.303920
  H    -10.257390   -8.541360   -1.133930
  H    -10.675430   -6.932630    1.431270
  H    -12.483910   -7.954380   -0.829980
  H    -14.218480   -4.951300    4.434190
  H    -17.515520   -6.222000    0.883720
  H    -16.459550   -3.960410    5.800650

 Total Charge           Charge          ....    0
 Multiplicity           Mult            ....    1
 Number of Electrons    NEL             ....  572
 Basis Dimension        Dim             .... 1229

ORBITAL ENERGIES
----------------

  NO   OCC          E(Eh)            E(eV)
   0   2.0000    -482.884012    -13139.9420
   1   2.0000     -88.973646     -2421.0960
   2   2.0000     -88.964775     -2420.8546
   3   2.0000     -88.958636     -2420.6876
   4   2.0000     -88.945963     -2420.3427
   5   2.0000     -88.945446     -2420.3286
   6   2.0000     -62.561727     -1702.3912
   7   2.0000     -56.395678     -1534.6044
   8   2.0000     -56.392963     -1534.5305
   9   2.0000     -56.392928     -1534.5296
  10   2.0000     -19.307146      -525.3742
  11   2.0000     -19.301006      -525.2071
  12   2.0000     -19.213527      -522.8267
  13   2.0000     -19.205211      -522.6004
  14   2.0000     -19.204623      -522.5844
  15   2.0000     -19.204428      -522.5791
  16   2.0000     -19.200449      -522.4708
  17   2.0000     -14.448688      -393.1688
  18   2.0000     -14.447020      -393.1234
  19   2.0000     -14.413314      -392.2062
  20   2.0000     -14.411033      -392.1442
  21   2.0000     -10.394499      -282.8487
  22   2.0000     -10.394106      -282.8380
  23   2.0000     -10.393292      -282.8159
  24   2.0000     -10.391832      -282.7761
  25   2.0000     -10.363969      -282.0179
  26   2.0000     -10.359962      -281.9089
  27   2.0000     -10.358420      -281.8669
  28   2.0000     -10.357429      -281.8400
  29   2.0000     -10.357087      -281.8307
  30   2.0000     -10.352704      -281.7114
  31   2.0000     -10.337872      -281.3078
  32   2.0000     -10.337158      -281.2884
  33   2.0000     -10.323265      -280.9103
  34   2.0000     -10.321351      -280.8582
  35   2.0000     -10.320210      -280.8272
  36   2.0000     -10.316548      -280.7275
  37   2.0000     -10.314327      -280.6671
  38   2.0000     -10.313676      -280.6494
  39   2.0000     -10.310644      -280.5669
  40   2.0000     -10.310070      -280.5513
  41   2.0000     -10.309352      -280.5317
  42   2.0000     -10.305337      -280.4225
  43   2.0000     -10.305245      -280.4200
  44   2.0000     -10.305102      -280.4161
  45   2.0000     -10.304707      -280.4053
  46   2.0000     -10.303633      -280.3761
  47   2.0000     -10.302706      -280.3509
  48   2.0000     -10.301530      -280.3189
  49   2.0000     -10.298248      -280.2296
  50   2.0000     -10.297035      -280.1966
  51   2.0000     -10.296701      -280.1875
  52   2.0000     -10.295983      -280.1679
  53   2.0000     -10.294902      -280.1385
  54   2.0000     -10.294312      -280.1225
  55   2.0000     -10.294279      -280.1216
  56   2.0000     -10.294271      -280.1214
  57   2.0000     -10.293197      -280.0921
  58   2.0000     -10.291045      -280.0336
  59   2.0000     -10.288962      -279.9769
  60   2.0000     -10.288951      -279.9766
  61   2.0000     -10.288661      -279.9687
  62   2.0000     -10.287570      -279.9390
  63   2.0000     -10.286664      -279.9144
  64   2.0000     -10.286556      -279.9114
  65   2.0000     -10.285220      -279.8751
  66   2.0000     -10.284543      -279.8567
  67   2.0000     -10.283982      -279.8414
  68   2.0000     -10.283110      -279.8176
  69   2.0000     -10.282969      -279.8138
  70   2.0000     -10.279954      -279.7318
  71   2.0000     -10.279927      -279.7310
  72   2.0000     -10.279125      -279.7092
  73   2.0000     -10.278198      -279.6840
  74   2.0000     -10.266838      -279.3749
  75   2.0000     -10.264048      -279.2989
  76   2.0000     -10.255704      -279.0719
  77   2.0000     -10.251072      -278.9458
  78   2.0000      -8.791151      -239.2194
  79   2.0000      -8.069530      -219.5831
  80   2.0000      -8.061096      -219.3536
  81   2.0000      -8.054933      -219.1859
  82   2.0000      -8.042712      -218.8533
  83   2.0000      -8.041339      -218.8160
  84   2.0000      -6.627456      -180.3422
  85   2.0000      -6.612880      -179.9456
  86   2.0000      -6.612695      -179.9406
  87   2.0000      -6.039242      -164.3361
  88   2.0000      -6.034936      -164.2190
  89   2.0000      -6.030782      -164.1059
  90   2.0000      -6.030435      -164.0965
  91   2.0000      -6.026188      -163.9809
  92   2.0000      -6.024384      -163.9318
  93   2.0000      -6.023050      -163.8955
  94   2.0000      -6.020152      -163.8167
  95   2.0000      -6.016670      -163.7219
  96   2.0000      -6.012515      -163.6089
  97   2.0000      -6.011039      -163.5687
  98   2.0000      -6.008525      -163.5003
  99   2.0000      -6.006911      -163.4564
 100   2.0000      -6.003286      -163.3577
 101   2.0000      -6.002202      -163.3282
 102   2.0000      -2.743319       -74.6495
 103   2.0000      -2.739240       -74.5385
 104   2.0000      -2.739087       -74.5343
 105   2.0000      -2.727519       -74.2196
 106   2.0000      -2.727501       -74.2191
 107   2.0000      -1.223281       -33.2872
 108   2.0000      -1.216899       -33.1135
 109   2.0000      -1.149154       -31.2701
 110   2.0000      -1.147857       -31.2348
 111   2.0000      -1.128536       -30.7090
 112   2.0000      -1.127626       -30.6843
 113   2.0000      -1.126877       -30.6639
 114   2.0000      -1.036532       -28.2055
 115   2.0000      -1.035148       -28.1678
 116   2.0000      -1.019994       -27.7554
 117   2.0000      -1.010638       -27.5009
 118   2.0000      -1.009996       -27.4834
 119   2.0000      -0.998674       -27.1753
 120   2.0000      -0.991031       -26.9673
 121   2.0000      -0.986132       -26.8340
 122   2.0000      -0.981102       -26.6972
 123   2.0000      -0.976320       -26.5670
 124   2.0000      -0.941649       -25.6236
 125   2.0000      -0.936961       -25.4960
 126   2.0000      -0.930590       -25.3226
 127   2.0000      -0.922781       -25.1101
 128   2.0000      -0.918684       -24.9987
 129   2.0000      -0.915675       -24.9168
 130   2.0000      -0.915398       -24.9092
 131   2.0000      -0.905609       -24.6429
 132   2.0000      -0.898115       -24.4389
 133   2.0000      -0.887498       -24.1500
 134   2.0000      -0.883283       -24.0354
 135   2.0000      -0.879860       -23.9422
 136   2.0000      -0.868533       -23.6340
 137   2.0000      -0.866223       -23.5711
 138   2.0000      -0.853957       -23.2373
 139   2.0000      -0.851638       -23.1743
 140   2.0000      -0.850237       -23.1361
 141   2.0000      -0.834951       -22.7202
 142   2.0000      -0.827002       -22.5039
 143   2.0000      -0.825104       -22.4522
 144   2.0000      -0.819202       -22.2916
 145   2.0000      -0.812960       -22.1218
 146   2.0000      -0.795108       -21.6360
 147   2.0000      -0.789118       -21.4730
 148   2.0000      -0.781471       -21.2649
 149   2.0000      -0.767220       -20.8771
 150   2.0000      -0.762557       -20.7502
 151   2.0000      -0.760215       -20.6865
 152   2.0000      -0.759510       -20.6673
 153   2.0000      -0.754968       -20.5437
 154   2.0000      -0.752144       -20.4669
 155   2.0000      -0.735008       -20.0006
 156   2.0000      -0.722923       -19.6717
 157   2.0000      -0.717256       -19.5175
 158   2.0000      -0.711706       -19.3665
 159   2.0000      -0.704924       -19.1820
 160   2.0000      -0.698722       -19.0132
 161   2.0000      -0.696476       -18.9521
 162   2.0000      -0.691408       -18.8142
 163   2.0000      -0.689738       -18.7687
 164   2.0000      -0.688670       -18.7397
 165   2.0000      -0.681243       -18.5376
 166   2.0000      -0.678954       -18.4753
 167   2.0000      -0.661061       -17.9884
 168   2.0000      -0.654040       -17.7973
 169   2.0000      -0.651796       -17.7363
 170   2.0000      -0.646131       -17.5821
 171   2.0000      -0.635340       -17.2885
 172   2.0000      -0.630618       -17.1600
 173   2.0000      -0.622267       -16.9328
 174   2.0000      -0.617239       -16.7959
 175   2.0000      -0.615731       -16.7549
 176   2.0000      -0.614807       -16.7298
 177   2.0000      -0.607153       -16.5215
 178   2.0000      -0.606410       -16.5013
 179   2.0000      -0.597360       -16.2550
 180   2.0000      -0.594221       -16.1696
 181   2.0000      -0.593604       -16.1528
 182   2.0000      -0.591418       -16.0933
 183   2.0000      -0.588492       -16.0137
 184   2.0000      -0.585122       -15.9220
 185   2.0000      -0.580956       -15.8086
 186   2.0000      -0.576737       -15.6938
 187   2.0000      -0.576028       -15.6745
 188   2.0000      -0.572009       -15.5652
 189   2.0000      -0.563826       -15.3425
 190   2.0000      -0.561220       -15.2716
 191   2.0000      -0.555170       -15.1069
 192   2.0000      -0.552126       -15.0241
 193   2.0000      -0.550849       -14.9894
 194   2.0000      -0.542846       -14.7716
 195   2.0000      -0.541690       -14.7401
 196   2.0000      -0.538568       -14.6552
 197   2.0000      -0.537761       -14.6332
 198   2.0000      -0.536765       -14.6061
 199   2.0000      -0.536202       -14.5908
 200   2.0000      -0.532911       -14.5012
 201   2.0000      -0.530617       -14.4388
 202   2.0000      -0.527929       -14.3657
 203   2.0000      -0.522553       -14.2194
 204   2.0000      -0.517681       -14.0868
 205   2.0000      -0.516624       -14.0580
 206   2.0000      -0.514513       -14.0006
 207   2.0000      -0.513580       -13.9752
 208   2.0000      -0.510085       -13.8801
 209   2.0000      -0.508097       -13.8260
 210   2.0000      -0.506626       -13.7860
 211   2.0000      -0.506354       -13.7786
 212   2.0000      -0.505211       -13.7475
 213   2.0000      -0.500548       -13.6206
 214   2.0000      -0.499825       -13.6009
 215   2.0000      -0.497731       -13.5440
 216   2.0000      -0.497084       -13.5263
 217   2.0000      -0.493646       -13.4328
 218   2.0000      -0.493070       -13.4171
 219   2.0000      -0.491050       -13.3621
 220   2.0000      -0.489869       -13.3300
 221   2.0000      -0.489808       -13.3284
 222   2.0000      -0.487500       -13.2656
 223   2.0000      -0.477665       -12.9979
 224   2.0000      -0.476703       -12.9718
 225   2.0000      -0.476202       -12.9581
 226   2.0000      -0.475735       -12.9454
 227   2.0000      -0.474246       -12.9049
 228   2.0000      -0.470537       -12.8040
 229   2.0000      -0.467400       -12.7186
 230   2.0000      -0.465463       -12.6659
 231   2.0000      -0.463563       -12.6142
 232   2.0000      -0.461041       -12.5456
 233   2.0000      -0.460140       -12.5210
 234   2.0000      -0.457862       -12.4591
 235   2.0000      -0.455408       -12.3923
 236   2.0000      -0.452958       -12.3256
 237   2.0000      -0.449134       -12.2216
 238   2.0000      -0.446297       -12.1444
 239   2.0000      -0.445597       -12.1253
 240   2.0000      -0.444796       -12.1035
 241   2.0000      -0.441139       -12.0040
 242   2.0000      -0.440542       -11.9878
 243   2.0000      -0.436425       -11.8757
 244   2.0000      -0.435240       -11.8435
 245   2.0000      -0.433107       -11.7854
 246   2.0000      -0.429708       -11.6930
 247   2.0000      -0.425559       -11.5801
 248   2.0000      -0.424375       -11.5478
 249   2.0000      -0.423922       -11.5355
 250   2.0000      -0.420962       -11.4550
 251   2.0000      -0.420229       -11.4350
 252   2.0000      -0.417728       -11.3670
 253   2.0000      -0.409381       -11.1398
 254   2.0000      -0.404471       -11.0062
 255   2.0000      -0.403119       -10.9694
 256   2.0000      -0.401563       -10.9271
 257   2.0000      -0.400753       -10.9050
 258   2.0000      -0.391979       -10.6663
 259   2.0000      -0.389306       -10.5936
 260   2.0000      -0.384620       -10.4660
 261   2.0000      -0.380398       -10.3512
 262   2.0000      -0.373465       -10.1625
 263   2.0000      -0.372793       -10.1442
 264   2.0000      -0.369651       -10.0587
 265   2.0000      -0.367336        -9.9957
 266   2.0000      -0.363813        -9.8998
 267   2.0000      -0.362709        -9.8698
 268   2.0000      -0.356716        -9.7067
 269   2.0000      -0.354736        -9.6529
 270   2.0000      -0.352928        -9.6037
 271   2.0000      -0.344703        -9.3798
 272   2.0000      -0.343087        -9.3359
 273   2.0000      -0.339655        -9.2425
 274   2.0000      -0.338361        -9.2073
 275   2.0000      -0.332648        -9.0518
 276   2.0000      -0.332372        -9.0443
 277   2.0000      -0.319222        -8.6865
 278   2.0000      -0.313180        -8.5221
 279   2.0000      -0.306392        -8.3374
 280   2.0000      -0.302345        -8.2272
 281   2.0000      -0.290975        -7.9178
 282   2.0000      -0.280117        -7.6224
 283   2.0000      -0.263656        -7.1745
 284   2.0000      -0.256063        -6.9678
 285   2.0000      -0.223112        -6.0712
 286   0.0000      -0.089390        -2.4324
 287   0.0000      -0.082235        -2.2377
 288   0.0000      -0.061773        -1.6809
 289   0.0000      -0.057274        -1.5585
 290   0.0000      -0.042353        -1.1525

MULLIKEN ATOMIC CHARGES
-----------------------
   0 C :   -0.018091
   1 C :   -0.073444
   2 C :    0.065472
   3 C :    0.025663
   4 C :   -0.060717
   5 S :    0.106883
   6 C :   -0.060671
   7 C :    0.043311
   8 C :    0.021419
   9 C :   -0.008000
  10 S :    0.150321
  11 C :   -0.079268
  12 C :    0.144355
  13 O :   -0.217153
  14 C :   -0.071340
  15 C :    0.158316
  16 O :   -0.153639
  17 N :   -0.159909
  18 C :    0.163376
  19 O :   -0.150745
  20 C :   -0.033929
  21 C :    0.091489
  22 C :   -0.021088
  23 C :   -0.019671
  24 C :    0.085291
  25 O :   -0.218738
  26 C :   -0.019286
  27 C :    0.157441
  28 O :   -0.143553
  29 N :   -0.167445
  30 C :    0.157674
  31 O :   -0.146152
  32 C :   -0.031142
  33 C :    0.089791
  34 C :   -0.040474
  35 C :   -0.008640
  36 C :    0.073623
  37 C :   -0.113620
  38 S :    0.137453
  39 C :   -0.145038
  40 C :    0.121707
  41 C :   -0.117049
  42 C :    0.010032
  43 C :    0.032720
  44 C :   -0.121338
  45 C :    0.018105
  46 C :    0.027641
  47 C :    0.135587
  48 C :    0.074037
  49 C :   -0.105255
  50 S :    0.156958
  51 C :   -0.158053
  52 C :    0.005776
  53 C :   -0.016949
  54 C :   -0.035463
  55 C :   -0.070311
  56 C :    0.332539
  57 C :   -0.359074
  58 C :   -0.183352
  59 N :    0.144701
  60 C :   -0.190730
  61 N :    0.143393
  62 C :    0.013061
  63 C :   -0.010847
  64 C :    0.144189
  65 O :   -0.159819
  66 C :   -0.072328
  67 C :    0.119019
  68 C :   -0.093940
  69 C :   -0.020085
  70 S :    0.185542
  71 C :   -0.122164
  72 C :    0.038127
  73 Br:    0.022075
  74 H :    0.024930
  75 H :    0.029013
  76 H :   -0.007045
  77 H :   -0.008616
  78 H :   -0.011440
  79 H :   -0.008485
  80 H :   -0.003896
  81 H :    0.136029
  82 H :    0.022956
  83 H :    0.023954
  84 H :    0.136439
  85 H :    0.011590
  86 H :    0.016412
  87 H :    0.030412
  88 H :    0.005819
  89 H :    0.007489
  90 H :    0.008805
  91 H :    0.010642
  92 H :    0.039940
  93 H :    0.012427
  94 H :    0.005649
  95 H :    0.019693
  96 H :    0.027875
  97 H :    0.009572
  98 H :    0.042072
  99 H :    0.010960
 100 H :    0.023198
 101 H :    0.007673
 102 H :   -0.011582
 103 H :   -0.007740
 104 H :   -0.003321
Sum of atomic charges:   -0.0000000

LOEWDIN ATOMIC CHARGES
----------------------
   0 C :   -0.060224
   1 C :   -0.141355
   2 C :   -0.019692
   3 C :   -0.027761
   4 C :   -0.160338
   5 S :    0.372580
   6 C :   -0.191033
   7 C :   -0.018958
   8 C :   -0.040366
   9 C :   -0.121145
  10 S :    0.434216
  11 C :   -0.106823
  12 C :    0.079474
  13 O :    0.007560
  14 C :   -0.123563
  15 C :    0.079725
  16 O :   -0.168342
  17 N :   -0.004894
  18 C :    0.083116
  19 O :   -0.171508
  20 C :   -0.088077
  21 C :    0.055539
  22 C :   -0.019599
  23 C :   -0.025062
  24 C :    0.065563
  25 O :    0.012410
  26 C :   -0.095025
  27 C :    0.083056
  28 O :   -0.162635
  29 N :   -0.007672
  30 C :    0.083608
  31 O :   -0.164440
  32 C :   -0.105374
  33 C :    0.075040
  34 C :   -0.046806
  35 C :    0.011394
  36 C :   -0.064779
  37 C :   -0.157413
  38 S :    0.423923
  39 C :   -0.177994
  40 C :   -0.039352
  41 C :   -0.013678
  42 C :   -0.033216
  43 C :   -0.051080
  44 C :   -0.018092
  45 C :   -0.031554
  46 C :   -0.050344
  47 C :   -0.036494
  48 C :   -0.073227
  49 C :   -0.141835
  50 S :    0.443910
  51 C :   -0.178535
  52 C :    0.045918
  53 C :   -0.039784
  54 C :    0.072744
  55 C :   -0.103666
  56 C :    0.077420
  57 C :   -0.145100
  58 C :   -0.018083
  59 N :   -0.057461
  60 C :   -0.019287
  61 N :   -0.058029
  62 C :   -0.020592
  63 C :   -0.050007
  64 C :    0.085469
  65 O :   -0.151401
  66 C :    0.020773
  67 C :   -0.032820
  68 C :   -0.144091
  69 C :   -0.010068
  70 S :    0.431829
  71 C :   -0.271649
  72 C :   -0.070676
  73 Br:    0.135664
  74 H :    0.031102
  75 H :    0.029579
  76 H :    0.035647
  77 H :    0.033456
  78 H :    0.032366
  79 H :    0.034082
  80 H :    0.042971
  81 H :    0.093463
  82 H :    0.047052
  83 H :    0.048599
  84 H :    0.093566
  85 H :    0.043322
  86 H :    0.034750
  87 H :    0.026755
  88 H :    0.028000
  89 H :    0.028191
  90 H :    0.025527
  91 H :    0.020202
  92 H :    0.030201
  93 H :    0.025133
  94 H :    0.029691
  95 H :    0.023146
  96 H :    0.029702
  97 H :    0.025730
  98 H :    0.031100
  99 H :    0.034862
 100 H :    0.030706
 101 H :    0.041119
 102 H :    0.040447
 103 H :    0.040871
 104 H :    0.038731

  Mayer bond orders larger than 0.100000
B(  0-C ,  1-C ) :   1.8678 B(  0-C , 74-H ) :   0.9508 B(  0-C , 75-H ) :   0.9414
B(  1-C ,  2-C ) :   1.0768 B(  1-C ,  5-S ) :   1.0057 B(  2-C ,  3-C ) :   1.6668
B(  2-C , 76-H ) :   0.9923 B(  3-C ,  4-C ) :   1.1449 B(  3-C , 77-H ) :   0.9928
B(  4-C ,  5-S ) :   1.0646 B(  4-C ,  6-C ) :   1.5488 B(  6-C ,  7-C ) :   1.1661
B(  6-C , 10-S ) :   1.0402 B(  7-C ,  8-C ) :   1.6076 B(  7-C , 78-H ) :   0.9918
B(  8-C ,  9-C ) :   1.1317 B(  8-C , 79-H ) :   1.0012 B(  9-C , 10-S ) :   1.0878
B(  9-C , 11-C ) :   1.5362 B( 11-C , 12-C ) :   1.2020 B( 11-C , 80-H ) :   0.9507
B( 12-C , 13-O ) :   1.1234 B( 12-C , 14-C ) :   1.3664 B( 13-O , 21-C ) :   1.1518
B( 14-C , 15-C ) :   0.8969 B( 14-C , 20-C ) :   1.2652 B( 15-C , 16-O ) :   2.2059
B( 15-C , 17-N ) :   1.0703 B( 17-N , 18-C ) :   1.0959 B( 17-N , 81-H ) :   0.9148
B( 18-C , 19-O ) :   2.2280 B( 18-C , 20-C ) :   0.8840 B( 20-C , 21-C ) :   1.4123
B( 21-C , 22-C ) :   1.1599 B( 22-C , 23-C ) :   1.5837 B( 22-C , 82-H ) :   0.9695
B( 23-C , 24-C ) :   1.1562 B( 23-C , 83-H ) :   0.9745 B( 24-C , 25-O ) :   1.1433
B( 24-C , 26-C ) :   1.4052 B( 25-O , 33-C ) :   1.1483 B( 26-C , 27-C ) :   0.8785
B( 26-C , 32-C ) :   1.2573 B( 27-C , 28-O ) :   2.2715 B( 27-C , 29-N ) :   1.0775
B( 29-N , 30-C ) :   1.0767 B( 29-N , 84-H ) :   0.9137 B( 30-C , 31-O ) :   2.2673
B( 30-C , 32-C ) :   0.8815 B( 32-C , 33-C ) :   1.4033 B( 33-C , 34-C ) :   1.1575
B( 34-C , 35-C ) :   1.6957 B( 34-C , 85-H ) :   0.9643 B( 35-C , 36-C ) :   1.0110
B( 35-C , 86-H ) :   0.9647 B( 36-C , 37-C ) :   1.6007 B( 36-C , 40-C ) :   1.1427
B( 37-C , 38-S ) :   1.1275 B( 37-C , 87-H ) :   0.9626 B( 38-S , 39-C ) :   1.0768
B( 39-C , 40-C ) :   1.3728 B( 39-C , 51-C ) :   1.3845 B( 40-C , 41-C ) :   1.2655
B( 41-C , 42-C ) :   1.0557 B( 41-C , 44-C ) :   1.5178 B( 42-C , 43-C ) :   1.1064
B( 42-C , 88-H ) :   0.9109 B( 42-C , 89-H ) :   0.9212 B( 43-C , 90-H ) :   0.9561
B( 43-C , 91-H ) :   0.9564 B( 43-C , 92-H ) :   0.9632 B( 44-C , 45-C ) :   1.0571
B( 44-C , 47-C ) :   1.2620 B( 45-C , 46-C ) :   1.1092 B( 45-C , 93-H ) :   0.9260
B( 45-C , 94-H ) :   0.9083 B( 46-C , 95-H ) :   0.9652 B( 46-C , 96-H ) :   0.9658
B( 46-C , 97-H ) :   0.9565 B( 47-C , 48-C ) :   1.1274 B( 47-C , 51-C ) :   1.3776
B( 48-C , 49-C ) :   1.5630 B( 48-C , 52-C ) :   1.0436 B( 49-C , 50-S ) :   1.1574
B( 49-C , 98-H ) :   0.9579 B( 50-S , 51-C ) :   1.0710 B( 52-C , 53-C ) :   1.5993
B( 52-C , 99-H ) :   0.9748 B( 53-C , 54-C ) :   1.1633 B( 53-C ,100-H ) :   0.9794
B( 54-C , 55-C ) :   1.5237 B( 54-C ,101-H ) :   0.9618 B( 55-C , 56-C ) :   1.0702
B( 55-C , 64-C ) :   0.9510 B( 56-C , 57-C ) :   1.6193 B( 56-C , 62-C ) :   1.0008
B( 57-C , 58-C ) :   1.1424 B( 57-C , 60-C ) :   1.1515 B( 58-C , 59-N ) :   2.9668
B( 60-C , 61-N ) :   2.9623 B( 62-C , 63-C ) :   1.2760 B( 62-C , 69-C ) :   1.4080
B( 63-C , 64-C ) :   0.9432 B( 63-C , 66-C ) :   1.4246 B( 64-C , 65-O ) :   2.1900
B( 66-C , 67-C ) :   1.2438 B( 66-C ,102-H ) :   1.0161 B( 67-C , 68-C ) :   1.3064
B( 67-C , 72-C ) :   1.1630 B( 68-C , 69-C ) :   1.3321 B( 68-C , 70-S ) :   1.0856
B( 69-C ,103-H ) :   0.9790 B( 70-S , 71-C ) :   1.0863 B( 71-C , 72-C ) :   1.6190
B( 71-C , 73-Br) :   1.0172 B( 72-C ,104-H ) :   0.9996

-----------------------------------------------------------------------------
         ABSORPTION SPECTRUM VIA TRANSITION ELECTRIC DIPOLE MOMENTS
-----------------------------------------------------------------------------
State   Energy  Wavelength   fosc         T2         TX        TY        TZ
        (cm-1)    (nm)                  (au**2)     (au)      (au)      (au)
-----------------------------------------------------------------------------
   0   16502.7    606.0   1.660874890  33.13267   1.85820   2.24497   4.96385
   1   20932.3    477.7   0.034207571   0.53800  -0.13953   0.70884   0.12680
   2   21979.0    455.0   1.130432006  16.93216  -4.07336   0.56462   0.14533
   3   22554.1    443.4   0.004676322   0.06826   0.24396  -0.06202   0.06996
   4   25009.9    399.8   0.161056042   2.12003  -0.32057   0.57755   1.29757
   5   25595.4    390.7   0.003522433   0.04531   0.10464  -0.04901   0.17876
   6   27220.1    367.4   0.229999394   2.78171   0.93549   0.09839  -1.37727
   7   27467.0    364.1   0.082229915   0.98559  -0.30292   0.29747   0.89741
   8   27737.6    360.5   0.150134076   1.78191   1.21485   0.49269  -0.25160
   9   28489.2    351.0   0.296260415   3.42349  -0.93963   0.82450   1.36410
  10   28948.9    345.4   0.006408384   0.07288   0.17863  -0.10852  -0.17085
  11   29862.0    334.9   0.130728990   1.44121  -1.07617  -0.24746  -0.47099
  12   30142.4    331.8   0.029491599   0.32210   0.53571   0.00866   0.18720
  13   30281.3    330.2   0.000901626   0.00980  -0.03169   0.04352   0.08309
  14   30626.3    326.5   0.046934100   0.50451  -0.59811  -0.29650   0.24261
  15   30858.8    324.1   0.045465704   0.48504  -0.66591   0.09648  -0.17970
  16   31303.5    319.5   0.417208816   4.38769   1.98412   0.47550  -0.47419
  17   31351.1    319.0   0.100864175   1.05916  -0.38306   0.82520   0.48111
  18   31994.7    312.6   0.301316669   3.10042   1.06190  -0.36824  -1.35543
  19   32087.3    311.7   0.142868587   1.46582   1.08469  -0.47952  -0.24359
  20   32201.1    310.5   0.109842929   1.12299  -0.89033   0.39213   0.42017
  21   33558.5    298.0   0.558114207   5.47514   0.44140  -1.03896  -2.04960
  22   33947.1    294.6   0.014648699   0.14206  -0.00084  -0.09448  -0.36487
  23   34249.5    292.0   0.126065127   1.21176  -1.07662  -0.22921   0.01104
  24   34422.9    290.5   0.000400017   0.00383  -0.01026  -0.03457   0.05025
  25   35231.7    283.8   0.003051577   0.02851   0.02048   0.10691   0.12909
  26   35767.1    279.6   0.013345132   0.12283   0.27678   0.20621  -0.06088
  27   35845.1    279.0   0.023563253   0.21641   0.15060  -0.00415   0.44013
  28   36440.7    274.4   0.001080021   0.00976  -0.00051   0.02347  -0.09595
  29   36507.1    273.9   0.015309708   0.13806   0.21786  -0.22666  -0.19805
  30   36944.6    270.7   0.024206100   0.21570   0.30690   0.07507   0.34041
  31   37203.3    268.8   0.259120261   2.29295   1.45571   0.21889  -0.35491
  32   37754.2    264.9   0.040108302   0.34974  -0.25596   0.07554   0.52775
  33   37774.2    264.7   0.095629614   0.83344  -0.42080   0.30528   0.75045
  34   37992.4    263.2   0.030134679   0.26112   0.13244   0.14671   0.47123
  35   38481.7    259.9   0.039995339   0.34216  -0.41930   0.17348  -0.36912
  36   38665.1    258.6   0.094941345   0.80837  -0.50947   0.12285   0.73056
  37   39033.0    256.2   0.143232108   1.20805  -1.00429  -0.10980  -0.43289
  38   39259.3    254.7   0.187654054   1.57359  -1.14193  -0.11724  -0.50580
  39   39298.2    254.5   0.085102869   0.71293  -0.80203  -0.16126  -0.20898
  40   39744.9    251.6   0.051098742   0.42326  -0.01342  -0.03502   0.64950
  41   40121.5    249.2   0.041527710   0.34075  -0.19851  -0.11998  -0.53567

FINAL SINGLE POINT ENERGY     -7496.917851987185

DIPOLE MOMENT
-------------
                                X             Y             Z
Electronic contribution:   -142.60210      69.20488     142.23377
Nuclear contribution   :    143.73848     -70.06092    -143.33839
                        -----------------------------------------
Total Dipole Moment    :      1.13639      -0.85604      -1.10462
                        -----------------------------------------
Magnitude (a.u.)       :      1.80121
Magnitude (Debye)      :      4.57831

Rotational constants in cm-1:     0.000849     0.000178     0.000150
Rotational constants in MHz :    25.438705     5.333704     4.482831

                             ****ORCA TERMINATED NORMALLY****
TOTAL RUN TIME: 0 days 0 hours 10 minutes 2 seconds 514 msec
