                         Program Version 4.2.0 -  RELEASE  -
|  1> # ORCA input file
|  2> # SCF done       -185.934242575284          0.000691851911
|  3> ! CAM-B3LYP def2-SVP def2/J RIJCOSX Grid4 TightSCF
|  4> %maxcore 5000
|  5> %tddft
|  6>     Mode sTDDFT
|  7>     Ethresh 5.0
|  8>     maxcore 5000
|  9> end
| 10>
| 11> %pal
| 12>   nprocs 6
| 13>   end
| 14> * xyz 0 1
| 15>    C       10.49350         0.92924        -4.48083
| 16>    C        9.44069         0.13728        -4.23637
| 17>    C        8.04873         0.47739        -4.32254
| 18>    C        7.20918        -0.53220        -4.00597
| 19>    C        7.86082        -1.74699        -3.64713
| 20>    S        9.59669        -1.55458        -3.73373
| 21>    C        7.27081        -2.92959        -3.26564
| 22>    C        5.88813        -3.20116        -3.12879
| 23>    C        5.62956        -4.46066        -2.69700
| 24>    C        6.78415        -5.26415        -2.46334
| 25>    S        8.22210        -4.35019        -2.85996
| 26>    C        6.68667        -6.53407        -1.94827
| 27>    C        7.67504        -7.47158        -1.57772
| 28>    C        7.36034        -8.67274        -0.88724
| 29>    N        8.29194        -9.50511        -0.36682
| 30>    C        9.56601        -9.32435        -0.52061
| 31>    C       10.03447        -8.22774        -1.27524
| 32>    C        9.07031        -7.28724        -1.79641
| 33>    N        9.74937        -6.37245        -2.45373
| 34>    O       11.03792        -6.70663        -2.35475
| 35>    N       11.23100        -7.82093        -1.64742
| 36>    C        6.00294        -9.11469        -0.66469
| 37>    C        5.70210       -10.02650         0.27799
| 38>    C        4.37622       -10.50184         0.58742
| 39>    C        3.26316        -9.73677         0.38232
| 40>    S        1.80986       -10.39404         1.01959
| 41>    C        2.68840       -11.77632         1.60005
| 42>    C        4.05247       -11.73372         1.27224
| 43>    C        4.87815       -12.82408         1.62870
| 44>    C        6.28328       -12.91323         1.10683
| 45>    C        4.37702       -13.84342         2.42787
| 46>    C        5.30482       -14.88665         2.97892
| 47>    C        3.00331       -13.87976         2.75507
| 48>    C        2.16902       -12.83694         2.32308
| 49>    S        0.52377       -13.02332         2.85141
| 50>    C        0.94757       -14.47599         3.66401
| 51>    C        2.25519       -14.84199         3.52896
| 52>    C        2.74880       -16.08374         4.08215
| 53>    C        2.38915       -16.53973         5.29728
| 54>    C        2.87254       -17.75391         5.86080
| 55>    O        2.53951       -18.06323         7.13238
| 56>    C        3.13892       -19.23859         7.47842
| 57>    C        3.88009       -19.68888         6.38189
| 58>    C        3.71151       -18.74303         5.35478
| 59>    O        4.26761       -18.78859         4.12253
| 60>    O        4.66066       -20.78766         6.23308
| 61>    C        2.94202       -19.69331         8.79733
| 62>    C        3.37213       -20.86199         9.35774
| 63>    C        3.19081       -21.21581        10.71396
| 64>    C        2.62786       -20.43350        11.68490
| 65>    C        2.52064       -20.86551        13.01592
| 66>    C        1.97360       -20.12460        14.03591
| 67>    C        1.85546       -20.51487        15.42322
| 68>    C        2.31119       -21.67423        16.00264
| 69>    C        2.16961       -21.98475        17.37024
| 70>    N        2.08428       -22.30138        18.47097
| 71>    C        2.99193       -22.71423        15.33843
| 72>    N        3.55555       -23.60442        14.87983
| 73>    C        1.17127       -19.43640        16.13260
| 74>    C        0.89319       -18.39451        15.21558
| 75>    C        1.38721       -18.77655        13.87664
| 76>    O        1.30911       -18.10144        12.86903
| 77>    C        0.25530       -17.23455        15.57991
| 78>    C       -0.13090       -17.09472        16.91711
| 79>    C        0.14798       -18.14146        17.82653
| 80>    C        0.79520       -19.31456        17.45716
| 81>    S       -0.41816       -17.76533        19.42648
| 82>    C       -1.01176       -16.22735        18.85823
| 83>    C       -0.79921       -16.00491        17.53983
| 84>   Br       -1.85871       -15.06117        20.05907
| 85>    H       10.35351         1.95202        -4.78366
| 86>    H       11.50273         0.57292        -4.38551
| 87>    H        7.74223         1.46556        -4.61658
| 88>    H        6.13645        -0.45481        -4.01478
| 89>    H        5.13179        -2.46736        -3.34271
| 90>    H        4.64065        -4.84886        -2.52393
| 91>    H        5.66760        -6.83635        -1.74744
| 92>    H       10.23979       -10.03427        -0.06515
| 93>    H        5.22821        -8.72325        -1.30623
| 94>    H        6.51166       -10.38596         0.89215
| 95>    H        3.22423        -8.76365        -0.06626
| 96>    H        6.36758       -12.39253         0.15749
| 97>    H        6.55744       -13.95247         0.94342
| 98>    H        7.00017       -12.47849         1.80385
| 99>    H        5.35328       -15.76025         2.32851
|100>    H        4.96166       -15.20758         3.95893
|101>    H        6.30876       -14.48677         3.08948
|102>    H        0.17780       -15.03094         4.16387
|103>    H        3.41507       -16.67525         3.47445
|104>    H        1.74090       -15.96172         5.94027
|105>    H        4.78964       -19.60013         4.06407
|106>    H        4.73192       -21.26116         7.06861
|107>    H        2.37625       -19.00054         9.40401
|108>    H        3.88185       -21.59824         8.74950
|109>    H        3.55245       -22.19501        11.00552
|110>    H        2.25840       -19.44801        11.45135
|111>    H        2.90346       -21.85272        13.24100
|112>    H        0.06004       -16.45904        14.85587
|113>    H        0.98259       -20.08177        18.18940
|114>    H       -1.10069       -15.11067        17.02551
|115> *
|116>
|117>                          ****END OF INPUT****

CARTESIAN COORDINATES (ANGSTROEM)
---------------------------------
  C     10.493500    0.929240   -4.480830
  C      9.440690    0.137280   -4.236370
  C      8.048730    0.477390   -4.322540
  C      7.209180   -0.532200   -4.005970
  C      7.860820   -1.746990   -3.647130
  S      9.596690   -1.554580   -3.733730
  C      7.270810   -2.929590   -3.265640
  C      5.888130   -3.201160   -3.128790
  C      5.629560   -4.460660   -2.697000
  C      6.784150   -5.264150   -2.463340
  S      8.222100   -4.350190   -2.859960
  C      6.686670   -6.534070   -1.948270
  C      7.675040   -7.471580   -1.577720
  C      7.360340   -8.672740   -0.887240
  N      8.291940   -9.505110   -0.366820
  C      9.566010   -9.324350   -0.520610
  C     10.034470   -8.227740   -1.275240
  C      9.070310   -7.287240   -1.796410
  N      9.749370   -6.372450   -2.453730
  O     11.037920   -6.706630   -2.354750
  N     11.231000   -7.820930   -1.647420
  C      6.002940   -9.114690   -0.664690
  C      5.702100  -10.026500    0.277990
  C      4.376220  -10.501840    0.587420
  C      3.263160   -9.736770    0.382320
  S      1.809860  -10.394040    1.019590
  C      2.688400  -11.776320    1.600050
  C      4.052470  -11.733720    1.272240
  C      4.878150  -12.824080    1.628700
  C      6.283280  -12.913230    1.106830
  C      4.377020  -13.843420    2.427870
  C      5.304820  -14.886650    2.978920
  C      3.003310  -13.879760    2.755070
  C      2.169020  -12.836940    2.323080
  S      0.523770  -13.023320    2.851410
  C      0.947570  -14.475990    3.664010
  C      2.255190  -14.841990    3.528960
  C      2.748800  -16.083740    4.082150
  C      2.389150  -16.539730    5.297280
  C      2.872540  -17.753910    5.860800
  O      2.539510  -18.063230    7.132380
  C      3.138920  -19.238590    7.478420
  C      3.880090  -19.688880    6.381890
  C      3.711510  -18.743030    5.354780
  O      4.267610  -18.788590    4.122530
  O      4.660660  -20.787660    6.233080
  C      2.942020  -19.693310    8.797330
  C      3.372130  -20.861990    9.357740
  C      3.190810  -21.215810   10.713960
  C      2.627860  -20.433500   11.684900
  C      2.520640  -20.865510   13.015920
  C      1.973600  -20.124600   14.035910
  C      1.855460  -20.514870   15.423220
  C      2.311190  -21.674230   16.002640
  C      2.169610  -21.984750   17.370240
  N      2.084280  -22.301380   18.470970
  C      2.991930  -22.714230   15.338430
  N      3.555550  -23.604420   14.879830
  C      1.171270  -19.436400   16.132600
  C      0.893190  -18.394510   15.215580
  C      1.387210  -18.776550   13.876640
  O      1.309110  -18.101440   12.869030
  C      0.255300  -17.234550   15.579910
  C     -0.130900  -17.094720   16.917110
  C      0.147980  -18.141460   17.826530
  C      0.795200  -19.314560   17.457160
  S     -0.418160  -17.765330   19.426480
  C     -1.011760  -16.227350   18.858230
  C     -0.799210  -16.004910   17.539830
  Br    -1.858710  -15.061170   20.059070
  H     10.353510    1.952020   -4.783660
  H     11.502730    0.572920   -4.385510
  H      7.742230    1.465560   -4.616580
  H      6.136450   -0.454810   -4.014780
  H      5.131790   -2.467360   -3.342710
  H      4.640650   -4.848860   -2.523930
  H      5.667600   -6.836350   -1.747440
  H     10.239790  -10.034270   -0.065150
  H      5.228210   -8.723250   -1.306230
  H      6.511660  -10.385960    0.892150
  H      3.224230   -8.763650   -0.066260
  H      6.367580  -12.392530    0.157490
  H      6.557440  -13.952470    0.943420
  H      7.000170  -12.478490    1.803850
  H      5.353280  -15.760250    2.328510
  H      4.961660  -15.207580    3.958930
  H      6.308760  -14.486770    3.089480
  H      0.177800  -15.030940    4.163870
  H      3.415070  -16.675250    3.474450
  H      1.740900  -15.961720    5.940270
  H      4.789640  -19.600130    4.064070
  H      4.731920  -21.261160    7.068610
  H      2.376250  -19.000540    9.404010
  H      3.881850  -21.598240    8.749500
  H      3.552450  -22.195010   11.005520
  H      2.258400  -19.448010   11.451350
  H      2.903460  -21.852720   13.241000
  H      0.060040  -16.459040   14.855870
  H      0.982590  -20.081770   18.189400
  H     -1.100690  -15.110670   17.025510

 Total Charge           Charge          ....    0
 Multiplicity           Mult            ....    1
 Number of Electrons    NEL             ....  544
 Basis Dimension        Dim             .... 1168

ORBITAL ENERGIES
----------------

  NO   OCC          E(Eh)            E(eV)
   0   2.0000    -482.880776    -13139.8539
   1   2.0000     -88.969379     -2420.9799
   2   2.0000     -88.952112     -2420.5100
   3   2.0000     -88.951810     -2420.5018
   4   2.0000     -88.939781     -2420.1745
   5   2.0000     -88.939369     -2420.1633
   6   2.0000     -62.558473     -1702.3026
   7   2.0000     -56.392417     -1534.5157
   8   2.0000     -56.389715     -1534.4422
   9   2.0000     -56.389678     -1534.4412
  10   2.0000     -19.353474      -526.6348
  11   2.0000     -19.297616      -525.1148
  12   2.0000     -19.284600      -524.7607
  13   2.0000     -19.268679      -524.3274
  14   2.0000     -19.206810      -522.6439
  15   2.0000     -14.481166      -394.0526
  16   2.0000     -14.476719      -393.9316
  17   2.0000     -14.417908      -392.3312
  18   2.0000     -14.407021      -392.0350
  19   2.0000     -14.404768      -391.9737
  20   2.0000     -10.357861      -281.8517
  21   2.0000     -10.357168      -281.8329
  22   2.0000     -10.352933      -281.7176
  23   2.0000     -10.344793      -281.4961
  24   2.0000     -10.344011      -281.4749
  25   2.0000     -10.341502      -281.4066
  26   2.0000     -10.331153      -281.1250
  27   2.0000     -10.329703      -281.0855
  28   2.0000     -10.326544      -280.9995
  29   2.0000     -10.323492      -280.9165
  30   2.0000     -10.320849      -280.8446
  31   2.0000     -10.318275      -280.7745
  32   2.0000     -10.316483      -280.7258
  33   2.0000     -10.313852      -280.6542
  34   2.0000     -10.312752      -280.6242
  35   2.0000     -10.310623      -280.5663
  36   2.0000     -10.309574      -280.5378
  37   2.0000     -10.308525      -280.5092
  38   2.0000     -10.307756      -280.4883
  39   2.0000     -10.303969      -280.3852
  40   2.0000     -10.303019      -280.3594
  41   2.0000     -10.301757      -280.3251
  42   2.0000     -10.300406      -280.2883
  43   2.0000     -10.300333      -280.2863
  44   2.0000     -10.299463      -280.2626
  45   2.0000     -10.297807      -280.2176
  46   2.0000     -10.297394      -280.2063
  47   2.0000     -10.297231      -280.2019
  48   2.0000     -10.295174      -280.1459
  49   2.0000     -10.294714      -280.1334
  50   2.0000     -10.293124      -280.0901
  51   2.0000     -10.292187      -280.0646
  52   2.0000     -10.291018      -280.0328
  53   2.0000     -10.290929      -280.0304
  54   2.0000     -10.287696      -279.9424
  55   2.0000     -10.287540      -279.9382
  56   2.0000     -10.285621      -279.8860
  57   2.0000     -10.284825      -279.8643
  58   2.0000     -10.283287      -279.8225
  59   2.0000     -10.283138      -279.8184
  60   2.0000     -10.282697      -279.8064
  61   2.0000     -10.282276      -279.7950
  62   2.0000     -10.281778      -279.7814
  63   2.0000     -10.279779      -279.7270
  64   2.0000     -10.277004      -279.6515
  65   2.0000     -10.276439      -279.6361
  66   2.0000     -10.274773      -279.5908
  67   2.0000     -10.274355      -279.5794
  68   2.0000     -10.273725      -279.5623
  69   2.0000     -10.273039      -279.5436
  70   2.0000     -10.272912      -279.5401
  71   2.0000     -10.268884      -279.4305
  72   2.0000     -10.260642      -279.2063
  73   2.0000     -10.258623      -279.1513
  74   2.0000      -8.787888      -239.1306
  75   2.0000      -8.065256      -219.4668
  76   2.0000      -8.048178      -219.0021
  77   2.0000      -8.047955      -218.9960
  78   2.0000      -8.036089      -218.6731
  79   2.0000      -8.034884      -218.6403
  80   2.0000      -6.624149      -180.2523
  81   2.0000      -6.609633      -179.8573
  82   2.0000      -6.609461      -179.8526
  83   2.0000      -6.034971      -164.2199
  84   2.0000      -6.030667      -164.1028
  85   2.0000      -6.026515      -163.9898
  86   2.0000      -6.017681      -163.7494
  87   2.0000      -6.017477      -163.7439
  88   2.0000      -6.013431      -163.6338
  89   2.0000      -6.013232      -163.6284
  90   2.0000      -6.009900      -163.5377
  91   2.0000      -6.009630      -163.5304
  92   2.0000      -6.005871      -163.4281
  93   2.0000      -6.004737      -163.3972
  94   2.0000      -6.001942      -163.3211
  95   2.0000      -6.000426      -163.2799
  96   2.0000      -5.996675      -163.1778
  97   2.0000      -5.995664      -163.1503
  98   2.0000      -2.740037       -74.5602
  99   2.0000      -2.735946       -74.4489
 100   2.0000      -2.735812       -74.4452
 101   2.0000      -2.724278       -74.1314
 102   2.0000      -2.724261       -74.1309
 103   2.0000      -1.304876       -35.5075
 104   2.0000      -1.219602       -33.1870
 105   2.0000      -1.176679       -32.0191
 106   2.0000      -1.155353       -31.4388
 107   2.0000      -1.120636       -30.4941
 108   2.0000      -1.052049       -28.6277
 109   2.0000      -1.014761       -27.6131
 110   2.0000      -1.011209       -27.5164
 111   2.0000      -1.004969       -27.3466
 112   2.0000      -1.000986       -27.2382
 113   2.0000      -0.991425       -26.9780
 114   2.0000      -0.984924       -26.8011
 115   2.0000      -0.980339       -26.6764
 116   2.0000      -0.971625       -26.4393
 117   2.0000      -0.970749       -26.4154
 118   2.0000      -0.963604       -26.2210
 119   2.0000      -0.939993       -25.5785
 120   2.0000      -0.932662       -25.3790
 121   2.0000      -0.920481       -25.0476
 122   2.0000      -0.916457       -24.9381
 123   2.0000      -0.914177       -24.8760
 124   2.0000      -0.902948       -24.5705
 125   2.0000      -0.900381       -24.5006
 126   2.0000      -0.894170       -24.3316
 127   2.0000      -0.888884       -24.1878
 128   2.0000      -0.878363       -23.9015
 129   2.0000      -0.875784       -23.8313
 130   2.0000      -0.871850       -23.7243
 131   2.0000      -0.857166       -23.3247
 132   2.0000      -0.849716       -23.1219
 133   2.0000      -0.844756       -22.9870
 134   2.0000      -0.839588       -22.8463
 135   2.0000      -0.835190       -22.7267
 136   2.0000      -0.824561       -22.4374
 137   2.0000      -0.821767       -22.3614
 138   2.0000      -0.818584       -22.2748
 139   2.0000      -0.810259       -22.0483
 140   2.0000      -0.794862       -21.6293
 141   2.0000      -0.786067       -21.3900
 142   2.0000      -0.775993       -21.1158
 143   2.0000      -0.771397       -20.9908
 144   2.0000      -0.765288       -20.8246
 145   2.0000      -0.752838       -20.4858
 146   2.0000      -0.748953       -20.3801
 147   2.0000      -0.738813       -20.1041
 148   2.0000      -0.737432       -20.0666
 149   2.0000      -0.728248       -19.8166
 150   2.0000      -0.725233       -19.7346
 151   2.0000      -0.711546       -19.3621
 152   2.0000      -0.697047       -18.9676
 153   2.0000      -0.696547       -18.9540
 154   2.0000      -0.691640       -18.8205
 155   2.0000      -0.685343       -18.6491
 156   2.0000      -0.684652       -18.6303
 157   2.0000      -0.679308       -18.4849
 158   2.0000      -0.666452       -18.1351
 159   2.0000      -0.662574       -18.0295
 160   2.0000      -0.655142       -17.8273
 161   2.0000      -0.650627       -17.7045
 162   2.0000      -0.646542       -17.5933
 163   2.0000      -0.644930       -17.5494
 164   2.0000      -0.636378       -17.3167
 165   2.0000      -0.632940       -17.2232
 166   2.0000      -0.629011       -17.1163
 167   2.0000      -0.620516       -16.8851
 168   2.0000      -0.617034       -16.7903
 169   2.0000      -0.616352       -16.7718
 170   2.0000      -0.613284       -16.6883
 171   2.0000      -0.604290       -16.4436
 172   2.0000      -0.602168       -16.3858
 173   2.0000      -0.599822       -16.3220
 174   2.0000      -0.597427       -16.2568
 175   2.0000      -0.597145       -16.2491
 176   2.0000      -0.588089       -16.0027
 177   2.0000      -0.584949       -15.9173
 178   2.0000      -0.580201       -15.7881
 179   2.0000      -0.578780       -15.7494
 180   2.0000      -0.570854       -15.5337
 181   2.0000      -0.562198       -15.2982
 182   2.0000      -0.559550       -15.2261
 183   2.0000      -0.555669       -15.1205
 184   2.0000      -0.548362       -14.9217
 185   2.0000      -0.541816       -14.7436
 186   2.0000      -0.538066       -14.6415
 187   2.0000      -0.532699       -14.4955
 188   2.0000      -0.531697       -14.4682
 189   2.0000      -0.530943       -14.4477
 190   2.0000      -0.526015       -14.3136
 191   2.0000      -0.524387       -14.2693
 192   2.0000      -0.523056       -14.2331
 193   2.0000      -0.520509       -14.1638
 194   2.0000      -0.518238       -14.1020
 195   2.0000      -0.514541       -14.0014
 196   2.0000      -0.510460       -13.8903
 197   2.0000      -0.508985       -13.8502
 198   2.0000      -0.504088       -13.7169
 199   2.0000      -0.503555       -13.7024
 200   2.0000      -0.502811       -13.6822
 201   2.0000      -0.502489       -13.6734
 202   2.0000      -0.501472       -13.6458
 203   2.0000      -0.499525       -13.5928
 204   2.0000      -0.496609       -13.5134
 205   2.0000      -0.492906       -13.4127
 206   2.0000      -0.489628       -13.3235
 207   2.0000      -0.486442       -13.2368
 208   2.0000      -0.485799       -13.2192
 209   2.0000      -0.485184       -13.2025
 210   2.0000      -0.484679       -13.1888
 211   2.0000      -0.483245       -13.1498
 212   2.0000      -0.481817       -13.1109
 213   2.0000      -0.480277       -13.0690
 214   2.0000      -0.479218       -13.0402
 215   2.0000      -0.476353       -12.9622
 216   2.0000      -0.475475       -12.9383
 217   2.0000      -0.468025       -12.7356
 218   2.0000      -0.463008       -12.5991
 219   2.0000      -0.461703       -12.5636
 220   2.0000      -0.459665       -12.5081
 221   2.0000      -0.455130       -12.3847
 222   2.0000      -0.454928       -12.3792
 223   2.0000      -0.453665       -12.3448
 224   2.0000      -0.452050       -12.3009
 225   2.0000      -0.449938       -12.2434
 226   2.0000      -0.447580       -12.1793
 227   2.0000      -0.444428       -12.0935
 228   2.0000      -0.440605       -11.9895
 229   2.0000      -0.438055       -11.9201
 230   2.0000      -0.436439       -11.8761
 231   2.0000      -0.434663       -11.8278
 232   2.0000      -0.433724       -11.8022
 233   2.0000      -0.431337       -11.7373
 234   2.0000      -0.430317       -11.7095
 235   2.0000      -0.426587       -11.6080
 236   2.0000      -0.424525       -11.5519
 237   2.0000      -0.423384       -11.5209
 238   2.0000      -0.419511       -11.4155
 239   2.0000      -0.418208       -11.3800
 240   2.0000      -0.414683       -11.2841
 241   2.0000      -0.410092       -11.1592
 242   2.0000      -0.408872       -11.1260
 243   2.0000      -0.403307       -10.9745
 244   2.0000      -0.400142       -10.8884
 245   2.0000      -0.398516       -10.8442
 246   2.0000      -0.396038       -10.7767
 247   2.0000      -0.393184       -10.6991
 248   2.0000      -0.386824       -10.5260
 249   2.0000      -0.382653       -10.4125
 250   2.0000      -0.377486       -10.2719
 251   2.0000      -0.373347       -10.1593
 252   2.0000      -0.370244       -10.0748
 253   2.0000      -0.366548        -9.9743
 254   2.0000      -0.359523        -9.7831
 255   2.0000      -0.352130        -9.5819
 256   2.0000      -0.348669        -9.4878
 257   2.0000      -0.340564        -9.2672
 258   2.0000      -0.336550        -9.1580
 259   2.0000      -0.333248        -9.0681
 260   2.0000      -0.326365        -8.8809
 261   2.0000      -0.325620        -8.8606
 262   2.0000      -0.320897        -8.7321
 263   2.0000      -0.315336        -8.5807
 264   2.0000      -0.308411        -8.3923
 265   2.0000      -0.297799        -8.1035
 266   2.0000      -0.289352        -7.8737
 267   2.0000      -0.286436        -7.7943
 268   2.0000      -0.268924        -7.3178
 269   2.0000      -0.260282        -7.0826
 270   2.0000      -0.238831        -6.4989
 271   2.0000      -0.215179        -5.8553
 272   0.0000      -0.094109        -2.5608
 273   0.0000      -0.083980        -2.2852
 274   0.0000      -0.056850        -1.5470
 275   0.0000      -0.037381        -1.0172
 276   0.0000      -0.028510        -0.7758

MULLIKEN ATOMIC CHARGES
-----------------------
   0 C :   -0.024735
   1 C :   -0.069003
   2 C :    0.059589
   3 C :    0.026389
   4 C :   -0.070541
   5 S :    0.094861
   6 C :   -0.036042
   7 C :    0.044485
   8 C :    0.010305
   9 C :    0.011631
  10 S :    0.115875
  11 C :   -0.103180
  12 C :    0.145765
  13 C :   -0.037076
  14 N :   -0.047344
  15 C :   -0.022178
  16 C :   -0.027963
  17 C :   -0.041776
  18 N :    0.010938
  19 O :   -0.095590
  20 N :    0.067493
  21 C :   -0.049481
  22 C :    0.001549
  23 C :    0.083603
  24 C :   -0.117139
  25 S :    0.128187
  26 C :   -0.141852
  27 C :    0.105277
  28 C :   -0.163125
  29 C :    0.073362
  30 C :   -0.157552
  31 C :    0.073642
  32 C :    0.112309
  33 C :   -0.141317
  34 S :    0.126830
  35 C :   -0.114995
  36 C :    0.066008
  37 C :   -0.041350
  38 C :   -0.019945
  39 C :    0.115079
  40 O :   -0.202028
  41 C :    0.092675
  42 C :    0.078460
  43 C :    0.058245
  44 O :   -0.178153
  45 O :   -0.188828
  46 C :    0.052425
  47 C :   -0.050799
  48 C :    0.056543
  49 C :   -0.010868
  50 C :   -0.026260
  51 C :   -0.090393
  52 C :    0.335296
  53 C :   -0.364758
  54 C :   -0.185683
  55 N :    0.141652
  56 C :   -0.191310
  57 N :    0.139094
  58 C :    0.014700
  59 C :   -0.007416
  60 C :    0.144275
  61 O :   -0.164702
  62 C :   -0.077878
  63 C :    0.120058
  64 C :   -0.092134
  65 C :   -0.025409
  66 S :    0.182417
  67 C :   -0.122813
  68 C :    0.037484
  69 Br:    0.018140
  70 H :    0.021463
  71 H :    0.026200
  72 H :   -0.010084
  73 H :   -0.010095
  74 H :   -0.015827
  75 H :   -0.015464
  76 H :   -0.035774
  77 H :    0.004707
  78 H :   -0.006234
  79 H :    0.011101
  80 H :    0.013000
  81 H :    0.035668
  82 H :    0.013062
  83 H :    0.038918
  84 H :    0.034301
  85 H :    0.032781
  86 H :    0.011323
  87 H :    0.020168
  88 H :    0.031100
  89 H :   -0.006105
  90 H :    0.194727
  91 H :    0.194637
  92 H :    0.020343
  93 H :   -0.049798
  94 H :    0.004119
  95 H :    0.022601
  96 H :    0.002938
  97 H :   -0.013620
  98 H :   -0.008167
  99 H :   -0.005011
Sum of atomic charges:   -0.0000000

LOEWDIN ATOMIC CHARGES
----------------------
   0 C :   -0.068375
   1 C :   -0.140741
   2 C :   -0.025714
   3 C :   -0.027813
   4 C :   -0.167460
   5 S :    0.362962
   6 C :   -0.193945
   7 C :   -0.024988
   8 C :   -0.039713
   9 C :   -0.129363
  10 S :    0.422889
  11 C :   -0.074573
  12 C :   -0.046164
  13 C :   -0.000556
  14 N :   -0.042405
  15 C :    0.021408
  16 C :   -0.083514
  17 C :   -0.040840
  18 N :   -0.039963
  19 O :    0.073711
  20 N :   -0.012474
  21 C :   -0.044866
  22 C :    0.010080
  23 C :   -0.064528
  24 C :   -0.164218
  25 S :    0.414468
  26 C :   -0.179048
  27 C :   -0.041048
  28 C :   -0.026238
  29 C :   -0.047210
  30 C :   -0.026778
  31 C :   -0.047359
  32 C :   -0.043249
  33 C :   -0.178262
  34 S :    0.413274
  35 C :   -0.165952
  36 C :   -0.063906
  37 C :    0.003615
  38 C :   -0.044889
  39 C :    0.024128
  40 O :    0.011017
  41 C :   -0.029256
  42 C :    0.007317
  43 C :   -0.013274
  44 O :   -0.046327
  45 O :   -0.046044
  46 C :    0.022678
  47 C :   -0.082084
  48 C :    0.033750
  49 C :   -0.044262
  50 C :    0.068224
  51 C :   -0.109839
  52 C :    0.076524
  53 C :   -0.150634
  54 C :   -0.018355
  55 N :   -0.062691
  56 C :   -0.019711
  57 N :   -0.062589
  58 C :   -0.019645
  59 C :   -0.049122
  60 C :    0.083971
  61 O :   -0.156679
  62 C :    0.018690
  63 C :   -0.034312
  64 C :   -0.144850
  65 C :   -0.011652
  66 S :    0.429421
  67 C :   -0.273059
  68 C :   -0.071045
  69 Br:    0.132722
  70 H :    0.029484
  71 H :    0.028086
  72 H :    0.034066
  73 H :    0.032635
  74 H :    0.030290
  75 H :    0.030636
  76 H :    0.031989
  77 H :    0.028169
  78 H :    0.022952
  79 H :    0.032610
  80 H :    0.020089
  81 H :    0.037555
  82 H :    0.031008
  83 H :    0.036021
  84 H :    0.035027
  85 H :    0.035751
  86 H :    0.031119
  87 H :    0.023431
  88 H :    0.033930
  89 H :    0.037243
  90 H :    0.104514
  91 H :    0.094939
  92 H :    0.050815
  93 H :    0.014832
  94 H :    0.036611
  95 H :    0.028626
  96 H :    0.040259
  97 H :    0.039494
  98 H :    0.040508
  99 H :    0.038045

  Mayer bond orders larger than 0.100000
B(  0-C ,  1-C ) :   1.8624 B(  0-C , 70-H ) :   0.9509 B(  0-C , 71-H ) :   0.9424
B(  1-C ,  2-C ) :   1.0783 B(  1-C ,  5-S ) :   1.0066 B(  2-C ,  3-C ) :   1.6619
B(  2-C , 72-H ) :   0.9923 B(  3-C ,  4-C ) :   1.1489 B(  3-C , 73-H ) :   0.9925
B(  4-C ,  5-S ) :   1.0551 B(  4-C ,  6-C ) :   1.5515 B(  6-C ,  7-C ) :   1.1653
B(  6-C , 10-S ) :   1.0044 B(  7-C ,  8-C ) :   1.6053 B(  7-C , 74-H ) :   0.9923
B(  8-C ,  9-C ) :   1.1284 B(  8-C , 75-H ) :   1.0012 B(  9-C , 10-S ) :   1.0591
B(  9-C , 11-C ) :   1.5634 B( 11-C , 12-C ) :   1.1684 B( 11-C , 76-H ) :   0.9445
B( 12-C , 13-C ) :   1.3380 B( 12-C , 17-C ) :   1.1047 B( 13-C , 14-N ) :   1.3630
B( 13-C , 21-C ) :   1.0935 B( 14-N , 15-C ) :   1.7458 B( 15-C , 16-C ) :   1.1055
B( 15-C , 77-H ) :   0.9951 B( 16-C , 17-C ) :   1.1701 B( 16-C , 20-N ) :   1.6068
B( 17-C , 18-N ) :   1.5734 B( 18-N , 19-O ) :   1.0602 B( 18-N , 20-N ) :   0.1764
B( 19-O , 20-N ) :   1.0761 B( 21-C , 22-C ) :   1.7576 B( 21-C , 78-H ) :   0.9622
B( 22-C , 23-C ) :   1.0165 B( 22-C , 79-H ) :   0.9620 B( 23-C , 24-C ) :   1.6000
B( 23-C , 27-C ) :   1.1367 B( 24-C , 25-S ) :   1.1225 B( 24-C , 80-H ) :   0.9586
B( 25-S , 26-C ) :   1.0735 B( 26-C , 27-C ) :   1.3721 B( 26-C , 33-C ) :   1.3837
B( 27-C , 28-C ) :   1.2712 B( 28-C , 29-C ) :   1.0932 B( 28-C , 30-C ) :   1.5103
B( 29-C , 81-H ) :   0.9472 B( 29-C , 82-H ) :   0.9398 B( 29-C , 83-H ) :   0.9373
B( 30-C , 31-C ) :   1.0934 B( 30-C , 32-C ) :   1.2726 B( 31-C , 84-H ) :   0.9404
B( 31-C , 85-H ) :   0.9428 B( 31-C , 86-H ) :   0.9378 B( 32-C , 33-C ) :   1.3683
B( 32-C , 36-C ) :   1.1479 B( 33-C , 34-S ) :   1.0747 B( 34-S , 35-C ) :   1.1171
B( 35-C , 36-C ) :   1.6092 B( 35-C , 87-H ) :   0.9640 B( 36-C , 37-C ) :   1.0212
B( 37-C , 38-C ) :   1.7168 B( 37-C , 88-H ) :   0.9513 B( 38-C , 39-C ) :   1.1394
B( 38-C , 89-H ) :   0.9620 B( 39-C , 40-O ) :   1.1364 B( 39-C , 41-C ) :   0.1045
B( 39-C , 43-C ) :   1.3991 B( 40-O , 41-C ) :   1.0957 B( 41-C , 42-C ) :   1.2800
B( 41-C , 46-C ) :   1.2302 B( 42-C , 43-C ) :   1.2752 B( 42-C , 45-O ) :   1.2367
B( 43-C , 44-O ) :   1.2306 B( 44-O , 90-H ) :   0.9481 B( 45-O , 91-H ) :   0.9591
B( 46-C , 47-C ) :   1.5491 B( 46-C , 92-H ) :   0.9439 B( 47-C , 48-C ) :   1.2049
B( 47-C , 93-H ) :   0.9655 B( 48-C , 49-C ) :   1.5347 B( 48-C , 94-H ) :   0.9769
B( 49-C , 50-C ) :   1.2207 B( 49-C , 95-H ) :   0.9642 B( 50-C , 51-C ) :   1.4831
B( 50-C , 96-H ) :   0.9598 B( 51-C , 52-C ) :   1.0852 B( 51-C , 60-C ) :   0.9600
B( 52-C , 53-C ) :   1.6032 B( 52-C , 58-C ) :   0.9960 B( 53-C , 54-C ) :   1.1470
B( 53-C , 56-C ) :   1.1526 B( 54-C , 55-N ) :   2.9643 B( 56-C , 57-N ) :   2.9588
B( 58-C , 59-C ) :   1.2774 B( 58-C , 65-C ) :   1.4125 B( 59-C , 60-C ) :   0.9430
B( 59-C , 62-C ) :   1.4271 B( 60-C , 61-O ) :   2.1786 B( 62-C , 63-C ) :   1.2405
B( 62-C , 97-H ) :   1.0163 B( 63-C , 64-C ) :   1.3107 B( 63-C , 68-C ) :   1.1617
B( 64-C , 65-C ) :   1.3276 B( 64-C , 66-S ) :   1.0843 B( 65-C , 98-H ) :   0.9790
B( 66-S , 67-C ) :   1.0861 B( 67-C , 68-C ) :   1.6198 B( 67-C , 69-Br) :   1.0154
B( 68-C , 99-H ) :   0.9998

-----------------------------------------------------------------------------
         ABSORPTION SPECTRUM VIA TRANSITION ELECTRIC DIPOLE MOMENTS
-----------------------------------------------------------------------------
State   Energy  Wavelength   fosc         T2         TX        TY        TZ
        (cm-1)    (nm)                  (au**2)     (au)      (au)      (au)
-----------------------------------------------------------------------------
   0   14489.8    690.1   1.224743386  27.82653  -0.74980  -4.59838   2.47371
   1   16783.1    595.8   1.523244799  29.87956   0.65327   1.34071  -5.25883
   2   20814.0    480.4   0.000404798   0.00640   0.05488   0.04342  -0.03880
   3   22532.6    443.8   0.402285815   5.87759   1.28409   1.92554  -0.72179
   4   24520.4    407.8   0.060009282   0.80569   0.25720   0.85555  -0.08705
   5   24842.1    402.5   0.021135138   0.28009   0.02270  -0.46812   0.24584
   6   25944.5    385.4   0.013710113   0.17397   0.07391   0.38464   0.14337
   7   26032.3    384.1   0.052752414   0.66712   0.29796  -0.46542  -0.60144
   8   27432.2    364.5   0.282641786   3.39197  -0.75182   1.36890   0.97613
   9   27699.1    361.0   0.115531019   1.37312  -0.63931   0.59140   0.78399
  10   27875.5    358.7   0.263064029   3.10681  -1.61340  -0.32657   0.63017
  11   27941.3    357.9   0.005064874   0.05968   0.14926  -0.11790  -0.15328
  12   29281.8    341.5   0.038305389   0.43066  -0.64681  -0.04197  -0.10269
  13   29588.6    338.0   0.000654320   0.00728  -0.04368   0.07149   0.01614
  14   29735.0    336.3   0.013353374   0.14784   0.03780  -0.20319   0.32424
  15   30791.6    324.8   0.087306127   0.93344  -0.03702   0.46322  -0.84705
  16   30864.4    324.0   0.001521088   0.01622   0.04548   0.11644  -0.02448
  17   31706.0    315.4   0.340156817   3.53193  -0.66534   1.70504  -0.42672
  18   32033.1    312.2   0.015917910   0.16359  -0.36274   0.12803  -0.12497
  19   32092.7    311.6   0.001564252   0.01605  -0.10069   0.07577   0.01296
  20   32127.1    311.3   0.015257534   0.15635  -0.33082  -0.21003   0.05282
  21   33000.4    303.0   0.407277535   4.06300   0.84556  -1.77989  -0.42430
  22   33053.4    302.5   0.323255623   3.21963   0.97079  -1.49633  -0.19544
  23   33514.5    298.4   0.153301101   1.50587   0.58297  -1.04147   0.28524
  24   33726.7    296.5   0.213474006   2.08375   0.55259  -1.31403  -0.22741
  25   34518.3    289.7   0.037543776   0.35807   0.55810  -0.17787   0.12231
  26   34853.2    286.9   0.126319684   1.19318   0.92521   0.51958  -0.25923
  27   35119.9    284.7   0.050745477   0.47569   0.61430  -0.17510  -0.26011
  28   35727.2    279.9   0.012945696   0.11929   0.31985  -0.12297  -0.04319
  29   35891.1    278.6   0.086477735   0.79322  -0.30617  -0.70664   0.44737
  30   36220.8    276.1   0.001821879   0.01656   0.12444  -0.01867   0.02693
  31   36610.3    273.1   0.156420909   1.40659   0.95821   0.40352  -0.57060
  32   36776.3    271.9   0.010982702   0.09831   0.04459  -0.13396   0.27997
  33   36908.3    270.9   0.003307616   0.02950   0.02376   0.14124  -0.09482
  34   36984.5    270.4   0.074563037   0.66371  -0.53024   0.50525  -0.35676
  35   37069.0    269.8   0.084729629   0.75249   0.54153  -0.55022   0.39560
  36   37262.0    268.4   0.006793178   0.06002  -0.22225  -0.03984  -0.09505
  37   37417.5    267.3   0.102122206   0.89851  -0.23450  -0.05433   0.91682
  38   38051.1    262.8   0.353750908   3.06059  -1.55552  -0.69032   0.40549
  39   38325.7    260.9   0.018387576   0.15795   0.21340  -0.31793   0.10644
  40   38588.9    259.1   0.068035197   0.58043  -0.72858  -0.15430   0.16059
  41   39080.0    255.9   0.103054337   0.86813   0.05728   0.78832  -0.49336
  42   39808.6    251.2   0.050545033   0.41800   0.58051   0.27068  -0.08796
  43   40033.6    249.8   0.025827684   0.21239  -0.30176  -0.19387   0.28939
  44   40052.2    249.7   0.016241939   0.13350   0.22290   0.18831  -0.21990
  45   40145.3    249.1   0.010717955   0.08789  -0.24850   0.12108  -0.10715

FINAL SINGLE POINT ENERGY     -7286.339994679020

DIPOLE MOMENT
-------------
                                X             Y             Z
Electronic contribution:    -78.69466     -29.75190     193.18733
Nuclear contribution   :     77.86381      32.08356    -196.25004
                        -----------------------------------------
Total Dipole Moment    :     -0.83085       2.33165      -3.06271
                        -----------------------------------------
Magnitude (a.u.)       :      3.93791
Magnitude (Debye)      :     10.00936

Rotational constants in cm-1:     0.001076     0.000139     0.000130
Rotational constants in MHz :    32.261366     4.179523     3.904910

                             ****ORCA TERMINATED NORMALLY****
TOTAL RUN TIME: 0 days 0 hours 18 minutes 26 seconds 19 msec
