                         Program Version 4.2.0 -  RELEASE  -
|  1> # ORCA input file
|  2> # SCF done       -208.815870425019          0.000848120889
|  3> ! CAM-B3LYP def2-SVP def2/J RIJCOSX Grid4 TightSCF
|  4> %maxcore 5000
|  5> %tddft
|  6>     Mode sTDDFT
|  7>     Ethresh 5.0
|  8>     maxcore 5000
|  9> end
| 10>
| 11> %pal
| 12>   nprocs 6
| 13>   end
| 14> * xyz 0 1
| 15>    C       -4.10692        -4.89668         5.61839
| 16>    C       -4.08006        -4.85672         7.01083
| 17>    C       -5.12757        -4.11589         7.79432
| 18>    O       -4.88240        -3.60458         8.84887
| 19>    O       -6.34747        -4.04913         7.25179
| 20>    C       -3.02623        -5.45524         7.72147
| 21>    C       -2.98689        -5.45303         9.13974
| 22>    N       -2.87604        -5.54481        10.27565
| 23>    C       -1.98631        -6.09672         7.04139
| 24>    C       -2.02780        -6.12332         5.66463
| 25>    C       -3.08415        -5.54147         4.94103
| 26>    C       -2.84665        -5.74491         3.51132
| 27>    C       -3.74771        -5.46696         2.51745
| 28>    C       -5.03517        -4.94596         2.76569
| 29>    N       -6.09621        -4.54426         2.93917
| 30>    C       -3.55227        -5.71482         1.14140
| 31>    N       -3.46756        -5.89649         0.01143
| 32>    C       -1.54725        -6.37361         3.37626
| 33>    C       -1.04326        -6.68716         4.71649
| 34>    O       -0.01906        -7.27707         5.00630
| 35>    C       -0.87085        -6.57936         2.19919
| 36>    C        0.36749        -7.18977         1.96068
| 37>    C        0.92342        -7.24599         0.67462
| 38>    C        2.13027        -7.91357         0.64985
| 39>    C        2.50556        -8.39354         1.93017
| 40>    S        1.39177        -7.99301         3.15277
| 41>    C        3.73708        -9.07773         1.79403
| 42>    C        4.14247        -9.03121         0.44404
| 43>    C        3.14845        -8.29285        -0.31789
| 44>    C        3.16845        -8.01321        -1.65140
| 45>    C        4.21693        -8.43807        -2.49627
| 46>    N        5.06361        -8.77930        -3.18916
| 47>    C        2.14278        -7.27103        -2.27669
| 48>    N        1.31534        -6.66921        -2.79299
| 49>    C        5.34192        -9.69679         0.21454
| 50>    C        5.84550       -10.25371         1.38057
| 51>    S        4.83560        -9.94499         2.77394
| 52>    C        7.03379       -11.01865         1.47011
| 53>    N        7.80369       -11.24179         0.44298
| 54>    C        8.83326       -12.00959         0.78247
| 55>    C        8.89677       -12.42282         2.12915
| 56>    S        7.56328       -11.77633         2.99515
| 57>    N        9.91675       -13.20878         2.46181
| 58>    C       10.67718       -13.44046         1.43045
| 59>    S       10.15901       -12.66080        -0.08873
| 60>    C       11.82501       -14.26843         1.47203
| 61>    C       12.29215       -14.96927         2.57338
| 62>    C       13.42519       -15.71509         2.26092
| 63>    C       13.82128       -15.57097         0.91574
| 64>    S       12.79909       -14.52146         0.04149
| 65>    C       14.96864       -16.36873         0.69049
| 66>    C       15.29413       -17.02864         1.89490
| 67>    C       14.34798       -16.62542         2.92244
| 68>    C       14.36268       -17.00060         4.23268
| 69>    C       15.35618       -17.87351         4.72749
| 70>    N       16.17294       -18.58458         5.10331
| 71>    C       13.40483       -16.54481         5.16383
| 72>    N       12.62279       -16.18275         5.91911
| 73>    C       16.41633       -17.83585         1.78239
| 74>    C       16.96765       -17.79475         0.50688
| 75>    S       16.03878       -16.75583        -0.57145
| 76>    C       18.08100       -18.48287        -0.01285
| 77>    C       19.08086       -19.14502         0.63823
| 78>    C       19.89112       -20.12448        -0.13656
| 79>    O       19.91331       -20.26174        -1.33580
| 80>    C       20.61314       -20.91943         0.88343
| 81>    C       20.35624       -20.38600         2.16056
| 82>    C       20.86294       -21.01363         3.28414
| 83>    C       21.66238       -22.14762         3.13457
| 84>    C       21.94233       -22.64776         1.85094
| 85>    C       21.40039       -22.03520         0.71345
| 86>    C       22.75149       -23.78839         1.63279
| 87>    N       23.41726       -24.69489         1.40621
| 88>    C       22.11863       -22.79395         4.41878
| 89>    O       21.49003       -22.64592         5.42804
| 90>    O       23.24178       -23.51245         4.40537
| 91>    C       19.53785       -19.18026         2.01140
| 92>    C       19.48256       -18.16755         2.93104
| 93>    C       18.89453       -16.91270         2.67571
| 94>    N       18.44151       -15.87437         2.49163
| 95>    C       20.11159       -18.21631         4.19556
| 96>    N       20.62307       -18.19159         5.22103
| 97>    H       -4.89154        -4.39181         5.07562
| 98>    H       -6.43984        -4.51221         6.40766
| 99>    H       -1.16959        -6.55226         7.58039
|100>    H       -1.33842        -6.20472         1.29616
|101>    H        0.43596        -6.80968        -0.17930
|102>    H        5.84605        -9.79799        -0.72854
|103>    H       11.80595       -14.92006         3.53009
|104>    H       16.79457       -18.46774         2.56471
|105>    H       18.12576       -18.56166        -1.09545
|106>    H       20.64872       -20.67323         4.28552
|107>    H       21.59422       -22.43221        -0.27157
|108>    H       23.66036       -23.62187         3.53893
|109> *
|110>
|111>                          ****END OF INPUT****

CARTESIAN COORDINATES (ANGSTROEM)
---------------------------------
  C     -4.106920   -4.896680    5.618390
  C     -4.080060   -4.856720    7.010830
  C     -5.127570   -4.115890    7.794320
  O     -4.882400   -3.604580    8.848870
  O     -6.347470   -4.049130    7.251790
  C     -3.026230   -5.455240    7.721470
  C     -2.986890   -5.453030    9.139740
  N     -2.876040   -5.544810   10.275650
  C     -1.986310   -6.096720    7.041390
  C     -2.027800   -6.123320    5.664630
  C     -3.084150   -5.541470    4.941030
  C     -2.846650   -5.744910    3.511320
  C     -3.747710   -5.466960    2.517450
  C     -5.035170   -4.945960    2.765690
  N     -6.096210   -4.544260    2.939170
  C     -3.552270   -5.714820    1.141400
  N     -3.467560   -5.896490    0.011430
  C     -1.547250   -6.373610    3.376260
  C     -1.043260   -6.687160    4.716490
  O     -0.019060   -7.277070    5.006300
  C     -0.870850   -6.579360    2.199190
  C      0.367490   -7.189770    1.960680
  C      0.923420   -7.245990    0.674620
  C      2.130270   -7.913570    0.649850
  C      2.505560   -8.393540    1.930170
  S      1.391770   -7.993010    3.152770
  C      3.737080   -9.077730    1.794030
  C      4.142470   -9.031210    0.444040
  C      3.148450   -8.292850   -0.317890
  C      3.168450   -8.013210   -1.651400
  C      4.216930   -8.438070   -2.496270
  N      5.063610   -8.779300   -3.189160
  C      2.142780   -7.271030   -2.276690
  N      1.315340   -6.669210   -2.792990
  C      5.341920   -9.696790    0.214540
  C      5.845500  -10.253710    1.380570
  S      4.835600   -9.944990    2.773940
  C      7.033790  -11.018650    1.470110
  N      7.803690  -11.241790    0.442980
  C      8.833260  -12.009590    0.782470
  C      8.896770  -12.422820    2.129150
  S      7.563280  -11.776330    2.995150
  N      9.916750  -13.208780    2.461810
  C     10.677180  -13.440460    1.430450
  S     10.159010  -12.660800   -0.088730
  C     11.825010  -14.268430    1.472030
  C     12.292150  -14.969270    2.573380
  C     13.425190  -15.715090    2.260920
  C     13.821280  -15.570970    0.915740
  S     12.799090  -14.521460    0.041490
  C     14.968640  -16.368730    0.690490
  C     15.294130  -17.028640    1.894900
  C     14.347980  -16.625420    2.922440
  C     14.362680  -17.000600    4.232680
  C     15.356180  -17.873510    4.727490
  N     16.172940  -18.584580    5.103310
  C     13.404830  -16.544810    5.163830
  N     12.622790  -16.182750    5.919110
  C     16.416330  -17.835850    1.782390
  C     16.967650  -17.794750    0.506880
  S     16.038780  -16.755830   -0.571450
  C     18.081000  -18.482870   -0.012850
  C     19.080860  -19.145020    0.638230
  C     19.891120  -20.124480   -0.136560
  O     19.913310  -20.261740   -1.335800
  C     20.613140  -20.919430    0.883430
  C     20.356240  -20.386000    2.160560
  C     20.862940  -21.013630    3.284140
  C     21.662380  -22.147620    3.134570
  C     21.942330  -22.647760    1.850940
  C     21.400390  -22.035200    0.713450
  C     22.751490  -23.788390    1.632790
  N     23.417260  -24.694890    1.406210
  C     22.118630  -22.793950    4.418780
  O     21.490030  -22.645920    5.428040
  O     23.241780  -23.512450    4.405370
  C     19.537850  -19.180260    2.011400
  C     19.482560  -18.167550    2.931040
  C     18.894530  -16.912700    2.675710
  N     18.441510  -15.874370    2.491630
  C     20.111590  -18.216310    4.195560
  N     20.623070  -18.191590    5.221030
  H     -4.891540   -4.391810    5.075620
  H     -6.439840   -4.512210    6.407660
  H     -1.169590   -6.552260    7.580390
  H     -1.338420   -6.204720    1.296160
  H      0.435960   -6.809680   -0.179300
  H      5.846050   -9.797990   -0.728540
  H     11.805950  -14.920060    3.530090
  H     16.794570  -18.467740    2.564710
  H     18.125760  -18.561660   -1.095450
  H     20.648720  -20.673230    4.285520
  H     21.594220  -22.432210   -0.271570
  H     23.660360  -23.621870    3.538930

 Total Charge           Charge          ....    0
 Multiplicity           Mult            ....    1
 Number of Electrons    NEL             ....  588
 Basis Dimension        Dim             .... 1232

ORBITAL ENERGIES
----------------

  NO   OCC          E(Eh)            E(eV)
   0   2.0000     -89.016447     -2422.2607
   1   2.0000     -89.015935     -2422.2467
   2   2.0000     -89.014047     -2422.1954
   3   2.0000     -89.010108     -2422.0882
   4   2.0000     -88.998314     -2421.7672
   5   2.0000     -88.997082     -2421.7337
   6   2.0000     -19.280935      -524.6609
   7   2.0000     -19.275132      -524.5030
   8   2.0000     -19.251707      -523.8656
   9   2.0000     -19.240626      -523.5641
  10   2.0000     -19.220133      -523.0064
  11   2.0000     -19.216052      -522.8953
  12   2.0000     -14.450785      -393.2259
  13   2.0000     -14.450360      -393.2143
  14   2.0000     -14.448430      -393.1618
  15   2.0000     -14.447511      -393.1368
  16   2.0000     -14.446250      -393.1024
  17   2.0000     -14.445787      -393.0898
  18   2.0000     -14.445185      -393.0735
  19   2.0000     -14.441053      -392.9610
  20   2.0000     -14.440137      -392.9361
  21   2.0000     -14.438476      -392.8909
  22   2.0000     -14.430208      -392.6659
  23   2.0000     -14.417213      -392.3123
  24   2.0000     -10.426179      -283.7107
  25   2.0000     -10.424415      -283.6628
  26   2.0000     -10.399908      -282.9959
  27   2.0000     -10.391772      -282.7745
  28   2.0000     -10.384436      -282.5749
  29   2.0000     -10.384220      -282.5690
  30   2.0000     -10.379948      -282.4527
  31   2.0000     -10.379769      -282.4479
  32   2.0000     -10.370969      -282.2084
  33   2.0000     -10.370566      -282.1974
  34   2.0000     -10.370419      -282.1934
  35   2.0000     -10.368525      -282.1419
  36   2.0000     -10.368401      -282.1385
  37   2.0000     -10.364623      -282.0357
  38   2.0000     -10.362513      -281.9783
  39   2.0000     -10.362039      -281.9654
  40   2.0000     -10.358936      -281.8810
  41   2.0000     -10.358106      -281.8584
  42   2.0000     -10.356968      -281.8274
  43   2.0000     -10.356662      -281.8191
  44   2.0000     -10.356511      -281.8150
  45   2.0000     -10.355743      -281.7941
  46   2.0000     -10.352507      -281.7060
  47   2.0000     -10.350949      -281.6636
  48   2.0000     -10.350538      -281.6525
  49   2.0000     -10.347467      -281.5689
  50   2.0000     -10.347172      -281.5609
  51   2.0000     -10.346668      -281.5472
  52   2.0000     -10.345899      -281.5262
  53   2.0000     -10.345500      -281.5154
  54   2.0000     -10.345329      -281.5107
  55   2.0000     -10.345208      -281.5074
  56   2.0000     -10.344438      -281.4865
  57   2.0000     -10.343833      -281.4700
  58   2.0000     -10.343735      -281.4673
  59   2.0000     -10.343703      -281.4665
  60   2.0000     -10.343549      -281.4623
  61   2.0000     -10.341505      -281.4066
  62   2.0000     -10.340319      -281.3744
  63   2.0000     -10.338383      -281.3217
  64   2.0000     -10.337493      -281.2975
  65   2.0000     -10.337181      -281.2890
  66   2.0000     -10.335720      -281.2492
  67   2.0000     -10.333967      -281.2015
  68   2.0000     -10.332215      -281.1539
  69   2.0000     -10.331265      -281.1280
  70   2.0000     -10.330977      -281.1202
  71   2.0000     -10.329643      -281.0839
  72   2.0000     -10.328884      -281.0632
  73   2.0000     -10.326655      -281.0026
  74   2.0000     -10.326402      -280.9957
  75   2.0000     -10.325866      -280.9811
  76   2.0000     -10.325860      -280.9809
  77   2.0000     -10.324315      -280.9389
  78   2.0000     -10.323907      -280.9278
  79   2.0000     -10.322627      -280.8930
  80   2.0000     -10.321189      -280.8538
  81   2.0000     -10.316905      -280.7373
  82   2.0000      -8.111105      -220.7144
  83   2.0000      -8.110659      -220.7022
  84   2.0000      -8.108817      -220.6521
  85   2.0000      -8.102639      -220.4840
  86   2.0000      -8.094252      -220.2558
  87   2.0000      -8.093160      -220.2261
  88   2.0000      -6.080319      -165.4539
  89   2.0000      -6.079885      -165.4421
  90   2.0000      -6.077979      -165.3902
  91   2.0000      -6.076168      -165.3410
  92   2.0000      -6.075747      -165.3295
  93   2.0000      -6.073807      -165.2767
  94   2.0000      -6.073485      -165.2679
  95   2.0000      -6.073001      -165.2548
  96   2.0000      -6.072067      -165.2293
  97   2.0000      -6.071287      -165.2081
  98   2.0000      -6.067303      -165.0997
  99   2.0000      -6.065135      -165.0407
 100   2.0000      -6.063409      -164.9937
 101   2.0000      -6.062319      -164.9641
 102   2.0000      -6.059711      -164.8931
 103   2.0000      -6.058637      -164.8639
 104   2.0000      -6.055986      -164.7918
 105   2.0000      -6.054849      -164.7608
 106   2.0000      -1.205181       -32.7946
 107   2.0000      -1.201312       -32.6894
 108   2.0000      -1.167571       -31.7712
 109   2.0000      -1.156660       -31.4743
 110   2.0000      -1.123305       -30.5667
 111   2.0000      -1.120388       -30.4873
 112   2.0000      -1.115507       -30.3545
 113   2.0000      -1.084295       -29.5052
 114   2.0000      -1.067909       -29.0593
 115   2.0000      -1.066186       -29.0124
 116   2.0000      -1.047489       -28.5036
 117   2.0000      -1.044509       -28.4225
 118   2.0000      -1.038865       -28.2689
 119   2.0000      -1.038492       -28.2588
 120   2.0000      -1.035487       -28.1770
 121   2.0000      -1.029661       -28.0185
 122   2.0000      -1.024432       -27.8762
 123   2.0000      -1.023742       -27.8574
 124   2.0000      -1.022103       -27.8128
 125   2.0000      -1.021251       -27.7896
 126   2.0000      -1.020493       -27.7690
 127   2.0000      -1.019037       -27.7294
 128   2.0000      -1.010607       -27.5000
 129   2.0000      -1.005315       -27.3560
 130   2.0000      -0.986512       -26.8444
 131   2.0000      -0.984340       -26.7853
 132   2.0000      -0.979225       -26.6461
 133   2.0000      -0.977924       -26.6107
 134   2.0000      -0.948230       -25.8026
 135   2.0000      -0.942854       -25.6564
 136   2.0000      -0.937620       -25.5139
 137   2.0000      -0.932065       -25.3628
 138   2.0000      -0.927898       -25.2494
 139   2.0000      -0.916407       -24.9367
 140   2.0000      -0.911617       -24.8064
 141   2.0000      -0.910873       -24.7861
 142   2.0000      -0.904584       -24.6150
 143   2.0000      -0.901874       -24.5413
 144   2.0000      -0.892743       -24.2928
 145   2.0000      -0.891926       -24.2705
 146   2.0000      -0.880134       -23.9497
 147   2.0000      -0.878089       -23.8940
 148   2.0000      -0.874438       -23.7947
 149   2.0000      -0.858083       -23.3496
 150   2.0000      -0.844432       -22.9782
 151   2.0000      -0.827294       -22.5118
 152   2.0000      -0.812000       -22.0956
 153   2.0000      -0.809719       -22.0336
 154   2.0000      -0.798899       -21.7392
 155   2.0000      -0.798188       -21.7198
 156   2.0000      -0.790685       -21.5156
 157   2.0000      -0.775009       -21.0891
 158   2.0000      -0.758753       -20.6467
 159   2.0000      -0.757578       -20.6147
 160   2.0000      -0.748756       -20.3747
 161   2.0000      -0.735765       -20.0212
 162   2.0000      -0.725622       -19.7452
 163   2.0000      -0.724693       -19.7199
 164   2.0000      -0.723403       -19.6848
 165   2.0000      -0.721099       -19.6221
 166   2.0000      -0.718481       -19.5509
 167   2.0000      -0.713335       -19.4108
 168   2.0000      -0.709948       -19.3187
 169   2.0000      -0.705441       -19.1960
 170   2.0000      -0.703292       -19.1375
 171   2.0000      -0.696892       -18.9634
 172   2.0000      -0.692136       -18.8340
 173   2.0000      -0.689330       -18.7576
 174   2.0000      -0.681471       -18.5438
 175   2.0000      -0.672946       -18.3118
 176   2.0000      -0.666647       -18.1404
 177   2.0000      -0.663339       -18.0504
 178   2.0000      -0.658350       -17.9146
 179   2.0000      -0.653374       -17.7792
 180   2.0000      -0.649953       -17.6861
 181   2.0000      -0.641256       -17.4495
 182   2.0000      -0.638924       -17.3860
 183   2.0000      -0.637234       -17.3400
 184   2.0000      -0.628373       -17.0989
 185   2.0000      -0.619881       -16.8678
 186   2.0000      -0.615551       -16.7500
 187   2.0000      -0.614949       -16.7336
 188   2.0000      -0.603499       -16.4220
 189   2.0000      -0.601854       -16.3773
 190   2.0000      -0.595750       -16.2112
 191   2.0000      -0.589114       -16.0306
 192   2.0000      -0.577306       -15.7093
 193   2.0000      -0.576441       -15.6858
 194   2.0000      -0.575152       -15.6507
 195   2.0000      -0.572907       -15.5896
 196   2.0000      -0.571253       -15.5446
 197   2.0000      -0.569221       -15.4893
 198   2.0000      -0.566223       -15.4077
 199   2.0000      -0.565369       -15.3845
 200   2.0000      -0.564607       -15.3637
 201   2.0000      -0.559964       -15.2374
 202   2.0000      -0.559174       -15.2159
 203   2.0000      -0.554844       -15.0981
 204   2.0000      -0.554375       -15.0853
 205   2.0000      -0.549613       -14.9557
 206   2.0000      -0.548593       -14.9280
 207   2.0000      -0.544372       -14.8131
 208   2.0000      -0.540377       -14.7044
 209   2.0000      -0.539189       -14.6721
 210   2.0000      -0.536652       -14.6031
 211   2.0000      -0.533545       -14.5185
 212   2.0000      -0.531499       -14.4628
 213   2.0000      -0.530281       -14.4297
 214   2.0000      -0.528469       -14.3804
 215   2.0000      -0.524873       -14.2825
 216   2.0000      -0.524362       -14.2686
 217   2.0000      -0.523696       -14.2505
 218   2.0000      -0.521668       -14.1953
 219   2.0000      -0.520634       -14.1672
 220   2.0000      -0.515964       -14.0401
 221   2.0000      -0.514692       -14.0055
 222   2.0000      -0.512657       -13.9501
 223   2.0000      -0.508993       -13.8504
 224   2.0000      -0.508035       -13.8243
 225   2.0000      -0.503621       -13.7042
 226   2.0000      -0.499660       -13.5964
 227   2.0000      -0.498189       -13.5564
 228   2.0000      -0.495169       -13.4742
 229   2.0000      -0.493968       -13.4415
 230   2.0000      -0.487995       -13.2790
 231   2.0000      -0.486299       -13.2329
 232   2.0000      -0.479427       -13.0459
 233   2.0000      -0.478439       -13.0190
 234   2.0000      -0.476301       -12.9608
 235   2.0000      -0.475271       -12.9328
 236   2.0000      -0.474986       -12.9250
 237   2.0000      -0.474299       -12.9063
 238   2.0000      -0.473811       -12.8931
 239   2.0000      -0.472628       -12.8609
 240   2.0000      -0.471413       -12.8278
 241   2.0000      -0.469663       -12.7802
 242   2.0000      -0.468903       -12.7595
 243   2.0000      -0.467416       -12.7190
 244   2.0000      -0.466454       -12.6929
 245   2.0000      -0.464923       -12.6512
 246   2.0000      -0.461409       -12.5556
 247   2.0000      -0.458419       -12.4742
 248   2.0000      -0.457964       -12.4618
 249   2.0000      -0.455557       -12.3963
 250   2.0000      -0.455359       -12.3909
 251   2.0000      -0.455046       -12.3824
 252   2.0000      -0.454745       -12.3742
 253   2.0000      -0.453518       -12.3408
 254   2.0000      -0.451240       -12.2789
 255   2.0000      -0.449809       -12.2399
 256   2.0000      -0.446204       -12.1418
 257   2.0000      -0.445868       -12.1327
 258   2.0000      -0.444477       -12.0948
 259   2.0000      -0.444206       -12.0875
 260   2.0000      -0.443698       -12.0736
 261   2.0000      -0.442439       -12.0394
 262   2.0000      -0.441047       -12.0015
 263   2.0000      -0.440285       -11.9808
 264   2.0000      -0.432522       -11.7695
 265   2.0000      -0.429017       -11.6742
 266   2.0000      -0.428511       -11.6604
 267   2.0000      -0.426551       -11.6070
 268   2.0000      -0.426140       -11.5959
 269   2.0000      -0.421295       -11.4640
 270   2.0000      -0.411298       -11.1920
 271   2.0000      -0.409283       -11.1372
 272   2.0000      -0.407271       -11.0824
 273   2.0000      -0.405724       -11.0403
 274   2.0000      -0.400884       -10.9086
 275   2.0000      -0.384380       -10.4595
 276   2.0000      -0.382051       -10.3961
 277   2.0000      -0.380954       -10.3663
 278   2.0000      -0.375325       -10.2131
 279   2.0000      -0.371802       -10.1172
 280   2.0000      -0.371207       -10.1010
 281   2.0000      -0.368888       -10.0379
 282   2.0000      -0.366376        -9.9696
 283   2.0000      -0.364649        -9.9226
 284   2.0000      -0.364387        -9.9155
 285   2.0000      -0.361575        -9.8390
 286   2.0000      -0.354507        -9.6466
 287   2.0000      -0.345321        -9.3967
 288   2.0000      -0.343151        -9.3376
 289   2.0000      -0.340971        -9.2783
 290   2.0000      -0.339053        -9.2261
 291   2.0000      -0.321827        -8.7573
 292   2.0000      -0.294403        -8.0111
 293   2.0000      -0.267982        -7.2922
 294   0.0000      -0.135999        -3.7007
 295   0.0000      -0.128146        -3.4870
 296   0.0000      -0.111185        -3.0255
 297   0.0000      -0.109347        -2.9755
 298   0.0000      -0.099388        -2.7045

MULLIKEN ATOMIC CHARGES
-----------------------
   0 C :   -0.083429
   1 C :    0.008818
   2 C :    0.183666
   3 O :   -0.144487
   4 O :   -0.139722
   5 C :   -0.070410
   6 C :   -0.159458
   7 N :    0.144396
   8 C :   -0.033824
   9 C :   -0.001367
  10 C :    0.037762
  11 C :    0.312604
  12 C :   -0.329672
  13 C :   -0.182360
  14 N :    0.150443
  15 C :   -0.192861
  16 N :    0.168096
  17 C :   -0.101983
  18 C :    0.177440
  19 O :   -0.173995
  20 C :   -0.027178
  21 C :   -0.052443
  22 C :   -0.051866
  23 C :    0.044368
  24 C :   -0.065710
  25 S :    0.249421
  26 C :   -0.101539
  27 C :    0.022790
  28 C :    0.305285
  29 C :   -0.287164
  30 C :   -0.192017
  31 N :    0.187795
  32 C :   -0.193517
  33 N :    0.188300
  34 C :   -0.037922
  35 C :   -0.033102
  36 S :    0.219889
  37 C :   -0.112119
  38 N :   -0.024774
  39 C :   -0.050484
  40 C :   -0.051894
  41 S :    0.144883
  42 N :   -0.022610
  43 C :   -0.109274
  44 S :    0.136725
  45 C :   -0.033803
  46 C :   -0.032964
  47 C :    0.020059
  48 C :   -0.100768
  49 S :    0.211471
  50 C :   -0.066671
  51 C :   -0.005802
  52 C :    0.301020
  53 C :   -0.274722
  54 C :   -0.182706
  55 N :    0.173477
  56 C :   -0.189974
  57 N :    0.189652
  58 C :    0.001462
  59 C :   -0.110236
  60 S :    0.221272
  61 C :    0.087630
  62 C :   -0.142664
  63 C :    0.144173
  64 O :   -0.130498
  65 C :    0.017911
  66 C :    0.045309
  67 C :   -0.065338
  68 C :   -0.000037
  69 C :   -0.049888
  70 C :   -0.032928
  71 C :   -0.221616
  72 N :    0.133149
  73 C :    0.172481
  74 O :   -0.155319
  75 O :   -0.131477
  76 C :    0.265144
  77 C :   -0.312663
  78 C :   -0.198869
  79 N :    0.175729
  80 C :   -0.175341
  81 N :    0.186897
  82 H :   -0.000026
  83 H :    0.192168
  84 H :    0.017314
  85 H :    0.025892
  86 H :    0.030530
  87 H :    0.027003
  88 H :    0.026683
  89 H :    0.025869
  90 H :    0.026525
  91 H :    0.038638
  92 H :    0.018260
  93 H :    0.183094
Sum of atomic charges:   -0.0000000

LOEWDIN ATOMIC CHARGES
----------------------
   0 C :   -0.000869
   1 C :   -0.035739
   2 C :    0.080241
   3 O :   -0.117045
   4 O :   -0.012555
   5 C :   -0.022105
   6 C :   -0.034922
   7 N :   -0.021741
   8 C :    0.049512
   9 C :   -0.031684
  10 C :    0.001739
  11 C :    0.072766
  12 C :   -0.130625
  13 C :   -0.016136
  14 N :   -0.049551
  15 C :   -0.024952
  16 N :   -0.033134
  17 C :   -0.117245
  18 C :    0.086172
  19 O :   -0.160572
  20 C :    0.062455
  21 C :   -0.184126
  22 C :    0.018630
  23 C :   -0.074571
  24 C :   -0.160774
  25 S :    0.549382
  26 C :   -0.185804
  27 C :   -0.049827
  28 C :    0.073596
  29 C :   -0.091258
  30 C :   -0.019040
  31 N :   -0.019753
  32 C :   -0.019434
  33 N :   -0.018856
  34 C :   -0.002067
  35 C :   -0.186296
  36 S :    0.491273
  37 C :   -0.135819
  38 N :   -0.089514
  39 C :   -0.207168
  40 C :   -0.205259
  41 S :    0.416566
  42 N :   -0.091145
  43 C :   -0.132307
  44 S :    0.412103
  45 C :   -0.190074
  46 C :    0.001336
  47 C :   -0.053061
  48 C :   -0.181936
  49 S :    0.488436
  50 C :   -0.157096
  51 C :   -0.063057
  52 C :    0.077381
  53 C :   -0.087664
  54 C :   -0.012144
  55 N :   -0.025035
  56 C :   -0.019514
  57 N :   -0.016930
  58 C :    0.015134
  59 C :   -0.181594
  60 S :    0.504650
  61 C :    0.048170
  62 C :   -0.097587
  63 C :    0.083742
  64 O :   -0.130237
  65 C :   -0.035493
  66 C :    0.007157
  67 C :    0.037426
  68 C :   -0.030068
  69 C :   -0.056064
  70 C :    0.048401
  71 C :   -0.042869
  72 N :   -0.027290
  73 C :    0.081576
  74 O :   -0.133696
  75 O :   -0.007857
  76 C :    0.057421
  77 C :   -0.118768
  78 C :   -0.014082
  79 N :   -0.033850
  80 C :   -0.025012
  81 N :   -0.022358
  82 H :    0.035863
  83 H :    0.099777
  84 H :    0.053457
  85 H :    0.055471
  86 H :    0.049419
  87 H :    0.049534
  88 H :    0.050336
  89 H :    0.043323
  90 H :    0.048154
  91 H :    0.053373
  92 H :    0.052871
  93 H :    0.088384

  Mayer bond orders larger than 0.100000
B(  0-C ,  1-C ) :   1.3213 B(  0-C , 10-C ) :   1.3932 B(  0-C , 82-H ) :   0.9615
B(  1-C ,  2-C ) :   0.8673 B(  1-C ,  5-C ) :   1.3960 B(  2-C ,  3-O ) :   2.1678
B(  2-C ,  4-O ) :   1.2583 B(  4-O , 83-H ) :   0.9458 B(  5-C ,  6-C ) :   1.0671
B(  5-C ,  8-C ) :   1.3607 B(  6-C ,  7-N ) :   3.0375 B(  8-C ,  9-C ) :   1.3527
B(  8-C , 84-H ) :   1.0163 B(  9-C , 10-C ) :   1.3438 B(  9-C , 18-C ) :   0.9401
B( 10-C , 11-C ) :   0.9746 B( 11-C , 12-C ) :   1.6421 B( 11-C , 17-C ) :   1.0845
B( 12-C , 13-C ) :   1.1446 B( 12-C , 15-C ) :   1.1367 B( 13-C , 14-N ) :   2.9711
B( 15-C , 16-N ) :   2.9776 B( 17-C , 18-C ) :   0.9899 B( 17-C , 20-C ) :   1.4696
B( 18-C , 19-O ) :   2.1312 B( 20-C , 21-C ) :   1.2869 B( 20-C , 85-H ) :   0.9440
B( 21-C , 22-C ) :   1.3131 B( 21-C , 25-S ) :   1.0660 B( 22-C , 23-C ) :   1.3443
B( 22-C , 86-H ) :   1.0074 B( 23-C , 24-C ) :   1.3452 B( 23-C , 28-C ) :   0.9859
B( 24-C , 25-S ) :   1.1353 B( 24-C , 26-C ) :   1.2160 B( 26-C , 27-C ) :   1.4142
B( 26-C , 36-S ) :   1.1252 B( 27-C , 28-C ) :   0.9913 B( 27-C , 34-C ) :   1.2815
B( 28-C , 29-C ) :   1.7261 B( 29-C , 30-C ) :   1.1331 B( 29-C , 32-C ) :   1.1349
B( 30-C , 31-N ) :   2.9971 B( 32-C , 33-N ) :   2.9923 B( 34-C , 35-C ) :   1.4582
B( 34-C , 87-H ) :   1.0095 B( 35-C , 36-S ) :   1.1182 B( 35-C , 37-C ) :   1.1078
B( 37-C , 38-N ) :   1.7230 B( 37-C , 41-S ) :   1.0847 B( 38-N , 39-C ) :   1.4070
B( 38-N , 41-S ) :   0.1025 B( 39-C , 40-C ) :   1.2836 B( 39-C , 44-S ) :   1.1028
B( 40-C , 41-S ) :   1.1045 B( 40-C , 42-N ) :   1.4022 B( 42-N , 43-C ) :   1.7284
B( 42-N , 44-S ) :   0.1015 B( 43-C , 44-S ) :   1.0834 B( 43-C , 45-C ) :   1.1071
B( 45-C , 46-C ) :   1.4620 B( 45-C , 49-S ) :   1.1135 B( 46-C , 47-C ) :   1.2832
B( 46-C , 88-H ) :   1.0106 B( 47-C , 48-C ) :   1.4236 B( 47-C , 52-C ) :   0.9858
B( 48-C , 49-S ) :   1.1299 B( 48-C , 50-C ) :   1.2030 B( 50-C , 51-C ) :   1.4027
B( 50-C , 60-S ) :   1.1587 B( 51-C , 52-C ) :   0.9995 B( 51-C , 58-C ) :   1.3696
B( 52-C , 53-C ) :   1.7284 B( 53-C , 54-C ) :   1.1315 B( 53-C , 56-C ) :   1.1311
B( 54-C , 55-N ) :   2.9806 B( 56-C , 57-N ) :   2.9989 B( 58-C , 59-C ) :   1.3764
B( 58-C , 89-H ) :   0.9773 B( 59-C , 60-S ) :   1.0873 B( 59-C , 61-C ) :   1.1596
B( 61-C , 62-C ) :   1.6451 B( 61-C , 90-H ) :   0.9262 B( 62-C , 63-C ) :   0.9537
B( 62-C , 76-C ) :   1.0417 B( 63-C , 64-O ) :   2.2699 B( 63-C , 65-C ) :   0.9018
B( 65-C , 66-C ) :   1.3330 B( 65-C , 70-C ) :   1.3794 B( 66-C , 67-C ) :   1.3321
B( 66-C , 76-C ) :   0.9835 B( 67-C , 68-C ) :   1.3763 B( 67-C , 91-H ) :   0.9918
B( 68-C , 69-C ) :   1.3539 B( 68-C , 73-C ) :   0.8595 B( 69-C , 70-C ) :   1.3543
B( 69-C , 71-C ) :   1.0591 B( 70-C , 92-H ) :   1.0123 B( 71-C , 72-N ) :   2.9938
B( 73-C , 74-O ) :   2.1788 B( 73-C , 75-O ) :   1.2734 B( 75-O , 93-H ) :   0.9386
B( 76-C , 77-C ) :   1.6670 B( 77-C , 78-C ) :   1.1737 B( 77-C , 80-C ) :   1.1224
B( 78-C , 79-N ) :   2.9905 B( 80-C , 81-N ) :   3.0031

-----------------------------------------------------------------------------
         ABSORPTION SPECTRUM VIA TRANSITION ELECTRIC DIPOLE MOMENTS
-----------------------------------------------------------------------------
State   Energy  Wavelength   fosc         T2         TX        TY        TZ
        (cm-1)    (nm)                  (au**2)     (au)      (au)      (au)
-----------------------------------------------------------------------------
   0   13303.1    751.7   1.138149542  28.16572  -4.52431   2.75744   0.30475
   1   14593.0    685.3   0.077596438   1.75054  -1.13697   0.56262   0.37591
   2   19284.7    518.5   1.520094425  25.94970   4.45830  -2.46147  -0.12012
   3   20495.0    487.9   0.265871819   4.27072   1.55896  -0.91719  -0.99956
   4   22183.0    450.8   0.012362099   0.18346  -0.20412   0.08519   0.36680
   5   22864.9    437.4   0.039777628   0.57272   0.23315  -0.71374  -0.09453
   6   23870.6    418.9   0.168103630   2.31840   1.13634  -0.47492  -0.89531
   7   24794.1    403.3   0.328776353   4.36544  -1.62548   1.31178  -0.04986
   8   27216.0    367.4   0.175920646   2.12798  -0.57844   0.76846  -1.09675
   9   28222.7    354.3   0.007267426   0.08477  -0.26899  -0.09938  -0.05038
  10   28479.6    351.1   0.056820098   0.65681   0.34905  -0.72217  -0.11595
  11   28883.3    346.2   0.089899678   1.02468   0.94174  -0.36306   0.07741
  12   29153.1    343.0   0.231733067   2.61685  -0.77233   0.65452  -1.26173
  13   29490.3    339.1   0.104174443   1.16294  -0.53755   0.03268   0.93430
  14   29642.3    337.4   0.061203445   0.67974   0.12372   0.32338  -0.74824
  15   30044.3    332.8   0.185043521   2.02762  -0.40593  -0.14873   1.35673
  16   30307.5    330.0   0.010787292   0.11718   0.02183   0.26702  -0.21307
  17   30959.6    323.0   0.080800368   0.85920   0.22181  -0.20285   0.87684
  18   31417.1    318.3   0.095449278   1.00019   0.29526  -0.59335  -0.74896
  19   31770.9    314.8   0.038950212   0.40360   0.16271  -0.23757   0.56629
  20   31871.2    313.8   0.033557744   0.34663   0.20937  -0.53056  -0.14596
  21   32135.2    311.2   0.281371017   2.88253   0.48637  -0.49815   1.54849
  22   32637.1    306.4   0.236015886   2.38071  -1.26722   0.77466   0.41803
  23   32799.8    304.9   0.018258387   0.18326  -0.19164   0.32784  -0.19763
  24   32925.1    303.7   0.167345883   1.67326  -0.50272   0.39294   1.12522
  25   33309.9    300.2   0.050785113   0.50192   0.38132  -0.59093  -0.08559
  26   33415.1    299.3   0.271674284   2.67658   1.05343  -0.50312  -1.14619
  27   33922.2    294.8   0.065510449   0.63577  -0.15310   0.70116  -0.34743
  28   34138.1    292.9   0.044232685   0.42656  -0.15580   0.28428   0.56698
  29   34439.2    290.4   0.235198745   2.24832   0.25809   0.27242   1.45172
  30   34631.0    288.8   0.634183815   6.02872   0.20518  -1.16368   2.15232
  31   34844.6    287.0   0.084659728   0.79987  -0.55151   0.38068  -0.59227
  32   34911.5    286.4   0.021006871   0.19809  -0.23049   0.37545   0.06328
  33   35047.7    285.3   0.434128184   4.07787   0.64433  -0.94788  -1.66260
  34   35477.3    281.9   0.070790345   0.65690   0.25943  -0.20245   0.74068
  35   35580.4    281.1   0.058300211   0.53943  -0.38814   0.36462  -0.50579
  36   36486.7    274.1   0.108854242   0.98217   0.39990  -0.76257  -0.49066
  37   36630.2    273.0   0.058336660   0.52430  -0.36893   0.26031   0.56606
  38   36742.2    272.2   0.033778701   0.30266  -0.15010   0.18611   0.49547
  39   36858.5    271.3   0.016322165   0.14579   0.34398  -0.16454  -0.01986
  40   36902.9    271.0   0.247589724   2.20875  -0.32354   0.80288   1.20808
  41   37124.2    269.4   0.056342855   0.49964  -0.10386   0.53804  -0.44650
  42   37296.2    268.1   0.053517791   0.47240   0.47822  -0.35832   0.33958
  43   37637.0    265.7   0.017679834   0.15465  -0.18664   0.32790   0.11086
  44   37682.1    265.4   0.011258056   0.09836   0.24411  -0.12026  -0.15590
  45   37723.9    265.1   0.002541137   0.02218   0.07042  -0.12429   0.04207
  46   37744.7    264.9   0.050240518   0.43820  -0.28000   0.23651  -0.55124
  47   37819.2    264.4   0.009850528   0.08575   0.03842   0.07671   0.27998
  48   38011.3    263.1   0.064742049   0.56072  -0.41076   0.18955   0.59671
  49   38077.8    262.6   0.001502643   0.01299   0.01367   0.07150   0.08771
  50   38563.2    259.3   0.125856394   1.07443   0.91379  -0.41722   0.25561
  51   38892.9    257.1   0.032617036   0.27609  -0.06260   0.10253  -0.51153
  52   38958.5    256.7   0.014452625   0.12213  -0.25151  -0.24256   0.00571
  53   39074.9    255.9   0.022407552   0.18879   0.21158  -0.33220   0.18348
  54   39423.6    253.7   0.039767613   0.33208   0.45036  -0.33202   0.13791
  55   39472.7    253.3   0.008267979   0.06896  -0.09201   0.23596   0.06937
  56   39524.8    253.0   0.009569304   0.07971   0.13360  -0.02430   0.24752
  57   39860.0    250.9   0.181885917   1.50224  -0.97882   0.67855  -0.28935
  58   40005.4    250.0   0.030393959   0.25012   0.41083  -0.21252   0.19019
  59   40117.2    249.3   0.021953876   0.18016   0.23733  -0.30615   0.17351

FINAL SINGLE POINT ENERGY     -5709.823647247924

DIPOLE MOMENT
-------------
                                X             Y             Z
Electronic contribution:      0.43067       4.01257      -5.93935
Nuclear contribution   :      0.13395      -4.66704       2.30482
                        -----------------------------------------
Total Dipole Moment    :      0.56463      -0.65447      -3.63454
                        -----------------------------------------
Magnitude (a.u.)       :      3.73590
Magnitude (Debye)      :      9.49591

Rotational constants in cm-1:     0.001938     0.000121     0.000115
Rotational constants in MHz :    58.093193     3.634271     3.449641

                             ****ORCA TERMINATED NORMALLY****
TOTAL RUN TIME: 0 days 0 hours 9 minutes 57 seconds 508 msec
