                         Program Version 4.2.0 -  RELEASE  -
|  1> # ORCA input file
|  2> # SCF done       -187.766074811524          0.000603159850
|  3> ! CAM-B3LYP def2-SVP def2/J RIJCOSX Grid4 TightSCF
|  4> %maxcore 5000
|  5> %tddft
|  6>     Mode sTDDFT
|  7>     Ethresh 5.0
|  8>     maxcore 5000
|  9> end
| 10>
| 11> %pal
| 12>   nprocs 6
| 13>   end
| 14> * xyz 0 1
| 15>    C       -0.57012         1.04101        -0.72992
| 16>    N        0.18453         0.32377        -1.56285
| 17>    C        0.09261        -0.97845        -1.42880
| 18>    C       -0.76009        -1.54399        -0.45844
| 19>    N       -1.47690        -0.73507         0.32989
| 20>    N       -1.37549         0.55071         0.18876
| 21>    C       -0.90344        -2.96147        -0.27063
| 22>    C       -1.68271        -3.58099         0.66071
| 23>    C       -1.62172        -4.99500         0.59686
| 24>    C       -0.73334        -5.43911        -0.41606
| 25>    S       -0.03131        -4.09772        -1.28110
| 26>    C       -0.50419        -6.77721        -0.69374
| 27>    C        0.39068        -7.20937        -1.77586
| 28>    C        1.69378        -6.72411        -1.84953
| 29>    C        2.53822        -7.13777        -2.85987
| 30>    C        2.10854        -8.03974        -3.82718
| 31>    C        0.80567        -8.51477        -3.75534
| 32>    C       -0.04466        -8.10889        -2.74429
| 33>    C        3.04244        -8.48759        -4.90926
| 34>    C       -1.17592        -7.70677         0.11632
| 35>    C       -2.03338        -7.26458         1.15583
| 36>    C       -2.29884        -5.92702         1.40280
| 37>    C       -3.26510        -5.50078         2.42327
| 38>    C       -3.18250        -5.97245         3.72908
| 39>    C       -4.10939        -5.57913         4.67598
| 40>    C       -5.14509        -4.71541         4.34627
| 41>    C       -5.22770        -4.25016         3.03789
| 42>    C       -4.30210        -4.63233         2.08866
| 43>    C       -6.15164        -4.28023         5.36612
| 44>    S       -2.73021        -8.61434         2.01532
| 45>    C       -1.88578        -9.74790         0.97790
| 46>    C       -1.11404        -9.12052         0.04668
| 47>    C       -2.05366       -11.16426         1.15148
| 48>    C       -2.50648       -11.73575         2.33296
| 49>    N       -2.67273       -13.03358         2.55086
| 50>    C       -2.45320       -13.92118         1.60009
| 51>    C       -1.99871       -13.48590         0.32298
| 52>    C       -1.77285       -12.08256         0.10837
| 53>    N       -1.32928       -11.83432        -1.12383
| 54>    S       -1.20711       -13.22429        -1.92148
| 55>    N       -1.70784       -14.21026        -0.75483
| 56>    C       -2.66839       -15.30618         1.90043
| 57>    C       -2.80029       -16.34320         1.02232
| 58>    C       -3.01012       -17.58985         1.65766
| 59>    C       -3.02298       -17.46417         3.07273
| 60>    S       -2.80118       -15.80476         3.56841
| 61>    C       -3.23069       -18.53969         3.92214
| 62>    C       -3.22691       -18.39093         5.38303
| 63>    C       -4.28001       -18.88059         6.15209
| 64>    C       -4.26607       -18.74314         7.52540
| 65>    C       -3.20288       -18.12180         8.17195
| 66>    C       -2.15754       -17.63047         7.40136
| 67>    C       -2.16804       -17.75708         6.02550
| 68>    C       -3.18816       -18.00597         9.66505
| 69>    C       -3.44250       -19.79057         3.31480
| 70>    C       -3.45948       -19.90952         1.89897
| 71>    C       -3.23591       -18.83695         1.04954
| 72>    C       -3.23556       -18.98448        -0.41163
| 73>    C       -4.30144       -19.60198        -1.06089
| 74>    C       -4.30757       -19.72410        -2.43582
| 75>    C       -3.25173       -19.24293        -3.20201
| 76>    C       -2.18417       -18.63930        -2.55017
| 77>    C       -2.17335       -18.50801        -1.17471
| 78>    C       -3.26691       -19.39262        -4.69243
| 79>    S       -3.72346       -21.55934         1.39573
| 80>    C       -3.77975       -22.07096         3.06235
| 81>    C       -3.61675       -21.04551         3.94691
| 82>    C       -3.98285       -23.45969         3.36426
| 83>    N       -4.12061       -24.30494         2.32918
| 84>    C       -4.29909       -25.56838         2.63897
| 85>    C       -4.33420       -25.96623         3.97785
| 86>    N       -4.19926       -25.07285         4.94396
| 87>    N       -4.02610       -23.82467         4.64788
| 88>    H       -0.51962         2.11687        -0.81754
| 89>    H        0.69375        -1.59375        -2.08668
| 90>    H       -2.26804        -3.02828         1.37239
| 91>    H        2.05100        -6.03620        -1.09724
| 92>    H        3.54940        -6.75851        -2.89933
| 93>    H        0.44933        -9.21182        -4.50050
| 94>    H       -1.05980        -8.47646        -2.71362
| 95>    H        3.50835        -7.62967        -5.39115
| 96>    H        2.51774        -9.07057        -5.66188
| 97>    H        3.83727        -9.10337        -4.48811
| 98>    H       -2.37610        -6.63421         4.00870
| 99>    H       -4.02512        -5.95058         5.68724
|100>    H       -6.03074        -3.58181         2.76169
|101>    H       -4.39419        -4.27887         1.07184
|102>    H       -6.03507        -4.83683         6.29243
|103>    H       -7.16323        -4.42910         4.99182
|104>    H       -6.03121        -3.21892         5.58315
|105>    H       -0.50986        -9.65799        -0.66012
|106>    H       -2.74493       -11.10092         3.17649
|107>    H       -2.76969       -16.20770        -0.04287
|108>    H       -5.12205       -19.35020         5.66479
|109>    H       -5.09217       -19.12444         8.10854
|110>    H       -1.32228       -17.14301         7.88349
|111>    H       -1.33958       -17.38079         5.44430
|112>    H       -2.98707       -18.97950        10.11288
|113>    H       -4.15339       -17.66397        10.03381
|114>    H       -2.41908       -17.31221         9.99502
|115>    H       -5.13841       -19.96642        -0.48424
|116>    H       -5.14643       -20.19743        -2.92576
|117>    H       -1.34927       -18.26590        -3.12623
|118>    H       -1.32689       -18.05091        -0.68360
|119>    H       -4.24371       -19.13084        -5.09501
|120>    H       -3.06101       -20.42763        -4.96627
|121>    H       -2.51373       -18.76038        -5.15612
|122>    H       -3.60787       -21.20009         5.01009
|123>    H       -4.41568       -26.26315         1.81732
|124>    H       -4.47267       -26.99089         4.28588
|125> *
|126>
|127>                          ****END OF INPUT****

CARTESIAN COORDINATES (ANGSTROEM)
---------------------------------
  C     -0.570120    1.041010   -0.729920
  N      0.184530    0.323770   -1.562850
  C      0.092610   -0.978450   -1.428800
  C     -0.760090   -1.543990   -0.458440
  N     -1.476900   -0.735070    0.329890
  N     -1.375490    0.550710    0.188760
  C     -0.903440   -2.961470   -0.270630
  C     -1.682710   -3.580990    0.660710
  C     -1.621720   -4.995000    0.596860
  C     -0.733340   -5.439110   -0.416060
  S     -0.031310   -4.097720   -1.281100
  C     -0.504190   -6.777210   -0.693740
  C      0.390680   -7.209370   -1.775860
  C      1.693780   -6.724110   -1.849530
  C      2.538220   -7.137770   -2.859870
  C      2.108540   -8.039740   -3.827180
  C      0.805670   -8.514770   -3.755340
  C     -0.044660   -8.108890   -2.744290
  C      3.042440   -8.487590   -4.909260
  C     -1.175920   -7.706770    0.116320
  C     -2.033380   -7.264580    1.155830
  C     -2.298840   -5.927020    1.402800
  C     -3.265100   -5.500780    2.423270
  C     -3.182500   -5.972450    3.729080
  C     -4.109390   -5.579130    4.675980
  C     -5.145090   -4.715410    4.346270
  C     -5.227700   -4.250160    3.037890
  C     -4.302100   -4.632330    2.088660
  C     -6.151640   -4.280230    5.366120
  S     -2.730210   -8.614340    2.015320
  C     -1.885780   -9.747900    0.977900
  C     -1.114040   -9.120520    0.046680
  C     -2.053660  -11.164260    1.151480
  C     -2.506480  -11.735750    2.332960
  N     -2.672730  -13.033580    2.550860
  C     -2.453200  -13.921180    1.600090
  C     -1.998710  -13.485900    0.322980
  C     -1.772850  -12.082560    0.108370
  N     -1.329280  -11.834320   -1.123830
  S     -1.207110  -13.224290   -1.921480
  N     -1.707840  -14.210260   -0.754830
  C     -2.668390  -15.306180    1.900430
  C     -2.800290  -16.343200    1.022320
  C     -3.010120  -17.589850    1.657660
  C     -3.022980  -17.464170    3.072730
  S     -2.801180  -15.804760    3.568410
  C     -3.230690  -18.539690    3.922140
  C     -3.226910  -18.390930    5.383030
  C     -4.280010  -18.880590    6.152090
  C     -4.266070  -18.743140    7.525400
  C     -3.202880  -18.121800    8.171950
  C     -2.157540  -17.630470    7.401360
  C     -2.168040  -17.757080    6.025500
  C     -3.188160  -18.005970    9.665050
  C     -3.442500  -19.790570    3.314800
  C     -3.459480  -19.909520    1.898970
  C     -3.235910  -18.836950    1.049540
  C     -3.235560  -18.984480   -0.411630
  C     -4.301440  -19.601980   -1.060890
  C     -4.307570  -19.724100   -2.435820
  C     -3.251730  -19.242930   -3.202010
  C     -2.184170  -18.639300   -2.550170
  C     -2.173350  -18.508010   -1.174710
  C     -3.266910  -19.392620   -4.692430
  S     -3.723460  -21.559340    1.395730
  C     -3.779750  -22.070960    3.062350
  C     -3.616750  -21.045510    3.946910
  C     -3.982850  -23.459690    3.364260
  N     -4.120610  -24.304940    2.329180
  C     -4.299090  -25.568380    2.638970
  C     -4.334200  -25.966230    3.977850
  N     -4.199260  -25.072850    4.943960
  N     -4.026100  -23.824670    4.647880
  H     -0.519620    2.116870   -0.817540
  H      0.693750   -1.593750   -2.086680
  H     -2.268040   -3.028280    1.372390
  H      2.051000   -6.036200   -1.097240
  H      3.549400   -6.758510   -2.899330
  H      0.449330   -9.211820   -4.500500
  H     -1.059800   -8.476460   -2.713620
  H      3.508350   -7.629670   -5.391150
  H      2.517740   -9.070570   -5.661880
  H      3.837270   -9.103370   -4.488110
  H     -2.376100   -6.634210    4.008700
  H     -4.025120   -5.950580    5.687240
  H     -6.030740   -3.581810    2.761690
  H     -4.394190   -4.278870    1.071840
  H     -6.035070   -4.836830    6.292430
  H     -7.163230   -4.429100    4.991820
  H     -6.031210   -3.218920    5.583150
  H     -0.509860   -9.657990   -0.660120
  H     -2.744930  -11.100920    3.176490
  H     -2.769690  -16.207700   -0.042870
  H     -5.122050  -19.350200    5.664790
  H     -5.092170  -19.124440    8.108540
  H     -1.322280  -17.143010    7.883490
  H     -1.339580  -17.380790    5.444300
  H     -2.987070  -18.979500   10.112880
  H     -4.153390  -17.663970   10.033810
  H     -2.419080  -17.312210    9.995020
  H     -5.138410  -19.966420   -0.484240
  H     -5.146430  -20.197430   -2.925760
  H     -1.349270  -18.265900   -3.126230
  H     -1.326890  -18.050910   -0.683600
  H     -4.243710  -19.130840   -5.095010
  H     -3.061010  -20.427630   -4.966270
  H     -2.513730  -18.760380   -5.156120
  H     -3.607870  -21.200090    5.010090
  H     -4.415680  -26.263150    1.817320
  H     -4.472670  -26.990890    4.285880

 Total Charge           Charge          ....    0
 Multiplicity           Mult            ....    1
 Number of Electrons    NEL             ....  534
 Basis Dimension        Dim             .... 1227

ORBITAL ENERGIES
----------------

  NO   OCC          E(Eh)            E(eV)
   0   2.0000     -89.033516     -2422.7251
   1   2.0000     -88.949127     -2420.4288
   2   2.0000     -88.943989     -2420.2890
   3   2.0000     -88.940228     -2420.1866
   4   2.0000     -88.937295     -2420.1068
   5   2.0000     -14.452940      -393.2845
   6   2.0000     -14.450517      -393.2186
   7   2.0000     -14.449801      -393.1991
   8   2.0000     -14.445179      -393.0733
   9   2.0000     -14.441697      -392.9786
  10   2.0000     -14.440541      -392.9471
  11   2.0000     -14.431159      -392.6918
  12   2.0000     -14.429803      -392.6549
  13   2.0000     -14.412233      -392.1768
  14   2.0000     -10.352569      -281.7077
  15   2.0000     -10.335236      -281.2361
  16   2.0000     -10.334720      -281.2220
  17   2.0000     -10.332590      -281.1641
  18   2.0000     -10.332366      -281.1580
  19   2.0000     -10.331284      -281.1285
  20   2.0000     -10.330187      -281.0987
  21   2.0000     -10.329392      -281.0770
  22   2.0000     -10.315778      -280.7066
  23   2.0000     -10.311449      -280.5888
  24   2.0000     -10.301651      -280.3222
  25   2.0000     -10.301265      -280.3117
  26   2.0000     -10.298750      -280.2432
  27   2.0000     -10.298650      -280.2405
  28   2.0000     -10.295949      -280.1670
  29   2.0000     -10.294325      -280.1228
  30   2.0000     -10.293339      -280.0960
  31   2.0000     -10.291953      -280.0583
  32   2.0000     -10.290775      -280.0262
  33   2.0000     -10.283491      -279.8280
  34   2.0000     -10.282498      -279.8010
  35   2.0000     -10.279415      -279.7171
  36   2.0000     -10.279206      -279.7114
  37   2.0000     -10.278905      -279.7032
  38   2.0000     -10.278387      -279.6891
  39   2.0000     -10.275635      -279.6142
  40   2.0000     -10.275030      -279.5978
  41   2.0000     -10.273876      -279.5664
  42   2.0000     -10.273641      -279.5600
  43   2.0000     -10.272171      -279.5200
  44   2.0000     -10.271365      -279.4981
  45   2.0000     -10.270878      -279.4848
  46   2.0000     -10.270515      -279.4749
  47   2.0000     -10.269533      -279.4482
  48   2.0000     -10.268777      -279.4276
  49   2.0000     -10.267859      -279.4026
  50   2.0000     -10.267720      -279.3989
  51   2.0000     -10.266448      -279.3642
  52   2.0000     -10.265974      -279.3514
  53   2.0000     -10.265751      -279.3453
  54   2.0000     -10.265688      -279.3436
  55   2.0000     -10.263660      -279.2884
  56   2.0000     -10.263432      -279.2822
  57   2.0000     -10.263279      -279.2780
  58   2.0000     -10.263237      -279.2769
  59   2.0000     -10.263091      -279.2729
  60   2.0000     -10.262653      -279.2610
  61   2.0000     -10.261453      -279.2283
  62   2.0000     -10.260687      -279.2075
  63   2.0000     -10.260684      -279.2074
  64   2.0000     -10.259827      -279.1841
  65   2.0000     -10.259798      -279.1833
  66   2.0000     -10.259699      -279.1806
  67   2.0000     -10.259537      -279.1762
  68   2.0000     -10.259511      -279.1755
  69   2.0000     -10.256917      -279.1049
  70   2.0000     -10.256739      -279.1001
  71   2.0000     -10.256552      -279.0950
  72   2.0000     -10.255030      -279.0535
  73   2.0000      -8.125381      -221.1028
  74   2.0000      -8.044205      -218.8939
  75   2.0000      -8.039111      -218.7553
  76   2.0000      -8.035124      -218.6468
  77   2.0000      -8.032224      -218.5679
  78   2.0000      -6.096552      -165.8956
  79   2.0000      -6.088719      -165.6825
  80   2.0000      -6.087882      -165.6597
  81   2.0000      -6.013843      -163.6450
  82   2.0000      -6.009800      -163.5350
  83   2.0000      -6.008804      -163.5079
  84   2.0000      -6.005568      -163.4198
  85   2.0000      -6.004755      -163.3977
  86   2.0000      -6.004656      -163.3950
  87   2.0000      -6.001922      -163.3206
  88   2.0000      -6.000632      -163.2855
  89   2.0000      -6.000430      -163.2800
  90   2.0000      -5.997717      -163.2062
  91   2.0000      -5.996501      -163.1731
  92   2.0000      -5.993527      -163.0921
  93   2.0000      -1.142300       -31.0836
  94   2.0000      -1.139570       -31.0093
  95   2.0000      -1.133606       -30.8470
  96   2.0000      -1.048403       -28.5285
  97   2.0000      -1.029699       -28.0195
  98   2.0000      -1.024025       -27.8651
  99   2.0000      -1.001458       -27.2511
 100   2.0000      -0.995057       -27.0769
 101   2.0000      -0.988646       -26.9024
 102   2.0000      -0.973992       -26.5037
 103   2.0000      -0.967007       -26.3136
 104   2.0000      -0.953333       -25.9415
 105   2.0000      -0.950184       -25.8558
 106   2.0000      -0.948815       -25.8186
 107   2.0000      -0.944642       -25.7050
 108   2.0000      -0.935496       -25.4561
 109   2.0000      -0.931415       -25.3451
 110   2.0000      -0.912848       -24.8399
 111   2.0000      -0.899860       -24.4864
 112   2.0000      -0.896849       -24.4045
 113   2.0000      -0.893614       -24.3165
 114   2.0000      -0.891993       -24.2724
 115   2.0000      -0.870405       -23.6849
 116   2.0000      -0.855859       -23.2891
 117   2.0000      -0.852105       -23.1870
 118   2.0000      -0.839002       -22.8304
 119   2.0000      -0.835441       -22.7335
 120   2.0000      -0.834363       -22.7042
 121   2.0000      -0.830985       -22.6123
 122   2.0000      -0.828528       -22.5454
 123   2.0000      -0.825581       -22.4652
 124   2.0000      -0.822200       -22.3732
 125   2.0000      -0.821285       -22.3483
 126   2.0000      -0.818673       -22.2772
 127   2.0000      -0.806464       -21.9450
 128   2.0000      -0.791930       -21.5495
 129   2.0000      -0.789165       -21.4743
 130   2.0000      -0.787836       -21.4381
 131   2.0000      -0.775040       -21.0899
 132   2.0000      -0.771496       -20.9935
 133   2.0000      -0.770981       -20.9795
 134   2.0000      -0.769385       -20.9360
 135   2.0000      -0.758592       -20.6423
 136   2.0000      -0.752442       -20.4750
 137   2.0000      -0.745178       -20.2773
 138   2.0000      -0.741597       -20.1799
 139   2.0000      -0.722167       -19.6512
 140   2.0000      -0.716895       -19.5077
 141   2.0000      -0.696727       -18.9589
 142   2.0000      -0.691046       -18.8043
 143   2.0000      -0.688660       -18.7394
 144   2.0000      -0.688189       -18.7266
 145   2.0000      -0.685415       -18.6511
 146   2.0000      -0.684134       -18.6162
 147   2.0000      -0.673541       -18.3280
 148   2.0000      -0.660904       -17.9841
 149   2.0000      -0.658828       -17.9276
 150   2.0000      -0.658329       -17.9140
 151   2.0000      -0.655508       -17.8373
 152   2.0000      -0.653123       -17.7724
 153   2.0000      -0.641154       -17.4467
 154   2.0000      -0.637929       -17.3589
 155   2.0000      -0.635878       -17.3031
 156   2.0000      -0.634215       -17.2579
 157   2.0000      -0.626602       -17.0507
 158   2.0000      -0.620477       -16.8840
 159   2.0000      -0.614788       -16.7292
 160   2.0000      -0.609545       -16.5866
 161   2.0000      -0.607736       -16.5373
 162   2.0000      -0.596625       -16.2350
 163   2.0000      -0.595637       -16.2081
 164   2.0000      -0.587695       -15.9920
 165   2.0000      -0.585778       -15.9398
 166   2.0000      -0.580572       -15.7982
 167   2.0000      -0.576603       -15.6902
 168   2.0000      -0.573649       -15.6098
 169   2.0000      -0.559434       -15.2230
 170   2.0000      -0.548469       -14.9246
 171   2.0000      -0.548000       -14.9118
 172   2.0000      -0.547658       -14.9025
 173   2.0000      -0.545246       -14.8369
 174   2.0000      -0.544527       -14.8173
 175   2.0000      -0.543392       -14.7865
 176   2.0000      -0.543160       -14.7801
 177   2.0000      -0.541589       -14.7374
 178   2.0000      -0.537130       -14.6161
 179   2.0000      -0.533511       -14.5176
 180   2.0000      -0.531385       -14.4597
 181   2.0000      -0.527457       -14.3528
 182   2.0000      -0.522633       -14.2216
 183   2.0000      -0.519905       -14.1473
 184   2.0000      -0.512310       -13.9407
 185   2.0000      -0.511774       -13.9261
 186   2.0000      -0.508471       -13.8362
 187   2.0000      -0.506784       -13.7903
 188   2.0000      -0.502931       -13.6855
 189   2.0000      -0.502292       -13.6681
 190   2.0000      -0.501092       -13.6354
 191   2.0000      -0.498570       -13.5668
 192   2.0000      -0.496951       -13.5227
 193   2.0000      -0.496298       -13.5050
 194   2.0000      -0.494062       -13.4441
 195   2.0000      -0.492860       -13.4114
 196   2.0000      -0.492515       -13.4020
 197   2.0000      -0.492020       -13.3885
 198   2.0000      -0.490960       -13.3597
 199   2.0000      -0.489372       -13.3165
 200   2.0000      -0.485953       -13.2235
 201   2.0000      -0.485367       -13.2075
 202   2.0000      -0.482712       -13.1353
 203   2.0000      -0.482464       -13.1285
 204   2.0000      -0.474463       -12.9108
 205   2.0000      -0.468004       -12.7350
 206   2.0000      -0.467069       -12.7096
 207   2.0000      -0.460739       -12.5373
 208   2.0000      -0.458839       -12.4856
 209   2.0000      -0.458181       -12.4677
 210   2.0000      -0.457475       -12.4485
 211   2.0000      -0.454046       -12.3552
 212   2.0000      -0.452732       -12.3195
 213   2.0000      -0.452446       -12.3117
 214   2.0000      -0.450520       -12.2593
 215   2.0000      -0.448473       -12.2036
 216   2.0000      -0.443742       -12.0748
 217   2.0000      -0.439426       -11.9574
 218   2.0000      -0.436607       -11.8807
 219   2.0000      -0.434455       -11.8221
 220   2.0000      -0.431453       -11.7404
 221   2.0000      -0.426381       -11.6024
 222   2.0000      -0.422720       -11.5028
 223   2.0000      -0.421770       -11.4770
 224   2.0000      -0.419741       -11.4217
 225   2.0000      -0.417738       -11.3672
 226   2.0000      -0.416953       -11.3459
 227   2.0000      -0.414532       -11.2800
 228   2.0000      -0.412988       -11.2380
 229   2.0000      -0.411759       -11.2045
 230   2.0000      -0.411115       -11.1870
 231   2.0000      -0.409996       -11.1566
 232   2.0000      -0.408770       -11.1232
 233   2.0000      -0.407587       -11.0910
 234   2.0000      -0.406646       -11.0654
 235   2.0000      -0.404598       -11.0097
 236   2.0000      -0.398999       -10.8573
 237   2.0000      -0.398198       -10.8355
 238   2.0000      -0.396007       -10.7759
 239   2.0000      -0.393177       -10.6989
 240   2.0000      -0.390890       -10.6367
 241   2.0000      -0.382678       -10.4132
 242   2.0000      -0.381960       -10.3937
 243   2.0000      -0.376589       -10.2475
 244   2.0000      -0.371909       -10.1201
 245   2.0000      -0.366974        -9.9859
 246   2.0000      -0.362875        -9.8743
 247   2.0000      -0.355264        -9.6672
 248   2.0000      -0.352404        -9.5894
 249   2.0000      -0.338201        -9.2029
 250   2.0000      -0.328970        -8.9517
 251   2.0000      -0.319344        -8.6898
 252   2.0000      -0.316842        -8.6217
 253   2.0000      -0.315373        -8.5817
 254   2.0000      -0.313852        -8.5403
 255   2.0000      -0.311455        -8.4751
 256   2.0000      -0.307276        -8.3614
 257   2.0000      -0.305205        -8.3050
 258   2.0000      -0.301557        -8.2058
 259   2.0000      -0.300292        -8.1714
 260   2.0000      -0.296930        -8.0799
 261   2.0000      -0.296422        -8.0660
 262   2.0000      -0.295966        -8.0536
 263   2.0000      -0.283514        -7.7148
 264   2.0000      -0.264973        -7.2103
 265   2.0000      -0.245008        -6.6670
 266   2.0000      -0.236176        -6.4267
 267   0.0000      -0.083143        -2.2624
 268   0.0000      -0.043325        -1.1789
 269   0.0000      -0.039982        -1.0880
 270   0.0000      -0.023299        -0.6340
 271   0.0000      -0.020290        -0.5521

MULLIKEN ATOMIC CHARGES
-----------------------
   0 C :    0.051620
   1 N :   -0.051268
   2 C :    0.003069
   3 C :   -0.015211
   4 N :   -0.048328
   5 N :   -0.066201
   6 C :   -0.007094
   7 C :   -0.081216
   8 C :    0.100641
   9 C :   -0.119618
  10 S :    0.099926
  11 C :    0.070704
  12 C :   -0.042654
  13 C :    0.005615
  14 C :   -0.011434
  15 C :   -0.035428
  16 C :   -0.023682
  17 C :    0.017051
  18 C :    0.088830
  19 C :    0.097425
  20 C :   -0.118878
  21 C :    0.072246
  22 C :   -0.037457
  23 C :    0.005888
  24 C :   -0.010575
  25 C :   -0.038777
  26 C :   -0.015841
  27 C :    0.007913
  28 C :    0.092690
  29 S :    0.109974
  30 C :   -0.067758
  31 C :   -0.068306
  32 C :    0.063631
  33 C :   -0.043079
  34 N :   -0.039350
  35 C :    0.013396
  36 C :    0.006350
  37 C :    0.049080
  38 N :   -0.283667
  39 S :    0.521457
  40 N :   -0.264199
  41 C :   -0.076337
  42 C :   -0.076235
  43 C :    0.091558
  44 C :   -0.123923
  45 S :    0.160193
  46 C :    0.069870
  47 C :   -0.038126
  48 C :    0.007802
  49 C :   -0.016037
  50 C :   -0.035095
  51 C :   -0.013380
  52 C :    0.011188
  53 C :    0.088477
  54 C :    0.097170
  55 C :   -0.131372
  56 C :    0.073608
  57 C :   -0.041015
  58 C :    0.010183
  59 C :   -0.013227
  60 C :   -0.036804
  61 C :   -0.021952
  62 C :    0.014099
  63 C :    0.089632
  64 S :    0.154199
  65 C :    0.002909
  66 C :   -0.083461
  67 C :   -0.082818
  68 N :   -0.047170
  69 C :    0.049910
  70 C :    0.032372
  71 N :   -0.041439
  72 N :   -0.049460
  73 H :    0.029640
  74 H :    0.022768
  75 H :    0.010130
  76 H :   -0.017121
  77 H :   -0.032415
  78 H :   -0.033733
  79 H :   -0.013800
  80 H :    0.024717
  81 H :    0.007516
  82 H :    0.030224
  83 H :   -0.018165
  84 H :   -0.030884
  85 H :   -0.029405
  86 H :   -0.014492
  87 H :    0.007281
  88 H :    0.024230
  89 H :    0.031444
  90 H :    0.001026
  91 H :    0.008362
  92 H :    0.002236
  93 H :   -0.016397
  94 H :   -0.030978
  95 H :   -0.031353
  96 H :   -0.018716
  97 H :    0.031902
  98 H :    0.021635
  99 H :    0.008818
 100 H :   -0.016807
 101 H :   -0.032135
 102 H :   -0.034379
 103 H :   -0.016075
 104 H :    0.020611
 105 H :    0.032002
 106 H :    0.007548
 107 H :    0.008459
 108 H :    0.023651
 109 H :    0.019853
Sum of atomic charges:   -0.0000000

LOEWDIN ATOMIC CHARGES
----------------------
   0 C :    0.014106
   1 N :   -0.051854
   2 C :    0.026279
   3 C :   -0.040414
   4 N :   -0.023770
   5 N :   -0.049057
   6 C :   -0.179393
   7 C :   -0.015777
   8 C :   -0.043011
   9 C :   -0.142438
  10 S :    0.402050
  11 C :   -0.033040
  12 C :   -0.035887
  13 C :   -0.020111
  14 C :   -0.025702
  15 C :   -0.021162
  16 C :   -0.030632
  17 C :   -0.009932
  18 C :   -0.046015
  19 C :   -0.036336
  20 C :   -0.144610
  21 C :   -0.026820
  22 C :   -0.036695
  23 C :   -0.020845
  24 C :   -0.027496
  25 C :   -0.019365
  26 C :   -0.024250
  27 C :   -0.011147
  28 C :   -0.045376
  29 S :    0.407225
  30 C :   -0.150976
  31 C :   -0.042260
  32 C :   -0.066792
  33 C :    0.015269
  34 N :   -0.071856
  35 C :    0.003017
  36 C :   -0.059558
  37 C :   -0.030486
  38 N :   -0.281924
  39 S :    0.653109
  40 N :   -0.267357
  41 C :   -0.169719
  42 C :   -0.030765
  43 C :   -0.040129
  44 C :   -0.145950
  45 S :    0.433545
  46 C :   -0.028638
  47 C :   -0.036564
  48 C :   -0.011940
  49 C :   -0.025914
  50 C :   -0.019838
  51 C :   -0.027971
  52 C :   -0.017512
  53 C :   -0.045710
  54 C :   -0.041420
  55 C :   -0.146317
  56 C :   -0.030926
  57 C :   -0.034834
  58 C :   -0.017806
  59 C :   -0.025794
  60 C :   -0.021715
  61 C :   -0.031182
  62 C :   -0.011241
  63 C :   -0.045892
  64 S :    0.430310
  65 C :   -0.185923
  66 C :   -0.015246
  67 C :   -0.003914
  68 N :   -0.069113
  69 C :    0.036877
  70 C :   -0.034020
  71 N :   -0.010385
  72 N :   -0.056570
  73 H :    0.024860
  74 H :    0.024233
  75 H :    0.039398
  76 H :    0.024684
  77 H :    0.025336
  78 H :    0.024135
  79 H :    0.031531
  80 H :    0.034509
  81 H :    0.027839
  82 H :    0.036832
  83 H :    0.024232
  84 H :    0.025446
  85 H :    0.026480
  86 H :    0.030420
  87 H :    0.028117
  88 H :    0.034488
  89 H :    0.037664
  90 H :    0.031296
  91 H :    0.021654
  92 H :    0.031666
  93 H :    0.029822
  94 H :    0.025723
  95 H :    0.025171
  96 H :    0.024729
  97 H :    0.037676
  98 H :    0.033137
  99 H :    0.028309
 100 H :    0.024995
 101 H :    0.025236
 102 H :    0.023805
 103 H :    0.030477
 104 H :    0.032730
 105 H :    0.037568
 106 H :    0.027606
 107 H :    0.038887
 108 H :    0.031531
 109 H :    0.031287

  Mayer bond orders larger than 0.100000
B(  0-C ,  1-N ) :   1.4537 B(  0-C ,  5-N ) :   1.5497 B(  0-C , 73-H ) :   0.9799
B(  1-N ,  2-C ) :   1.6301 B(  2-C ,  3-C ) :   1.2739 B(  2-C , 74-H ) :   0.9736
B(  3-C ,  4-N ) :   1.5883 B(  3-C ,  6-C ) :   1.0602 B(  4-N ,  5-N ) :   1.3180
B(  6-C ,  7-C ) :   1.5863 B(  6-C , 10-S ) :   1.0618 B(  7-C ,  8-C ) :   1.1353
B(  7-C , 75-H ) :   1.0064 B(  8-C ,  9-C ) :   1.2636 B(  8-C , 21-C ) :   1.3298
B(  9-C , 10-S ) :   1.0563 B(  9-C , 11-C ) :   1.4330 B( 11-C , 12-C ) :   0.9369
B( 11-C , 19-C ) :   1.3409 B( 12-C , 13-C ) :   1.3817 B( 12-C , 17-C ) :   1.3955
B( 13-C , 14-C ) :   1.3870 B( 13-C , 76-H ) :   0.9912 B( 14-C , 15-C ) :   1.3857
B( 14-C , 77-H ) :   0.9953 B( 15-C , 16-C ) :   1.3966 B( 15-C , 18-C ) :   1.0512
B( 16-C , 17-C ) :   1.3677 B( 16-C , 78-H ) :   0.9926 B( 17-C , 79-H ) :   0.9948
B( 18-C , 80-H ) :   0.9587 B( 18-C , 81-H ) :   0.9617 B( 18-C , 82-H ) :   0.9562
B( 19-C , 20-C ) :   1.2602 B( 19-C , 31-C ) :   1.1551 B( 20-C , 21-C ) :   1.4379
B( 20-C , 29-S ) :   1.0523 B( 21-C , 22-C ) :   0.9411 B( 22-C , 23-C ) :   1.3928
B( 22-C , 27-C ) :   1.3807 B( 23-C , 24-C ) :   1.3719 B( 23-C , 83-H ) :   0.9899
B( 24-C , 25-C ) :   1.4028 B( 24-C , 84-H ) :   0.9907 B( 25-C , 26-C ) :   1.3796
B( 25-C , 28-C ) :   1.0529 B( 26-C , 27-C ) :   1.3876 B( 26-C , 85-H ) :   0.9968
B( 27-C , 86-H ) :   0.9957 B( 28-C , 87-H ) :   0.9609 B( 28-C , 88-H ) :   0.9585
B( 28-C , 89-H ) :   0.9554 B( 29-S , 30-C ) :   1.0626 B( 30-C , 31-C ) :   1.5943
B( 30-C , 32-C ) :   1.0636 B( 31-C , 90-H ) :   0.9886 B( 32-C , 33-C ) :   1.4400
B( 32-C , 35-C ) :   0.1096 B( 32-C , 37-C ) :   1.2177 B( 33-C , 34-N ) :   1.4339
B( 33-C , 91-H ) :   0.9776 B( 34-N , 35-C ) :   1.6939 B( 35-C , 36-C ) :   1.1596
B( 35-C , 41-C ) :   1.0936 B( 36-C , 37-C ) :   1.1866 B( 36-C , 40-N ) :   1.5406
B( 37-C , 38-N ) :   1.5182 B( 38-N , 39-S ) :   1.2623 B( 38-N , 40-N ) :   0.1487
B( 39-S , 40-N ) :   1.2757 B( 41-C , 42-C ) :   1.5778 B( 41-C , 45-S ) :   1.0614
B( 42-C , 43-C ) :   1.1594 B( 42-C , 92-H ) :   0.9855 B( 43-C , 44-C ) :   1.2618
B( 43-C , 56-C ) :   1.3379 B( 44-C , 45-S ) :   1.0470 B( 44-C , 46-C ) :   1.4314
B( 46-C , 47-C ) :   0.9416 B( 46-C , 54-C ) :   1.3347 B( 47-C , 48-C ) :   1.3799
B( 47-C , 52-C ) :   1.3967 B( 48-C , 49-C ) :   1.3834 B( 48-C , 93-H ) :   0.9955
B( 49-C , 50-C ) :   1.3841 B( 49-C , 94-H ) :   0.9955 B( 50-C , 51-C ) :   1.4000
B( 50-C , 53-C ) :   1.0517 B( 51-C , 52-C ) :   1.3747 B( 51-C , 95-H ) :   0.9908
B( 52-C , 96-H ) :   0.9895 B( 53-C , 97-H ) :   0.9555 B( 53-C , 98-H ) :   0.9594
B( 53-C , 99-H ) :   0.9614 B( 54-C , 55-C ) :   1.2631 B( 54-C , 66-C ) :   1.1448
B( 55-C , 56-C ) :   1.4321 B( 55-C , 64-S ) :   1.0509 B( 56-C , 57-C ) :   0.9397
B( 57-C , 58-C ) :   1.3857 B( 57-C , 62-C ) :   1.3930 B( 58-C , 59-C ) :   1.3867
B( 58-C ,100-H ) :   0.9896 B( 59-C , 60-C ) :   1.3879 B( 59-C ,101-H ) :   0.9945
B( 60-C , 61-C ) :   1.3964 B( 60-C , 63-C ) :   1.0516 B( 61-C , 62-C ) :   1.3701
B( 61-C ,102-H ) :   0.9917 B( 62-C ,103-H ) :   0.9940 B( 63-C ,104-H ) :   0.9598
B( 63-C ,105-H ) :   0.9552 B( 63-C ,106-H ) :   0.9615 B( 64-S , 65-C ) :   1.0614
B( 65-C , 66-C ) :   1.5828 B( 65-C , 67-C ) :   1.0318 B( 66-C ,107-H ) :   1.0042
B( 67-C , 68-N ) :   1.5545 B( 67-C , 72-N ) :   1.6058 B( 68-N , 69-C ) :   1.5803
B( 69-C , 70-C ) :   1.2950 B( 69-C ,108-H ) :   0.9738 B( 70-C , 71-N ) :   1.5569
B( 70-C ,109-H ) :   0.9835 B( 71-N , 72-N ) :   1.3331

-----------------------------------------------------------------------------
         ABSORPTION SPECTRUM VIA TRANSITION ELECTRIC DIPOLE MOMENTS
-----------------------------------------------------------------------------
State   Energy  Wavelength   fosc         T2         TX        TY        TZ
        (cm-1)    (nm)                  (au**2)     (au)      (au)      (au)
-----------------------------------------------------------------------------
   0   17721.6    564.3   0.842691876  15.65457  -0.79599  -3.84593   0.47935
   1   20247.1    493.9   0.123507966   2.00821  -0.37003  -1.04443   0.88343
   2   23604.0    423.7   0.372465405   5.19488   0.03959   2.20941  -0.55840
   3   25629.8    390.2   0.010665554   0.13700   0.28160   0.03304   0.23792
   4   26245.9    381.0   0.012382993   0.15532   0.36952  -0.13578  -0.01845
   5   26874.7    372.1   0.862377564  10.56402  -0.79903  -3.14856  -0.11008
   6   27311.6    366.1   0.300217342   3.61880  -0.72598  -0.69143   1.61668
   7   28414.2    351.9   0.003549003   0.04112   0.08801  -0.17437  -0.05450
   8   28708.8    348.3   0.011179578   0.12820   0.15699  -0.04980  -0.31792
   9   29979.4    333.6   0.007595702   0.08341  -0.14872  -0.15027   0.19676
  10   30275.5    330.3   0.002113954   0.02299   0.10676  -0.02404   0.10494
  11   30428.4    328.6   0.000978822   0.01059   0.03528  -0.09608  -0.01063
  12   31156.9    321.0   0.622752677   6.58016  -0.09882  -2.55108   0.24974
  13   31766.6    314.8   0.152083093   1.57611   0.59240   0.72497  -0.83641
  14   31952.8    313.0   0.010505649   0.10824   0.16481  -0.27162   0.08543
  15   32459.4    308.1   0.001208225   0.01225  -0.08461   0.06039   0.03806
  16   32571.6    307.0   0.000928267   0.00938  -0.04456  -0.08384   0.01915
  17   33429.3    299.1   0.010278813   0.10123  -0.01176   0.31735   0.01941
  18   33522.7    298.3   0.007683876   0.07546  -0.01539  -0.27016   0.04730
  19   34215.4    292.3   0.045519755   0.43798   0.13408   0.36865  -0.53301
  20   34728.3    287.9   0.095970083   0.90976   0.33060   0.68878  -0.57100
  21   35356.1    282.8   0.066599952   0.62013   0.05528  -0.38128   0.68681
  22   35472.1    281.9   0.151009781   1.40150  -0.07996   0.16537   1.16951
  23   35742.5    279.8   0.345881606   3.18580  -0.55018   1.69759  -0.03579
  24   36016.7    277.6   0.108294169   0.98987   0.27047   0.13859  -0.94737
  25   36231.4    276.0   0.290548708   2.64003  -0.50512   1.38825   0.67651
  26   36527.1    273.8   0.065556652   0.59085  -0.18112  -0.35038   0.65976
  27   36809.0    271.7   0.057505974   0.51432  -0.22620   0.60105   0.31921
  28   37333.1    267.9   0.259277908   2.28637  -0.36072  -1.35092   0.57556
  29   37575.0    266.1   0.015432300   0.13521   0.15781  -0.23039  -0.23922
  30   37896.2    263.9   0.029735552   0.25832  -0.02573  -0.12766   0.49128
  31   38047.2    262.8   0.016053482   0.13891  -0.11530  -0.35343   0.02649
  32   38299.8    261.1   0.000786331   0.00676  -0.02750  -0.05299  -0.05652
  33   38394.9    260.5   0.034668808   0.29726  -0.25842  -0.43686   0.19909
  34   38482.7    259.9   0.021616239   0.18492  -0.09671  -0.30786   0.28424
  35   38700.3    258.4   0.064535962   0.54899  -0.15247  -0.51003   0.51538
  36   38932.4    256.9   0.011955835   0.10110  -0.03563  -0.27713  -0.15174
  37   39452.6    253.5   0.183021048   1.52722  -0.26313  -1.20740   0.01331
  38   39656.2    252.2   0.035304342   0.29308  -0.04739   0.37827   0.38439

FINAL SINGLE POINT ENERGY     -4750.161226785536

DIPOLE MOMENT
-------------
                                X             Y             Z
Electronic contribution:      2.69770      -1.01953      -5.34580
Nuclear contribution   :     -2.35718      -0.41953       3.90402
                        -----------------------------------------
Total Dipole Moment    :      0.34052      -1.43906      -1.44178
                        -----------------------------------------
Magnitude (a.u.)       :      2.06532
Magnitude (Debye)      :      5.24963

Rotational constants in cm-1:     0.001578     0.000287     0.000254
Rotational constants in MHz :    47.315763     8.616150     7.606239

                             ****ORCA TERMINATED NORMALLY****
TOTAL RUN TIME: 0 days 0 hours 10 minutes 2 seconds 879 msec
