                         Program Version 4.2.0 -  RELEASE  -
|  1> # ORCA input file
|  2> # SCF done       -200.746857059510          0.000573966939
|  3> ! CAM-B3LYP def2-SVP def2/J RIJCOSX Grid4 TightSCF
|  4> %maxcore 5000
|  5> %tddft
|  6>     Mode sTDDFT
|  7>     Ethresh 5.0
|  8>     maxcore 5000
|  9> end
| 10>
| 11> %pal
| 12>   nprocs 6
| 13>   end
| 14> * xyz 0 1
| 15>    C        3.20389         4.17649        -3.83933
| 16>    C        3.66430         5.45040        -3.62790
| 17>    C        4.20203         6.26818        -4.64163
| 18>    N        4.62948         6.98080        -5.43346
| 19>    C        3.72941         6.04923        -2.35351
| 20>    N        3.82942         6.55163        -1.32593
| 21>    C        3.38029         3.40940        -5.06635
| 22>    C        3.27663         2.02245        -4.75073
| 23>    C        3.44331         1.05804        -5.70239
| 24>    C        3.71718         1.44370        -7.03431
| 25>    C        3.80819         2.82880        -7.35750
| 26>    C        3.63575         3.80637        -6.35088
| 27>    C        4.07911         3.19929        -8.69029
| 28>    C        4.25506         2.24903        -9.65896
| 29>    C        4.16509         0.88576        -9.34030
| 30>    C        3.90228         0.49176        -8.05625
| 31>    C        2.96932         1.86885        -3.31710
| 32>    O        2.86357         0.84836        -2.67771
| 33>    C        2.74181         3.25757        -2.81956
| 34>    C        2.10275         3.45246        -1.63601
| 35>    C        1.42150         4.60459        -1.17284
| 36>    C        1.12246         4.90466         0.14616
| 37>    C        0.41664         6.09797         0.26923
| 38>    C        0.13127         6.69104        -0.97600
| 39>    S        0.75157         5.79878        -2.28390
| 40>    C       -0.58649         7.89039        -0.75391
| 41>    C       -0.74375         8.06928         0.63176
| 42>    C       -0.12454         6.94557         1.31978
| 43>    C       -0.06600         6.73596         2.66543
| 44>    C       -0.62673         7.63952         3.59386
| 45>    N       -1.08170         8.36553         4.35546
| 46>    C        0.54985         5.59415         3.22180
| 47>    N        1.03867         4.66382         3.67954
| 48>    C       -1.42227         9.24382         0.95213
| 49>    C       -1.78728         9.95513        -0.17646
| 50>    S       -1.28212         9.15793        -1.65874
| 51>    C       -2.47657        11.20517        -0.22992
| 52>    C       -2.85881        11.80090        -1.43164
| 53>    N       -3.47077        12.96416        -1.55614
| 54>    C       -3.78082        13.69477        -0.49474
| 55>    C       -3.47216        13.21168         0.80549
| 56>    C       -2.81205        11.94202         0.93674
| 57>    N       -2.59393        11.63266         2.21427
| 58>    S       -3.16018        12.81133         3.14570
| 59>    N       -3.70992        13.77645         1.98700
| 60>    C       -4.40833        14.95102        -0.73682
| 61>    C       -4.76747        15.93964         0.16128
| 62>    C       -5.32988        17.03587        -0.48897
| 63>    C       -5.40162        16.86018        -1.88643
| 64>    S       -4.76961        15.36056        -2.39871
| 65>    C       -5.98357        18.01910        -2.45365
| 66>    C       -6.26696        18.93815        -1.41913
| 67>    C       -5.87945        18.33980        -0.15019
| 68>    C       -6.01713        18.87381         1.09645
| 69>    C       -6.60849        20.13445         1.33239
| 70>    N       -7.10014        21.14448         1.55926
| 71>    C       -5.59621        18.18625         2.25568
| 72>    N       -5.25339        17.63876         3.20291
| 73>    C       -6.81459        20.12809        -1.88134
| 74>    C       -6.96679        20.13068        -3.26227
| 75>    S       -6.42617        18.60844        -3.98307
| 76>    C       -7.51964        21.07428        -4.15317
| 77>    C       -7.79653        22.39994        -3.97221
| 78>    C       -8.46957        23.23129        -4.95606
| 79>    C       -9.21507        22.79304        -6.02018
| 80>    C       -9.86936        23.64972        -6.93019
| 81>    N      -10.41884        24.28997        -7.70872
| 82>    C       -9.47321        21.44266        -6.33625
| 83>    N       -9.74483        20.37021        -6.64556
| 84>    C       -8.29623        24.62238        -4.56033
| 85>    C       -7.60955        24.65388        -3.31369
| 86>    C       -7.30585        23.27998        -2.87900
| 87>    O       -6.72279        22.96047        -1.86525
| 88>    C       -7.30913        25.82730        -2.68412
| 89>    C       -7.68846        27.04781        -3.28647
| 90>    C       -8.36960        27.02537        -4.53796
| 91>    C       -8.66730        25.79400        -5.16537
| 92>    C       -8.73905        28.24913        -5.13227
| 93>    C       -8.45202        29.43907        -4.52064
| 94>    C       -7.78195        29.46011        -3.28831
| 95>    C       -7.40864        28.29009        -2.68416
| 96>    H        3.36955         0.01235        -5.44312
| 97>    H        3.69919         4.84879        -6.62221
| 98>    H        4.15070         4.25013        -8.92964
| 99>    H        4.46535         2.54281       -10.67640
|100>    H        4.30526         0.14930       -10.11729
|101>    H        3.83246        -0.55655        -7.80535
|102>    H        2.04464         2.58260        -0.98811
|103>    H        1.44595         4.28830         0.96544
|104>    H       -1.64949         9.59210         1.94315
|105>    H       -2.65027        11.29915        -2.36806
|106>    H       -4.61138        15.83813         1.21987
|107>    H       -7.08956        20.96421        -1.26526
|108>    H       -7.72765        20.66545        -5.13566
|109>    H       -6.78984        25.82328        -1.73731
|110>    H       -9.17722        25.81044        -6.11547
|111>    H       -9.25608        28.22739        -6.08040
|112>    H       -8.74026        30.37108        -4.98328
|113>    H       -7.56297        30.40810        -2.82013
|114>    H       -6.89259        28.30015        -1.73532
|115> *
|116>
|117>                          ****END OF INPUT****

CARTESIAN COORDINATES (ANGSTROEM)
---------------------------------
  C      3.203890    4.176490   -3.839330
  C      3.664300    5.450400   -3.627900
  C      4.202030    6.268180   -4.641630
  N      4.629480    6.980800   -5.433460
  C      3.729410    6.049230   -2.353510
  N      3.829420    6.551630   -1.325930
  C      3.380290    3.409400   -5.066350
  C      3.276630    2.022450   -4.750730
  C      3.443310    1.058040   -5.702390
  C      3.717180    1.443700   -7.034310
  C      3.808190    2.828800   -7.357500
  C      3.635750    3.806370   -6.350880
  C      4.079110    3.199290   -8.690290
  C      4.255060    2.249030   -9.658960
  C      4.165090    0.885760   -9.340300
  C      3.902280    0.491760   -8.056250
  C      2.969320    1.868850   -3.317100
  O      2.863570    0.848360   -2.677710
  C      2.741810    3.257570   -2.819560
  C      2.102750    3.452460   -1.636010
  C      1.421500    4.604590   -1.172840
  C      1.122460    4.904660    0.146160
  C      0.416640    6.097970    0.269230
  C      0.131270    6.691040   -0.976000
  S      0.751570    5.798780   -2.283900
  C     -0.586490    7.890390   -0.753910
  C     -0.743750    8.069280    0.631760
  C     -0.124540    6.945570    1.319780
  C     -0.066000    6.735960    2.665430
  C     -0.626730    7.639520    3.593860
  N     -1.081700    8.365530    4.355460
  C      0.549850    5.594150    3.221800
  N      1.038670    4.663820    3.679540
  C     -1.422270    9.243820    0.952130
  C     -1.787280    9.955130   -0.176460
  S     -1.282120    9.157930   -1.658740
  C     -2.476570   11.205170   -0.229920
  C     -2.858810   11.800900   -1.431640
  N     -3.470770   12.964160   -1.556140
  C     -3.780820   13.694770   -0.494740
  C     -3.472160   13.211680    0.805490
  C     -2.812050   11.942020    0.936740
  N     -2.593930   11.632660    2.214270
  S     -3.160180   12.811330    3.145700
  N     -3.709920   13.776450    1.987000
  C     -4.408330   14.951020   -0.736820
  C     -4.767470   15.939640    0.161280
  C     -5.329880   17.035870   -0.488970
  C     -5.401620   16.860180   -1.886430
  S     -4.769610   15.360560   -2.398710
  C     -5.983570   18.019100   -2.453650
  C     -6.266960   18.938150   -1.419130
  C     -5.879450   18.339800   -0.150190
  C     -6.017130   18.873810    1.096450
  C     -6.608490   20.134450    1.332390
  N     -7.100140   21.144480    1.559260
  C     -5.596210   18.186250    2.255680
  N     -5.253390   17.638760    3.202910
  C     -6.814590   20.128090   -1.881340
  C     -6.966790   20.130680   -3.262270
  S     -6.426170   18.608440   -3.983070
  C     -7.519640   21.074280   -4.153170
  C     -7.796530   22.399940   -3.972210
  C     -8.469570   23.231290   -4.956060
  C     -9.215070   22.793040   -6.020180
  C     -9.869360   23.649720   -6.930190
  N    -10.418840   24.289970   -7.708720
  C     -9.473210   21.442660   -6.336250
  N     -9.744830   20.370210   -6.645560
  C     -8.296230   24.622380   -4.560330
  C     -7.609550   24.653880   -3.313690
  C     -7.305850   23.279980   -2.879000
  O     -6.722790   22.960470   -1.865250
  C     -7.309130   25.827300   -2.684120
  C     -7.688460   27.047810   -3.286470
  C     -8.369600   27.025370   -4.537960
  C     -8.667300   25.794000   -5.165370
  C     -8.739050   28.249130   -5.132270
  C     -8.452020   29.439070   -4.520640
  C     -7.781950   29.460110   -3.288310
  C     -7.408640   28.290090   -2.684160
  H      3.369550    0.012350   -5.443120
  H      3.699190    4.848790   -6.622210
  H      4.150700    4.250130   -8.929640
  H      4.465350    2.542810  -10.676400
  H      4.305260    0.149300  -10.117290
  H      3.832460   -0.556550   -7.805350
  H      2.044640    2.582600   -0.988110
  H      1.445950    4.288300    0.965440
  H     -1.649490    9.592100    1.943150
  H     -2.650270   11.299150   -2.368060
  H     -4.611380   15.838130    1.219870
  H     -7.089560   20.964210   -1.265260
  H     -7.727650   20.665450   -5.135660
  H     -6.789840   25.823280   -1.737310
  H     -9.177220   25.810440   -6.115470
  H     -9.256080   28.227390   -6.080400
  H     -8.740260   30.371080   -4.983280
  H     -7.562970   30.408100   -2.820130
  H     -6.892590   28.300150   -1.735320

 Total Charge           Charge          ....    0
 Multiplicity           Mult            ....    1
 Number of Electrons    NEL             ....  570
 Basis Dimension        Dim             .... 1249

ORBITAL ENERGIES
----------------

  NO   OCC          E(Eh)            E(eV)
   0   2.0000     -89.050209     -2423.1794
   1   2.0000     -88.998577     -2421.7744
   2   2.0000     -88.998264     -2421.7659
   3   2.0000     -88.997401     -2421.7424
   4   2.0000     -88.995175     -2421.6818
   5   2.0000     -19.218574      -522.9640
   6   2.0000     -19.217079      -522.9233
   7   2.0000     -14.466284      -393.6476
   8   2.0000     -14.460905      -393.5012
   9   2.0000     -14.435844      -392.8193
  10   2.0000     -14.434096      -392.7717
  11   2.0000     -14.433528      -392.7563
  12   2.0000     -14.432896      -392.7391
  13   2.0000     -14.430366      -392.6702
  14   2.0000     -14.419603      -392.3773
  15   2.0000     -14.418615      -392.3505
  16   2.0000     -14.417081      -392.3087
  17   2.0000     -14.414529      -392.2393
  18   2.0000     -10.370301      -282.1902
  19   2.0000     -10.370287      -282.1899
  20   2.0000     -10.369147      -282.1588
  21   2.0000     -10.369017      -282.1553
  22   2.0000     -10.357111      -281.8313
  23   2.0000     -10.356073      -281.8031
  24   2.0000     -10.355357      -281.7836
  25   2.0000     -10.351166      -281.6696
  26   2.0000     -10.347854      -281.5794
  27   2.0000     -10.347337      -281.5653
  28   2.0000     -10.347288      -281.5640
  29   2.0000     -10.346636      -281.5463
  30   2.0000     -10.346050      -281.5303
  31   2.0000     -10.342303      -281.4284
  32   2.0000     -10.341371      -281.4030
  33   2.0000     -10.339462      -281.3511
  34   2.0000     -10.339294      -281.3465
  35   2.0000     -10.334897      -281.2268
  36   2.0000     -10.334720      -281.2220
  37   2.0000     -10.333912      -281.2001
  38   2.0000     -10.333411      -281.1864
  39   2.0000     -10.332776      -281.1691
  40   2.0000     -10.331537      -281.1354
  41   2.0000     -10.331211      -281.1265
  42   2.0000     -10.329676      -281.0848
  43   2.0000     -10.329586      -281.0823
  44   2.0000     -10.328684      -281.0578
  45   2.0000     -10.327970      -281.0384
  46   2.0000     -10.322824      -280.8983
  47   2.0000     -10.322082      -280.8781
  48   2.0000     -10.320625      -280.8385
  49   2.0000     -10.320123      -280.8248
  50   2.0000     -10.317538      -280.7545
  51   2.0000     -10.315845      -280.7084
  52   2.0000     -10.312399      -280.6146
  53   2.0000     -10.311984      -280.6033
  54   2.0000     -10.311931      -280.6019
  55   2.0000     -10.310883      -280.5734
  56   2.0000     -10.309971      -280.5486
  57   2.0000     -10.307787      -280.4891
  58   2.0000     -10.307061      -280.4694
  59   2.0000     -10.303366      -280.3689
  60   2.0000     -10.303003      -280.3590
  61   2.0000     -10.302783      -280.3530
  62   2.0000     -10.302709      -280.3510
  63   2.0000     -10.301096      -280.3071
  64   2.0000     -10.300715      -280.2967
  65   2.0000     -10.300374      -280.2874
  66   2.0000     -10.300160      -280.2816
  67   2.0000     -10.297742      -280.2158
  68   2.0000     -10.297506      -280.2094
  69   2.0000     -10.296870      -280.1921
  70   2.0000     -10.296472      -280.1812
  71   2.0000     -10.292789      -280.0810
  72   2.0000     -10.289350      -279.9875
  73   2.0000     -10.288989      -279.9776
  74   2.0000     -10.288758      -279.9714
  75   2.0000     -10.288746      -279.9710
  76   2.0000     -10.288349      -279.9602
  77   2.0000     -10.286514      -279.9103
  78   2.0000     -10.285965      -279.8953
  79   2.0000     -10.285787      -279.8905
  80   2.0000     -10.285329      -279.8780
  81   2.0000      -8.141678      -221.5463
  82   2.0000      -8.093306      -220.2300
  83   2.0000      -8.092553      -220.2096
  84   2.0000      -8.091925      -220.1925
  85   2.0000      -8.089042      -220.1140
  86   2.0000      -6.112861      -166.3394
  87   2.0000      -6.104889      -166.1225
  88   2.0000      -6.104299      -166.1064
  89   2.0000      -6.062395      -164.9662
  90   2.0000      -6.061808      -164.9502
  91   2.0000      -6.061172      -164.9329
  92   2.0000      -6.058286      -164.8543
  93   2.0000      -6.058267      -164.8538
  94   2.0000      -6.057575      -164.8350
  95   2.0000      -6.056998      -164.8193
  96   2.0000      -6.055911      -164.7897
  97   2.0000      -6.054940      -164.7633
  98   2.0000      -6.054300      -164.7459
  99   2.0000      -6.053955      -164.7365
 100   2.0000      -6.051631      -164.6732
 101   2.0000      -1.150841       -31.3160
 102   2.0000      -1.134085       -30.8600
 103   2.0000      -1.132572       -30.8189
 104   2.0000      -1.072594       -29.1868
 105   2.0000      -1.052725       -28.6461
 106   2.0000      -1.051011       -28.5995
 107   2.0000      -1.026513       -27.9328
 108   2.0000      -1.024289       -27.8723
 109   2.0000      -1.023037       -27.8382
 110   2.0000      -1.019249       -27.7352
 111   2.0000      -1.012337       -27.5471
 112   2.0000      -1.010644       -27.5010
 113   2.0000      -1.008563       -27.4444
 114   2.0000      -1.003975       -27.3196
 115   2.0000      -1.001816       -27.2608
 116   2.0000      -1.000165       -27.2159
 117   2.0000      -0.998867       -27.1806
 118   2.0000      -0.996404       -27.1135
 119   2.0000      -0.994107       -27.0510
 120   2.0000      -0.975753       -26.5516
 121   2.0000      -0.972606       -26.4659
 122   2.0000      -0.966259       -26.2932
 123   2.0000      -0.963396       -26.2153
 124   2.0000      -0.934901       -25.4399
 125   2.0000      -0.929593       -25.2955
 126   2.0000      -0.927813       -25.2471
 127   2.0000      -0.920901       -25.0590
 128   2.0000      -0.916905       -24.9503
 129   2.0000      -0.905192       -24.6315
 130   2.0000      -0.900173       -24.4950
 131   2.0000      -0.891163       -24.2498
 132   2.0000      -0.884975       -24.0814
 133   2.0000      -0.881622       -23.9901
 134   2.0000      -0.879944       -23.9445
 135   2.0000      -0.878241       -23.8982
 136   2.0000      -0.870659       -23.6918
 137   2.0000      -0.862824       -23.4786
 138   2.0000      -0.862335       -23.4653
 139   2.0000      -0.861306       -23.4373
 140   2.0000      -0.832000       -22.6399
 141   2.0000      -0.831431       -22.6244
 142   2.0000      -0.828313       -22.5396
 143   2.0000      -0.816580       -22.2203
 144   2.0000      -0.806961       -21.9585
 145   2.0000      -0.784292       -21.3417
 146   2.0000      -0.782546       -21.2942
 147   2.0000      -0.778562       -21.1857
 148   2.0000      -0.770618       -20.9696
 149   2.0000      -0.763557       -20.7775
 150   2.0000      -0.762481       -20.7482
 151   2.0000      -0.745167       -20.2770
 152   2.0000      -0.743499       -20.2316
 153   2.0000      -0.729202       -19.8426
 154   2.0000      -0.717738       -19.5306
 155   2.0000      -0.711427       -19.3589
 156   2.0000      -0.706785       -19.2326
 157   2.0000      -0.704748       -19.1772
 158   2.0000      -0.704502       -19.1705
 159   2.0000      -0.700010       -19.0482
 160   2.0000      -0.694517       -18.8988
 161   2.0000      -0.691294       -18.8111
 162   2.0000      -0.685882       -18.6638
 163   2.0000      -0.683861       -18.6088
 164   2.0000      -0.680021       -18.5043
 165   2.0000      -0.675558       -18.3829
 166   2.0000      -0.662440       -18.0259
 167   2.0000      -0.655128       -17.8269
 168   2.0000      -0.651238       -17.7211
 169   2.0000      -0.641863       -17.4660
 170   2.0000      -0.637052       -17.3351
 171   2.0000      -0.636584       -17.3223
 172   2.0000      -0.631895       -17.1947
 173   2.0000      -0.626211       -17.0401
 174   2.0000      -0.622562       -16.9408
 175   2.0000      -0.620247       -16.8778
 176   2.0000      -0.616766       -16.7831
 177   2.0000      -0.611916       -16.6511
 178   2.0000      -0.610369       -16.6090
 179   2.0000      -0.607378       -16.5276
 180   2.0000      -0.604701       -16.4548
 181   2.0000      -0.593259       -16.1434
 182   2.0000      -0.589231       -16.0338
 183   2.0000      -0.579435       -15.7672
 184   2.0000      -0.577748       -15.7213
 185   2.0000      -0.575551       -15.6615
 186   2.0000      -0.561805       -15.2875
 187   2.0000      -0.559927       -15.2364
 188   2.0000      -0.555584       -15.1182
 189   2.0000      -0.554092       -15.0776
 190   2.0000      -0.552053       -15.0221
 191   2.0000      -0.549765       -14.9599
 192   2.0000      -0.547447       -14.8968
 193   2.0000      -0.546909       -14.8821
 194   2.0000      -0.542474       -14.7615
 195   2.0000      -0.539705       -14.6861
 196   2.0000      -0.538897       -14.6641
 197   2.0000      -0.537991       -14.6395
 198   2.0000      -0.531306       -14.4576
 199   2.0000      -0.527442       -14.3524
 200   2.0000      -0.524337       -14.2679
 201   2.0000      -0.521348       -14.1866
 202   2.0000      -0.520586       -14.1659
 203   2.0000      -0.517164       -14.0728
 204   2.0000      -0.515534       -14.0284
 205   2.0000      -0.514812       -14.0087
 206   2.0000      -0.513820       -13.9818
 207   2.0000      -0.512915       -13.9571
 208   2.0000      -0.509476       -13.8636
 209   2.0000      -0.508119       -13.8266
 210   2.0000      -0.506439       -13.7809
 211   2.0000      -0.505396       -13.7525
 212   2.0000      -0.504370       -13.7246
 213   2.0000      -0.500132       -13.6093
 214   2.0000      -0.499712       -13.5979
 215   2.0000      -0.496894       -13.5212
 216   2.0000      -0.495237       -13.4761
 217   2.0000      -0.494284       -13.4502
 218   2.0000      -0.491934       -13.3862
 219   2.0000      -0.489743       -13.3266
 220   2.0000      -0.487194       -13.2572
 221   2.0000      -0.485218       -13.2034
 222   2.0000      -0.480275       -13.0689
 223   2.0000      -0.478104       -13.0099
 224   2.0000      -0.473836       -12.8937
 225   2.0000      -0.468740       -12.7551
 226   2.0000      -0.465317       -12.6619
 227   2.0000      -0.464445       -12.6382
 228   2.0000      -0.462861       -12.5951
 229   2.0000      -0.461323       -12.5532
 230   2.0000      -0.458779       -12.4840
 231   2.0000      -0.457912       -12.4604
 232   2.0000      -0.456158       -12.4127
 233   2.0000      -0.454600       -12.3703
 234   2.0000      -0.451856       -12.2956
 235   2.0000      -0.449695       -12.2368
 236   2.0000      -0.449027       -12.2187
 237   2.0000      -0.447970       -12.1899
 238   2.0000      -0.447345       -12.1729
 239   2.0000      -0.444741       -12.1020
 240   2.0000      -0.443571       -12.0702
 241   2.0000      -0.442891       -12.0517
 242   2.0000      -0.442418       -12.0388
 243   2.0000      -0.441283       -12.0079
 244   2.0000      -0.441085       -12.0025
 245   2.0000      -0.439721       -11.9654
 246   2.0000      -0.437128       -11.8949
 247   2.0000      -0.434454       -11.8221
 248   2.0000      -0.434138       -11.8135
 249   2.0000      -0.433260       -11.7896
 250   2.0000      -0.430877       -11.7248
 251   2.0000      -0.430288       -11.7087
 252   2.0000      -0.428641       -11.6639
 253   2.0000      -0.427503       -11.6330
 254   2.0000      -0.426874       -11.6158
 255   2.0000      -0.422392       -11.4939
 256   2.0000      -0.419758       -11.4222
 257   2.0000      -0.419603       -11.4180
 258   2.0000      -0.419340       -11.4108
 259   2.0000      -0.410478       -11.1697
 260   2.0000      -0.408960       -11.1284
 261   2.0000      -0.405030       -11.0214
 262   2.0000      -0.402751       -10.9594
 263   2.0000      -0.392022       -10.6675
 264   2.0000      -0.390050       -10.6138
 265   2.0000      -0.386673       -10.5219
 266   2.0000      -0.379574       -10.3287
 267   2.0000      -0.375609       -10.2209
 268   2.0000      -0.372843       -10.1456
 269   2.0000      -0.363804        -9.8996
 270   2.0000      -0.361063        -9.8250
 271   2.0000      -0.355473        -9.6729
 272   2.0000      -0.354513        -9.6468
 273   2.0000      -0.346391        -9.4258
 274   2.0000      -0.340287        -9.2597
 275   2.0000      -0.336352        -9.1526
 276   2.0000      -0.328917        -8.9503
 277   2.0000      -0.326039        -8.8720
 278   2.0000      -0.320971        -8.7341
 279   2.0000      -0.317957        -8.6520
 280   2.0000      -0.312169        -8.4946
 281   2.0000      -0.298262        -8.1161
 282   2.0000      -0.294833        -8.0228
 283   2.0000      -0.279968        -7.6183
 284   2.0000      -0.256392        -6.9768
 285   0.0000      -0.124026        -3.3749
 286   0.0000      -0.113186        -3.0799
 287   0.0000      -0.094247        -2.5646
 288   0.0000      -0.091441        -2.4882
 289   0.0000      -0.086465        -2.3528

MULLIKEN ATOMIC CHARGES
-----------------------
   0 C :    0.250412
   1 C :   -0.330918
   2 C :   -0.173718
   3 N :    0.155639
   4 C :   -0.204876
   5 N :    0.172554
   6 C :    0.036474
   7 C :    0.011540
   8 C :   -0.081235
   9 C :    0.094495
  10 C :    0.093821
  11 C :   -0.079704
  12 C :   -0.018803
  13 C :    0.037766
  14 C :    0.035084
  15 C :   -0.016546
  16 C :    0.143876
  17 O :   -0.139895
  18 C :   -0.143586
  19 C :    0.048795
  20 C :   -0.104263
  21 C :    0.016185
  22 C :    0.024084
  23 C :   -0.081757
  24 S :    0.206213
  25 C :   -0.090602
  26 C :    0.034559
  27 C :    0.304944
  28 C :   -0.293190
  29 C :   -0.186926
  30 N :    0.177008
  31 C :   -0.190531
  32 N :    0.180989
  33 C :   -0.061390
  34 C :   -0.092977
  35 S :    0.177326
  36 C :    0.080933
  37 C :   -0.056532
  38 N :   -0.060148
  39 C :    0.034788
  40 C :    0.003784
  41 C :    0.044049
  42 N :   -0.282513
  43 S :    0.566182
  44 N :   -0.258263
  45 C :   -0.115698
  46 C :   -0.052271
  47 C :    0.017249
  48 C :   -0.088379
  49 S :    0.244223
  50 C :   -0.088968
  51 C :   -0.009345
  52 C :    0.307563
  53 C :   -0.298630
  54 C :   -0.191245
  55 N :    0.192110
  56 C :   -0.190777
  57 N :    0.177552
  58 C :    0.016014
  59 C :   -0.110136
  60 S :    0.209850
  61 C :    0.024961
  62 C :   -0.091112
  63 C :    0.305996
  64 C :   -0.348892
  65 C :   -0.182746
  66 N :    0.148799
  67 C :   -0.204456
  68 N :    0.157205
  69 C :    0.047919
  70 C :   -0.009190
  71 C :    0.158537
  72 O :   -0.150343
  73 C :   -0.073969
  74 C :    0.093888
  75 C :    0.092838
  76 C :   -0.077774
  77 C :   -0.016907
  78 C :    0.036795
  79 C :    0.035650
  80 C :   -0.012724
  81 H :   -0.009637
  82 H :   -0.004983
  83 H :   -0.009841
  84 H :   -0.004301
  85 H :   -0.002988
  86 H :   -0.015757
  87 H :    0.036141
  88 H :    0.018134
  89 H :    0.022582
  90 H :    0.011618
  91 H :    0.021107
  92 H :    0.037326
  93 H :    0.019653
  94 H :   -0.010655
  95 H :   -0.009014
  96 H :   -0.009640
  97 H :   -0.004968
  98 H :   -0.004846
  99 H :   -0.016642
Sum of atomic charges:   -0.0000000

LOEWDIN ATOMIC CHARGES
----------------------
   0 C :    0.060581
   1 C :   -0.144970
   2 C :   -0.019919
   3 N :   -0.051048
   4 C :   -0.035414
   5 N :   -0.049194
   6 C :   -0.023656
   7 C :   -0.057155
   8 C :    0.033346
   9 C :   -0.008785
  10 C :   -0.005519
  11 C :    0.015778
  12 C :   -0.006637
  13 C :   -0.012129
  14 C :   -0.012317
  15 C :   -0.008797
  16 C :    0.083368
  17 O :   -0.141176
  18 C :   -0.098238
  19 C :    0.050882
  20 C :   -0.178002
  21 C :    0.014555
  22 C :   -0.069903
  23 C :   -0.153197
  24 S :    0.507574
  25 C :   -0.182586
  26 C :   -0.056826
  27 C :    0.079721
  28 C :   -0.094236
  29 C :   -0.016866
  30 N :   -0.026799
  31 C :   -0.017161
  32 N :   -0.026521
  33 C :   -0.019230
  34 C :   -0.152758
  35 S :    0.481782
  36 C :   -0.067666
  37 C :    0.010990
  38 N :   -0.081315
  39 C :   -0.000541
  40 C :   -0.061267
  41 C :   -0.030355
  42 N :   -0.276482
  43 S :    0.689673
  44 N :   -0.264229
  45 C :   -0.171047
  46 C :   -0.010000
  47 C :   -0.061453
  48 C :   -0.180539
  49 S :    0.519606
  50 C :   -0.162979
  51 C :   -0.069724
  52 C :    0.075041
  53 C :   -0.093688
  54 C :   -0.021464
  55 N :   -0.017983
  56 C :   -0.016598
  57 N :   -0.028455
  58 C :    0.020334
  59 C :   -0.173805
  60 S :    0.498592
  61 C :    0.041648
  62 C :   -0.091959
  63 C :    0.076216
  64 C :   -0.142228
  65 C :   -0.017595
  66 N :   -0.053881
  67 C :   -0.025393
  68 N :   -0.054403
  69 C :   -0.026623
  70 C :   -0.055474
  71 C :    0.085406
  72 O :   -0.138020
  73 C :    0.034131
  74 C :   -0.008177
  75 C :   -0.006231
  76 C :    0.019832
  77 C :   -0.005453
  78 C :   -0.012881
  79 C :   -0.011881
  80 C :   -0.008699
  81 H :    0.040068
  82 H :    0.038636
  83 H :    0.034398
  84 H :    0.033407
  85 H :    0.033404
  86 H :    0.032392
  87 H :    0.055329
  88 H :    0.047511
  89 H :    0.040549
  90 H :    0.019424
  91 H :    0.042372
  92 H :    0.045279
  93 H :    0.043512
  94 H :    0.040110
  95 H :    0.038895
  96 H :    0.034675
  97 H :    0.033195
  98 H :    0.032940
  99 H :    0.032369

  Mayer bond orders larger than 0.100000
B(  0-C ,  1-C ) :   1.6519 B(  0-C ,  6-C ) :   1.0035 B(  0-C , 18-C ) :   1.0340
B(  1-C ,  2-C ) :   1.1360 B(  1-C ,  4-C ) :   1.1555 B(  2-C ,  3-N ) :   2.9892
B(  4-C ,  5-N ) :   3.0170 B(  6-C ,  7-C ) :   1.2150 B(  6-C , 11-C ) :   1.4572
B(  7-C ,  8-C ) :   1.4744 B(  7-C , 16-C ) :   0.9210 B(  8-C ,  9-C ) :   1.1852
B(  8-C , 81-H ) :   1.0166 B(  9-C , 10-C ) :   1.2577 B(  9-C , 15-C ) :   1.2438
B( 10-C , 11-C ) :   1.2031 B( 10-C , 12-C ) :   1.2411 B( 11-C , 82-H ) :   0.9945
B( 12-C , 13-C ) :   1.4892 B( 12-C , 83-H ) :   0.9980 B( 13-C , 14-C ) :   1.2607
B( 13-C , 84-H ) :   0.9887 B( 14-C , 15-C ) :   1.4891 B( 14-C , 85-H ) :   0.9889
B( 15-C , 86-H ) :   0.9984 B( 16-C , 17-O ) :   2.2763 B( 16-C , 18-C ) :   0.9336
B( 18-C , 19-C ) :   1.6511 B( 19-C , 20-C ) :   1.1300 B( 19-C , 87-H ) :   0.9465
B( 20-C , 21-C ) :   1.4049 B( 20-C , 24-S ) :   1.0886 B( 21-C , 22-C ) :   1.3041
B( 21-C , 88-H ) :   1.0001 B( 22-C , 23-C ) :   1.4063 B( 22-C , 27-C ) :   0.9894
B( 23-C , 24-S ) :   1.1529 B( 23-C , 25-C ) :   1.2035 B( 25-C , 26-C ) :   1.4333
B( 25-C , 35-S ) :   1.1181 B( 26-C , 27-C ) :   0.9943 B( 26-C , 33-C ) :   1.2523
B( 27-C , 28-C ) :   1.7194 B( 28-C , 29-C ) :   1.1376 B( 28-C , 31-C ) :   1.1318
B( 29-C , 30-N ) :   2.9872 B( 31-C , 32-N ) :   2.9954 B( 33-C , 34-C ) :   1.4739
B( 33-C , 89-H ) :   0.9867 B( 34-C , 35-S ) :   1.1023 B( 34-C , 36-C ) :   1.1184
B( 36-C , 37-C ) :   1.4054 B( 36-C , 39-C ) :   0.1096 B( 36-C , 41-C ) :   1.2119
B( 37-C , 38-N ) :   1.4618 B( 37-C , 90-H ) :   0.9751 B( 38-N , 39-C ) :   1.6577
B( 39-C , 40-C ) :   1.1722 B( 39-C , 45-C ) :   1.1288 B( 40-C , 41-C ) :   1.1854
B( 40-C , 44-N ) :   1.5440 B( 41-C , 42-N ) :   1.5144 B( 42-N , 43-S ) :   1.2694
B( 42-N , 44-N ) :   0.1450 B( 43-S , 44-N ) :   1.2848 B( 45-C , 46-C ) :   1.4738
B( 45-C , 49-S ) :   1.1014 B( 46-C , 47-C ) :   1.2685 B( 46-C , 91-H ) :   0.9850
B( 47-C , 48-C ) :   1.4228 B( 47-C , 52-C ) :   0.9947 B( 48-C , 49-S ) :   1.1197
B( 48-C , 50-C ) :   1.2004 B( 50-C , 51-C ) :   1.3897 B( 50-C , 60-S ) :   1.1648
B( 51-C , 52-C ) :   0.9903 B( 51-C , 58-C ) :   1.3255 B( 52-C , 53-C ) :   1.7190
B( 53-C , 54-C ) :   1.1342 B( 53-C , 56-C ) :   1.1388 B( 54-C , 55-N ) :   2.9964
B( 56-C , 57-N ) :   2.9892 B( 58-C , 59-C ) :   1.4047 B( 58-C , 92-H ) :   0.9740
B( 59-C , 60-S ) :   1.0808 B( 59-C , 61-C ) :   1.1975 B( 61-C , 62-C ) :   1.6024
B( 61-C , 93-H ) :   0.9218 B( 62-C , 63-C ) :   1.0718 B( 62-C , 71-C ) :   0.9382
B( 63-C , 64-C ) :   1.6297 B( 63-C , 69-C ) :   0.9898 B( 64-C , 65-C ) :   1.1471
B( 64-C , 67-C ) :   1.1402 B( 65-C , 66-N ) :   2.9673 B( 67-C , 68-N ) :   2.9906
B( 69-C , 70-C ) :   1.2125 B( 69-C , 76-C ) :   1.4498 B( 70-C , 71-C ) :   0.9475
B( 70-C , 73-C ) :   1.4745 B( 71-C , 72-O ) :   2.1913 B( 73-C , 74-C ) :   1.1781
B( 73-C , 94-H ) :   1.0153 B( 74-C , 75-C ) :   1.2559 B( 74-C , 80-C ) :   1.2458
B( 75-C , 76-C ) :   1.2070 B( 75-C , 77-C ) :   1.2404 B( 76-C , 95-H ) :   0.9890
B( 77-C , 78-C ) :   1.4885 B( 77-C , 96-H ) :   0.9967 B( 78-C , 79-C ) :   1.2599
B( 78-C , 97-H ) :   0.9889 B( 79-C , 80-C ) :   1.4875 B( 79-C , 98-H ) :   0.9891
B( 80-C , 99-H ) :   0.9971

-----------------------------------------------------------------------------
         ABSORPTION SPECTRUM VIA TRANSITION ELECTRIC DIPOLE MOMENTS
-----------------------------------------------------------------------------
State   Energy  Wavelength   fosc         T2         TX        TY        TZ
        (cm-1)    (nm)                  (au**2)     (au)      (au)      (au)
-----------------------------------------------------------------------------
   0   12900.7    775.2   0.869138031  22.17955   2.44148  -4.02723  -0.01050
   1   14595.6    685.1   0.231882903   5.23026  -0.73227   1.81784  -1.17877
   2   18370.0    544.4   1.000390263  17.92817  -2.20685   3.61358   0.00688
   3   20809.2    480.6   0.492333990   7.78897  -0.52486  -1.00236   2.55123
   4   21459.1    466.0   0.063925895   0.98071  -0.52971   0.79480  -0.26154
   5   22803.5    438.5   0.233082502   3.36498  -0.82637   1.22950  -1.08186
   6   23604.6    423.6   0.023193166   0.32347   0.28524   0.25280   0.42214
   7   25067.8    398.9   0.041669490   0.54724  -0.00635  -0.14235   0.72590
   8   25212.0    396.6   0.052999518   0.69206   0.05438  -0.78846  -0.25966
   9   27032.6    369.9   0.000126141   0.00154  -0.01408   0.01981  -0.03075
  10   27278.9    366.6   0.007971850   0.09621   0.04013   0.30576  -0.03332
  11   27542.3    363.1   0.008277576   0.09894   0.28103  -0.11785  -0.07795
  12   28387.1    352.3   0.021000646   0.24355  -0.19942   0.44326  -0.08544
  13   28689.3    348.6   0.015396027   0.17667   0.07985  -0.40895  -0.05529
  14   29077.2    343.9   0.030482387   0.34512   0.26076   0.47416   0.22868
  15   29147.1    343.1   0.187083587   2.11308   0.39262  -0.82072  -1.13373
  16   29255.5    341.8   0.113007749   1.27168  -0.17148   0.10442   1.10967
  17   29362.6    340.6   0.073531639   0.82443   0.33659  -0.40963   0.73712
  18   29805.5    335.5   0.340666808   3.76278  -0.30361   1.68923   0.90394
  19   30300.1    330.0   0.269851841   2.93195   0.15588   1.61946   0.53387
  20   30510.7    327.8   0.262775062   2.83536  -0.21526  -0.10810   1.66653
  21   30675.7    326.0   0.023057601   0.24745   0.20017  -0.45538  -0.00410
  22   30820.6    324.5   0.017923642   0.19145  -0.04430  -0.05709   0.43154
  23   31097.5    321.6   0.476820298   5.04782   0.50058  -1.36245  -1.71493
  24   31120.7    321.3   0.185951502   1.96710  -0.15526  -1.24117   0.63441
  25   31884.8    313.6   0.268544288   2.77273  -0.56359   0.88208  -1.29500
  26   32343.8    309.2   0.043791846   0.44574  -0.35468   0.17332   0.53842
  27   32589.1    306.9   0.229268157   2.31604   0.15162  -1.49400   0.24702
  28   32667.1    306.1   0.235315921   2.37146  -0.60707   1.09039   0.90220
  29   33036.9    302.7   0.056895563   0.56696   0.29722  -0.68901   0.06237
  30   33173.7    301.4   0.080980562   0.80364  -0.02771  -0.48193  -0.75539
  31   33382.1    299.6   0.448474468   4.42283  -0.65867   1.92664   0.52636
  32   33724.5    296.5   0.058327657   0.56938   0.15639  -0.42702   0.60215
  33   33964.3    294.4   0.197074541   1.91022  -0.04042  -0.29861  -1.34886
  34   34222.7    292.2   0.122393385   1.17739   0.35188  -0.97664   0.31582
  35   34431.6    290.4   0.043241213   0.41344   0.51704  -0.04954   0.37902
  36   34592.7    289.1   0.037300887   0.35499  -0.01332   0.58964  -0.08446
  37   34733.0    287.9   0.248398773   2.35441   0.04024  -0.56126  -1.42751
  38   34932.8    286.3   0.311139220   2.93222   0.62080   1.32898   0.88354
  39   35162.2    284.4   0.117296942   1.09821  -0.29100  -0.57143  -0.82885
  40   35551.1    281.3   0.059310227   0.54923  -0.45915  -0.56879  -0.12201
  41   35586.6    281.0   0.051584744   0.47721   0.16244  -0.21845  -0.63490
  42   35851.3    278.9   0.367147768   3.37141  -0.18488  -0.88373  -1.59883
  43   36617.0    273.1   0.204549244   1.83904  -0.26081   1.23291   0.50094
  44   36913.3    270.9   0.058579767   0.52244  -0.21420   0.65036   0.23149
  45   37143.6    269.2   0.087492024   0.77546   0.04504   0.06551   0.87701
  46   37189.6    268.9   0.020304472   0.17974  -0.01084  -0.20520   0.37083
  47   37470.2    266.9   0.010277550   0.09030  -0.09619   0.20095  -0.20166
  48   37543.3    266.4   0.013493767   0.11833   0.01827   0.27489  -0.20598
  49   37738.1    265.0   0.031738129   0.27687   0.30970   0.15258   0.39709
  50   37834.0    264.3   0.006993864   0.06086  -0.02943  -0.24417  -0.01922
  51   38061.5    262.7   0.056572723   0.48932   0.07593   0.53193   0.44790
  52   38336.7    260.8   0.005227932   0.04489  -0.05469   0.04642  -0.19937
  53   38348.0    260.8   0.017758289   0.15245   0.02535  -0.17907   0.34604
  54   38452.4    260.1   0.024052845   0.20593  -0.39221   0.13154  -0.18656
  55   38666.7    258.6   0.077920547   0.66342  -0.18945   0.72171   0.32660
  56   38701.0    258.4   0.014042577   0.11945   0.05743  -0.32645   0.09792
  57   38843.1    257.4   0.002567449   0.02176   0.04914  -0.13619   0.02826
  58   39094.3    255.8   0.021471254   0.18081  -0.09940   0.15558  -0.38305
  59   39326.6    254.3   0.043105823   0.36085  -0.36750  -0.08330  -0.46782
  60   39437.5    253.6   0.069840188   0.58300  -0.03327  -0.12274  -0.75288
  61   39664.3    252.1   0.112737760   0.93572  -0.52536   0.03369  -0.81153
  62   39810.4    251.2   0.075342674   0.62305  -0.30995   0.64184  -0.33914
  63   39906.9    250.6   0.033621954   0.27736  -0.23297   0.03980  -0.47064
  64   40149.0    249.1   0.066825778   0.54795  -0.36251  -0.58932   0.26315
  65   40306.0    248.1   0.001884704   0.01539  -0.11783  -0.01428  -0.03616

FINAL SINGLE POINT ENERGY     -5151.014882111558

DIPOLE MOMENT
-------------
                                X             Y             Z
Electronic contribution:     -6.25592     -13.65865      32.44214
Nuclear contribution   :      6.62462      13.34735     -34.68732
                        -----------------------------------------
Total Dipole Moment    :      0.36870      -0.31130      -2.24518
                        -----------------------------------------
Magnitude (a.u.)       :      2.29645
Magnitude (Debye)      :      5.83711

Rotational constants in cm-1:     0.001248     0.000167     0.000151
Rotational constants in MHz :    37.418551     5.010350     4.536565

                             ****ORCA TERMINATED NORMALLY****
TOTAL RUN TIME: 0 days 0 hours 11 minutes 0 seconds 314 msec
