                         Program Version 4.2.0 -  RELEASE  -
|  1> # ORCA input file
|  2> # SCF done       -204.875956346205          0.000993396888
|  3> ! CAM-B3LYP def2-SVP def2/J RIJCOSX Grid4 TightSCF
|  4> %maxcore 5000
|  5> %tddft
|  6>     Mode sTDDFT
|  7>     Ethresh 5.0
|  8>     maxcore 5000
|  9> end
| 10>
| 11> %pal
| 12>   nprocs 6
| 13>   end
| 14> * xyz 0 1
| 15>    C       -0.49974        -1.45281        -3.19854
| 16>    O       -0.39082        -0.32640        -2.78444
| 17>    C       -1.23036        -1.92249        -4.39391
| 18>    C       -1.04731        -3.31071        -4.54884
| 19>    C       -1.68202        -3.97681        -5.58394
| 20>    C       -2.48095        -3.24526        -6.45523
| 21>    C       -2.64194        -1.86451        -6.30614
| 22>    C       -2.01453        -1.19324        -5.26509
| 23>   Br       -3.72605        -0.89619        -7.51141
| 24>   Br       -3.36185        -4.15234        -7.85732
| 25>    C       -0.12980        -3.78823        -3.51659
| 26>    C        0.60878        -4.93310        -3.57310
| 27>    C        0.43921        -5.91953        -4.56951
| 28>    N        0.32279        -6.74571        -5.35638
| 29>    C        1.71394        -5.20527        -2.73401
| 30>    N        2.69133        -5.43581        -2.17969
| 31>    C        0.02694        -2.70064        -2.56483
| 32>    C        0.37318        -2.68944        -1.25777
| 33>    C        0.54340        -3.81240        -0.39923
| 34>    O        0.97100        -3.58675         0.87647
| 35>    C        0.98197        -4.79970         1.46002
| 36>    C        0.53288        -5.74619         0.48694
| 37>    N        0.27125        -5.05883        -0.66019
| 38>    C        0.42997        -7.10134         0.76344
| 39>    C        0.79350        -7.45197         2.05241
| 40>    C        1.23216        -6.48435         3.01045
| 41>    C        1.34460        -5.13327         2.74994
| 42>    O        1.49895        -7.14060         4.15138
| 43>    C        1.23120        -8.44765         3.87788
| 44>    N        0.81960        -8.67333         2.66451
| 45>    C        1.41333        -9.38888         4.93583
| 46>    N        1.22954       -10.73800         4.82651
| 47>    C        0.90181       -11.47403         3.62899
| 48>    C        2.13128       -11.69491         2.75361
| 49>    C        1.46258       -11.39213         6.06055
| 50>    O        1.35590       -12.58695         6.21411
| 51>    C        1.80940       -10.31689         6.96745
| 52>    C        1.76857        -9.09766         6.24484
| 53>    C        2.08140        -8.02582         7.16642
| 54>    O        2.18033        -6.82867         7.03067
| 55>    N        2.26816        -8.68134         8.41038
| 56>    C        2.71847        -7.91066         9.54546
| 57>    C        4.16379        -8.22464         9.91991
| 58>    C        2.11076       -10.04357         8.29773
| 59>    C        2.19418       -11.04949         9.30322
| 60>    C        2.18309       -10.90518        10.64666
| 61>    C        2.27592       -12.02565        11.52541
| 62>    O        2.14389       -11.80035        12.87287
| 63>    C        2.30109       -13.01114        13.44201
| 64>    C        2.53393       -13.95075        12.38826
| 65>    N        2.49958       -13.26393        11.20875
| 66>    C        2.75981       -15.29324        12.63773
| 67>    C        2.73671       -15.64149        13.98000
| 68>    C        2.48233       -14.68695        15.01200
| 69>    C        2.26033       -13.34321        14.78061
| 70>    O        2.52153       -15.34290        16.18755
| 71>    C        2.81964       -16.63256        15.85975
| 72>    N        2.94574       -16.84626        14.58196
| 73>    C        2.89092       -17.60085        16.90288
| 74>    C        3.36213       -18.86457        16.81000
| 75>    C        3.00725       -19.86776        17.86005
| 76>    O        2.55714       -19.64339        18.95542
| 77>    C        3.27261       -21.17779        17.23030
| 78>    C        3.86118       -20.98717        15.96470
| 79>    C        4.07195       -19.55813        15.74695
| 80>    C        4.95986       -19.01008        14.86868
| 81>    C        5.37380       -17.65885        14.89715
| 82>    N        5.83791       -16.61071        14.93592
| 83>    C        5.67033       -19.76071        13.90600
| 84>    N        6.26042       -20.33259        13.10641
| 85>    C        4.16948       -22.08408        15.17712
| 86>    C        3.89591       -23.35493        15.66922
| 87>    C        3.32552       -23.53622        16.93287
| 88>    C        3.00645       -22.43975        17.72278
| 89>   Br        2.97443       -25.27521        17.57936
| 90>   Br        4.30767       -24.85174        14.59460
| 91>    H       -1.58143        -5.04104        -5.72461
| 92>    H       -2.13646        -0.12873        -5.13769
| 93>    H        0.44842        -1.72274        -0.77391
| 94>    H        0.10194        -7.81993         0.03402
| 95>    H        1.68131        -4.41947         3.48078
| 96>    H        0.14219       -10.92224         3.07317
| 97>    H        0.50386       -12.43548         3.96413
| 98>    H        2.52217       -10.74234         2.40647
| 99>    H        1.85913       -12.29347         1.88963
|100>    H        2.90350       -12.21804         3.31234
|101>    H        2.04517        -8.05883        10.39342
|102>    H        2.64151        -6.86513         9.23005
|103>    H        4.28402        -9.27024        10.19282
|104>    H        4.46576        -7.60609        10.76052
|105>    H        4.81880        -8.00950         9.07928
|106>    H        2.22751       -12.05808         8.91048
|107>    H        2.08517        -9.95459        11.14549
|108>    H        2.94957       -16.00472        11.85443
|109>    H        2.08176       -12.62896        15.56523
|110>    H        2.44740       -17.30439        17.84617
|111>    H        4.60534       -21.97850        14.19662
|112>    H        2.56284       -22.56864        18.69793
|113> *
|114>
|115>                          ****END OF INPUT****

CARTESIAN COORDINATES (ANGSTROEM)
---------------------------------
  C     -0.499740   -1.452810   -3.198540
  O     -0.390820   -0.326400   -2.784440
  C     -1.230360   -1.922490   -4.393910
  C     -1.047310   -3.310710   -4.548840
  C     -1.682020   -3.976810   -5.583940
  C     -2.480950   -3.245260   -6.455230
  C     -2.641940   -1.864510   -6.306140
  C     -2.014530   -1.193240   -5.265090
  Br    -3.726050   -0.896190   -7.511410
  Br    -3.361850   -4.152340   -7.857320
  C     -0.129800   -3.788230   -3.516590
  C      0.608780   -4.933100   -3.573100
  C      0.439210   -5.919530   -4.569510
  N      0.322790   -6.745710   -5.356380
  C      1.713940   -5.205270   -2.734010
  N      2.691330   -5.435810   -2.179690
  C      0.026940   -2.700640   -2.564830
  C      0.373180   -2.689440   -1.257770
  C      0.543400   -3.812400   -0.399230
  O      0.971000   -3.586750    0.876470
  C      0.981970   -4.799700    1.460020
  C      0.532880   -5.746190    0.486940
  N      0.271250   -5.058830   -0.660190
  C      0.429970   -7.101340    0.763440
  C      0.793500   -7.451970    2.052410
  C      1.232160   -6.484350    3.010450
  C      1.344600   -5.133270    2.749940
  O      1.498950   -7.140600    4.151380
  C      1.231200   -8.447650    3.877880
  N      0.819600   -8.673330    2.664510
  C      1.413330   -9.388880    4.935830
  N      1.229540  -10.738000    4.826510
  C      0.901810  -11.474030    3.628990
  C      2.131280  -11.694910    2.753610
  C      1.462580  -11.392130    6.060550
  O      1.355900  -12.586950    6.214110
  C      1.809400  -10.316890    6.967450
  C      1.768570   -9.097660    6.244840
  C      2.081400   -8.025820    7.166420
  O      2.180330   -6.828670    7.030670
  N      2.268160   -8.681340    8.410380
  C      2.718470   -7.910660    9.545460
  C      4.163790   -8.224640    9.919910
  C      2.110760  -10.043570    8.297730
  C      2.194180  -11.049490    9.303220
  C      2.183090  -10.905180   10.646660
  C      2.275920  -12.025650   11.525410
  O      2.143890  -11.800350   12.872870
  C      2.301090  -13.011140   13.442010
  C      2.533930  -13.950750   12.388260
  N      2.499580  -13.263930   11.208750
  C      2.759810  -15.293240   12.637730
  C      2.736710  -15.641490   13.980000
  C      2.482330  -14.686950   15.012000
  C      2.260330  -13.343210   14.780610
  O      2.521530  -15.342900   16.187550
  C      2.819640  -16.632560   15.859750
  N      2.945740  -16.846260   14.581960
  C      2.890920  -17.600850   16.902880
  C      3.362130  -18.864570   16.810000
  C      3.007250  -19.867760   17.860050
  O      2.557140  -19.643390   18.955420
  C      3.272610  -21.177790   17.230300
  C      3.861180  -20.987170   15.964700
  C      4.071950  -19.558130   15.746950
  C      4.959860  -19.010080   14.868680
  C      5.373800  -17.658850   14.897150
  N      5.837910  -16.610710   14.935920
  C      5.670330  -19.760710   13.906000
  N      6.260420  -20.332590   13.106410
  C      4.169480  -22.084080   15.177120
  C      3.895910  -23.354930   15.669220
  C      3.325520  -23.536220   16.932870
  C      3.006450  -22.439750   17.722780
  Br     2.974430  -25.275210   17.579360
  Br     4.307670  -24.851740   14.594600
  H     -1.581430   -5.041040   -5.724610
  H     -2.136460   -0.128730   -5.137690
  H      0.448420   -1.722740   -0.773910
  H      0.101940   -7.819930    0.034020
  H      1.681310   -4.419470    3.480780
  H      0.142190  -10.922240    3.073170
  H      0.503860  -12.435480    3.964130
  H      2.522170  -10.742340    2.406470
  H      1.859130  -12.293470    1.889630
  H      2.903500  -12.218040    3.312340
  H      2.045170   -8.058830   10.393420
  H      2.641510   -6.865130    9.230050
  H      4.284020   -9.270240   10.192820
  H      4.465760   -7.606090   10.760520
  H      4.818800   -8.009500    9.079280
  H      2.227510  -12.058080    8.910480
  H      2.085170   -9.954590   11.145490
  H      2.949570  -16.004720   11.854430
  H      2.081760  -12.628960   15.565230
  H      2.447400  -17.304390   17.846170
  H      4.605340  -21.978500   14.196620
  H      2.562840  -22.568640   18.697930

 Total Charge           Charge          ....    0
 Multiplicity           Mult            ....    1
 Number of Electrons    NEL             ....  620
 Basis Dimension        Dim             .... 1246

ORBITAL ENERGIES
----------------

  NO   OCC          E(Eh)            E(eV)
   0   2.0000    -482.882338    -13139.8964
   1   2.0000    -482.881520    -13139.8742
   2   2.0000    -482.881260    -13139.8671
   3   2.0000    -482.880079    -13139.8350
   4   2.0000     -62.559939     -1702.3425
   5   2.0000     -62.559163     -1702.3214
   6   2.0000     -62.558855     -1702.3130
   7   2.0000     -62.557751     -1702.2830
   8   2.0000     -56.393892     -1534.5558
   9   2.0000     -56.393125     -1534.5349
  10   2.0000     -56.392808     -1534.5263
  11   2.0000     -56.391713     -1534.4965
  12   2.0000     -56.391230     -1534.4834
  13   2.0000     -56.391139     -1534.4809
  14   2.0000     -56.390452     -1534.4622
  15   2.0000     -56.390352     -1534.4595
  16   2.0000     -56.390148     -1534.4539
  17   2.0000     -56.390058     -1534.4515
  18   2.0000     -56.389038     -1534.4237
  19   2.0000     -56.388938     -1534.4210
  20   2.0000     -19.318124      -525.6729
  21   2.0000     -19.315129      -525.5914
  22   2.0000     -19.313652      -525.5512
  23   2.0000     -19.309672      -525.4429
  24   2.0000     -19.235282      -523.4186
  25   2.0000     -19.233519      -523.3707
  26   2.0000     -19.198097      -522.4068
  27   2.0000     -19.195584      -522.3384
  28   2.0000     -14.461050      -393.5052
  29   2.0000     -14.460846      -393.4996
  30   2.0000     -14.434473      -392.7820
  31   2.0000     -14.431261      -392.6946
  32   2.0000     -14.430503      -392.6739
  33   2.0000     -14.428238      -392.6123
  34   2.0000     -14.426292      -392.5594
  35   2.0000     -14.420473      -392.4010
  36   2.0000     -14.420171      -392.3928
  37   2.0000     -14.418197      -392.3391
  38   2.0000     -10.393754      -282.8284
  39   2.0000     -10.391826      -282.7760
  40   2.0000     -10.388262      -282.6790
  41   2.0000     -10.386093      -282.6200
  42   2.0000     -10.384334      -282.5721
  43   2.0000     -10.383291      -282.5437
  44   2.0000     -10.381576      -282.4970
  45   2.0000     -10.380385      -282.4646
  46   2.0000     -10.361347      -281.9466
  47   2.0000     -10.361005      -281.9373
  48   2.0000     -10.360176      -281.9147
  49   2.0000     -10.360137      -281.9137
  50   2.0000     -10.359997      -281.9099
  51   2.0000     -10.359925      -281.9079
  52   2.0000     -10.358818      -281.8778
  53   2.0000     -10.358458      -281.8680
  54   2.0000     -10.356450      -281.8133
  55   2.0000     -10.355644      -281.7914
  56   2.0000     -10.355405      -281.7849
  57   2.0000     -10.352979      -281.7189
  58   2.0000     -10.351789      -281.6865
  59   2.0000     -10.351241      -281.6716
  60   2.0000     -10.333806      -281.1972
  61   2.0000     -10.332249      -281.1548
  62   2.0000     -10.328923      -281.0643
  63   2.0000     -10.327554      -281.0270
  64   2.0000     -10.327089      -281.0144
  65   2.0000     -10.326010      -280.9850
  66   2.0000     -10.324472      -280.9432
  67   2.0000     -10.324066      -280.9321
  68   2.0000     -10.324062      -280.9320
  69   2.0000     -10.323812      -280.9252
  70   2.0000     -10.323564      -280.9185
  71   2.0000     -10.321587      -280.8647
  72   2.0000     -10.319762      -280.8150
  73   2.0000     -10.319509      -280.8081
  74   2.0000     -10.318404      -280.7780
  75   2.0000     -10.318327      -280.7760
  76   2.0000     -10.317898      -280.7643
  77   2.0000     -10.316850      -280.7358
  78   2.0000     -10.312877      -280.6277
  79   2.0000     -10.312719      -280.6234
  80   2.0000     -10.311342      -280.5859
  81   2.0000     -10.310400      -280.5603
  82   2.0000     -10.308713      -280.5143
  83   2.0000     -10.306229      -280.4468
  84   2.0000     -10.303801      -280.3807
  85   2.0000     -10.299546      -280.2649
  86   2.0000     -10.298223      -280.2289
  87   2.0000     -10.293471      -280.0996
  88   2.0000     -10.277662      -279.6694
  89   2.0000     -10.273546      -279.5574
  90   2.0000     -10.268078      -279.4086
  91   2.0000     -10.253388      -279.0089
  92   2.0000      -8.789267      -239.1681
  93   2.0000      -8.788509      -239.1475
  94   2.0000      -8.788175      -239.1384
  95   2.0000      -8.787120      -239.1097
  96   2.0000      -6.625398      -180.2862
  97   2.0000      -6.624700      -180.2673
  98   2.0000      -6.624307      -180.2565
  99   2.0000      -6.623323      -180.2298
 100   2.0000      -6.611388      -179.9050
 101   2.0000      -6.610610      -179.8839
 102   2.0000      -6.610603      -179.8837
 103   2.0000      -6.610288      -179.8751
 104   2.0000      -6.609796      -179.8617
 105   2.0000      -6.609522      -179.8542
 106   2.0000      -6.609222      -179.8461
 107   2.0000      -6.608402      -179.8238
 108   2.0000      -2.741340       -74.5957
 109   2.0000      -2.740618       -74.5760
 110   2.0000      -2.740233       -74.5655
 111   2.0000      -2.739203       -74.5375
 112   2.0000      -2.737519       -74.4917
 113   2.0000      -2.736923       -74.4755
 114   2.0000      -2.736834       -74.4730
 115   2.0000      -2.736434       -74.4622
 116   2.0000      -2.736150       -74.4544
 117   2.0000      -2.735839       -74.4460
 118   2.0000      -2.735462       -74.4357
 119   2.0000      -2.734784       -74.4172
 120   2.0000      -2.725770       -74.1720
 121   2.0000      -2.725758       -74.1716
 122   2.0000      -2.724979       -74.1504
 123   2.0000      -2.724969       -74.1502
 124   2.0000      -2.724681       -74.1423
 125   2.0000      -2.724672       -74.1421
 126   2.0000      -2.723591       -74.1127
 127   2.0000      -2.723576       -74.1123
 128   2.0000      -1.249509       -34.0009
 129   2.0000      -1.247905       -33.9572
 130   2.0000      -1.245802       -33.9000
 131   2.0000      -1.238685       -33.7063
 132   2.0000      -1.151438       -31.3322
 133   2.0000      -1.149617       -31.2827
 134   2.0000      -1.140822       -31.0433
 135   2.0000      -1.133713       -30.8499
 136   2.0000      -1.072752       -29.1911
 137   2.0000      -1.063097       -28.9283
 138   2.0000      -1.047053       -28.4918
 139   2.0000      -1.043339       -28.3907
 140   2.0000      -1.038286       -28.2532
 141   2.0000      -1.032370       -28.0922
 142   2.0000      -1.031650       -28.0726
 143   2.0000      -1.029411       -28.0117
 144   2.0000      -1.015605       -27.6360
 145   2.0000      -1.014356       -27.6020
 146   2.0000      -1.001692       -27.2574
 147   2.0000      -1.001066       -27.2404
 148   2.0000      -0.987047       -26.8589
 149   2.0000      -0.985537       -26.8178
 150   2.0000      -0.972152       -26.4536
 151   2.0000      -0.969581       -26.3836
 152   2.0000      -0.935619       -25.4595
 153   2.0000      -0.930274       -25.3140
 154   2.0000      -0.929780       -25.3006
 155   2.0000      -0.925099       -25.1732
 156   2.0000      -0.923637       -25.1334
 157   2.0000      -0.918273       -24.9875
 158   2.0000      -0.916692       -24.9444
 159   2.0000      -0.912593       -24.8329
 160   2.0000      -0.892689       -24.2913
 161   2.0000      -0.881275       -23.9807
 162   2.0000      -0.876983       -23.8639
 163   2.0000      -0.868934       -23.6449
 164   2.0000      -0.862567       -23.4716
 165   2.0000      -0.861655       -23.4468
 166   2.0000      -0.860350       -23.4113
 167   2.0000      -0.859029       -23.3754
 168   2.0000      -0.851474       -23.1698
 169   2.0000      -0.828248       -22.5378
 170   2.0000      -0.822418       -22.3791
 171   2.0000      -0.819191       -22.2913
 172   2.0000      -0.792539       -21.5661
 173   2.0000      -0.785653       -21.3787
 174   2.0000      -0.777229       -21.1495
 175   2.0000      -0.774470       -21.0744
 176   2.0000      -0.762756       -20.7557
 177   2.0000      -0.758257       -20.6332
 178   2.0000      -0.749401       -20.3922
 179   2.0000      -0.744237       -20.2517
 180   2.0000      -0.739000       -20.1092
 181   2.0000      -0.723148       -19.6779
 182   2.0000      -0.720436       -19.6041
 183   2.0000      -0.718617       -19.5546
 184   2.0000      -0.716397       -19.4941
 185   2.0000      -0.712435       -19.3864
 186   2.0000      -0.706086       -19.2136
 187   2.0000      -0.703164       -19.1341
 188   2.0000      -0.696294       -18.9471
 189   2.0000      -0.693150       -18.8616
 190   2.0000      -0.688996       -18.7485
 191   2.0000      -0.682047       -18.5594
 192   2.0000      -0.676146       -18.3989
 193   2.0000      -0.670294       -18.2396
 194   2.0000      -0.662016       -18.0144
 195   2.0000      -0.659315       -17.9409
 196   2.0000      -0.657222       -17.8839
 197   2.0000      -0.650935       -17.7128
 198   2.0000      -0.646643       -17.5960
 199   2.0000      -0.632310       -17.2060
 200   2.0000      -0.628943       -17.1144
 201   2.0000      -0.624608       -16.9964
 202   2.0000      -0.611045       -16.6274
 203   2.0000      -0.603923       -16.4336
 204   2.0000      -0.601839       -16.3769
 205   2.0000      -0.600493       -16.3402
 206   2.0000      -0.596824       -16.2404
 207   2.0000      -0.594855       -16.1868
 208   2.0000      -0.593608       -16.1529
 209   2.0000      -0.591430       -16.0936
 210   2.0000      -0.589476       -16.0405
 211   2.0000      -0.585903       -15.9432
 212   2.0000      -0.582957       -15.8631
 213   2.0000      -0.579549       -15.7703
 214   2.0000      -0.577589       -15.7170
 215   2.0000      -0.574568       -15.6348
 216   2.0000      -0.571940       -15.5633
 217   2.0000      -0.560197       -15.2437
 218   2.0000      -0.559181       -15.2161
 219   2.0000      -0.557284       -15.1645
 220   2.0000      -0.556793       -15.1511
 221   2.0000      -0.553634       -15.0652
 222   2.0000      -0.553244       -15.0545
 223   2.0000      -0.552851       -15.0438
 224   2.0000      -0.551138       -14.9972
 225   2.0000      -0.550630       -14.9834
 226   2.0000      -0.549308       -14.9474
 227   2.0000      -0.547405       -14.8956
 228   2.0000      -0.541008       -14.7216
 229   2.0000      -0.537208       -14.6182
 230   2.0000      -0.536462       -14.5979
 231   2.0000      -0.533506       -14.5174
 232   2.0000      -0.531098       -14.4519
 233   2.0000      -0.519489       -14.1360
 234   2.0000      -0.519078       -14.1248
 235   2.0000      -0.515644       -14.0314
 236   2.0000      -0.511560       -13.9202
 237   2.0000      -0.510207       -13.8834
 238   2.0000      -0.508941       -13.8490
 239   2.0000      -0.508631       -13.8406
 240   2.0000      -0.505009       -13.7420
 241   2.0000      -0.501638       -13.6503
 242   2.0000      -0.500323       -13.6145
 243   2.0000      -0.497741       -13.5442
 244   2.0000      -0.496170       -13.5015
 245   2.0000      -0.494667       -13.4606
 246   2.0000      -0.493777       -13.4364
 247   2.0000      -0.478536       -13.0216
 248   2.0000      -0.476460       -12.9651
 249   2.0000      -0.471441       -12.8286
 250   2.0000      -0.469982       -12.7888
 251   2.0000      -0.468975       -12.7614
 252   2.0000      -0.468085       -12.7372
 253   2.0000      -0.467178       -12.7126
 254   2.0000      -0.466563       -12.6958
 255   2.0000      -0.464431       -12.6378
 256   2.0000      -0.461810       -12.5665
 257   2.0000      -0.461178       -12.5493
 258   2.0000      -0.459675       -12.5084
 259   2.0000      -0.459040       -12.4911
 260   2.0000      -0.457959       -12.4617
 261   2.0000      -0.457347       -12.4450
 262   2.0000      -0.455235       -12.3876
 263   2.0000      -0.453591       -12.3428
 264   2.0000      -0.450684       -12.2637
 265   2.0000      -0.450227       -12.2513
 266   2.0000      -0.448089       -12.1931
 267   2.0000      -0.445715       -12.1285
 268   2.0000      -0.444089       -12.0843
 269   2.0000      -0.437941       -11.9170
 270   2.0000      -0.436304       -11.8724
 271   2.0000      -0.436240       -11.8707
 272   2.0000      -0.435281       -11.8446
 273   2.0000      -0.431245       -11.7348
 274   2.0000      -0.428513       -11.6604
 275   2.0000      -0.426588       -11.6080
 276   2.0000      -0.422092       -11.4857
 277   2.0000      -0.419836       -11.4243
 278   2.0000      -0.416023       -11.3206
 279   2.0000      -0.413306       -11.2466
 280   2.0000      -0.409243       -11.1361
 281   2.0000      -0.406389       -11.0584
 282   2.0000      -0.405205       -11.0262
 283   2.0000      -0.395981       -10.7752
 284   2.0000      -0.394825       -10.7437
 285   2.0000      -0.392981       -10.6936
 286   2.0000      -0.391834       -10.6623
 287   2.0000      -0.385776       -10.4975
 288   2.0000      -0.383530       -10.4364
 289   2.0000      -0.380684       -10.3589
 290   2.0000      -0.376715       -10.2509
 291   2.0000      -0.372844       -10.1456
 292   2.0000      -0.366329        -9.9683
 293   2.0000      -0.360946        -9.8218
 294   2.0000      -0.355279        -9.6676
 295   2.0000      -0.353232        -9.6119
 296   2.0000      -0.352647        -9.5960
 297   2.0000      -0.350845        -9.5470
 298   2.0000      -0.349271        -9.5042
 299   2.0000      -0.340971        -9.2783
 300   2.0000      -0.338925        -9.2226
 301   2.0000      -0.338074        -9.1995
 302   2.0000      -0.323791        -8.8108
 303   2.0000      -0.319220        -8.6864
 304   2.0000      -0.317020        -8.6265
 305   2.0000      -0.316243        -8.6054
 306   2.0000      -0.307836        -8.3767
 307   2.0000      -0.303244        -8.2517
 308   2.0000      -0.295109        -8.0303
 309   2.0000      -0.252057        -6.8588
 310   0.0000      -0.110823        -3.0156
 311   0.0000      -0.104684        -2.8486
 312   0.0000      -0.093667        -2.5488
 313   0.0000      -0.075970        -2.0673
 314   0.0000      -0.074230        -2.0199

MULLIKEN ATOMIC CHARGES
-----------------------
   0 C :    0.139249
   1 O :   -0.123072
   2 C :   -0.007695
   3 C :    0.028609
   4 C :   -0.008931
   5 C :   -0.022047
   6 C :   -0.018375
   7 C :   -0.016022
   8 Br:    0.019324
   9 Br:    0.027356
  10 C :    0.256569
  11 C :   -0.261888
  12 C :   -0.195108
  13 N :    0.167567
  14 C :   -0.181543
  15 N :    0.166914
  16 C :   -0.085829
  17 C :    0.022811
  18 C :    0.120979
  19 O :   -0.184577
  20 C :    0.223661
  21 C :    0.033019
  22 N :   -0.069150
  23 C :   -0.065155
  24 C :    0.029792
  25 C :    0.222721
  26 C :   -0.147753
  27 O :   -0.158930
  28 C :    0.043209
  29 N :   -0.046413
  30 C :    0.098879
  31 N :   -0.260875
  32 C :    0.123487
  33 C :    0.001605
  34 C :    0.153204
  35 O :   -0.174380
  36 C :   -0.036514
  37 C :   -0.028183
  38 C :    0.141500
  39 O :   -0.169582
  40 N :   -0.280109
  41 C :    0.095177
  42 C :   -0.005346
  43 C :    0.118090
  44 C :   -0.010902
  45 C :   -0.006436
  46 C :    0.105585
  47 O :   -0.199952
  48 C :    0.215861
  49 C :    0.019588
  50 N :   -0.033389
  51 C :   -0.063893
  52 C :    0.032131
  53 C :    0.220403
  54 C :   -0.150060
  55 O :   -0.184264
  56 C :    0.113425
  57 N :   -0.065404
  58 C :    0.022321
  59 C :   -0.089137
  60 C :    0.137862
  61 O :   -0.122667
  62 C :   -0.008636
  63 C :    0.024268
  64 C :    0.270924
  65 C :   -0.269056
  66 C :   -0.180008
  67 N :    0.161943
  68 C :   -0.192180
  69 N :    0.166276
  70 C :   -0.004849
  71 C :   -0.022479
  72 C :   -0.018651
  73 C :   -0.013304
  74 Br:    0.019018
  75 Br:    0.027471
  76 H :    0.014057
  77 H :    0.011286
  78 H :    0.034201
  79 H :   -0.015003
  80 H :    0.003060
  81 H :    0.033959
  82 H :    0.035548
  83 H :    0.017301
  84 H :    0.021580
  85 H :    0.022373
  86 H :    0.025911
  87 H :    0.048737
  88 H :    0.026836
  89 H :    0.025280
  90 H :    0.028051
  91 H :    0.043104
  92 H :    0.000477
  93 H :   -0.013453
  94 H :   -0.008102
  95 H :    0.035313
  96 H :    0.012442
  97 H :    0.008985
Sum of atomic charges:   -0.0000000

LOEWDIN ATOMIC CHARGES
----------------------
   0 C :    0.085477
   1 O :   -0.122181
   2 C :   -0.048164
   3 C :   -0.004757
   4 C :   -0.009455
   5 C :   -0.115373
   6 C :   -0.124488
   7 C :    0.009646
   8 Br:    0.141508
   9 Br:    0.147435
  10 C :    0.059310
  11 C :   -0.097339
  12 C :   -0.018303
  13 N :   -0.034411
  14 C :   -0.018542
  15 N :   -0.041827
  16 C :   -0.046012
  17 C :    0.036356
  18 C :    0.052930
  19 O :    0.006775
  20 C :    0.047628
  21 C :   -0.030262
  22 N :   -0.067267
  23 C :   -0.004738
  24 C :   -0.033828
  25 C :    0.049327
  26 C :   -0.054006
  27 O :    0.025137
  28 C :    0.058169
  29 N :   -0.083783
  30 C :    0.050479
  31 N :    0.009595
  32 C :    0.036464
  33 C :   -0.059503
  34 C :    0.080469
  35 O :   -0.178956
  36 C :   -0.107254
  37 C :   -0.106924
  38 C :    0.083102
  39 O :   -0.174774
  40 N :   -0.009964
  41 C :    0.034097
  42 C :   -0.062690
  43 C :    0.075544
  44 C :    0.015584
  45 C :   -0.031308
  46 C :    0.062246
  47 O :   -0.009708
  48 C :    0.044452
  49 C :   -0.030952
  50 N :   -0.090708
  51 C :   -0.005030
  52 C :   -0.031805
  53 C :    0.045283
  54 C :   -0.060974
  55 O :    0.006399
  56 C :    0.049423
  57 N :   -0.070420
  58 C :    0.039114
  59 C :   -0.048301
  60 C :    0.084989
  61 O :   -0.123371
  62 C :   -0.047922
  63 C :   -0.004955
  64 C :    0.061996
  65 C :   -0.098996
  66 C :   -0.016664
  67 N :   -0.042200
  68 C :   -0.018476
  69 N :   -0.034372
  70 C :   -0.008492
  71 C :   -0.115595
  72 C :   -0.124309
  73 C :    0.009812
  74 Br:    0.141255
  75 Br:    0.147295
  76 H :    0.045650
  77 H :    0.047872
  78 H :    0.057283
  79 H :    0.046708
  80 H :    0.051457
  81 H :    0.026568
  82 H :    0.033051
  83 H :    0.021223
  84 H :    0.031269
  85 H :    0.027302
  86 H :    0.019414
  87 H :    0.038496
  88 H :    0.022903
  89 H :    0.032179
  90 H :    0.032249
  91 H :    0.057735
  92 H :    0.037401
  93 H :    0.047238
  94 H :    0.046287
  95 H :    0.056768
  96 H :    0.045585
  97 H :    0.047423

  Mayer bond orders larger than 0.100000
B(  0-C ,  1-O ) :   2.2888 B(  0-C ,  2-C ) :   0.9229 B(  0-C , 16-C ) :   0.9276
B(  2-C ,  3-C ) :   1.3236 B(  2-C ,  7-C ) :   1.3707 B(  3-C ,  4-C ) :   1.3709
B(  3-C , 10-C ) :   1.0073 B(  4-C ,  5-C ) :   1.3714 B(  4-C , 76-H ) :   0.9818
B(  5-C ,  6-C ) :   1.4137 B(  5-C ,  9-Br) :   1.0564 B(  6-C ,  7-C ) :   1.3644
B(  6-C ,  8-Br) :   1.0367 B(  7-C , 77-H ) :   1.0067 B( 10-C , 11-C ) :   1.7171
B( 10-C , 16-C ) :   1.0156 B( 11-C , 12-C ) :   1.1358 B( 11-C , 14-C ) :   1.1421
B( 12-C , 13-N ) :   2.9904 B( 14-C , 15-N ) :   2.9925 B( 16-C , 17-C ) :   1.6976
B( 17-C , 18-C ) :   1.0719 B( 17-C , 78-H ) :   0.9477 B( 18-C , 19-O ) :   1.1305
B( 18-C , 22-N ) :   1.6770 B( 19-O , 20-C ) :   1.1247 B( 20-C , 21-C ) :   1.2334
B( 20-C , 26-C ) :   1.3035 B( 21-C , 22-N ) :   1.2809 B( 21-C , 23-C ) :   1.2826
B( 23-C , 24-C ) :   1.2904 B( 23-C , 26-C ) :   0.1485 B( 23-C , 79-H ) :   1.0446
B( 24-C , 25-C ) :   1.2175 B( 24-C , 29-N ) :   1.2801 B( 25-C , 26-C ) :   1.3241
B( 25-C , 27-O ) :   1.1253 B( 26-C , 80-H ) :   1.0461 B( 27-O , 28-C ) :   1.2156
B( 28-C , 29-N ) :   1.6934 B( 28-C , 30-C ) :   1.0371 B( 30-C , 31-N ) :   1.2323
B( 30-C , 37-C ) :   1.3857 B( 31-N , 32-C ) :   0.9325 B( 31-N , 34-C ) :   1.0166
B( 32-C , 33-C ) :   1.1237 B( 32-C , 81-H ) :   0.9368 B( 32-C , 82-H ) :   0.9289
B( 33-C , 83-H ) :   0.9669 B( 33-C , 84-H ) :   0.9678 B( 33-C , 85-H ) :   0.9668
B( 34-C , 35-O ) :   2.1553 B( 34-C , 36-C ) :   0.9704 B( 36-C , 37-C ) :   1.2242
B( 36-C , 43-C ) :   1.3709 B( 37-C , 38-C ) :   0.9503 B( 38-C , 39-O ) :   2.1754
B( 38-C , 40-N ) :   1.0230 B( 40-N , 41-C ) :   0.9418 B( 40-N , 43-C ) :   1.1754
B( 41-C , 42-C ) :   1.1167 B( 41-C , 86-H ) :   0.9502 B( 41-C , 87-H ) :   0.9220
B( 42-C , 88-H ) :   0.9669 B( 42-C , 89-H ) :   0.9672 B( 42-C , 90-H ) :   0.9626
B( 43-C , 44-C ) :   1.1402 B( 44-C , 45-C ) :   1.6309 B( 44-C , 91-H ) :   0.9538
B( 45-C , 46-C ) :   1.0957 B( 45-C , 92-H ) :   0.9560 B( 46-C , 47-O ) :   1.1229
B( 46-C , 50-N ) :   1.7542 B( 47-O , 48-C ) :   1.1188 B( 48-C , 49-C ) :   1.2312
B( 48-C , 54-C ) :   1.3269 B( 49-C , 50-N ) :   1.2942 B( 49-C , 51-C ) :   1.3003
B( 51-C , 52-C ) :   1.2716 B( 51-C , 54-C ) :   0.1482 B( 51-C , 93-H ) :   1.0475
B( 52-C , 53-C ) :   1.2394 B( 52-C , 57-N ) :   1.2824 B( 53-C , 54-C ) :   1.3087
B( 53-C , 55-O ) :   1.1241 B( 54-C , 94-H ) :   1.0436 B( 55-O , 56-C ) :   1.1301
B( 56-C , 57-N ) :   1.6848 B( 56-C , 58-C ) :   1.0606 B( 58-C , 59-C ) :   1.7077
B( 58-C , 95-H ) :   0.9461 B( 59-C , 60-C ) :   0.9284 B( 59-C , 64-C ) :   1.0139
B( 60-C , 61-O ) :   2.2909 B( 60-C , 62-C ) :   0.9232 B( 62-C , 63-C ) :   1.3245
B( 62-C , 73-C ) :   1.3681 B( 63-C , 64-C ) :   1.0061 B( 63-C , 70-C ) :   1.3701
B( 64-C , 65-C ) :   1.7130 B( 65-C , 66-C ) :   1.1451 B( 65-C , 68-C ) :   1.1341
B( 66-C , 67-N ) :   2.9862 B( 68-C , 69-N ) :   2.9891 B( 70-C , 71-C ) :   1.3718
B( 70-C , 96-H ) :   0.9814 B( 71-C , 72-C ) :   1.4131 B( 71-C , 75-Br) :   1.0566
B( 72-C , 73-C ) :   1.3653 B( 72-C , 74-Br) :   1.0365 B( 73-C , 97-H ) :   1.0065

-----------------------------------------------------------------------------
         ABSORPTION SPECTRUM VIA TRANSITION ELECTRIC DIPOLE MOMENTS
-----------------------------------------------------------------------------
State   Energy  Wavelength   fosc         T2         TX        TY        TZ
        (cm-1)    (nm)                  (au**2)     (au)      (au)      (au)
-----------------------------------------------------------------------------
   0   16677.7    599.6   1.322389208  26.10342  -0.97536   1.96198  -4.61549
   1   20968.4    476.9   0.020448725   0.32105   0.18182  -0.45565  -0.28351
   2   21917.4    456.3   0.224228507   3.36805   0.36863  -1.79178   0.14726
   3   24729.0    404.4   0.394601241   5.25325  -0.69948   1.81116  -1.21807
   4   25152.3    397.6   0.318871408   4.17362  -0.03112   0.92470  -1.82142
   5   25995.1    384.7   0.004381658   0.05549  -0.03043  -0.13639   0.18964
   6   27150.8    368.3   0.126827678   1.53783  -0.12818   0.94597  -0.79155
   7   27426.8    364.6   0.034914251   0.41909   0.61350  -0.11944   0.16864
   8   27656.1    361.6   0.154849345   1.84329  -0.29058  -1.17516   0.61469
   9   27715.7    360.8   0.022547155   0.26782   0.02383   0.50166  -0.12484
  10   28677.6    348.7   0.038895614   0.44651  -0.43046  -0.29116   0.42004
  11   28837.3    346.8   0.497215936   5.67632   0.56896  -1.57494   1.69475
  12   29152.7    343.0   0.136510675   1.54157  -0.31897  -0.89759   0.79635
  13   29622.2    337.6   0.043331087   0.48157  -0.09467   0.61051   0.31605
  14   30389.2    329.1   0.034299360   0.37157   0.04061   0.57055  -0.21069
  15   30670.5    326.0   0.084164509   0.90341  -0.31324  -0.60139  -0.66605
  16   30862.4    324.0   0.027692527   0.29540   0.22985  -0.43167  -0.23712
  17   30974.8    322.8   0.012642846   0.13437  -0.12994   0.34208  -0.02163
  18   31374.4    318.7   0.102903630   1.07977  -0.06932   0.94797  -0.41990
  19   31700.2    315.5   0.009364728   0.09725  -0.01532  -0.30334   0.07072
  20   32669.7    306.1   0.231880469   2.33665   0.32679  -1.22478   0.85427
  21   32751.3    305.3   0.058921365   0.59227  -0.33715   0.27453  -0.63501
  22   32988.7    303.1   0.014517078   0.14487   0.00269   0.33556   0.17963
  23   33466.3    298.8   0.154212937   1.51701   0.35210   0.99725  -0.63129
  24   33701.7    296.7   0.071448956   0.69794  -0.46291   0.44559  -0.53395
  25   34262.5    291.9   0.408908685   3.92900   0.42823   1.56412  -1.13980
  26   34586.9    289.1   0.388439450   3.69732  -1.55610   1.09366  -0.28244
  27   35014.4    285.6   0.020470023   0.19246   0.01781  -0.27137   0.34424
  28   35310.5    283.2   0.437083636   4.07508   0.24680   1.59805  -1.20848
  29   35973.3    278.0   0.075754177   0.69327  -0.54868   0.62205  -0.07264
  30   37104.8    269.5   0.018888596   0.16759  -0.08317   0.06045   0.39625
  31   37168.9    269.0   0.006307990   0.05587  -0.11785   0.01925   0.20399
  32   37597.1    266.0   0.005049107   0.04421   0.06278   0.18193  -0.08468
  33   37814.9    264.4   0.000882521   0.00768  -0.06828  -0.02674   0.04802
  34   37939.4    263.6   0.009324332   0.08091  -0.03217   0.27414   0.06871
  35   38091.8    262.5   0.002962918   0.02561  -0.13423  -0.01028  -0.08652
  36   38271.9    261.3   0.005580842   0.04801   0.06995  -0.10508  -0.17908
  37   38337.3    260.8   0.005197708   0.04463  -0.16239  -0.09828  -0.09277
  38   38747.1    258.1   0.028256534   0.24008  -0.23372  -0.12765  -0.41129
  39   39022.5    256.3   0.016447174   0.13876   0.02595  -0.20192   0.31195
  40   39217.9    255.0   0.022814956   0.19152  -0.38284  -0.16350   0.13499
  41   39450.1    253.5   0.032779366   0.27354   0.46603   0.23316  -0.04472
  42   39496.6    253.2   0.213783442   1.78193  -0.30349   1.04281  -0.77612
  43   40084.1    249.5   0.219497328   1.80274   0.69583  -0.52733  -1.02004
  44   40206.2    248.7   0.212814054   1.74254   0.05500   0.99371   0.86721
  45   40229.9    248.6   0.408944707   3.34650  -0.19760  -1.44384  -1.10580

FINAL SINGLE POINT ENERGY    -13512.127958513302

DIPOLE MOMENT
-------------
                                X             Y             Z
Electronic contribution:    -64.29002    -104.54268     -89.31998
Nuclear contribution   :     62.21825     105.92640      90.74662
                        -----------------------------------------
Total Dipole Moment    :     -2.07177       1.38371       1.42664
                        -----------------------------------------
Magnitude (a.u.)       :      2.87092
Magnitude (Debye)      :      7.29730

Rotational constants in cm-1:     0.001641     0.000092     0.000089
Rotational constants in MHz :    49.210861     2.767961     2.665299

                             ****ORCA TERMINATED NORMALLY****
TOTAL RUN TIME: 0 days 0 hours 10 minutes 10 seconds 316 msec
