                         Program Version 4.2.0 -  RELEASE  -
|  1> # ORCA input file
|  2> # SCF done       -197.078154694364          0.000657149771
|  3> ! CAM-B3LYP def2-SVP def2/J RIJCOSX Grid4 TightSCF
|  4> %maxcore 5000
|  5> %tddft
|  6>     Mode sTDDFT
|  7>     Ethresh 5.0
|  8>     maxcore 5000
|  9> end
| 10>
| 11> %pal
| 12>   nprocs 6
| 13>   end
| 14> * xyz 0 1
| 15>    C        2.44509         2.43715        -6.66846
| 16>    C        2.08418         3.49999        -7.43718
| 17>    S        2.89327         3.47117        -8.96116
| 18>    C        3.74032         1.99602        -8.55770
| 19>   Cl        4.81827         1.27045        -9.64383
| 20>    C        3.39246         1.57404        -7.30898
| 21>    C        3.74665         0.46810        -6.41439
| 22>    O        4.56837        -0.40071        -6.59376
| 23>    C        2.93281         0.70326        -5.18072
| 24>    C        2.13819         1.90938        -5.35428
| 25>    C        1.22163         2.44573        -4.48976
| 26>    C        0.51331         3.62319        -4.81128
| 27>    N       -0.06709         4.58112        -5.05884
| 28>    C        0.86501         1.90916        -3.23623
| 29>    N        0.52173         1.51422        -2.21457
| 30>    C        3.05924        -0.02280        -4.03552
| 31>    C        3.74091        -1.26209        -3.89370
| 32>    C        4.38019        -1.68208        -2.74783
| 33>    C        5.00295        -2.94240        -2.99864
| 34>    C        4.61357        -3.32586        -4.36359
| 35>    C        3.86395        -2.32206        -4.88994
| 36>    C        4.84890        -4.55991        -4.98583
| 37>    N        4.97547        -5.57467        -5.50748
| 38>    C        5.82916        -3.65032        -2.15329
| 39>    C        6.57051        -4.81991        -2.46102
| 40>    C        7.25404        -5.24254        -1.33120
| 41>    C        6.94904        -4.30445        -0.25875
| 42>    C        6.12132        -3.34173        -0.74305
| 43>    C        5.63441        -2.26164         0.00254
| 44>    N        5.25938        -1.38547         0.64325
| 45>    C        8.09562        -6.38133        -1.31776
| 46>    N        8.56759        -7.06919        -0.23065
| 47>    C        8.32942        -6.81612         1.17156
| 48>    C        9.39434        -5.89605         1.76398
| 49>    C        9.35545        -8.17503        -0.60738
| 50>    O        9.86371        -8.93330         0.19034
| 51>    C        9.36293        -8.13747        -2.05469
| 52>    C        8.58495        -7.04009        -2.46015
| 53>    C        8.63904        -6.96354        -3.91065
| 54>    O        8.18315        -6.17461        -4.70516
| 55>    N        9.43381        -8.06636        -4.28240
| 56>    C        9.65455        -8.37784        -5.67485
| 57>    C        8.71711        -9.48016        -6.16064
| 58>    C        9.87303        -8.77993        -3.19765
| 59>    C       10.69099        -9.92210        -3.28243
| 60>    C       11.13612       -10.59900        -2.18053
| 61>    C       11.96764       -11.73704        -2.22213
| 62>    C       12.47058       -12.40142        -1.11596
| 63>    C       13.28792       -13.47911        -1.54614
| 64>    C       13.24599       -13.45993        -3.02324
| 65>    C       12.46065       -12.42398        -3.41130
| 66>    C       13.86620       -14.36838        -3.88890
| 67>    N       14.36530       -15.10170        -4.61941
| 68>    C       13.97795       -14.38881        -0.77709
| 69>    C       14.80303       -15.44785        -1.25485
| 70>    C       15.21532       -16.21921        -0.19136
| 71>    C       14.68826       -15.61450         1.02452
| 72>    C       13.94655       -14.52684         0.68777
| 73>    C       13.26944       -13.69585         1.58827
| 74>    N       12.73809       -13.02219         2.35123
| 75>    C       16.05219       -17.36265        -0.21432
| 76>    C       16.33031       -18.20309        -1.24819
| 77>    C       17.54806       -19.07420        -1.13460
| 78>    O       18.19406       -19.26741        -0.13346
| 79>    C       17.77534       -19.56499        -2.49630
| 80>    C       18.71765       -20.29739        -3.15538
| 81>    S       18.29331       -20.46230        -4.84270
| 82>    C       16.84259       -19.54997        -4.63460
| 83>    C       16.70160       -19.14034        -3.34633
| 84>    C       15.73092       -18.40272        -2.55667
| 85>    C       14.44185       -18.17420        -2.95982
| 86>    C       13.99704       -18.54379        -4.24820
| 87>    N       13.61170       -18.84812        -5.28425
| 88>    C       13.41478       -17.64490        -2.15842
| 89>    N       12.53238       -17.23839        -1.54618
| 90>   Cl       20.12993       -20.99078        -2.52838
| 91>    H        1.40552         4.30001        -7.21703
| 92>    H        2.64270         0.37978        -3.11942
| 93>    H        4.47397        -1.11969        -1.83876
| 94>    H        3.38561        -2.32814        -5.84961
| 95>    H        6.60009        -5.28627        -3.42562
| 96>    H        7.34087        -4.32632         0.73917
| 97>    H        8.38302        -7.78761         1.67213
| 98>    H        7.32355        -6.41197         1.29894
| 99>    H       10.36462        -6.38430         1.71986
|100>    H        9.16116        -5.68339         2.80357
|101>    H        9.45814        -4.95771         1.21666
|102>    H       10.70158        -8.65404        -5.82649
|103>    H        9.44971        -7.45609        -6.22620
|104>    H        8.85687       -10.39558        -5.58938
|105>    H        8.90845        -9.68861        -7.20941
|106>    H        7.68395        -9.15927        -6.05459
|107>    H       10.97473       -10.25785        -4.26906
|108>    H       10.85003       -10.25227        -1.19590
|109>    H       12.28640       -12.13623        -0.09302
|110>    H       12.22927       -12.16262        -4.42701
|111>    H       15.09448       -15.57596        -2.27791
|112>    H       14.84971       -15.99843         2.01478
|113>    H       16.60333       -17.57119         0.69890
|114>    H       16.20658       -19.37096        -5.47859
|115> *
|116>
|117>                          ****END OF INPUT****

CARTESIAN COORDINATES (ANGSTROEM)
---------------------------------
  C      2.445090    2.437150   -6.668460
  C      2.084180    3.499990   -7.437180
  S      2.893270    3.471170   -8.961160
  C      3.740320    1.996020   -8.557700
  Cl     4.818270    1.270450   -9.643830
  C      3.392460    1.574040   -7.308980
  C      3.746650    0.468100   -6.414390
  O      4.568370   -0.400710   -6.593760
  C      2.932810    0.703260   -5.180720
  C      2.138190    1.909380   -5.354280
  C      1.221630    2.445730   -4.489760
  C      0.513310    3.623190   -4.811280
  N     -0.067090    4.581120   -5.058840
  C      0.865010    1.909160   -3.236230
  N      0.521730    1.514220   -2.214570
  C      3.059240   -0.022800   -4.035520
  C      3.740910   -1.262090   -3.893700
  C      4.380190   -1.682080   -2.747830
  C      5.002950   -2.942400   -2.998640
  C      4.613570   -3.325860   -4.363590
  C      3.863950   -2.322060   -4.889940
  C      4.848900   -4.559910   -4.985830
  N      4.975470   -5.574670   -5.507480
  C      5.829160   -3.650320   -2.153290
  C      6.570510   -4.819910   -2.461020
  C      7.254040   -5.242540   -1.331200
  C      6.949040   -4.304450   -0.258750
  C      6.121320   -3.341730   -0.743050
  C      5.634410   -2.261640    0.002540
  N      5.259380   -1.385470    0.643250
  C      8.095620   -6.381330   -1.317760
  N      8.567590   -7.069190   -0.230650
  C      8.329420   -6.816120    1.171560
  C      9.394340   -5.896050    1.763980
  C      9.355450   -8.175030   -0.607380
  O      9.863710   -8.933300    0.190340
  C      9.362930   -8.137470   -2.054690
  C      8.584950   -7.040090   -2.460150
  C      8.639040   -6.963540   -3.910650
  O      8.183150   -6.174610   -4.705160
  N      9.433810   -8.066360   -4.282400
  C      9.654550   -8.377840   -5.674850
  C      8.717110   -9.480160   -6.160640
  C      9.873030   -8.779930   -3.197650
  C     10.690990   -9.922100   -3.282430
  C     11.136120  -10.599000   -2.180530
  C     11.967640  -11.737040   -2.222130
  C     12.470580  -12.401420   -1.115960
  C     13.287920  -13.479110   -1.546140
  C     13.245990  -13.459930   -3.023240
  C     12.460650  -12.423980   -3.411300
  C     13.866200  -14.368380   -3.888900
  N     14.365300  -15.101700   -4.619410
  C     13.977950  -14.388810   -0.777090
  C     14.803030  -15.447850   -1.254850
  C     15.215320  -16.219210   -0.191360
  C     14.688260  -15.614500    1.024520
  C     13.946550  -14.526840    0.687770
  C     13.269440  -13.695850    1.588270
  N     12.738090  -13.022190    2.351230
  C     16.052190  -17.362650   -0.214320
  C     16.330310  -18.203090   -1.248190
  C     17.548060  -19.074200   -1.134600
  O     18.194060  -19.267410   -0.133460
  C     17.775340  -19.564990   -2.496300
  C     18.717650  -20.297390   -3.155380
  S     18.293310  -20.462300   -4.842700
  C     16.842590  -19.549970   -4.634600
  C     16.701600  -19.140340   -3.346330
  C     15.730920  -18.402720   -2.556670
  C     14.441850  -18.174200   -2.959820
  C     13.997040  -18.543790   -4.248200
  N     13.611700  -18.848120   -5.284250
  C     13.414780  -17.644900   -2.158420
  N     12.532380  -17.238390   -1.546180
  Cl    20.129930  -20.990780   -2.528380
  H      1.405520    4.300010   -7.217030
  H      2.642700    0.379780   -3.119420
  H      4.473970   -1.119690   -1.838760
  H      3.385610   -2.328140   -5.849610
  H      6.600090   -5.286270   -3.425620
  H      7.340870   -4.326320    0.739170
  H      8.383020   -7.787610    1.672130
  H      7.323550   -6.411970    1.298940
  H     10.364620   -6.384300    1.719860
  H      9.161160   -5.683390    2.803570
  H      9.458140   -4.957710    1.216660
  H     10.701580   -8.654040   -5.826490
  H      9.449710   -7.456090   -6.226200
  H      8.856870  -10.395580   -5.589380
  H      8.908450   -9.688610   -7.209410
  H      7.683950   -9.159270   -6.054590
  H     10.974730  -10.257850   -4.269060
  H     10.850030  -10.252270   -1.195900
  H     12.286400  -12.136230   -0.093020
  H     12.229270  -12.162620   -4.427010
  H     15.094480  -15.575960   -2.277910
  H     14.849710  -15.998430    2.014780
  H     16.603330  -17.571190    0.698900
  H     16.206580  -19.370960   -5.478590

 Total Charge           Charge          ....    0
 Multiplicity           Mult            ....    1
 Number of Electrons    NEL             ....  540
 Basis Dimension        Dim             .... 1200

ORBITAL ENERGIES
----------------

  NO   OCC          E(Eh)            E(eV)
   0   2.0000    -101.624216     -2765.3355
   1   2.0000    -101.619228     -2765.1998
   2   2.0000     -89.000933     -2421.8385
   3   2.0000     -88.994718     -2421.6694
   4   2.0000     -19.233785      -523.3779
   5   2.0000     -19.224179      -523.1165
   6   2.0000     -19.208206      -522.6819
   7   2.0000     -19.206932      -522.6472
   8   2.0000     -14.471327      -393.7848
   9   2.0000     -14.468717      -393.7138
  10   2.0000     -14.427882      -392.6026
  11   2.0000     -14.427382      -392.5890
  12   2.0000     -14.426697      -392.5704
  13   2.0000     -14.424200      -392.5024
  14   2.0000     -14.419814      -392.3831
  15   2.0000     -14.417575      -392.3222
  16   2.0000     -14.412189      -392.1756
  17   2.0000     -14.403802      -391.9474
  18   2.0000     -10.389748      -282.7194
  19   2.0000     -10.389403      -282.7100
  20   2.0000     -10.389228      -282.7053
  21   2.0000     -10.384130      -282.5666
  22   2.0000     -10.380060      -282.4558
  23   2.0000     -10.378379      -282.4101
  24   2.0000     -10.358639      -281.8729
  25   2.0000     -10.358409      -281.8667
  26   2.0000     -10.357514      -281.8423
  27   2.0000     -10.356688      -281.8198
  28   2.0000     -10.353322      -281.7282
  29   2.0000     -10.352736      -281.7123
  30   2.0000     -10.336921      -281.2819
  31   2.0000     -10.336840      -281.2797
  32   2.0000     -10.334078      -281.2045
  33   2.0000     -10.333452      -281.1875
  34   2.0000     -10.333399      -281.1861
  35   2.0000     -10.331321      -281.1295
  36   2.0000     -10.330693      -281.1124
  37   2.0000     -10.330054      -281.0951
  38   2.0000     -10.329270      -281.0737
  39   2.0000     -10.328944      -281.0648
  40   2.0000     -10.327347      -281.0214
  41   2.0000     -10.326554      -280.9998
  42   2.0000     -10.326530      -280.9992
  43   2.0000     -10.326120      -280.9880
  44   2.0000     -10.324288      -280.9382
  45   2.0000     -10.322338      -280.8851
  46   2.0000     -10.322172      -280.8806
  47   2.0000     -10.321501      -280.8623
  48   2.0000     -10.321372      -280.8588
  49   2.0000     -10.320591      -280.8376
  50   2.0000     -10.319903      -280.8188
  51   2.0000     -10.319318      -280.8029
  52   2.0000     -10.319148      -280.7983
  53   2.0000     -10.318902      -280.7916
  54   2.0000     -10.316988      -280.7395
  55   2.0000     -10.316298      -280.7207
  56   2.0000     -10.315740      -280.7056
  57   2.0000     -10.315165      -280.6899
  58   2.0000     -10.314747      -280.6785
  59   2.0000     -10.314486      -280.6714
  60   2.0000     -10.314171      -280.6629
  61   2.0000     -10.313753      -280.6515
  62   2.0000     -10.313577      -280.6467
  63   2.0000     -10.312524      -280.6181
  64   2.0000     -10.310959      -280.5755
  65   2.0000     -10.308138      -280.4987
  66   2.0000     -10.306934      -280.4659
  67   2.0000     -10.305915      -280.4382
  68   2.0000     -10.305302      -280.4215
  69   2.0000     -10.302601      -280.3480
  70   2.0000     -10.298839      -280.2457
  71   2.0000     -10.293802      -280.1086
  72   2.0000     -10.282782      -279.8087
  73   2.0000     -10.281162      -279.7646
  74   2.0000     -10.274273      -279.5772
  75   2.0000     -10.271678      -279.5066
  76   2.0000      -9.578948      -260.6564
  77   2.0000      -9.574049      -260.5231
  78   2.0000      -8.096678      -220.3218
  79   2.0000      -8.090479      -220.1531
  80   2.0000      -7.349595      -199.9927
  81   2.0000      -7.344672      -199.8587
  82   2.0000      -7.338994      -199.7042
  83   2.0000      -7.338431      -199.6889
  84   2.0000      -7.334086      -199.5706
  85   2.0000      -7.333550      -199.5560
  86   2.0000      -6.066042      -165.0654
  87   2.0000      -6.061434      -164.9400
  88   2.0000      -6.059863      -164.8973
  89   2.0000      -6.058937      -164.8721
  90   2.0000      -6.055256      -164.7719
  91   2.0000      -6.052696      -164.7022
  92   2.0000      -1.151318       -31.3290
  93   2.0000      -1.150971       -31.3195
  94   2.0000      -1.144770       -31.1508
  95   2.0000      -1.141067       -31.0500
  96   2.0000      -1.081294       -29.4235
  97   2.0000      -1.072759       -29.1912
  98   2.0000      -1.046077       -28.4652
  99   2.0000      -1.040538       -28.3145
 100   2.0000      -1.029284       -28.0082
 101   2.0000      -1.025357       -27.9014
 102   2.0000      -1.023981       -27.8639
 103   2.0000      -1.020269       -27.7629
 104   2.0000      -1.011071       -27.5126
 105   2.0000      -1.007076       -27.4039
 106   2.0000      -1.005794       -27.3691
 107   2.0000      -1.001029       -27.2394
 108   2.0000      -0.997937       -27.1553
 109   2.0000      -0.996129       -27.1060
 110   2.0000      -0.992092       -26.9962
 111   2.0000      -0.991791       -26.9880
 112   2.0000      -0.987754       -26.8781
 113   2.0000      -0.982730       -26.7414
 114   2.0000      -0.962013       -26.1777
 115   2.0000      -0.956470       -26.0269
 116   2.0000      -0.944610       -25.7041
 117   2.0000      -0.929619       -25.2962
 118   2.0000      -0.919993       -25.0343
 119   2.0000      -0.914807       -24.8932
 120   2.0000      -0.906805       -24.6754
 121   2.0000      -0.901170       -24.5221
 122   2.0000      -0.893507       -24.3136
 123   2.0000      -0.880476       -23.9590
 124   2.0000      -0.873722       -23.7752
 125   2.0000      -0.865215       -23.5437
 126   2.0000      -0.864235       -23.5170
 127   2.0000      -0.851352       -23.1665
 128   2.0000      -0.848237       -23.0817
 129   2.0000      -0.840401       -22.8685
 130   2.0000      -0.834829       -22.7169
 131   2.0000      -0.833921       -22.6921
 132   2.0000      -0.824897       -22.4466
 133   2.0000      -0.817136       -22.2354
 134   2.0000      -0.798309       -21.7231
 135   2.0000      -0.790793       -21.5186
 136   2.0000      -0.773528       -21.0488
 137   2.0000      -0.772828       -21.0297
 138   2.0000      -0.769702       -20.9446
 139   2.0000      -0.763055       -20.7638
 140   2.0000      -0.755934       -20.5700
 141   2.0000      -0.738901       -20.1065
 142   2.0000      -0.728827       -19.8324
 143   2.0000      -0.723735       -19.6938
 144   2.0000      -0.722438       -19.6585
 145   2.0000      -0.717819       -19.5329
 146   2.0000      -0.706396       -19.2220
 147   2.0000      -0.702230       -19.1086
 148   2.0000      -0.697269       -18.9737
 149   2.0000      -0.693333       -18.8665
 150   2.0000      -0.684903       -18.6372
 151   2.0000      -0.683543       -18.6002
 152   2.0000      -0.680590       -18.5198
 153   2.0000      -0.678425       -18.4609
 154   2.0000      -0.676677       -18.4133
 155   2.0000      -0.664235       -18.0747
 156   2.0000      -0.654651       -17.8140
 157   2.0000      -0.653793       -17.7906
 158   2.0000      -0.642054       -17.4712
 159   2.0000      -0.640149       -17.4194
 160   2.0000      -0.632201       -17.2031
 161   2.0000      -0.623362       -16.9625
 162   2.0000      -0.622799       -16.9472
 163   2.0000      -0.616443       -16.7743
 164   2.0000      -0.612386       -16.6639
 165   2.0000      -0.604701       -16.4547
 166   2.0000      -0.599886       -16.3237
 167   2.0000      -0.589471       -16.0403
 168   2.0000      -0.588928       -16.0255
 169   2.0000      -0.583277       -15.8718
 170   2.0000      -0.581048       -15.8111
 171   2.0000      -0.575429       -15.6582
 172   2.0000      -0.566433       -15.4134
 173   2.0000      -0.561289       -15.2735
 174   2.0000      -0.560798       -15.2601
 175   2.0000      -0.558261       -15.1910
 176   2.0000      -0.554427       -15.0867
 177   2.0000      -0.551926       -15.0187
 178   2.0000      -0.547248       -14.8914
 179   2.0000      -0.544734       -14.8230
 180   2.0000      -0.543092       -14.7783
 181   2.0000      -0.541654       -14.7392
 182   2.0000      -0.540401       -14.7051
 183   2.0000      -0.536112       -14.5884
 184   2.0000      -0.535895       -14.5824
 185   2.0000      -0.534637       -14.5482
 186   2.0000      -0.532909       -14.5012
 187   2.0000      -0.532145       -14.4804
 188   2.0000      -0.531509       -14.4631
 189   2.0000      -0.525619       -14.3028
 190   2.0000      -0.525402       -14.2969
 191   2.0000      -0.522889       -14.2285
 192   2.0000      -0.522086       -14.2067
 193   2.0000      -0.516280       -14.0487
 194   2.0000      -0.515136       -14.0176
 195   2.0000      -0.513771       -13.9804
 196   2.0000      -0.511971       -13.9314
 197   2.0000      -0.511832       -13.9277
 198   2.0000      -0.507328       -13.8051
 199   2.0000      -0.505898       -13.7662
 200   2.0000      -0.504096       -13.7172
 201   2.0000      -0.500887       -13.6298
 202   2.0000      -0.499623       -13.5954
 203   2.0000      -0.496198       -13.5022
 204   2.0000      -0.494168       -13.4470
 205   2.0000      -0.491298       -13.3689
 206   2.0000      -0.491039       -13.3618
 207   2.0000      -0.488508       -13.2930
 208   2.0000      -0.487285       -13.2597
 209   2.0000      -0.482796       -13.1375
 210   2.0000      -0.480744       -13.0817
 211   2.0000      -0.478394       -13.0178
 212   2.0000      -0.474688       -12.9169
 213   2.0000      -0.472189       -12.8489
 214   2.0000      -0.469645       -12.7797
 215   2.0000      -0.467506       -12.7215
 216   2.0000      -0.462511       -12.5856
 217   2.0000      -0.460232       -12.5235
 218   2.0000      -0.459229       -12.4963
 219   2.0000      -0.458354       -12.4725
 220   2.0000      -0.458327       -12.4717
 221   2.0000      -0.458020       -12.4634
 222   2.0000      -0.453971       -12.3532
 223   2.0000      -0.452847       -12.3226
 224   2.0000      -0.452334       -12.3086
 225   2.0000      -0.451785       -12.2937
 226   2.0000      -0.449404       -12.2289
 227   2.0000      -0.447430       -12.1752
 228   2.0000      -0.446049       -12.1376
 229   2.0000      -0.444606       -12.0983
 230   2.0000      -0.442704       -12.0466
 231   2.0000      -0.441347       -12.0097
 232   2.0000      -0.440554       -11.9881
 233   2.0000      -0.439277       -11.9533
 234   2.0000      -0.438843       -11.9415
 235   2.0000      -0.435055       -11.8384
 236   2.0000      -0.434788       -11.8312
 237   2.0000      -0.433892       -11.8068
 238   2.0000      -0.432704       -11.7745
 239   2.0000      -0.429900       -11.6982
 240   2.0000      -0.426334       -11.6011
 241   2.0000      -0.424634       -11.5549
 242   2.0000      -0.422765       -11.5040
 243   2.0000      -0.420021       -11.4294
 244   2.0000      -0.417150       -11.3512
 245   2.0000      -0.412630       -11.2282
 246   2.0000      -0.410227       -11.1628
 247   2.0000      -0.409800       -11.1512
 248   2.0000      -0.406751       -11.0682
 249   2.0000      -0.404913       -11.0183
 250   2.0000      -0.400464       -10.8972
 251   2.0000      -0.390317       -10.6211
 252   2.0000      -0.375683       -10.2229
 253   2.0000      -0.367081        -9.9888
 254   2.0000      -0.363627        -9.8948
 255   2.0000      -0.359907        -9.7936
 256   2.0000      -0.348318        -9.4782
 257   2.0000      -0.348188        -9.4747
 258   2.0000      -0.345101        -9.3907
 259   2.0000      -0.340362        -9.2617
 260   2.0000      -0.333372        -9.0715
 261   2.0000      -0.333186        -9.0665
 262   2.0000      -0.330666        -8.9979
 263   2.0000      -0.321935        -8.7603
 264   2.0000      -0.320701        -8.7267
 265   2.0000      -0.315949        -8.5974
 266   2.0000      -0.314593        -8.5605
 267   2.0000      -0.302794        -8.2394
 268   2.0000      -0.297520        -8.0959
 269   2.0000      -0.247090        -6.7237
 270   0.0000      -0.150696        -4.1007
 271   0.0000      -0.134257        -3.6533
 272   0.0000      -0.091152        -2.4804
 273   0.0000      -0.086758        -2.3608
 274   0.0000      -0.070120        -1.9081

MULLIKEN ATOMIC CHARGES
-----------------------
   0 C :    0.032243
   1 C :   -0.129064
   2 S :    0.193665
   3 C :   -0.169445
   4 Cl:    0.005337
   5 C :    0.076548
   6 C :    0.139259
   7 O :   -0.124543
   8 C :   -0.100412
   9 C :    0.292490
  10 C :   -0.321475
  11 C :   -0.195399
  12 N :    0.161317
  13 C :   -0.192724
  14 N :    0.177323
  15 C :   -0.026404
  16 C :    0.075744
  17 C :   -0.068962
  18 C :    0.094772
  19 C :   -0.108881
  20 C :    0.080454
  21 C :   -0.187057
  22 N :    0.144654
  23 C :    0.130094
  24 C :   -0.111197
  25 C :    0.043485
  26 C :   -0.027720
  27 C :   -0.093315
  28 C :   -0.188168
  29 N :    0.148028
  30 C :    0.156856
  31 N :   -0.256386
  32 C :    0.101184
  33 C :    0.001531
  34 C :    0.163560
  35 O :   -0.196991
  36 C :   -0.063828
  37 C :   -0.058191
  38 C :    0.155445
  39 O :   -0.174330
  40 N :   -0.257003
  41 C :    0.096048
  42 C :    0.001258
  43 C :    0.157877
  44 C :   -0.026881
  45 C :    0.016504
  46 C :    0.106292
  47 C :   -0.093312
  48 C :    0.137857
  49 C :   -0.097973
  50 C :   -0.000108
  51 C :   -0.165906
  52 N :    0.137493
  53 C :    0.101586
  54 C :   -0.102977
  55 C :    0.091938
  56 C :    0.012302
  57 C :   -0.073707
  58 C :   -0.186501
  59 N :    0.145895
  60 C :    0.031061
  61 C :   -0.124909
  62 C :    0.128028
  63 O :   -0.129612
  64 C :    0.097091
  65 C :   -0.171962
  66 S :    0.187662
  67 C :   -0.122906
  68 C :    0.005342
  69 C :    0.280818
  70 C :   -0.321580
  71 C :   -0.167945
  72 N :    0.162512
  73 C :   -0.198996
  74 N :    0.182084
  75 Cl:    0.001098
  76 H :    0.056350
  77 H :    0.039500
  78 H :    0.015959
  79 H :    0.005097
  80 H :    0.031652
  81 H :   -0.007627
  82 H :    0.047414
  83 H :    0.026451
  84 H :    0.037069
  85 H :    0.029660
  86 H :    0.019106
  87 H :    0.023058
  88 H :    0.051883
  89 H :    0.012929
  90 H :    0.028214
  91 H :    0.043581
  92 H :   -0.027851
  93 H :    0.019801
  94 H :    0.021915
  95 H :    0.003097
  96 H :    0.017540
  97 H :    0.003888
  98 H :    0.024635
  99 H :    0.058711
Sum of atomic charges:   -0.0000000

LOEWDIN ATOMIC CHARGES
----------------------
   0 C :   -0.058921
   1 C :   -0.147505
   2 S :    0.481475
   3 C :   -0.270324
   4 Cl:    0.196357
   5 C :   -0.118473
   6 C :    0.081639
   7 O :   -0.118911
   8 C :   -0.076868
   9 C :    0.070536
  10 C :   -0.127374
  11 C :   -0.015237
  12 N :   -0.044911
  13 C :   -0.025888
  14 N :   -0.035272
  15 C :    0.073769
  16 C :   -0.024212
  17 C :    0.018966
  18 C :    0.044801
  19 C :   -0.090112
  20 C :    0.078937
  21 C :   -0.032839
  22 N :   -0.053173
  23 C :    0.034096
  24 C :    0.016147
  25 C :   -0.033295
  26 C :    0.044942
  27 C :   -0.077238
  28 C :   -0.033898
  29 N :   -0.055638
  30 C :    0.073007
  31 N :    0.004540
  32 C :    0.037218
  33 C :   -0.061726
  34 C :    0.080929
  35 O :   -0.186049
  36 C :   -0.111916
  37 C :   -0.099754
  38 C :    0.083512
  39 O :   -0.165183
  40 N :    0.003060
  41 C :    0.036900
  42 C :   -0.059816
  43 C :    0.081027
  44 C :   -0.036402
  45 C :    0.040595
  46 C :   -0.015930
  47 C :   -0.001297
  48 C :    0.047821
  49 C :   -0.073865
  50 C :    0.057755
  51 C :   -0.024868
  52 N :   -0.060881
  53 C :    0.039654
  54 C :    0.021278
  55 C :   -0.036839
  56 C :    0.062540
  57 C :   -0.079030
  58 C :   -0.031774
  59 N :   -0.054964
  60 C :    0.063171
  61 C :   -0.068246
  62 C :    0.081127
  63 O :   -0.130923
  64 C :   -0.119730
  65 C :   -0.271689
  66 S :    0.477056
  67 C :   -0.148354
  68 C :   -0.056208
  69 C :    0.063463
  70 C :   -0.123131
  71 C :   -0.012699
  72 N :   -0.042131
  73 C :   -0.013591
  74 N :   -0.037511
  75 Cl:    0.192833
  76 H :    0.038776
  77 H :    0.053814
  78 H :    0.040208
  79 H :    0.038166
  80 H :    0.039404
  81 H :    0.037068
  82 H :    0.040619
  83 H :    0.024681
  84 H :    0.036289
  85 H :    0.033771
  86 H :    0.020645
  87 H :    0.022416
  88 H :    0.041350
  89 H :    0.020746
  90 H :    0.033000
  91 H :    0.037820
  92 H :    0.029061
  93 H :    0.044248
  94 H :    0.042916
  95 H :    0.036524
  96 H :    0.034661
  97 H :    0.040319
  98 H :    0.049336
  99 H :    0.039607

  Mayer bond orders larger than 0.100000
B(  0-C ,  1-C ) :   1.5450 B(  0-C ,  5-C ) :   1.2210 B(  0-C ,  9-C ) :   1.0002
B(  1-C ,  2-S ) :   1.1636 B(  1-C , 76-H ) :   0.9544 B(  2-S ,  3-C ) :   1.1548
B(  3-C ,  4-Cl) :   1.1335 B(  3-C ,  5-C ) :   1.4715 B(  5-C ,  6-C ) :   0.9543
B(  6-C ,  7-O ) :   2.2279 B(  6-C ,  8-C ) :   0.9338 B(  8-C ,  9-C ) :   1.0510
B(  8-C , 15-C ) :   1.6375 B(  9-C , 10-C ) :   1.6689 B( 10-C , 11-C ) :   1.1468
B( 10-C , 13-C ) :   1.1365 B( 11-C , 12-N ) :   2.9912 B( 13-C , 14-N ) :   2.9838
B( 15-C , 16-C ) :   1.0945 B( 15-C , 77-H ) :   0.9487 B( 16-C , 17-C ) :   1.5243
B( 16-C , 20-C ) :   1.0460 B( 17-C , 18-C ) :   1.1026 B( 17-C , 78-H ) :   1.0074
B( 18-C , 19-C ) :   1.1201 B( 18-C , 23-C ) :   1.3978 B( 19-C , 20-C ) :   1.6726
B( 19-C , 21-C ) :   1.0894 B( 20-C , 79-H ) :   1.0057 B( 21-C , 22-N ) :   2.9912
B( 23-C , 24-C ) :   1.1265 B( 23-C , 27-C ) :   1.0964 B( 24-C , 25-C ) :   1.5305
B( 24-C , 80-H ) :   0.9871 B( 25-C , 26-C ) :   1.0221 B( 25-C , 30-C ) :   1.0644
B( 26-C , 27-C ) :   1.6739 B( 26-C , 81-H ) :   1.0228 B( 27-C , 28-C ) :   1.0826
B( 28-C , 29-N ) :   2.9739 B( 30-C , 31-N ) :   1.2048 B( 30-C , 37-C ) :   1.3382
B( 31-N , 32-C ) :   0.9369 B( 31-N , 34-C ) :   1.0485 B( 32-C , 33-C ) :   1.1183
B( 32-C , 82-H ) :   0.9266 B( 32-C , 83-H ) :   0.9503 B( 33-C , 84-H ) :   0.9601
B( 33-C , 85-H ) :   0.9684 B( 33-C , 86-H ) :   0.9657 B( 34-C , 35-O ) :   2.0292
B( 34-C , 36-C ) :   0.9877 B( 35-O , 93-H ) :   0.1100 B( 36-C , 37-C ) :   1.2849
B( 36-C , 43-C ) :   1.2849 B( 37-C , 38-C ) :   0.9650 B( 38-C , 39-O ) :   2.0919
B( 38-C , 40-N ) :   1.0399 B( 40-N , 41-C ) :   0.9395 B( 40-N , 43-C ) :   1.1772
B( 41-C , 42-C ) :   1.1205 B( 41-C , 87-H ) :   0.9497 B( 41-C , 88-H ) :   0.9266
B( 42-C , 89-H ) :   0.9682 B( 42-C , 90-H ) :   0.9681 B( 42-C , 91-H ) :   0.9635
B( 43-C , 44-C ) :   1.1804 B( 44-C , 45-C ) :   1.5249 B( 44-C , 92-H ) :   0.9634
B( 45-C , 46-C ) :   1.1423 B( 45-C , 93-H ) :   0.9580 B( 46-C , 47-C ) :   1.4897
B( 46-C , 50-C ) :   1.0263 B( 47-C , 48-C ) :   1.1202 B( 47-C , 94-H ) :   1.0137
B( 48-C , 49-C ) :   1.0989 B( 48-C , 53-C ) :   1.4099 B( 49-C , 50-C ) :   1.6966
B( 49-C , 51-C ) :   1.0932 B( 50-C , 95-H ) :   1.0144 B( 51-C , 52-N ) :   2.9511
B( 53-C , 54-C ) :   1.1242 B( 53-C , 57-C ) :   1.1254 B( 54-C , 55-C ) :   1.5217
B( 54-C , 96-H ) :   0.9907 B( 55-C , 56-C ) :   1.0470 B( 55-C , 60-C ) :   1.0645
B( 56-C , 57-C ) :   1.6627 B( 56-C , 97-H ) :   1.0233 B( 57-C , 58-C ) :   1.0823
B( 58-C , 59-N ) :   2.9775 B( 60-C , 61-C ) :   1.6903 B( 60-C , 98-H ) :   0.9409
B( 61-C , 62-C ) :   0.9323 B( 61-C , 69-C ) :   1.0274 B( 62-C , 63-O ) :   2.2715
B( 62-C , 64-C ) :   0.9289 B( 64-C , 65-C ) :   1.4783 B( 64-C , 68-C ) :   1.2221
B( 65-C , 66-S ) :   1.1538 B( 65-C , 75-Cl) :   1.1304 B( 66-S , 67-C ) :   1.1584
B( 67-C , 68-C ) :   1.5583 B( 67-C , 99-H ) :   0.9537 B( 68-C , 69-C ) :   1.0055
B( 69-C , 70-C ) :   1.6726 B( 70-C , 71-C ) :   1.1276 B( 70-C , 73-C ) :   1.1797
B( 71-C , 72-N ) :   2.9985 B( 73-C , 74-N ) :   2.9805

-----------------------------------------------------------------------------
         ABSORPTION SPECTRUM VIA TRANSITION ELECTRIC DIPOLE MOMENTS
-----------------------------------------------------------------------------
State   Energy  Wavelength   fosc         T2         TX        TY        TZ
        (cm-1)    (nm)                  (au**2)     (au)      (au)      (au)
-----------------------------------------------------------------------------
   0    7129.9   1402.5   0.720945642  33.28867  -3.45164   4.57104  -0.69314
   1   10902.1    917.3   0.057061751   1.72311  -0.58431   1.17183   0.09220
   2   15741.6    635.3   0.042769024   0.89445   0.26565  -0.87600   0.23773
   3   16316.0    612.9   0.039936988   0.80582  -0.39591   0.59196  -0.54649
   4   18538.8    539.4   0.027908532   0.49560   0.01231   0.12078  -0.69344
   5   19476.8    513.4   0.053907831   0.91119  -0.50859   0.71471   0.37646
   6   20940.5    477.5   0.104492900   1.64276   0.47134  -1.18778  -0.09887
   7   21645.6    462.0   0.124098241   1.88743   1.01308  -0.83433  -0.40618
   8   22357.9    447.3   0.546193085   8.04249  -1.48509   2.07402  -1.23912
   9   23063.8    433.6   0.006335238   0.09043   0.09300  -0.21240  -0.19148
  10   23169.5    431.6   0.030797262   0.43759  -0.17496   0.53092   0.35370
  11   23723.6    421.5   0.277280768   3.84782   0.78407  -1.72458  -0.50881
  12   24472.8    408.6   0.008459227   0.11380  -0.19374   0.20785   0.18182
  13   24658.6    405.5   0.014360460   0.19172   0.23494  -0.14796  -0.33858
  14   24859.6    402.3   0.225484462   2.98606   0.79156  -0.82665   1.29466
  15   25466.1    392.7   0.013024718   0.16838   0.03357  -0.38910   0.12589
  16   26164.5    382.2   0.231716892   2.91556   0.84099  -1.35570   0.60859
  17   26945.3    371.1   0.007483023   0.09143  -0.22874   0.17369  -0.09452
  18   27120.1    368.7   0.066520120   0.80749   0.25187  -0.79258  -0.34039
  19   27239.7    367.1   0.182066852   2.20041  -0.87412   0.85475  -0.84007
  20   27428.6    364.6   0.001922654   0.02308   0.02019   0.07802   0.12877
  21   28009.6    357.0   0.017123085   0.20126   0.28642  -0.30284   0.16585
  22   28103.4    355.8   0.282565739   3.31007   1.07180  -0.97958   1.09624
  23   28266.7    353.8   0.074548290   0.86824  -0.37811   0.84848  -0.07318
  24   28307.5    353.3   0.062206241   0.72345  -0.30723   0.68415  -0.40124
  25   28759.7    347.7   0.055387646   0.63402  -0.37447   0.59055  -0.38085
  26   29294.0    341.4   0.036824979   0.41385   0.24224  -0.16703   0.57207
  27   29800.9    335.6   0.128672148   1.42145   0.04895  -0.28380   1.15694
  28   31191.6    320.6   0.002180523   0.02301  -0.11001   0.09939  -0.03215
  29   31265.5    319.8   0.013690480   0.14415   0.35870   0.00017  -0.12445
  30   31487.7    317.6   0.024829484   0.25960  -0.05382  -0.24682  -0.44247
  31   31822.1    314.2   0.001173755   0.01214  -0.08520   0.05354  -0.04492
  32   32583.8    306.9   0.010413012   0.10521  -0.16107  -0.21756   0.17870
  33   32825.9    304.6   0.005579353   0.05596  -0.20082   0.07223   0.10202
  34   33193.5    301.3   0.097070714   0.96274  -0.76364   0.47432   0.39322
  35   33240.5    300.8   0.375687831   3.72079   1.20372  -1.47683   0.30135
  36   33598.4    297.6   0.017002047   0.16659  -0.14393   0.31631   0.21407
  37   33681.8    296.9   0.071679578   0.70061   0.70966  -0.41978   0.14415
  38   33885.3    295.1   0.123726699   1.20207   0.13937   0.31200  -1.04178
  39   34234.3    292.1   0.001241968   0.01194  -0.05070   0.01603  -0.09548
  40   34369.6    291.0   0.149795127   1.43483  -0.55235   0.57218  -0.89574
  41   34593.4    289.1   0.009181894   0.08738   0.07907  -0.25236  -0.13208
  42   34642.8    288.7   0.265297061   2.52113  -0.28653  -0.47549   1.48760
  43   34838.9    287.0   0.007732825   0.07307   0.16953  -0.02105  -0.20949
  44   34963.7    286.0   0.030125208   0.28365  -0.40600   0.34464  -0.00664
  45   35014.1    285.6   0.045678962   0.42949  -0.24404   0.56584  -0.22305
  46   35136.8    284.6   0.012210301   0.11440   0.22113  -0.09771   0.23655
  47   35342.1    282.9   0.049242989   0.45870  -0.63872   0.17664  -0.13978
  48   35476.6    281.9   0.012507110   0.11606  -0.17344   0.29323   0.00089
  49   36020.2    277.6   0.039069007   0.35708  -0.47842   0.35788   0.01068
  50   36267.0    275.7   0.092957502   0.84382   0.33087  -0.62022   0.59132
  51   36477.5    274.1   0.125288107   1.13073  -0.77473   0.70309  -0.19024
  52   36529.8    273.7   0.002657602   0.02395  -0.13317   0.07805  -0.01114
  53   36811.0    271.7   0.040126333   0.35886   0.53585  -0.14474  -0.22534
  54   37077.7    269.7   0.020347752   0.18067   0.25584  -0.23896   0.24107
  55   37180.3    269.0   0.078143932   0.69192   0.49646  -0.57930   0.33145
  56   37597.4    266.0   0.124969938   1.09427   0.65957  -0.75757  -0.29210
  57   37669.0    265.5   0.040600450   0.35483   0.20007  -0.55592   0.07589
  58   37853.3    264.2   0.024065450   0.20930   0.39087   0.09452  -0.21814
  59   37902.8    263.8   0.376782901   3.27262   0.61547  -0.09205  -1.69863
  60   38109.4    262.4   0.007940316   0.06859  -0.18992   0.10269   0.14826
  61   38646.8    258.8   0.031713868   0.27015  -0.39878   0.28517  -0.17264
  62   38748.4    258.1   0.524500966   4.45623   1.82223  -0.93587  -0.50975
  63   38999.0    256.4   0.163466586   1.37991   0.57169   0.03357   1.02565
  64   39087.6    255.8   0.076890548   0.64760   0.51160  -0.56701   0.25371
  65   39343.9    254.2   0.035928858   0.30064   0.16332  -0.16476  -0.49681
  66   39748.7    251.6   0.105685309   0.87532  -0.55828  -0.02811   0.75024
  67   39812.3    251.2   0.057817535   0.47810  -0.46436  -0.15930   0.48693
  68   39924.0    250.5   0.007915996   0.06527   0.22361   0.00195  -0.12357
  69   40164.2    249.0   0.074919918   0.61409   0.64027  -0.45175   0.00791

FINAL SINGLE POINT ENERGY     -4785.128501924038

DIPOLE MOMENT
-------------
                                X             Y             Z
Electronic contribution:     13.89657      -8.62908     -28.70474
Nuclear contribution   :    -11.61972       8.90083      26.79299
                        -----------------------------------------
Total Dipole Moment    :      2.27685       0.27175      -1.91175
                        -----------------------------------------
Magnitude (a.u.)       :      2.98541
Magnitude (Debye)      :      7.58831

Rotational constants in cm-1:     0.002249     0.000166     0.000157
Rotational constants in MHz :    67.426876     4.969543     4.706469

                             ****ORCA TERMINATED NORMALLY****
TOTAL RUN TIME: 0 days 0 hours 12 minutes 27 seconds 115 msec
