                         Program Version 4.2.0 -  RELEASE  -
|  1> # ORCA input file
|  2> # SCF done       -210.832242160326          0.000710511790
|  3> ! CAM-B3LYP def2-SVP def2/J RIJCOSX Grid4 TightSCF
|  4> %maxcore 5000
|  5> %tddft
|  6>     Mode sTDDFT
|  7>     Ethresh 5.0
|  8>     maxcore 5000
|  9> end
| 10>
| 11> %pal
| 12>   nprocs 6
| 13>   end
| 14> * xyz 0 1
| 15>    C        1.54994         0.80958         0.19352
| 16>    C        0.63792        -0.21337         0.19717
| 17>    C        0.98908        -1.58070         0.19307
| 18>    N        1.20142        -2.70860         0.19447
| 19>    C       -0.76627        -0.07688         0.16390
| 20>    N       -1.91399        -0.05717         0.11905
| 21>    C        2.99558         0.64182         0.12710
| 22>    C        3.59015         1.92339        -0.04366
| 23>    C        4.94126         2.08627        -0.15363
| 24>    C        5.77812         0.95046        -0.08707
| 25>    C        5.19250        -0.33588         0.09621
| 26>    C        3.78944        -0.47271         0.20046
| 27>    C        6.03748        -1.46204         0.16962
| 28>    C        7.39505        -1.32628         0.06502
| 29>    C        7.97016        -0.05965        -0.11775
| 30>    C        7.17897         1.05461        -0.19233
| 31>    C        2.54385         2.95693        -0.06763
| 32>    O        2.72212         4.14426        -0.24046
| 33>    C        1.26416         2.23927         0.17690
| 34>    C        0.03539         2.76120         0.46118
| 35>    C       -0.43492         4.09441         0.48926
| 36>    S       -2.08040         4.32709         1.04284
| 37>    C       -1.99486         6.04001         0.80285
| 38>    C       -0.72788         6.39803         0.31895
| 39>    C        0.13149         5.30742         0.14394
| 40>    C       -0.28823         7.71454         0.08268
| 41>    N        0.13495         8.76649        -0.08850
| 42>    C       -3.13008         6.82952         1.10979
| 43>    C       -3.28262         8.13911         0.77682
| 44>    C       -4.38021         8.99485         1.03922
| 45>    N       -5.46112         8.82941         1.88053
| 46>    C       -5.71385         7.78161         2.84202
| 47>    C       -4.71008         7.80059         3.99095
| 48>    C       -6.32385         9.94169         1.83909
| 49>    O       -7.34314        10.02312         2.49818
| 50>    C       -5.72233        10.84120         0.88315
| 51>    C       -4.53813        10.23440         0.41768
| 52>    C       -3.93288        11.10969        -0.56677
| 53>    O       -2.94056        11.00771        -1.24867
| 54>    N       -4.79856        12.22536        -0.60357
| 55>    C       -4.55388        13.32407        -1.50701
| 56>    C       -5.43103        13.24210        -2.75385
| 57>    C       -5.86904        12.07832         0.24394
| 58>    C       -6.87990        13.04987         0.41084
| 59>    C       -7.95121        12.84763         1.23189
| 60>    C       -9.00197        13.75454         1.47859
| 61>    S      -10.49198        13.12000         2.08835
| 62>    C      -11.31283        14.64023         1.96107
| 63>    C      -10.40759        15.65248         1.58590
| 64>    C       -9.10124        15.15281         1.30078
| 65>    C       -8.07740        16.05669         0.97097
| 66>    C       -8.35238        17.39649         0.89120
| 67>    C       -7.26913        18.37313         0.52459
| 68>    F       -6.11596        17.75831         0.20916
| 69>    F       -7.59247        19.12653        -0.53621
| 70>    F       -6.98059        19.21804         1.52778
| 71>    C       -9.64330        17.89775         1.20289
| 72>    C       -9.90618        19.28840         1.17343
| 73>    N      -10.14929        20.40729         1.16010
| 74>    C      -10.65012        17.03306         1.57306
| 75>    C      -12.69318        14.71023         2.23553
| 76>    C      -13.59419        15.55843         1.64896
| 77>    C      -14.98098        15.72414         2.03610
| 78>    C      -15.53901        15.33056         3.22550
| 79>    C      -16.89155        15.53479         3.56843
| 80>    N      -17.98350        15.66243         3.89861
| 81>    C      -14.83349        14.70169         4.27228
| 82>    N      -14.31162        14.20772         5.16819
| 83>    C      -15.65458        16.46720         0.97891
| 84>    C      -14.69852        16.78985        -0.02693
| 85>    C      -13.38358        16.24990         0.34851
| 86>    O      -12.36456        16.28822        -0.31151
| 87>    C      -15.03680        17.49787        -1.14417
| 88>    C      -16.37289        17.92679        -1.30834
| 89>    C      -17.33720        17.60163        -0.31067
| 90>    C      -16.95711        16.86459         0.83492
| 91>    C      -18.66820        18.02971        -0.48820
| 92>    C      -19.03084        18.74721        -1.59588
| 93>    C      -18.08038        19.06859        -2.57615
| 94>    C      -16.77926        18.66751        -2.43532
| 95>    H        5.36493         3.07054        -0.28757
| 96>    H        3.37925        -1.45964         0.34327
| 97>    H        5.59008        -2.43533         0.30794
| 98>    H        8.03368        -2.19493         0.12188
| 99>    H        9.04314         0.02887        -0.19801
|100>    H        7.61582         2.03254        -0.33184
|101>    H       -0.73108         2.04597         0.73725
|102>    H        1.14060         5.40012        -0.21634
|103>    H       -3.92250         6.29077         1.60694
|104>    H       -2.50832         8.62259         0.19480
|105>    H       -5.73421         6.80898         2.34397
|106>    H       -6.71685         7.98382         3.23081
|107>    H       -3.69334         7.66079         3.63153
|108>    H       -4.94503         7.00718         4.69489
|109>    H       -4.76287         8.75321         4.51228
|110>    H       -3.50189        13.24643        -1.79503
|111>    H       -4.70477        14.27288        -0.98448
|112>    H       -5.22489        12.32004        -3.29156
|113>    H       -5.21566        14.08145        -3.40883
|114>    H       -6.48749        13.26263        -2.49453
|115>    H       -6.79620        13.95511        -0.16926
|116>    H       -8.04789        11.88154         1.71358
|117>    H       -7.06945        15.71023         0.81757
|118>    H      -11.60655        17.42526         1.87882
|119>    H      -13.06515        13.96703         2.93086
|120>    H      -14.29230        17.73237        -1.89038
|121>    H      -17.71075        16.62945         1.56968
|122>    H      -19.39630        17.78140         0.26996
|123>    H      -20.05280        19.07159        -1.72210
|124>    H      -18.38373        19.63581        -3.44325
|125>    H      -16.04261        18.91261        -3.18624
|126> *
|127>
|128>                          ****END OF INPUT****

CARTESIAN COORDINATES (ANGSTROEM)
---------------------------------
  C      1.549940    0.809580    0.193520
  C      0.637920   -0.213370    0.197170
  C      0.989080   -1.580700    0.193070
  N      1.201420   -2.708600    0.194470
  C     -0.766270   -0.076880    0.163900
  N     -1.913990   -0.057170    0.119050
  C      2.995580    0.641820    0.127100
  C      3.590150    1.923390   -0.043660
  C      4.941260    2.086270   -0.153630
  C      5.778120    0.950460   -0.087070
  C      5.192500   -0.335880    0.096210
  C      3.789440   -0.472710    0.200460
  C      6.037480   -1.462040    0.169620
  C      7.395050   -1.326280    0.065020
  C      7.970160   -0.059650   -0.117750
  C      7.178970    1.054610   -0.192330
  C      2.543850    2.956930   -0.067630
  O      2.722120    4.144260   -0.240460
  C      1.264160    2.239270    0.176900
  C      0.035390    2.761200    0.461180
  C     -0.434920    4.094410    0.489260
  S     -2.080400    4.327090    1.042840
  C     -1.994860    6.040010    0.802850
  C     -0.727880    6.398030    0.318950
  C      0.131490    5.307420    0.143940
  C     -0.288230    7.714540    0.082680
  N      0.134950    8.766490   -0.088500
  C     -3.130080    6.829520    1.109790
  C     -3.282620    8.139110    0.776820
  C     -4.380210    8.994850    1.039220
  N     -5.461120    8.829410    1.880530
  C     -5.713850    7.781610    2.842020
  C     -4.710080    7.800590    3.990950
  C     -6.323850    9.941690    1.839090
  O     -7.343140   10.023120    2.498180
  C     -5.722330   10.841200    0.883150
  C     -4.538130   10.234400    0.417680
  C     -3.932880   11.109690   -0.566770
  O     -2.940560   11.007710   -1.248670
  N     -4.798560   12.225360   -0.603570
  C     -4.553880   13.324070   -1.507010
  C     -5.431030   13.242100   -2.753850
  C     -5.869040   12.078320    0.243940
  C     -6.879900   13.049870    0.410840
  C     -7.951210   12.847630    1.231890
  C     -9.001970   13.754540    1.478590
  S    -10.491980   13.120000    2.088350
  C    -11.312830   14.640230    1.961070
  C    -10.407590   15.652480    1.585900
  C     -9.101240   15.152810    1.300780
  C     -8.077400   16.056690    0.970970
  C     -8.352380   17.396490    0.891200
  C     -7.269130   18.373130    0.524590
  F     -6.115960   17.758310    0.209160
  F     -7.592470   19.126530   -0.536210
  F     -6.980590   19.218040    1.527780
  C     -9.643300   17.897750    1.202890
  C     -9.906180   19.288400    1.173430
  N    -10.149290   20.407290    1.160100
  C    -10.650120   17.033060    1.573060
  C    -12.693180   14.710230    2.235530
  C    -13.594190   15.558430    1.648960
  C    -14.980980   15.724140    2.036100
  C    -15.539010   15.330560    3.225500
  C    -16.891550   15.534790    3.568430
  N    -17.983500   15.662430    3.898610
  C    -14.833490   14.701690    4.272280
  N    -14.311620   14.207720    5.168190
  C    -15.654580   16.467200    0.978910
  C    -14.698520   16.789850   -0.026930
  C    -13.383580   16.249900    0.348510
  O    -12.364560   16.288220   -0.311510
  C    -15.036800   17.497870   -1.144170
  C    -16.372890   17.926790   -1.308340
  C    -17.337200   17.601630   -0.310670
  C    -16.957110   16.864590    0.834920
  C    -18.668200   18.029710   -0.488200
  C    -19.030840   18.747210   -1.595880
  C    -18.080380   19.068590   -2.576150
  C    -16.779260   18.667510   -2.435320
  H      5.364930    3.070540   -0.287570
  H      3.379250   -1.459640    0.343270
  H      5.590080   -2.435330    0.307940
  H      8.033680   -2.194930    0.121880
  H      9.043140    0.028870   -0.198010
  H      7.615820    2.032540   -0.331840
  H     -0.731080    2.045970    0.737250
  H      1.140600    5.400120   -0.216340
  H     -3.922500    6.290770    1.606940
  H     -2.508320    8.622590    0.194800
  H     -5.734210    6.808980    2.343970
  H     -6.716850    7.983820    3.230810
  H     -3.693340    7.660790    3.631530
  H     -4.945030    7.007180    4.694890
  H     -4.762870    8.753210    4.512280
  H     -3.501890   13.246430   -1.795030
  H     -4.704770   14.272880   -0.984480
  H     -5.224890   12.320040   -3.291560
  H     -5.215660   14.081450   -3.408830
  H     -6.487490   13.262630   -2.494530
  H     -6.796200   13.955110   -0.169260
  H     -8.047890   11.881540    1.713580
  H     -7.069450   15.710230    0.817570
  H    -11.606550   17.425260    1.878820
  H    -13.065150   13.967030    2.930860
  H    -14.292300   17.732370   -1.890380
  H    -17.710750   16.629450    1.569680
  H    -19.396300   17.781400    0.269960
  H    -20.052800   19.071590   -1.722100
  H    -18.383730   19.635810   -3.443250
  H    -16.042610   18.912610   -3.186240

 Total Charge           Charge          ....    0
 Multiplicity           Mult            ....    1
 Number of Electrons    NEL             ....  556
 Basis Dimension        Dim             .... 1283

ORBITAL ENERGIES
----------------

  NO   OCC          E(Eh)            E(eV)
   0   2.0000     -89.003854     -2421.9180
   1   2.0000     -88.988423     -2421.4981
   2   2.0000     -24.810287      -675.1222
   3   2.0000     -24.804095      -674.9537
   4   2.0000     -24.802601      -674.9131
   5   2.0000     -19.225650      -523.1565
   6   2.0000     -19.223616      -523.1012
   7   2.0000     -19.204965      -522.5937
   8   2.0000     -19.203938      -522.5657
   9   2.0000     -14.466629      -393.6570
  10   2.0000     -14.466402      -393.6508
  11   2.0000     -14.422112      -392.4456
  12   2.0000     -14.421333      -392.4244
  13   2.0000     -14.419778      -392.3821
  14   2.0000     -14.418555      -392.3488
  15   2.0000     -14.413922      -392.2227
  16   2.0000     -14.412423      -392.1820
  17   2.0000     -10.527990      -286.4812
  18   2.0000     -10.387327      -282.6535
  19   2.0000     -10.387195      -282.6500
  20   2.0000     -10.376485      -282.3585
  21   2.0000     -10.374953      -282.3168
  22   2.0000     -10.359169      -281.8873
  23   2.0000     -10.349736      -281.6306
  24   2.0000     -10.349211      -281.6164
  25   2.0000     -10.348701      -281.6025
  26   2.0000     -10.348556      -281.5985
  27   2.0000     -10.347413      -281.5674
  28   2.0000     -10.346415      -281.5403
  29   2.0000     -10.346411      -281.5402
  30   2.0000     -10.339973      -281.3650
  31   2.0000     -10.339242      -281.3451
  32   2.0000     -10.334901      -281.2269
  33   2.0000     -10.333253      -281.1821
  34   2.0000     -10.332215      -281.1539
  35   2.0000     -10.327795      -281.0336
  36   2.0000     -10.327185      -281.0170
  37   2.0000     -10.324902      -280.9549
  38   2.0000     -10.323886      -280.9272
  39   2.0000     -10.323419      -280.9145
  40   2.0000     -10.322350      -280.8854
  41   2.0000     -10.322194      -280.8812
  42   2.0000     -10.321472      -280.8615
  43   2.0000     -10.320695      -280.8404
  44   2.0000     -10.320341      -280.8308
  45   2.0000     -10.320227      -280.8277
  46   2.0000     -10.318471      -280.7799
  47   2.0000     -10.317278      -280.7474
  48   2.0000     -10.315960      -280.7115
  49   2.0000     -10.315822      -280.7078
  50   2.0000     -10.312368      -280.6138
  51   2.0000     -10.312254      -280.6107
  52   2.0000     -10.311792      -280.5981
  53   2.0000     -10.311775      -280.5977
  54   2.0000     -10.310099      -280.5521
  55   2.0000     -10.307666      -280.4858
  56   2.0000     -10.307220      -280.4737
  57   2.0000     -10.307080      -280.4699
  58   2.0000     -10.301774      -280.3255
  59   2.0000     -10.301642      -280.3219
  60   2.0000     -10.301585      -280.3204
  61   2.0000     -10.301372      -280.3146
  62   2.0000     -10.301316      -280.3131
  63   2.0000     -10.301292      -280.3124
  64   2.0000     -10.300892      -280.3015
  65   2.0000     -10.300779      -280.2984
  66   2.0000     -10.294040      -280.1151
  67   2.0000     -10.292959      -280.0856
  68   2.0000     -10.290010      -280.0054
  69   2.0000     -10.289868      -280.0015
  70   2.0000     -10.289504      -279.9916
  71   2.0000     -10.289417      -279.9893
  72   2.0000     -10.289297      -279.9860
  73   2.0000     -10.289211      -279.9837
  74   2.0000     -10.288814      -279.9729
  75   2.0000     -10.288769      -279.9716
  76   2.0000     -10.279645      -279.7234
  77   2.0000     -10.277142      -279.6553
  78   2.0000     -10.272512      -279.5293
  79   2.0000     -10.271810      -279.5102
  80   2.0000      -8.098971      -220.3842
  81   2.0000      -8.084158      -219.9811
  82   2.0000      -6.067757      -165.1121
  83   2.0000      -6.063641      -165.0001
  84   2.0000      -6.062068      -164.9573
  85   2.0000      -6.053231      -164.7168
  86   2.0000      -6.049197      -164.6070
  87   2.0000      -6.046506      -164.5338
  88   2.0000      -1.396252       -37.9939
  89   2.0000      -1.299667       -35.3657
  90   2.0000      -1.295737       -35.2588
  91   2.0000      -1.147223       -31.2175
  92   2.0000      -1.140558       -31.0362
  93   2.0000      -1.140533       -31.0355
  94   2.0000      -1.138923       -30.9917
  95   2.0000      -1.077395       -29.3174
  96   2.0000      -1.067651       -29.0523
  97   2.0000      -1.036739       -28.2111
  98   2.0000      -1.025780       -27.9129
  99   2.0000      -1.023668       -27.8554
 100   2.0000      -1.022375       -27.8202
 101   2.0000      -1.004477       -27.3332
 102   2.0000      -1.003759       -27.3137
 103   2.0000      -1.003283       -27.3007
 104   2.0000      -0.998831       -27.1796
 105   2.0000      -0.998479       -27.1700
 106   2.0000      -0.992547       -27.0086
 107   2.0000      -0.978137       -26.6165
 108   2.0000      -0.976023       -26.5589
 109   2.0000      -0.975036       -26.5321
 110   2.0000      -0.947078       -25.7713
 111   2.0000      -0.940708       -25.5980
 112   2.0000      -0.936872       -25.4936
 113   2.0000      -0.928152       -25.2563
 114   2.0000      -0.926199       -25.2032
 115   2.0000      -0.912290       -24.8247
 116   2.0000      -0.907885       -24.7048
 117   2.0000      -0.898927       -24.4611
 118   2.0000      -0.891043       -24.2465
 119   2.0000      -0.889048       -24.1922
 120   2.0000      -0.885438       -24.0940
 121   2.0000      -0.884804       -24.0767
 122   2.0000      -0.884141       -24.0587
 123   2.0000      -0.878866       -23.9152
 124   2.0000      -0.873559       -23.7707
 125   2.0000      -0.852048       -23.1854
 126   2.0000      -0.846906       -23.0455
 127   2.0000      -0.832529       -22.6543
 128   2.0000      -0.832325       -22.6487
 129   2.0000      -0.831668       -22.6308
 130   2.0000      -0.816381       -22.2149
 131   2.0000      -0.807810       -21.9816
 132   2.0000      -0.803650       -21.8684
 133   2.0000      -0.785675       -21.3793
 134   2.0000      -0.777911       -21.1680
 135   2.0000      -0.771428       -20.9916
 136   2.0000      -0.767520       -20.8853
 137   2.0000      -0.767180       -20.8760
 138   2.0000      -0.760086       -20.6830
 139   2.0000      -0.741051       -20.1650
 140   2.0000      -0.737768       -20.0757
 141   2.0000      -0.732549       -19.9337
 142   2.0000      -0.726290       -19.7633
 143   2.0000      -0.716407       -19.4944
 144   2.0000      -0.709583       -19.3087
 145   2.0000      -0.708172       -19.2703
 146   2.0000      -0.706198       -19.2166
 147   2.0000      -0.702390       -19.1130
 148   2.0000      -0.701885       -19.0993
 149   2.0000      -0.698791       -19.0151
 150   2.0000      -0.690935       -18.8013
 151   2.0000      -0.685154       -18.6440
 152   2.0000      -0.684291       -18.6205
 153   2.0000      -0.678750       -18.4697
 154   2.0000      -0.677400       -18.4330
 155   2.0000      -0.676227       -18.4011
 156   2.0000      -0.666653       -18.1406
 157   2.0000      -0.661255       -17.9937
 158   2.0000      -0.653335       -17.7782
 159   2.0000      -0.644323       -17.5329
 160   2.0000      -0.640238       -17.4217
 161   2.0000      -0.636210       -17.3121
 162   2.0000      -0.633294       -17.2328
 163   2.0000      -0.620729       -16.8909
 164   2.0000      -0.614477       -16.7208
 165   2.0000      -0.613135       -16.6843
 166   2.0000      -0.611496       -16.6396
 167   2.0000      -0.610244       -16.6056
 168   2.0000      -0.609281       -16.5794
 169   2.0000      -0.602457       -16.3937
 170   2.0000      -0.596762       -16.2387
 171   2.0000      -0.586861       -15.9693
 172   2.0000      -0.585367       -15.9287
 173   2.0000      -0.581716       -15.8293
 174   2.0000      -0.578330       -15.7372
 175   2.0000      -0.571255       -15.5446
 176   2.0000      -0.564991       -15.3742
 177   2.0000      -0.563342       -15.3293
 178   2.0000      -0.560637       -15.2557
 179   2.0000      -0.559745       -15.2314
 180   2.0000      -0.557429       -15.1684
 181   2.0000      -0.554783       -15.0964
 182   2.0000      -0.550813       -14.9884
 183   2.0000      -0.550576       -14.9819
 184   2.0000      -0.546107       -14.8603
 185   2.0000      -0.545662       -14.8482
 186   2.0000      -0.544484       -14.8162
 187   2.0000      -0.543410       -14.7869
 188   2.0000      -0.542245       -14.7552
 189   2.0000      -0.540543       -14.7089
 190   2.0000      -0.539048       -14.6682
 191   2.0000      -0.538398       -14.6506
 192   2.0000      -0.533453       -14.5160
 193   2.0000      -0.530349       -14.4315
 194   2.0000      -0.528697       -14.3866
 195   2.0000      -0.525092       -14.2885
 196   2.0000      -0.524094       -14.2613
 197   2.0000      -0.521529       -14.1915
 198   2.0000      -0.521082       -14.1794
 199   2.0000      -0.519554       -14.1378
 200   2.0000      -0.518170       -14.1001
 201   2.0000      -0.517313       -14.0768
 202   2.0000      -0.514619       -14.0035
 203   2.0000      -0.514154       -13.9908
 204   2.0000      -0.513075       -13.9615
 205   2.0000      -0.509929       -13.8759
 206   2.0000      -0.508531       -13.8378
 207   2.0000      -0.503559       -13.7025
 208   2.0000      -0.501710       -13.6522
 209   2.0000      -0.501072       -13.6348
 210   2.0000      -0.498867       -13.5748
 211   2.0000      -0.498031       -13.5521
 212   2.0000      -0.491460       -13.3733
 213   2.0000      -0.491251       -13.3676
 214   2.0000      -0.489890       -13.3306
 215   2.0000      -0.488924       -13.3043
 216   2.0000      -0.484591       -13.1864
 217   2.0000      -0.482912       -13.1407
 218   2.0000      -0.479726       -13.0540
 219   2.0000      -0.478187       -13.0121
 220   2.0000      -0.475050       -12.9268
 221   2.0000      -0.470765       -12.8102
 222   2.0000      -0.469573       -12.7777
 223   2.0000      -0.467734       -12.7277
 224   2.0000      -0.464579       -12.6418
 225   2.0000      -0.463770       -12.6198
 226   2.0000      -0.457010       -12.4359
 227   2.0000      -0.456138       -12.4121
 228   2.0000      -0.454346       -12.3634
 229   2.0000      -0.453771       -12.3477
 230   2.0000      -0.453294       -12.3348
 231   2.0000      -0.452392       -12.3102
 232   2.0000      -0.449524       -12.2322
 233   2.0000      -0.449000       -12.2179
 234   2.0000      -0.447856       -12.1868
 235   2.0000      -0.447168       -12.1681
 236   2.0000      -0.445032       -12.1099
 237   2.0000      -0.444078       -12.0840
 238   2.0000      -0.440601       -11.9894
 239   2.0000      -0.438778       -11.9397
 240   2.0000      -0.438566       -11.9340
 241   2.0000      -0.438098       -11.9212
 242   2.0000      -0.437991       -11.9183
 243   2.0000      -0.437757       -11.9120
 244   2.0000      -0.436094       -11.8667
 245   2.0000      -0.432869       -11.7790
 246   2.0000      -0.432140       -11.7591
 247   2.0000      -0.430970       -11.7273
 248   2.0000      -0.429062       -11.6754
 249   2.0000      -0.425077       -11.5669
 250   2.0000      -0.423905       -11.5350
 251   2.0000      -0.418874       -11.3982
 252   2.0000      -0.416926       -11.3451
 253   2.0000      -0.416146       -11.3239
 254   2.0000      -0.412956       -11.2371
 255   2.0000      -0.411680       -11.2024
 256   2.0000      -0.409246       -11.1361
 257   2.0000      -0.399038       -10.8584
 258   2.0000      -0.394415       -10.7326
 259   2.0000      -0.380312       -10.3488
 260   2.0000      -0.379507       -10.3269
 261   2.0000      -0.366494        -9.9728
 262   2.0000      -0.361533        -9.8378
 263   2.0000      -0.355148        -9.6641
 264   2.0000      -0.352879        -9.6023
 265   2.0000      -0.346954        -9.4411
 266   2.0000      -0.345746        -9.4082
 267   2.0000      -0.345291        -9.3958
 268   2.0000      -0.344374        -9.3709
 269   2.0000      -0.337292        -9.1782
 270   2.0000      -0.330262        -8.9869
 271   2.0000      -0.321951        -8.7607
 272   2.0000      -0.320357        -8.7173
 273   2.0000      -0.305302        -8.3077
 274   2.0000      -0.300713        -8.1828
 275   2.0000      -0.294737        -8.0202
 276   2.0000      -0.285880        -7.7792
 277   2.0000      -0.245744        -6.6870
 278   0.0000      -0.130959        -3.5636
 279   0.0000      -0.105596        -2.8734
 280   0.0000      -0.083081        -2.2607
 281   0.0000      -0.071281        -1.9397
 282   0.0000      -0.062236        -1.6935

MULLIKEN ATOMIC CHARGES
-----------------------
   0 C :    0.305123
   1 C :   -0.348057
   2 C :   -0.181397
   3 N :    0.150107
   4 C :   -0.194866
   5 N :    0.153802
   6 C :    0.048941
   7 C :   -0.006446
   8 C :   -0.076320
   9 C :    0.095733
  10 C :    0.092997
  11 C :   -0.078019
  12 C :   -0.016977
  13 C :    0.037067
  14 C :    0.033821
  15 C :   -0.012206
  16 C :    0.162161
  17 O :   -0.152366
  18 C :   -0.080979
  19 C :    0.058301
  20 C :   -0.108978
  21 S :    0.169762
  22 C :   -0.057422
  23 C :   -0.067274
  24 C :    0.033025
  25 C :   -0.185159
  26 N :    0.146979
  27 C :    0.052873
  28 C :   -0.039253
  29 C :    0.105687
  30 N :   -0.264075
  31 C :    0.096153
  32 C :   -0.004662
  33 C :    0.165400
  34 O :   -0.214779
  35 C :   -0.066148
  36 C :   -0.026117
  37 C :    0.152449
  38 O :   -0.162840
  39 N :   -0.265918
  40 C :    0.096809
  41 C :   -0.001940
  42 C :    0.141270
  43 C :   -0.037303
  44 C :    0.064198
  45 C :   -0.120305
  46 S :    0.245992
  47 C :   -0.147492
  48 C :    0.161624
  49 C :    0.124386
  50 C :   -0.090045
  51 C :   -0.048470
  52 C :    0.524766
  53 F :   -0.158643
  54 F :   -0.151739
  55 F :   -0.154040
  56 C :   -0.092664
  57 C :   -0.164838
  58 N :    0.141186
  59 C :    0.002531
  60 C :    0.018476
  61 C :   -0.109224
  62 C :    0.303163
  63 C :   -0.341544
  64 C :   -0.178442
  65 N :    0.151568
  66 C :   -0.209838
  67 N :    0.166625
  68 C :    0.056426
  69 C :   -0.007055
  70 C :    0.131850
  71 O :   -0.149782
  72 C :   -0.075846
  73 C :    0.097179
  74 C :    0.097786
  75 C :   -0.086213
  76 C :   -0.021171
  77 C :    0.039376
  78 C :    0.037758
  79 C :   -0.014997
  80 H :   -0.010673
  81 H :   -0.006428
  82 H :   -0.008827
  83 H :   -0.002849
  84 H :   -0.001900
  85 H :   -0.016412
  86 H :    0.009133
  87 H :    0.029636
  88 H :   -0.020968
  89 H :    0.033168
  90 H :    0.028758
  91 H :    0.048112
  92 H :    0.026547
  93 H :    0.026858
  94 H :    0.028059
  95 H :    0.051213
  96 H :    0.026039
  97 H :    0.032727
  98 H :    0.031023
  99 H :    0.017011
 100 H :   -0.012830
 101 H :    0.019571
 102 H :   -0.008217
 103 H :    0.004105
 104 H :    0.032578
 105 H :   -0.010600
 106 H :   -0.006779
 107 H :   -0.007959
 108 H :   -0.003357
 109 H :   -0.003358
 110 H :   -0.014885
Sum of atomic charges:   -0.0000000

LOEWDIN ATOMIC CHARGES
----------------------
   0 C :    0.076606
   1 C :   -0.139174
   2 C :   -0.017150
   3 N :   -0.051241
   4 C :   -0.024784
   5 N :   -0.050889
   6 C :   -0.026871
   7 C :   -0.056380
   8 C :    0.034342
   9 C :   -0.007922
  10 C :   -0.005746
  11 C :    0.020785
  12 C :   -0.004908
  13 C :   -0.011864
  14 C :   -0.011042
  15 C :   -0.008498
  16 C :    0.089002
  17 O :   -0.138510
  18 C :   -0.085797
  19 C :    0.044297
  20 C :   -0.178859
  21 S :    0.479522
  22 C :   -0.124077
  23 C :   -0.105102
  24 C :    0.022763
  25 C :   -0.034102
  26 N :   -0.036569
  27 C :   -0.043220
  28 C :    0.000424
  29 C :    0.061555
  30 N :   -0.002411
  31 C :    0.035053
  32 C :   -0.062224
  33 C :    0.081002
  34 O :   -0.201414
  35 C :   -0.122388
  36 C :   -0.093896
  37 C :    0.082270
  38 O :   -0.167650
  39 N :   -0.003055
  40 C :    0.036558
  41 C :   -0.060798
  42 C :    0.084355
  43 C :   -0.037680
  44 C :    0.006009
  45 C :   -0.148762
  46 S :    0.546389
  47 C :   -0.175394
  48 C :   -0.014760
  49 C :   -0.035059
  50 C :    0.010403
  51 C :   -0.059989
  52 C :    0.169537
  53 F :   -0.059443
  54 F :   -0.050004
  55 F :   -0.054164
  56 C :   -0.048475
  57 C :   -0.038806
  58 N :   -0.033633
  59 C :    0.052473
  60 C :    0.036997
  61 C :   -0.092852
  62 C :    0.072252
  63 C :   -0.136061
  64 C :   -0.017597
  65 N :   -0.048999
  66 C :   -0.025507
  67 N :   -0.048700
  68 C :   -0.026744
  69 C :   -0.056337
  70 C :    0.076476
  71 O :   -0.141966
  72 C :    0.034908
  73 C :   -0.007657
  74 C :   -0.005352
  75 C :    0.020669
  76 C :   -0.005168
  77 C :   -0.010974
  78 C :   -0.010321
  79 C :   -0.008063
  80 H :    0.039790
  81 H :    0.039352
  82 H :    0.035012
  83 H :    0.033897
  84 H :    0.033765
  85 H :    0.032455
  86 H :    0.043298
  87 H :    0.043627
  88 H :    0.029689
  89 H :    0.054676
  90 H :    0.019872
  91 H :    0.038969
  92 H :    0.023057
  93 H :    0.032765
  94 H :    0.032610
  95 H :    0.041524
  96 H :    0.023614
  97 H :    0.033680
  98 H :    0.033918
  99 H :    0.021552
 100 H :    0.031055
 101 H :    0.040689
 102 H :    0.034906
 103 H :    0.043844
 104 H :    0.047431
 105 H :    0.040106
 106 H :    0.039508
 107 H :    0.035204
 108 H :    0.033943
 109 H :    0.033655
 110 H :    0.032899

  Mayer bond orders larger than 0.100000
B(  0-C ,  1-C ) :   1.6280 B(  0-C ,  6-C ) :   0.9895 B(  0-C , 18-C ) :   1.0692
B(  1-C ,  2-C ) :   1.1461 B(  1-C ,  4-C ) :   1.1383 B(  2-C ,  3-N ) :   2.9669
B(  4-C ,  5-N ) :   2.9786 B(  6-C ,  7-C ) :   1.2130 B(  6-C , 11-C ) :   1.4463
B(  7-C ,  8-C ) :   1.4704 B(  7-C , 16-C ) :   0.9576 B(  8-C ,  9-C ) :   1.1791
B(  8-C , 80-H ) :   1.0167 B(  9-C , 10-C ) :   1.2551 B(  9-C , 15-C ) :   1.2452
B( 10-C , 11-C ) :   1.2085 B( 10-C , 12-C ) :   1.2391 B( 11-C , 81-H ) :   0.9903
B( 12-C , 13-C ) :   1.4897 B( 12-C , 82-H ) :   0.9978 B( 13-C , 14-C ) :   1.2593
B( 13-C , 83-H ) :   0.9889 B( 14-C , 15-C ) :   1.4874 B( 14-C , 84-H ) :   0.9894
B( 15-C , 85-H ) :   0.9983 B( 16-C , 17-O ) :   2.1688 B( 16-C , 18-C ) :   0.9306
B( 18-C , 19-C ) :   1.6230 B( 19-C , 20-C ) :   1.1893 B( 19-C , 86-H ) :   0.9111
B( 20-C , 21-S ) :   1.1028 B( 20-C , 24-C ) :   1.4339 B( 21-S , 22-C ) :   1.1719
B( 22-C , 23-C ) :   1.3968 B( 22-C , 27-C ) :   1.1627 B( 23-C , 24-C ) :   1.3105
B( 23-C , 25-C ) :   1.1107 B( 24-C , 87-H ) :   0.9803 B( 25-C , 26-N ) :   2.9938
B( 27-C , 28-C ) :   1.5759 B( 27-C , 88-H ) :   0.9468 B( 28-C , 29-C ) :   1.2069
B( 28-C , 89-H ) :   0.9353 B( 29-C , 30-N ) :   1.1550 B( 29-C , 36-C ) :   1.3460
B( 30-N , 31-C ) :   0.9416 B( 30-N , 33-C ) :   1.0705 B( 31-C , 32-C ) :   1.1151
B( 31-C , 90-H ) :   0.9501 B( 31-C , 91-H ) :   0.9223 B( 32-C , 92-H ) :   0.9674
B( 32-C , 93-H ) :   0.9675 B( 32-C , 94-H ) :   0.9625 B( 33-C , 34-O ) :   2.0064
B( 33-C , 35-C ) :   0.9935 B( 34-O ,101-H ) :   0.1190 B( 35-C , 36-C ) :   1.2676
B( 35-C , 42-C ) :   1.2988 B( 36-C , 37-C ) :   0.9606 B( 37-C , 38-O ) :   2.1562
B( 37-C , 39-N ) :   1.0256 B( 39-N , 40-C ) :   0.9417 B( 39-N , 42-C ) :   1.1739
B( 40-C , 41-C ) :   1.1165 B( 40-C , 95-H ) :   0.9275 B( 40-C , 96-H ) :   0.9507
B( 41-C , 97-H ) :   0.9640 B( 41-C , 98-H ) :   0.9684 B( 41-C , 99-H ) :   0.9691
B( 42-C , 43-C ) :   1.1927 B( 43-C , 44-C ) :   1.5740 B( 43-C ,100-H ) :   0.9553
B( 44-C , 45-C ) :   1.1728 B( 44-C ,101-H ) :   0.9192 B( 45-C , 46-S ) :   1.2091
B( 45-C , 49-C ) :   1.2670 B( 46-S , 47-C ) :   1.1508 B( 47-C , 48-C ) :   1.2763
B( 47-C , 60-C ) :   1.1996 B( 48-C , 49-C ) :   1.2483 B( 48-C , 59-C ) :   1.2062
B( 49-C , 50-C ) :   1.1932 B( 50-C , 51-C ) :   1.5413 B( 50-C ,102-H ) :   0.9887
B( 51-C , 52-C ) :   0.9391 B( 51-C , 56-C ) :   1.2309 B( 52-C , 53-F ) :   1.1579
B( 52-C , 54-F ) :   1.1658 B( 52-C , 55-F ) :   1.1714 B( 56-C , 57-C ) :   1.0663
B( 56-C , 59-C ) :   1.5583 B( 57-C , 58-N ) :   3.0446 B( 59-C ,103-H ) :   0.9850
B( 60-C , 61-C ) :   1.5800 B( 60-C ,104-H ) :   0.9327 B( 61-C , 62-C ) :   1.0670
B( 61-C , 70-C ) :   0.9447 B( 62-C , 63-C ) :   1.6406 B( 62-C , 68-C ) :   0.9941
B( 63-C , 64-C ) :   1.1453 B( 63-C , 66-C ) :   1.1423 B( 64-C , 65-N ) :   2.9657
B( 66-C , 67-N ) :   2.9942 B( 68-C , 69-C ) :   1.2095 B( 68-C , 75-C ) :   1.4495
B( 69-C , 70-C ) :   0.9437 B( 69-C , 72-C ) :   1.4740 B( 70-C , 71-O ) :   2.2027
B( 72-C , 73-C ) :   1.1775 B( 72-C ,105-H ) :   1.0158 B( 73-C , 74-C ) :   1.2548
B( 73-C , 79-C ) :   1.2461 B( 74-C , 75-C ) :   1.2048 B( 74-C , 76-C ) :   1.2411
B( 75-C ,106-H ) :   0.9896 B( 76-C , 77-C ) :   1.4886 B( 76-C ,107-H ) :   0.9970
B( 77-C , 78-C ) :   1.2617 B( 77-C ,108-H ) :   0.9881 B( 78-C , 79-C ) :   1.4870
B( 78-C ,109-H ) :   0.9884 B( 79-C ,110-H ) :   0.9973

-----------------------------------------------------------------------------
         ABSORPTION SPECTRUM VIA TRANSITION ELECTRIC DIPOLE MOMENTS
-----------------------------------------------------------------------------
State   Energy  Wavelength   fosc         T2         TX        TY        TZ
        (cm-1)    (nm)                  (au**2)     (au)      (au)      (au)
-----------------------------------------------------------------------------
   0   11006.3    908.6   1.441485888  43.11672  -4.71201   4.57313   0.01425
   1   17542.2    570.1   0.301780587   5.66348  -0.53101   2.31604  -0.13213
   2   19352.8    516.7   0.384990448   6.54910  -2.50113  -0.08074   0.53566
   3   22543.1    443.6   0.201050124   2.93608   1.56276  -0.50210  -0.49167
   4   23025.0    434.3   0.019284918   0.27574  -0.31927  -0.05705  -0.41297
   5   23639.8    423.0   0.369054429   5.13953  -1.32185   1.81760   0.29765
   6   24032.8    416.1   0.044111931   0.60427  -0.66465   0.39611  -0.07485
   7   24946.8    400.9   0.014177326   0.18709   0.23698  -0.36106   0.02389
   8   25362.6    394.3   0.051054928   0.66270  -0.48578   0.62525  -0.18914
   9   25530.8    391.7   0.184456171   2.37850   1.28407  -0.82508  -0.22115
  10   26750.2    373.8   0.003918763   0.04823  -0.20914   0.06695  -0.00266
  11   26827.1    372.8   0.040015367   0.49105  -0.07849   0.19443  -0.66865
  12   27293.0    366.4   0.067084478   0.80918   0.79859   0.20703   0.35857
  13   27921.3    358.1   0.010418781   0.12284   0.27590   0.10870   0.18684
  14   28083.9    356.1   0.032098308   0.37627   0.54579  -0.25157  -0.12285
  15   28562.7    350.1   0.013411535   0.15458  -0.03968  -0.04362   0.38872
  16   28982.3    345.0   0.126627166   1.43836  -1.14952   0.10704   0.32482
  17   29404.4    340.1   0.116611309   1.30558   0.37755  -1.07555   0.07897
  18   29811.3    335.4   0.084770029   0.93613   0.08672  -0.90618  -0.32779
  19   30093.0    332.3   0.010001347   0.10941   0.11641  -0.29817  -0.08339
  20   30786.8    324.8   0.078553674   0.84000  -0.61209  -0.20201  -0.65156
  21   31189.6    320.6   0.320678861   3.38483   0.63917  -1.21341   1.22635
  22   31697.0    315.5   0.222375602   2.30964   1.35369  -0.68942  -0.04299
  23   32113.2    311.4   0.068570357   0.70296  -0.27339   0.53726  -0.58273
  24   32654.9    306.2   0.577728544   5.82439  -2.39957   0.15001  -0.20965
  25   32686.1    305.9   0.081241127   0.81826  -0.17374   0.14234  -0.87625
  26   32978.2    303.2   0.063230319   0.63121   0.26677   0.67048  -0.33242
  27   33284.9    300.4   0.043133232   0.42662   0.09353   0.46250   0.45163
  28   33741.4    296.4   0.046123212   0.45002  -0.32098  -0.44631  -0.38445
  29   34024.9    293.9   0.068160349   0.65949  -0.56911   0.53191  -0.22951
  30   34114.5    293.1   0.034057738   0.32866   0.47802  -0.28370   0.14026
  31   34459.0    290.2   0.036309647   0.34689   0.01174  -0.17013   0.56375
  32   34667.5    288.5   0.015364153   0.14590  -0.18587   0.11403  -0.31361
  33   34855.7    286.9   0.015186239   0.14343   0.37458  -0.04244   0.03633
  34   35706.4    280.1   0.408437820   3.76579  -1.78855   0.10289   0.74585
  35   35998.1    277.8   0.122396389   1.11935   0.66734   0.70456   0.42143
  36   36125.8    276.8   0.030605400   0.27891   0.12630   0.03124  -0.51184
  37   36318.3    275.3   0.175604371   1.59179   0.77568  -0.78559   0.61070
  38   36742.9    272.2   0.004960378   0.04444   0.20626   0.01294   0.04166
  39   36782.0    271.9   0.041644276   0.37273  -0.55544   0.01106  -0.25317
  40   36850.4    271.4   0.139381580   1.24520   0.14991  -0.81694   0.74521
  41   37160.3    269.1   0.067562833   0.59856  -0.29696  -0.31415   0.64162
  42   37619.9    265.8   0.178186608   1.55931  -0.78476  -0.05964   0.96948
  43   38064.1    262.7   0.145429870   1.25780   0.60053   0.41324  -0.85229
  44   38211.2    261.7   0.008863167   0.07636   0.08781   0.14459  -0.21850
  45   38315.9    261.0   0.029181678   0.25073  -0.30061   0.36312   0.16884
  46   38655.4    258.7   0.148303269   1.26304  -1.01619  -0.12065   0.46459
  47   38820.7    257.6   0.004082925   0.03462  -0.11672  -0.14442  -0.01194
  48   38949.3    256.7   0.052229550   0.44146  -0.50631  -0.20379   0.37892
  49   39442.5    253.5   0.257716021   2.15106   0.69183   1.27477  -0.21769
  50   39805.1    251.2   0.000668250   0.00553  -0.07259  -0.01567   0.00341
  51   40011.6    249.9   0.050700797   0.41716  -0.08919  -0.51324  -0.38182
  52   40315.3    248.0   0.055625691   0.45424  -0.16095   0.50536  -0.41586

FINAL SINGLE POINT ENERGY     -4249.595512120209

DIPOLE MOMENT
-------------
                                X             Y             Z
Electronic contribution:    -17.95254      35.13500      10.38279
Nuclear contribution   :     18.90371     -36.13686     -11.77779
                        -----------------------------------------
Total Dipole Moment    :      0.95117      -1.00187      -1.39500
                        -----------------------------------------
Magnitude (a.u.)       :      1.96328
Magnitude (Debye)      :      4.99026

Rotational constants in cm-1:     0.001873     0.000169     0.000161
Rotational constants in MHz :    56.164310     5.067847     4.828165

                             ****ORCA TERMINATED NORMALLY****
TOTAL RUN TIME: 0 days 0 hours 12 minutes 29 seconds 719 msec
