                         Program Version 4.2.0 -  RELEASE  -
|  1> # ORCA input file
|  2> # SCF done       -168.044724962166          0.000733254969
|  3> ! CAM-B3LYP def2-SVP def2/J RIJCOSX Grid4 TightSCF
|  4> %maxcore 5000
|  5> %tddft
|  6>     Mode sTDDFT
|  7>     Ethresh 5.0
|  8>     maxcore 5000
|  9> end
| 10>
| 11> %pal
| 12>   nprocs 6
| 13>   end
| 14> * xyz 0 1
| 15>    C       -0.70446        -1.22952        -3.66733
| 16>    S       -0.95512        -0.17494        -5.05525
| 17>    C       -1.82549         1.03348        -4.06976
| 18>    O       -2.28044         2.05610        -4.48806
| 19>    N       -1.87533         0.58710        -2.77937
| 20>    C       -1.29117        -0.62847        -2.46707
| 21>    O       -1.29962        -1.07538        -1.34159
| 22>    C       -2.53284         1.38613        -1.76703
| 23>    C       -0.04816        -2.40684        -3.84506
| 24>    C        0.29238        -3.44195        -2.94028
| 25>    S        1.12697        -4.83018        -3.60566
| 26>    C        1.20507        -5.61314        -2.06432
| 27>    C        0.60240        -4.80769        -1.08414
| 28>    C        0.09691        -3.60054        -1.58166
| 29>    C        0.48873        -5.14421         0.27554
| 30>    N        0.37798        -5.39098         1.39110
| 31>    C        1.81347        -6.88608        -1.97176
| 32>    C        1.94991        -7.60864        -0.82587
| 33>    C        2.55483        -8.88566        -0.80148
| 34>    N        2.68745        -9.64157         0.34288
| 35>    C        2.20630        -9.29826         1.66066
| 36>    C        0.70151        -9.51548         1.79419
| 37>    C        3.31654       -10.86655         0.09288
| 38>    O        3.54362       -11.70046         0.95323
| 39>    C        3.59753       -10.84588        -1.32487
| 40>    C        3.11984        -9.61930        -1.84550
| 41>    C        3.39609        -9.60097        -3.26508
| 42>    O        3.17363        -8.77425        -4.12842
| 43>    N        4.02055       -10.83389        -3.51452
| 44>    C        4.50681       -11.17652        -4.82886
| 45>    C        6.01541       -10.97343        -4.94521
| 46>    C        4.15159       -11.58708        -2.37109
| 47>    C        4.72018       -12.88023        -2.32971
| 48>    C        4.83741       -13.56680        -1.16154
| 49>    C        5.35807       -14.87214        -1.03939
| 50>    S        5.91189       -15.80735        -2.39184
| 51>    C        6.31765       -17.15905        -1.36919
| 52>    C        6.00328       -16.88431        -0.04131
| 53>    C        5.47507       -15.60152         0.14140
| 54>    C        5.03371       -15.05594         1.46474
| 55>    C        5.40298       -15.97693         2.62202
| 56>    N        6.81319       -15.72838         3.07219
| 57>    O        7.42724       -16.67456         3.49645
| 58>    O        7.21569       -14.59857         3.00991
| 59>    C        5.23484       -17.45352         2.26296
| 60>    N        3.78210       -17.68253         1.97521
| 61>    O        3.49136       -18.27063         0.96936
| 62>    O        3.00835       -17.26244         2.79896
| 63>    C        6.10378       -17.86451         1.08338
| 64>    C        6.83747       -18.29515        -2.03834
| 65>    C        7.59076       -19.34581        -1.63405
| 66>    S        8.34270       -19.69577        -0.09404
| 67>    C        9.10033       -21.19283        -0.72873
| 68>    O        9.79068       -21.91895        -0.07914
| 69>    N        8.75901       -21.33976        -2.04102
| 70>    C        7.95323       -20.37678        -2.62018
| 71>    O        7.61011       -20.39951        -3.77802
| 72>    C        9.24241       -22.47451        -2.79842
| 73>    H       -2.05374         2.36235        -1.69575
| 74>    H       -2.44474         0.85124        -0.82300
| 75>    H       -3.58223         1.52450        -2.02686
| 76>    H        0.27245        -2.59706        -4.86351
| 77>    H       -0.39673        -2.86767        -0.97013
| 78>    H        2.18746        -7.29819        -2.90065
| 79>    H        1.58829        -7.20911         0.10855
| 80>    H        2.46732        -8.26150         1.88833
| 81>    H        2.73574        -9.95690         2.35469
| 82>    H        0.15167        -8.88184         1.10231
| 83>    H        0.38770        -9.27504         2.80567
| 84>    H        0.45411       -10.55427         1.58845
| 85>    H        3.99111       -10.50939        -5.52518
| 86>    H        4.23400       -12.20950        -5.06213
| 87>    H        6.26557        -9.93316        -4.75208
| 88>    H        6.34493       -11.22955        -5.94813
| 89>    H        6.54904       -11.59639        -4.23079
| 90>    H        5.05662       -13.33160        -3.25278
| 91>    H        4.50079       -13.09727        -0.24730
| 92>    H        3.95123       -14.89936         1.45365
| 93>    H        5.48590       -14.07496         1.63712
| 94>    H        4.77600       -15.73559         3.49073
| 95>    H        5.47394       -18.07495         3.13433
| 96>    H        5.79851       -18.85151         0.73267
| 97>    H        7.13731       -17.94560         1.43011
| 98>    H        6.62811       -18.31804        -3.10476
| 99>    H       10.32098       -22.56525        -2.67550
|100>    H        8.98856       -22.29877        -3.84247
|101>    H        8.76607       -23.39081        -2.44808
|102> *
|103>
|104>                          ****END OF INPUT****

CARTESIAN COORDINATES (ANGSTROEM)
---------------------------------
  C     -0.704460   -1.229520   -3.667330
  S     -0.955120   -0.174940   -5.055250
  C     -1.825490    1.033480   -4.069760
  O     -2.280440    2.056100   -4.488060
  N     -1.875330    0.587100   -2.779370
  C     -1.291170   -0.628470   -2.467070
  O     -1.299620   -1.075380   -1.341590
  C     -2.532840    1.386130   -1.767030
  C     -0.048160   -2.406840   -3.845060
  C      0.292380   -3.441950   -2.940280
  S      1.126970   -4.830180   -3.605660
  C      1.205070   -5.613140   -2.064320
  C      0.602400   -4.807690   -1.084140
  C      0.096910   -3.600540   -1.581660
  C      0.488730   -5.144210    0.275540
  N      0.377980   -5.390980    1.391100
  C      1.813470   -6.886080   -1.971760
  C      1.949910   -7.608640   -0.825870
  C      2.554830   -8.885660   -0.801480
  N      2.687450   -9.641570    0.342880
  C      2.206300   -9.298260    1.660660
  C      0.701510   -9.515480    1.794190
  C      3.316540  -10.866550    0.092880
  O      3.543620  -11.700460    0.953230
  C      3.597530  -10.845880   -1.324870
  C      3.119840   -9.619300   -1.845500
  C      3.396090   -9.600970   -3.265080
  O      3.173630   -8.774250   -4.128420
  N      4.020550  -10.833890   -3.514520
  C      4.506810  -11.176520   -4.828860
  C      6.015410  -10.973430   -4.945210
  C      4.151590  -11.587080   -2.371090
  C      4.720180  -12.880230   -2.329710
  C      4.837410  -13.566800   -1.161540
  C      5.358070  -14.872140   -1.039390
  S      5.911890  -15.807350   -2.391840
  C      6.317650  -17.159050   -1.369190
  C      6.003280  -16.884310   -0.041310
  C      5.475070  -15.601520    0.141400
  C      5.033710  -15.055940    1.464740
  C      5.402980  -15.976930    2.622020
  N      6.813190  -15.728380    3.072190
  O      7.427240  -16.674560    3.496450
  O      7.215690  -14.598570    3.009910
  C      5.234840  -17.453520    2.262960
  N      3.782100  -17.682530    1.975210
  O      3.491360  -18.270630    0.969360
  O      3.008350  -17.262440    2.798960
  C      6.103780  -17.864510    1.083380
  C      6.837470  -18.295150   -2.038340
  C      7.590760  -19.345810   -1.634050
  S      8.342700  -19.695770   -0.094040
  C      9.100330  -21.192830   -0.728730
  O      9.790680  -21.918950   -0.079140
  N      8.759010  -21.339760   -2.041020
  C      7.953230  -20.376780   -2.620180
  O      7.610110  -20.399510   -3.778020
  C      9.242410  -22.474510   -2.798420
  H     -2.053740    2.362350   -1.695750
  H     -2.444740    0.851240   -0.823000
  H     -3.582230    1.524500   -2.026860
  H      0.272450   -2.597060   -4.863510
  H     -0.396730   -2.867670   -0.970130
  H      2.187460   -7.298190   -2.900650
  H      1.588290   -7.209110    0.108550
  H      2.467320   -8.261500    1.888330
  H      2.735740   -9.956900    2.354690
  H      0.151670   -8.881840    1.102310
  H      0.387700   -9.275040    2.805670
  H      0.454110  -10.554270    1.588450
  H      3.991110  -10.509390   -5.525180
  H      4.234000  -12.209500   -5.062130
  H      6.265570   -9.933160   -4.752080
  H      6.344930  -11.229550   -5.948130
  H      6.549040  -11.596390   -4.230790
  H      5.056620  -13.331600   -3.252780
  H      4.500790  -13.097270   -0.247300
  H      3.951230  -14.899360    1.453650
  H      5.485900  -14.074960    1.637120
  H      4.776000  -15.735590    3.490730
  H      5.473940  -18.074950    3.134330
  H      5.798510  -18.851510    0.732670
  H      7.137310  -17.945600    1.430110
  H      6.628110  -18.318040   -3.104760
  H     10.320980  -22.565250   -2.675500
  H      8.988560  -22.298770   -3.842470
  H      8.766070  -23.390810   -2.448080

 Total Charge           Charge          ....    0
 Multiplicity           Mult            ....    1
 Number of Electrons    NEL             ....  444
 Basis Dimension        Dim             ....  973

ORBITAL ENERGIES
----------------

  NO   OCC          E(Eh)            E(eV)
   0   2.0000     -88.981329     -2421.3051
   1   2.0000     -88.972798     -2421.0729
   2   2.0000     -88.961671     -2420.7701
   3   2.0000     -88.956840     -2420.6387
   4   2.0000     -19.266566      -524.2699
   5   2.0000     -19.265931      -524.2526
   6   2.0000     -19.265704      -524.2465
   7   2.0000     -19.262449      -524.1579
   8   2.0000     -19.222791      -523.0787
   9   2.0000     -19.222177      -523.0620
  10   2.0000     -19.219659      -522.9935
  11   2.0000     -19.215040      -522.8678
  12   2.0000     -19.199143      -522.4352
  13   2.0000     -19.195016      -522.3229
  14   2.0000     -14.665168      -399.0595
  15   2.0000     -14.663562      -399.0158
  16   2.0000     -14.476702      -393.9311
  17   2.0000     -14.476632      -393.9292
  18   2.0000     -14.459755      -393.4699
  19   2.0000     -14.456740      -393.3879
  20   2.0000     -14.415223      -392.2582
  21   2.0000     -10.417000      -283.4610
  22   2.0000     -10.414883      -283.4034
  23   2.0000     -10.409746      -283.2636
  24   2.0000     -10.402564      -283.0682
  25   2.0000     -10.381037      -282.4824
  26   2.0000     -10.377330      -282.3815
  27   2.0000     -10.357418      -281.8397
  28   2.0000     -10.355832      -281.7965
  29   2.0000     -10.345743      -281.5220
  30   2.0000     -10.340598      -281.3820
  31   2.0000     -10.337899      -281.3085
  32   2.0000     -10.330439      -281.1055
  33   2.0000     -10.326974      -281.0112
  34   2.0000     -10.326935      -281.0102
  35   2.0000     -10.326352      -280.9943
  36   2.0000     -10.325023      -280.9582
  37   2.0000     -10.321711      -280.8680
  38   2.0000     -10.318659      -280.7850
  39   2.0000     -10.316462      -280.7252
  40   2.0000     -10.315855      -280.7087
  41   2.0000     -10.314276      -280.6657
  42   2.0000     -10.313236      -280.6374
  43   2.0000     -10.312100      -280.6065
  44   2.0000     -10.306710      -280.4598
  45   2.0000     -10.306175      -280.4453
  46   2.0000     -10.303675      -280.3772
  47   2.0000     -10.301968      -280.3308
  48   2.0000     -10.301653      -280.3222
  49   2.0000     -10.301639      -280.3218
  50   2.0000     -10.301566      -280.3199
  51   2.0000     -10.298849      -280.2459
  52   2.0000     -10.298294      -280.2308
  53   2.0000     -10.298276      -280.2303
  54   2.0000     -10.269187      -279.4388
  55   2.0000     -10.267545      -279.3941
  56   2.0000     -10.265284      -279.3326
  57   2.0000     -10.260008      -279.1890
  58   2.0000      -8.077082      -219.7886
  59   2.0000      -8.068488      -219.5547
  60   2.0000      -8.058756      -219.2899
  61   2.0000      -8.054706      -219.1797
  62   2.0000      -6.046136      -164.5237
  63   2.0000      -6.042105      -164.4140
  64   2.0000      -6.039439      -164.3415
  65   2.0000      -6.037540      -164.2898
  66   2.0000      -6.033751      -164.1867
  67   2.0000      -6.030661      -164.1026
  68   2.0000      -6.028387      -164.0407
  69   2.0000      -6.024635      -163.9386
  70   2.0000      -6.024293      -163.9293
  71   2.0000      -6.020771      -163.8335
  72   2.0000      -6.019201      -163.7908
  73   2.0000      -6.014923      -163.6744
  74   2.0000      -1.349138       -36.7119
  75   2.0000      -1.347094       -36.6563
  76   2.0000      -1.174346       -31.9556
  77   2.0000      -1.173832       -31.9416
  78   2.0000      -1.170603       -31.8537
  79   2.0000      -1.168875       -31.8067
  80   2.0000      -1.149927       -31.2911
  81   2.0000      -1.147500       -31.2251
  82   2.0000      -1.139416       -31.0051
  83   2.0000      -1.131475       -30.7890
  84   2.0000      -1.069218       -29.0949
  85   2.0000      -1.061187       -28.8764
  86   2.0000      -1.061167       -28.8758
  87   2.0000      -1.060130       -28.8476
  88   2.0000      -1.018845       -27.7242
  89   2.0000      -1.018437       -27.7131
  90   2.0000      -0.994264       -27.0553
  91   2.0000      -0.985625       -26.8202
  92   2.0000      -0.954111       -25.9627
  93   2.0000      -0.952552       -25.9203
  94   2.0000      -0.933858       -25.4116
  95   2.0000      -0.923519       -25.1302
  96   2.0000      -0.918807       -25.0020
  97   2.0000      -0.905260       -24.6334
  98   2.0000      -0.889295       -24.1989
  99   2.0000      -0.887560       -24.1517
 100   2.0000      -0.876809       -23.8592
 101   2.0000      -0.868594       -23.6356
 102   2.0000      -0.866710       -23.5844
 103   2.0000      -0.846013       -23.0212
 104   2.0000      -0.836472       -22.7616
 105   2.0000      -0.823053       -22.3964
 106   2.0000      -0.818703       -22.2780
 107   2.0000      -0.811085       -22.0708
 108   2.0000      -0.810684       -22.0598
 109   2.0000      -0.791268       -21.5315
 110   2.0000      -0.783294       -21.3145
 111   2.0000      -0.775467       -21.1015
 112   2.0000      -0.765647       -20.8343
 113   2.0000      -0.763281       -20.7699
 114   2.0000      -0.754767       -20.5383
 115   2.0000      -0.734885       -19.9972
 116   2.0000      -0.726974       -19.7820
 117   2.0000      -0.715267       -19.4634
 118   2.0000      -0.711656       -19.3651
 119   2.0000      -0.707171       -19.2431
 120   2.0000      -0.699871       -19.0445
 121   2.0000      -0.691759       -18.8237
 122   2.0000      -0.679663       -18.4946
 123   2.0000      -0.677017       -18.4226
 124   2.0000      -0.674676       -18.3589
 125   2.0000      -0.664729       -18.0882
 126   2.0000      -0.661027       -17.9875
 127   2.0000      -0.653886       -17.7931
 128   2.0000      -0.651568       -17.7301
 129   2.0000      -0.637265       -17.3409
 130   2.0000      -0.634994       -17.2791
 131   2.0000      -0.629395       -17.1267
 132   2.0000      -0.619869       -16.8675
 133   2.0000      -0.613165       -16.6851
 134   2.0000      -0.608173       -16.5492
 135   2.0000      -0.606627       -16.5072
 136   2.0000      -0.604190       -16.4408
 137   2.0000      -0.596644       -16.2355
 138   2.0000      -0.594988       -16.1904
 139   2.0000      -0.591447       -16.0941
 140   2.0000      -0.590720       -16.0743
 141   2.0000      -0.590385       -16.0652
 142   2.0000      -0.583648       -15.8819
 143   2.0000      -0.578752       -15.7486
 144   2.0000      -0.575326       -15.6554
 145   2.0000      -0.569800       -15.5051
 146   2.0000      -0.565993       -15.4015
 147   2.0000      -0.565857       -15.3978
 148   2.0000      -0.551919       -15.0185
 149   2.0000      -0.549328       -14.9480
 150   2.0000      -0.548391       -14.9225
 151   2.0000      -0.542140       -14.7524
 152   2.0000      -0.538718       -14.6592
 153   2.0000      -0.535757       -14.5787
 154   2.0000      -0.534851       -14.5540
 155   2.0000      -0.532222       -14.4825
 156   2.0000      -0.531150       -14.4533
 157   2.0000      -0.529560       -14.4100
 158   2.0000      -0.525083       -14.2882
 159   2.0000      -0.519910       -14.1475
 160   2.0000      -0.519026       -14.1234
 161   2.0000      -0.515365       -14.0238
 162   2.0000      -0.514744       -14.0069
 163   2.0000      -0.512360       -13.9420
 164   2.0000      -0.508269       -13.8307
 165   2.0000      -0.505390       -13.7524
 166   2.0000      -0.502809       -13.6821
 167   2.0000      -0.502438       -13.6720
 168   2.0000      -0.500296       -13.6137
 169   2.0000      -0.498045       -13.5525
 170   2.0000      -0.494912       -13.4673
 171   2.0000      -0.493938       -13.4407
 172   2.0000      -0.488992       -13.3061
 173   2.0000      -0.487583       -13.2678
 174   2.0000      -0.484106       -13.1732
 175   2.0000      -0.478790       -13.0285
 176   2.0000      -0.475407       -12.9365
 177   2.0000      -0.471753       -12.8371
 178   2.0000      -0.468734       -12.7549
 179   2.0000      -0.468081       -12.7371
 180   2.0000      -0.462562       -12.5870
 181   2.0000      -0.458327       -12.4717
 182   2.0000      -0.453700       -12.3458
 183   2.0000      -0.451488       -12.2856
 184   2.0000      -0.450562       -12.2604
 185   2.0000      -0.450434       -12.2569
 186   2.0000      -0.446236       -12.1427
 187   2.0000      -0.444972       -12.1083
 188   2.0000      -0.443391       -12.0653
 189   2.0000      -0.441327       -12.0091
 190   2.0000      -0.440425       -11.9846
 191   2.0000      -0.439642       -11.9633
 192   2.0000      -0.431667       -11.7462
 193   2.0000      -0.427370       -11.6293
 194   2.0000      -0.426347       -11.6015
 195   2.0000      -0.418131       -11.3779
 196   2.0000      -0.417087       -11.3495
 197   2.0000      -0.410309       -11.1651
 198   2.0000      -0.408104       -11.1051
 199   2.0000      -0.404357       -11.0031
 200   2.0000      -0.402390       -10.9496
 201   2.0000      -0.398159       -10.8345
 202   2.0000      -0.389689       -10.6040
 203   2.0000      -0.389156       -10.5895
 204   2.0000      -0.384232       -10.4555
 205   2.0000      -0.380816       -10.3625
 206   2.0000      -0.380452       -10.3526
 207   2.0000      -0.377970       -10.2851
 208   2.0000      -0.361024        -9.8240
 209   2.0000      -0.360210        -9.8018
 210   2.0000      -0.354194        -9.6381
 211   2.0000      -0.353150        -9.6097
 212   2.0000      -0.350555        -9.5391
 213   2.0000      -0.340759        -9.2725
 214   2.0000      -0.337952        -9.1961
 215   2.0000      -0.336066        -9.1448
 216   2.0000      -0.333094        -9.0639
 217   2.0000      -0.330385        -8.9902
 218   2.0000      -0.320054        -8.7091
 219   2.0000      -0.289229        -7.8703
 220   2.0000      -0.280291        -7.6271
 221   2.0000      -0.235746        -6.4150
 222   0.0000      -0.105458        -2.8697
 223   0.0000      -0.074413        -2.0249
 224   0.0000      -0.048158        -1.3104
 225   0.0000      -0.039914        -1.0861
 226   0.0000      -0.028456        -0.7743

MULLIKEN ATOMIC CHARGES
-----------------------
   0 C :   -0.205823
   1 S :    0.053032
   2 C :    0.139370
   3 O :   -0.174203
   4 N :   -0.271215
   5 C :    0.261806
   6 O :   -0.191002
   7 C :    0.124750
   8 C :    0.119872
   9 C :   -0.109336
  10 S :    0.174166
  11 C :   -0.052271
  12 C :   -0.089891
  13 C :    0.032097
  14 C :   -0.155202
  15 N :    0.110710
  16 C :    0.052681
  17 C :   -0.032432
  18 C :    0.135575
  19 N :   -0.252186
  20 C :    0.094084
  21 C :    0.010554
  22 C :    0.168420
  23 O :   -0.231883
  24 C :   -0.068640
  25 C :   -0.062972
  26 C :    0.167150
  27 O :   -0.210836
  28 N :   -0.257272
  29 C :    0.098568
  30 C :    0.004070
  31 C :    0.140481
  32 C :   -0.028270
  33 C :   -0.013177
  34 C :   -0.073977
  35 S :    0.138829
  36 C :   -0.133988
  37 C :   -0.048527
  38 C :   -0.107472
  39 C :    0.140043
  40 C :    0.022509
  41 N :    0.220738
  42 O :   -0.221447
  43 O :   -0.203061
  44 C :    0.021195
  45 N :    0.217065
  46 O :   -0.202558
  47 O :   -0.226142
  48 C :    0.155105
  49 C :    0.014711
  50 C :   -0.163067
  51 S :    0.026473
  52 C :    0.154006
  53 O :   -0.171471
  54 N :   -0.263278
  55 C :    0.217473
  56 O :   -0.181400
  57 C :    0.122837
  58 H :    0.048086
  59 H :    0.059232
  60 H :    0.048868
  61 H :    0.005139
  62 H :    0.022703
  63 H :    0.001598
  64 H :   -0.013572
  65 H :    0.037154
  66 H :    0.040032
  67 H :    0.019346
  68 H :    0.029187
  69 H :    0.022298
  70 H :    0.044469
  71 H :    0.024633
  72 H :    0.029049
  73 H :    0.024642
  74 H :    0.018025
  75 H :   -0.024421
  76 H :    0.024387
  77 H :    0.059959
  78 H :    0.076969
  79 H :    0.084305
  80 H :    0.072552
  81 H :    0.048111
  82 H :    0.071173
  83 H :    0.033635
  84 H :    0.049849
  85 H :    0.059209
  86 H :    0.048012
Sum of atomic charges:   -0.0000000

LOEWDIN ATOMIC CHARGES
----------------------
   0 C :   -0.203758
   1 S :    0.332834
   2 C :   -0.052912
   3 O :   -0.163578
   4 N :   -0.043357
   5 C :    0.076394
   6 O :   -0.166647
   7 C :    0.041309
   8 C :   -0.016322
   9 C :   -0.176807
  10 S :    0.482472
  11 C :   -0.134344
  12 C :   -0.108359
  13 C :    0.003542
  14 C :   -0.022154
  15 N :   -0.061429
  16 C :   -0.009757
  17 C :   -0.024593
  18 C :    0.068152
  19 N :    0.006087
  20 C :    0.037037
  21 C :   -0.058434
  22 C :    0.079124
  23 O :   -0.215545
  24 C :   -0.123455
  25 C :   -0.113811
  26 C :    0.082288
  27 O :   -0.199520
  28 N :    0.000531
  29 C :    0.036785
  30 C :   -0.060407
  31 C :    0.079521
  32 C :   -0.053506
  33 C :    0.014718
  34 C :   -0.170315
  35 S :    0.457745
  36 C :   -0.168255
  37 C :   -0.049279
  38 C :   -0.048005
  39 C :   -0.030007
  40 C :    0.010486
  41 N :    0.272688
  42 O :   -0.190655
  43 O :   -0.172092
  44 C :    0.008198
  45 N :    0.272010
  46 O :   -0.171650
  47 O :   -0.196348
  48 C :   -0.044453
  49 C :   -0.020674
  50 C :   -0.213292
  51 S :    0.347184
  52 C :   -0.047757
  53 O :   -0.159953
  54 N :   -0.044785
  55 C :    0.070264
  56 O :   -0.170657
  57 C :    0.042343
  58 H :    0.035539
  59 H :    0.038601
  60 H :    0.035640
  61 H :    0.037951
  62 H :    0.041188
  63 H :    0.036024
  64 H :    0.036316
  65 H :    0.028289
  66 H :    0.036771
  67 H :    0.023844
  68 H :    0.034139
  69 H :    0.029177
  70 H :    0.037936
  71 H :    0.023597
  72 H :    0.032236
  73 H :    0.031331
  74 H :    0.022797
  75 H :    0.023045
  76 H :    0.041038
  77 H :    0.053548
  78 H :    0.054669
  79 H :    0.058717
  80 H :    0.055510
  81 H :    0.041902
  82 H :    0.036610
  83 H :    0.048438
  84 H :    0.036159
  85 H :    0.039415
  86 H :    0.034736

  Mayer bond orders larger than 0.100000
B(  0-C ,  1-S ) :   1.0371 B(  0-C ,  5-C ) :   0.9483 B(  0-C ,  8-C ) :   1.7415
B(  1-S ,  2-C ) :   0.9926 B(  2-C ,  3-O ) :   2.1364 B(  2-C ,  4-N ) :   1.0602
B(  4-N ,  5-C ) :   1.0824 B(  4-N ,  7-C ) :   0.9300 B(  5-C ,  6-O ) :   2.0658
B(  7-C , 58-H ) :   0.9763 B(  7-C , 59-H ) :   0.9579 B(  7-C , 60-H ) :   0.9767
B(  8-C ,  9-C ) :   1.1658 B(  8-C , 61-H ) :   0.9258 B(  9-C , 10-S ) :   1.1060
B(  9-C , 13-C ) :   1.4602 B( 10-S , 11-C ) :   1.1682 B( 11-C , 12-C ) :   1.3971
B( 11-C , 16-C ) :   1.1632 B( 12-C , 13-C ) :   1.2975 B( 12-C , 14-C ) :   1.1231
B( 13-C , 62-H ) :   0.9823 B( 14-C , 15-N ) :   2.9622 B( 16-C , 17-C ) :   1.6025
B( 16-C , 63-H ) :   0.9232 B( 17-C , 18-C ) :   1.1771 B( 17-C , 64-H ) :   0.9464
B( 18-C , 19-N ) :   1.1562 B( 18-C , 25-C ) :   1.3301 B( 19-N , 20-C ) :   0.9392
B( 19-N , 22-C ) :   1.0805 B( 20-C , 21-C ) :   1.1233 B( 20-C , 65-H ) :   0.9482
B( 20-C , 66-H ) :   0.9275 B( 21-C , 67-H ) :   0.9675 B( 21-C , 68-H ) :   0.9676
B( 21-C , 69-H ) :   0.9632 B( 22-C , 23-O ) :   1.9856 B( 22-C , 24-C ) :   0.9972
B( 23-O , 76-H ) :   0.1232 B( 24-C , 25-C ) :   1.2618 B( 24-C , 31-C ) :   1.3210
B( 25-C , 26-C ) :   0.9834 B( 26-C , 27-O ) :   2.0235 B( 26-C , 28-N ) :   1.0609
B( 27-O , 63-H ) :   0.1145 B( 28-N , 29-C ) :   0.9459 B( 28-N , 31-C ) :   1.1592
B( 29-C , 30-C ) :   1.1201 B( 29-C , 70-H ) :   0.9285 B( 29-C , 71-H ) :   0.9500
B( 30-C , 72-H ) :   0.9639 B( 30-C , 73-H ) :   0.9683 B( 30-C , 74-H ) :   0.9684
B( 31-C , 32-C ) :   1.1738 B( 32-C , 33-C ) :   1.5560 B( 32-C , 75-H ) :   0.9692
B( 33-C , 34-C ) :   1.1782 B( 33-C , 76-H ) :   0.9386 B( 34-C , 35-S ) :   1.1134
B( 34-C , 36-C ) :   0.1044 B( 34-C , 38-C ) :   1.4583 B( 35-S , 36-C ) :   1.1357
B( 36-C , 37-C ) :   1.4856 B( 36-C , 49-C ) :   1.0921 B( 37-C , 38-C ) :   1.3383
B( 37-C , 48-C ) :   1.0210 B( 38-C , 39-C ) :   1.0443 B( 39-C , 40-C ) :   1.0388
B( 39-C , 77-H ) :   0.8972 B( 39-C , 78-H ) :   0.8820 B( 40-C , 41-N ) :   0.8299
B( 40-C , 44-C ) :   1.0298 B( 40-C , 79-H ) :   0.8960 B( 41-N , 42-O ) :   1.5495
B( 41-N , 43-O ) :   1.5907 B( 42-O , 43-O ) :   0.2715 B( 44-C , 45-N ) :   0.8255
B( 44-C , 48-C ) :   1.0391 B( 44-C , 80-H ) :   0.8934 B( 45-N , 46-O ) :   1.6080
B( 45-N , 47-O ) :   1.5380 B( 46-O , 47-O ) :   0.2750 B( 48-C , 81-H ) :   0.8938
B( 48-C , 82-H ) :   0.8857 B( 49-C , 50-C ) :   1.7900 B( 49-C , 83-H ) :   0.9247
B( 50-C , 51-S ) :   1.0074 B( 50-C , 55-C ) :   0.9502 B( 51-S , 52-C ) :   0.9755
B( 52-C , 53-O ) :   2.1450 B( 52-C , 54-N ) :   1.0680 B( 54-N , 55-C ) :   1.0686
B( 54-N , 57-C ) :   0.9284 B( 55-C , 56-O ) :   2.1518 B( 57-C , 84-H ) :   0.9739
B( 57-C , 85-H ) :   0.9598 B( 57-C , 86-H ) :   0.9797

-----------------------------------------------------------------------------
         ABSORPTION SPECTRUM VIA TRANSITION ELECTRIC DIPOLE MOMENTS
-----------------------------------------------------------------------------
State   Energy  Wavelength   fosc         T2         TX        TY        TZ
        (cm-1)    (nm)                  (au**2)     (au)      (au)      (au)
-----------------------------------------------------------------------------
   0   13509.5    740.2   1.332234365  32.46504  -2.50241   5.11444   0.21329
   1   20993.8    476.3   0.007831982   0.12282  -0.05279   0.07803   0.33755
   2   24318.6    411.2   0.129142201   1.74825   0.56263  -1.19611   0.03186
   3   24909.4    401.5   0.850812182  11.24463   1.28409  -2.92638   1.01589
   4   26460.1    377.9   0.010736950   0.13359  -0.13046   0.30245  -0.15841
   5   26971.9    370.8   0.335721968   4.09773  -0.66343   1.67021  -0.93165
   6   28007.4    357.0   0.043281324   0.50875  -0.34357   0.61503  -0.11158
   7   28707.9    348.3   0.002343705   0.02688   0.01615   0.15304  -0.05652
   8   30379.0    329.2   0.006321529   0.06851  -0.15675   0.19940   0.06461
   9   30855.2    324.1   0.054549675   0.58202  -0.31648   0.68792  -0.09293
  10   32107.8    311.5   0.000457032   0.00469  -0.03993   0.04159   0.03690
  11   32533.5    307.4   0.067548860   0.68354  -0.49067   0.62132   0.23820
  12   33280.5    300.5   0.014941926   0.14781  -0.01982  -0.19059   0.33330
  13   33601.4    297.6   0.028985454   0.28399  -0.00129  -0.13929   0.51438
  14   34177.3    292.6   0.071937537   0.69294   0.28062  -0.65787  -0.42590
  15   35267.6    283.5   0.044704572   0.41730  -0.20470   0.04231   0.61124
  16   36036.7    277.5   0.108358606   0.98991  -0.27692   0.69006  -0.66109
  17   36367.1    275.0   0.013440601   0.12167  -0.19217   0.27928  -0.08213
  18   36727.7    272.3   0.000495528   0.00444  -0.05100   0.00358  -0.04276
  19   37063.6    269.8   0.083219118   0.73918  -0.08947   0.60916  -0.60008
  20   37340.8    267.8   0.005865049   0.05171  -0.00522  -0.05011   0.22174
  21   38240.4    261.5   0.226942969   1.95375   0.10990  -0.82597   1.12225
  22   38619.1    258.9   0.011402228   0.09720  -0.01700   0.13139  -0.28222
  23   38873.4    257.2   0.017385952   0.14724   0.20624  -0.28531  -0.15265
  24   39479.0    253.3   0.025048084   0.20887   0.27695  -0.32207  -0.16864

FINAL SINGLE POINT ENERGY     -4151.980741223073

DIPOLE MOMENT
-------------
                                X             Y             Z
Electronic contribution:     -0.42103       5.70060      -4.26108
Nuclear contribution   :      0.60171      -5.86743       3.09618
                        -----------------------------------------
Total Dipole Moment    :      0.18069      -0.16683      -1.16490
                        -----------------------------------------
Magnitude (a.u.)       :      1.19058
Magnitude (Debye)      :      3.02621

Rotational constants in cm-1:     0.003700     0.000319     0.000300
Rotational constants in MHz :   110.927763     9.578077     9.007963

                             ****ORCA TERMINATED NORMALLY****
TOTAL RUN TIME: 0 days 0 hours 7 minutes 17 seconds 661 msec
