                         Program Version 4.2.0 -  RELEASE  -
|  1> # ORCA input file
|  2> # SCF done       -119.168573079084          0.000946919049
|  3> ! CAM-B3LYP def2-SVP def2/J RIJCOSX Grid4 TightSCF
|  4> %maxcore 5000
|  5> %tddft
|  6>     Mode sTDDFT
|  7>     Ethresh 5.0
|  8>     maxcore 5000
|  9> end
| 10>
| 11> %pal
| 12>   nprocs 6
| 13>   end
| 14> * xyz 0 1
| 15>    C        0.62685         0.79051        -2.86029
| 16>    C        1.31969        -0.39893        -2.76514
| 17>    F        1.63151        -1.06039        -3.89694
| 18>    C        1.70515        -0.93458        -1.54835
| 19>    C        1.37950        -0.24722        -0.38971
| 20>    C        0.68606         0.94518        -0.45217
| 21>    C        0.30456         1.47396        -1.68855
| 22>    C       -0.41724         2.72311        -1.73122
| 23>    S       -0.95108         3.48428        -3.22149
| 24>    C       -1.60683         4.74710        -2.18650
| 25>    N       -1.39194         4.51463        -0.92219
| 26>    N       -0.74244         3.40960        -0.67707
| 27>    C       -2.28621         5.87723        -2.71747
| 28>    C       -2.78271         6.85173        -1.91814
| 29>    C       -3.45955         7.99064        -2.42637
| 30>    N       -3.98701         8.98232        -1.63043
| 31>    C       -4.00299         9.01112        -0.18807
| 32>    C       -5.07278         8.08713         0.38845
| 33>    C       -4.59225         9.99936        -2.38624
| 34>    O       -5.12559        10.97486        -1.89244
| 35>    C       -4.40265         9.58756        -3.75829
| 36>    C       -3.70739         8.34841        -3.74771
| 37>    C       -3.50625         7.94089        -5.11853
| 38>    O       -2.96998         6.96787        -5.61312
| 39>    N       -4.08915         8.97100        -5.87651
| 40>    C       -4.12508         8.90368        -7.31699
| 41>    C       -5.48349         8.43399        -7.83272
| 42>    C       -4.63070         9.95545        -5.08035
| 43>    C       -5.27273        11.11532        -5.59444
| 44>    C       -5.81158        12.06126        -4.79248
| 45>    C       -6.47478        13.25266        -5.24525
| 46>    C       -7.19094        14.05793        -4.34247
| 47>    N       -7.82737        15.14591        -4.70516
| 48>    C       -7.78947        15.49009        -5.99054
| 49>    N       -7.11386        14.81916        -6.92889
| 50>    C       -6.47007        13.73550        -6.56364
| 51>    C       -8.50648        16.68804        -6.42340
| 52>    C       -9.47708        17.31739        -5.64056
| 53>    F       -9.82659        16.82109        -4.44486
| 54>    C      -10.13351        18.45489        -6.07647
| 55>    C       -9.82554        18.99021        -7.31414
| 56>    C       -8.87099        18.37951        -8.11454
| 57>    C       -8.22385        17.24340        -7.67389
| 58>    H        0.34534         1.17444        -3.82882
| 59>    H        2.24648        -1.86671        -1.52134
| 60>    H        1.67178        -0.64955         0.56795
| 61>    H        0.42711         1.48897         0.44172
| 62>    H       -2.39150         5.93175        -3.79191
| 63>    H       -2.65241         6.75680        -0.85018
| 64>    H       -4.22329        10.04597         0.08931
| 65>    H       -3.01360         8.74524         0.19405
| 66>    H       -6.05422         8.38413         0.02665
| 67>    H       -5.06781         8.15223         1.47289
| 68>    H       -4.89318         7.05424         0.09891
| 69>    H       -3.35590         8.18069        -7.60364
| 70>    H       -3.86332         9.87906        -7.73712
| 71>    H       -5.70438         7.44339        -7.44296
| 72>    H       -5.46845         8.38471        -8.91812
| 73>    H       -6.27613         9.11171        -7.52259
| 74>    H       -5.32255        11.21656        -6.66876
| 75>    H       -5.76942        11.92803        -3.71907
| 76>    H       -7.24567        13.79893        -3.29221
| 77>    H       -5.91495        13.24076        -7.35145
| 78>    H      -10.87837        18.90537        -5.43841
| 79>    H      -10.33328        19.88011        -7.65373
| 80>    H       -8.63271        18.79344        -9.08196
| 81>    H       -7.47950        16.75570        -8.28256
| 82> *
| 83>
| 84>                          ****END OF INPUT****

CARTESIAN COORDINATES (ANGSTROEM)
---------------------------------
  C      0.626850    0.790510   -2.860290
  C      1.319690   -0.398930   -2.765140
  F      1.631510   -1.060390   -3.896940
  C      1.705150   -0.934580   -1.548350
  C      1.379500   -0.247220   -0.389710
  C      0.686060    0.945180   -0.452170
  C      0.304560    1.473960   -1.688550
  C     -0.417240    2.723110   -1.731220
  S     -0.951080    3.484280   -3.221490
  C     -1.606830    4.747100   -2.186500
  N     -1.391940    4.514630   -0.922190
  N     -0.742440    3.409600   -0.677070
  C     -2.286210    5.877230   -2.717470
  C     -2.782710    6.851730   -1.918140
  C     -3.459550    7.990640   -2.426370
  N     -3.987010    8.982320   -1.630430
  C     -4.002990    9.011120   -0.188070
  C     -5.072780    8.087130    0.388450
  C     -4.592250    9.999360   -2.386240
  O     -5.125590   10.974860   -1.892440
  C     -4.402650    9.587560   -3.758290
  C     -3.707390    8.348410   -3.747710
  C     -3.506250    7.940890   -5.118530
  O     -2.969980    6.967870   -5.613120
  N     -4.089150    8.971000   -5.876510
  C     -4.125080    8.903680   -7.316990
  C     -5.483490    8.433990   -7.832720
  C     -4.630700    9.955450   -5.080350
  C     -5.272730   11.115320   -5.594440
  C     -5.811580   12.061260   -4.792480
  C     -6.474780   13.252660   -5.245250
  C     -7.190940   14.057930   -4.342470
  N     -7.827370   15.145910   -4.705160
  C     -7.789470   15.490090   -5.990540
  N     -7.113860   14.819160   -6.928890
  C     -6.470070   13.735500   -6.563640
  C     -8.506480   16.688040   -6.423400
  C     -9.477080   17.317390   -5.640560
  F     -9.826590   16.821090   -4.444860
  C    -10.133510   18.454890   -6.076470
  C     -9.825540   18.990210   -7.314140
  C     -8.870990   18.379510   -8.114540
  C     -8.223850   17.243400   -7.673890
  H      0.345340    1.174440   -3.828820
  H      2.246480   -1.866710   -1.521340
  H      1.671780   -0.649550    0.567950
  H      0.427110    1.488970    0.441720
  H     -2.391500    5.931750   -3.791910
  H     -2.652410    6.756800   -0.850180
  H     -4.223290   10.045970    0.089310
  H     -3.013600    8.745240    0.194050
  H     -6.054220    8.384130    0.026650
  H     -5.067810    8.152230    1.472890
  H     -4.893180    7.054240    0.098910
  H     -3.355900    8.180690   -7.603640
  H     -3.863320    9.879060   -7.737120
  H     -5.704380    7.443390   -7.442960
  H     -5.468450    8.384710   -8.918120
  H     -6.276130    9.111710   -7.522590
  H     -5.322550   11.216560   -6.668760
  H     -5.769420   11.928030   -3.719070
  H     -7.245670   13.798930   -3.292210
  H     -5.914950   13.240760   -7.351450
  H    -10.878370   18.905370   -5.438410
  H    -10.333280   19.880110   -7.653730
  H     -8.632710   18.793440   -9.081960
  H     -7.479500   16.755700   -8.282560

 Total Charge           Charge          ....    0
 Multiplicity           Mult            ....    1
 Number of Electrons    NEL             ....  308
 Basis Dimension        Dim             ....  726

ORBITAL ENERGIES
----------------

  NO   OCC          E(Eh)            E(eV)
   0   2.0000     -88.971462     -2421.0366
   1   2.0000     -24.776318      -674.1979
   2   2.0000     -24.765267      -673.8972
   3   2.0000     -19.193285      -522.2758
   4   2.0000     -19.189005      -522.1594
   5   2.0000     -14.454456      -393.3257
   6   2.0000     -14.451742      -393.2519
   7   2.0000     -14.435538      -392.8110
   8   2.0000     -14.435247      -392.8031
   9   2.0000     -14.413132      -392.2013
  10   2.0000     -14.406289      -392.0150
  11   2.0000     -10.375030      -282.3189
  12   2.0000     -10.372042      -282.2376
  13   2.0000     -10.358343      -281.8648
  14   2.0000     -10.352600      -281.7086
  15   2.0000     -10.346956      -281.5550
  16   2.0000     -10.341067      -281.3947
  17   2.0000     -10.339997      -281.3656
  18   2.0000     -10.339133      -281.3421
  19   2.0000     -10.336591      -281.2730
  20   2.0000     -10.326500      -280.9984
  21   2.0000     -10.320962      -280.8477
  22   2.0000     -10.310748      -280.5697
  23   2.0000     -10.305190      -280.4185
  24   2.0000     -10.298650      -280.2405
  25   2.0000     -10.294106      -280.1169
  26   2.0000     -10.293502      -280.1004
  27   2.0000     -10.293459      -280.0992
  28   2.0000     -10.292530      -280.0740
  29   2.0000     -10.292002      -280.0596
  30   2.0000     -10.285732      -279.8890
  31   2.0000     -10.283104      -279.8175
  32   2.0000     -10.281187      -279.7653
  33   2.0000     -10.277872      -279.6751
  34   2.0000     -10.277195      -279.6567
  35   2.0000     -10.275717      -279.6165
  36   2.0000     -10.271941      -279.5137
  37   2.0000     -10.270175      -279.4657
  38   2.0000     -10.266527      -279.3664
  39   2.0000     -10.266211      -279.3578
  40   2.0000     -10.261068      -279.2178
  41   2.0000     -10.260365      -279.1987
  42   2.0000     -10.259432      -279.1733
  43   2.0000      -8.067659      -219.5322
  44   2.0000      -6.036281      -164.2556
  45   2.0000      -6.032930      -164.1644
  46   2.0000      -6.030105      -164.0875
  47   2.0000      -1.290800       -35.1244
  48   2.0000      -1.282120       -34.8883
  49   2.0000      -1.139452       -31.0061
  50   2.0000      -1.133863       -30.8540
  51   2.0000      -1.126411       -30.6512
  52   2.0000      -1.085478       -29.5374
  53   2.0000      -1.063621       -28.9426
  54   2.0000      -1.054915       -28.7057
  55   2.0000      -0.979455       -26.6523
  56   2.0000      -0.971600       -26.4386
  57   2.0000      -0.954467       -25.9724
  58   2.0000      -0.939772       -25.5725
  59   2.0000      -0.930624       -25.3236
  60   2.0000      -0.923803       -25.1380
  61   2.0000      -0.913999       -24.8712
  62   2.0000      -0.888924       -24.1888
  63   2.0000      -0.879756       -23.9394
  64   2.0000      -0.868686       -23.6382
  65   2.0000      -0.848643       -23.0927
  66   2.0000      -0.843978       -22.9658
  67   2.0000      -0.837531       -22.7904
  68   2.0000      -0.829140       -22.5620
  69   2.0000      -0.819951       -22.3120
  70   2.0000      -0.800826       -21.7916
  71   2.0000      -0.784171       -21.3384
  72   2.0000      -0.760493       -20.6941
  73   2.0000      -0.753632       -20.5074
  74   2.0000      -0.742743       -20.2111
  75   2.0000      -0.737623       -20.0717
  76   2.0000      -0.721427       -19.6310
  77   2.0000      -0.708785       -19.2870
  78   2.0000      -0.705676       -19.2024
  79   2.0000      -0.693961       -18.8836
  80   2.0000      -0.692134       -18.8339
  81   2.0000      -0.687132       -18.6978
  82   2.0000      -0.680253       -18.5106
  83   2.0000      -0.658796       -17.9268
  84   2.0000      -0.650142       -17.6913
  85   2.0000      -0.643974       -17.5234
  86   2.0000      -0.633951       -17.2507
  87   2.0000      -0.621877       -16.9221
  88   2.0000      -0.610282       -16.6066
  89   2.0000      -0.601613       -16.3707
  90   2.0000      -0.595809       -16.2128
  91   2.0000      -0.586454       -15.9582
  92   2.0000      -0.581353       -15.8194
  93   2.0000      -0.578526       -15.7425
  94   2.0000      -0.576541       -15.6885
  95   2.0000      -0.574281       -15.6270
  96   2.0000      -0.562035       -15.2938
  97   2.0000      -0.559038       -15.2122
  98   2.0000      -0.555383       -15.1127
  99   2.0000      -0.549859       -14.9624
 100   2.0000      -0.549072       -14.9410
 101   2.0000      -0.547430       -14.8963
 102   2.0000      -0.543204       -14.7813
 103   2.0000      -0.538659       -14.6577
 104   2.0000      -0.534675       -14.5492
 105   2.0000      -0.531644       -14.4668
 106   2.0000      -0.527553       -14.3554
 107   2.0000      -0.521302       -14.1853
 108   2.0000      -0.518693       -14.1144
 109   2.0000      -0.515518       -14.0280
 110   2.0000      -0.513104       -13.9623
 111   2.0000      -0.510561       -13.8931
 112   2.0000      -0.508558       -13.8386
 113   2.0000      -0.502694       -13.6790
 114   2.0000      -0.499758       -13.5991
 115   2.0000      -0.496243       -13.5035
 116   2.0000      -0.488925       -13.3043
 117   2.0000      -0.476902       -12.9772
 118   2.0000      -0.475906       -12.9501
 119   2.0000      -0.472289       -12.8516
 120   2.0000      -0.470764       -12.8101
 121   2.0000      -0.468580       -12.7507
 122   2.0000      -0.463577       -12.6146
 123   2.0000      -0.459944       -12.5157
 124   2.0000      -0.455756       -12.4017
 125   2.0000      -0.454258       -12.3610
 126   2.0000      -0.449654       -12.2357
 127   2.0000      -0.447521       -12.1777
 128   2.0000      -0.445484       -12.1222
 129   2.0000      -0.442312       -12.0359
 130   2.0000      -0.439098       -11.9485
 131   2.0000      -0.435033       -11.8379
 132   2.0000      -0.434107       -11.8126
 133   2.0000      -0.428280       -11.6541
 134   2.0000      -0.421961       -11.4821
 135   2.0000      -0.420627       -11.4458
 136   2.0000      -0.399973       -10.8838
 137   2.0000      -0.394258       -10.7283
 138   2.0000      -0.393937       -10.7196
 139   2.0000      -0.386049       -10.5049
 140   2.0000      -0.376051       -10.2329
 141   2.0000      -0.374302       -10.1853
 142   2.0000      -0.349228        -9.5030
 143   2.0000      -0.343594        -9.3497
 144   2.0000      -0.338888        -9.2216
 145   2.0000      -0.332317        -9.0428
 146   2.0000      -0.323864        -8.8128
 147   2.0000      -0.323273        -8.7967
 148   2.0000      -0.317089        -8.6284
 149   2.0000      -0.314808        -8.5664
 150   2.0000      -0.312774        -8.5110
 151   2.0000      -0.298359        -8.1187
 152   2.0000      -0.294326        -8.0090
 153   2.0000      -0.237525        -6.4634
 154   0.0000      -0.088255        -2.4016
 155   0.0000      -0.045780        -1.2457
 156   0.0000      -0.016798        -0.4571
 157   0.0000      -0.001656        -0.0451
 158   0.0000       0.007989         0.2174

MULLIKEN ATOMIC CHARGES
-----------------------
   0 C :   -0.098902
   1 C :    0.290119
   2 F :   -0.197352
   3 C :   -0.044152
   4 C :    0.037365
   5 C :    0.001313
   6 C :    0.114184
   7 C :   -0.102890
   8 S :    0.105063
   9 C :   -0.101547
  10 N :   -0.044459
  11 N :   -0.045039
  12 C :    0.069427
  13 C :   -0.025309
  14 C :    0.138684
  15 N :   -0.258093
  16 C :    0.099714
  17 C :    0.001788
  18 C :    0.164149
  19 O :   -0.215064
  20 C :   -0.069562
  21 C :   -0.061156
  22 C :    0.163922
  23 O :   -0.211413
  24 N :   -0.260116
  25 C :    0.097309
  26 C :    0.004340
  27 C :    0.135170
  28 C :   -0.008845
  29 C :    0.014143
  30 C :    0.011556
  31 C :    0.033036
  32 N :   -0.020865
  33 C :   -0.093315
  34 N :   -0.050661
  35 C :    0.034784
  36 C :    0.033892
  37 C :    0.230987
  38 F :   -0.170241
  39 C :   -0.050585
  40 C :    0.041489
  41 C :    0.030004
  42 C :    0.002355
  43 H :   -0.003170
  44 H :   -0.001154
  45 H :   -0.002403
  46 H :    0.003029
  47 H :    0.012242
  48 H :    0.003476
  49 H :    0.042141
  50 H :    0.027674
  51 H :    0.026540
  52 H :    0.025852
  53 H :    0.020806
  54 H :    0.043815
  55 H :    0.022339
  56 H :    0.029352
  57 H :    0.025343
  58 H :    0.016685
  59 H :   -0.028090
  60 H :    0.019380
  61 H :    0.021622
  62 H :    0.001224
  63 H :   -0.007082
  64 H :   -0.006352
  65 H :   -0.015308
  66 H :   -0.003186
Sum of atomic charges:   -0.0000000

LOEWDIN ATOMIC CHARGES
----------------------
   0 C :   -0.049114
   1 C :    0.088911
   2 F :   -0.071880
   3 C :   -0.043419
   4 C :   -0.006402
   5 C :   -0.004609
   6 C :   -0.043839
   7 C :   -0.137241
   8 S :    0.404376
   9 C :   -0.149345
  10 N :   -0.077671
  11 N :   -0.072733
  12 C :   -0.012314
  13 C :   -0.012815
  14 C :    0.070651
  15 N :    0.002217
  16 C :    0.036769
  17 C :   -0.060546
  18 C :    0.079263
  19 O :   -0.205801
  20 C :   -0.125011
  21 C :   -0.117683
  22 C :    0.081286
  23 O :   -0.201842
  24 N :   -0.000795
  25 C :    0.035705
  26 C :   -0.061297
  27 C :    0.080122
  28 C :   -0.051222
  29 C :    0.036441
  30 C :   -0.082776
  31 C :    0.063615
  32 N :   -0.070891
  33 C :    0.043414
  34 N :   -0.077354
  35 C :    0.057587
  36 C :   -0.076888
  37 C :    0.104628
  38 F :   -0.050717
  39 C :   -0.054354
  40 C :   -0.002057
  41 C :   -0.039308
  42 C :    0.013796
  43 H :    0.031158
  44 H :    0.038734
  45 H :    0.034429
  46 H :    0.036714
  47 H :    0.036866
  48 H :    0.037447
  49 H :    0.037110
  50 H :    0.025317
  51 H :    0.030911
  52 H :    0.031728
  53 H :    0.024237
  54 H :    0.037914
  55 H :    0.022391
  56 H :    0.032465
  57 H :    0.031081
  58 H :    0.022264
  59 H :    0.025974
  60 H :    0.039325
  61 H :    0.032596
  62 H :    0.022496
  63 H :    0.037251
  64 H :    0.031381
  65 H :    0.028710
  66 H :    0.032642

  Mayer bond orders larger than 0.100000
B(  0-C ,  1-C ) :   1.3805 B(  0-C ,  6-C ) :   1.2964 B(  0-C , 43-H ) :   0.9893
B(  1-C ,  2-F ) :   1.0853 B(  1-C ,  3-C ) :   1.3766 B(  3-C ,  4-C ) :   1.3471
B(  3-C , 44-H ) :   0.9940 B(  4-C ,  5-C ) :   1.3721 B(  4-C , 45-H ) :   0.9899
B(  5-C ,  6-C ) :   1.3891 B(  5-C , 46-H ) :   0.9960 B(  6-C ,  7-C ) :   1.0383
B(  7-C ,  8-S ) :   1.1082 B(  7-C , 11-N ) :   1.7256 B(  8-S ,  9-C ) :   1.0954
B(  9-C , 10-N ) :   1.6798 B(  9-C , 12-C ) :   1.1023 B( 10-N , 11-N ) :   1.2154
B( 12-C , 13-C ) :   1.6619 B( 12-C , 47-H ) :   0.9262 B( 13-C , 14-C ) :   1.1279
B( 13-C , 48-H ) :   0.9716 B( 14-C , 15-N ) :   1.1573 B( 14-C , 21-C ) :   1.3513
B( 15-N , 16-C ) :   0.9450 B( 15-N , 18-C ) :   1.0653 B( 16-C , 17-C ) :   1.1185
B( 16-C , 49-H ) :   0.9287 B( 16-C , 50-H ) :   0.9502 B( 17-C , 51-H ) :   0.9642
B( 17-C , 52-H ) :   0.9680 B( 17-C , 53-H ) :   0.9692 B( 18-C , 19-O ) :   2.0206
B( 18-C , 20-C ) :   0.9881 B( 19-O , 60-H ) :   0.1153 B( 20-C , 21-C ) :   1.2480
B( 20-C , 27-C ) :   1.3502 B( 21-C , 22-C ) :   0.9859 B( 22-C , 23-O ) :   2.0286
B( 22-C , 24-N ) :   1.0589 B( 23-O , 47-H ) :   0.1092 B( 24-N , 25-C ) :   0.9467
B( 24-N , 27-C ) :   1.1578 B( 25-C , 26-C ) :   1.1221 B( 25-C , 54-H ) :   0.9277
B( 25-C , 55-H ) :   0.9495 B( 26-C , 56-H ) :   0.9632 B( 26-C , 57-H ) :   0.9676
B( 26-C , 58-H ) :   0.9681 B( 27-C , 28-C ) :   1.1511 B( 28-C , 29-C ) :   1.6272
B( 28-C , 59-H ) :   0.9576 B( 29-C , 30-C ) :   1.0683 B( 29-C , 60-H ) :   0.9595
B( 30-C , 31-C ) :   1.2996 B( 30-C , 35-C ) :   1.2959 B( 31-C , 32-N ) :   1.5716
B( 31-C , 61-H ) :   0.9895 B( 32-N , 33-C ) :   1.5835 B( 33-C , 34-N ) :   1.5471
B( 33-C , 36-C ) :   0.9556 B( 34-N , 35-C ) :   1.5939 B( 35-C , 62-H ) :   0.9841
B( 36-C , 37-C ) :   1.3050 B( 36-C , 42-C ) :   1.3842 B( 37-C , 38-F ) :   1.1526
B( 37-C , 39-C ) :   1.3813 B( 39-C , 40-C ) :   1.3665 B( 39-C , 63-H ) :   0.9902
B( 40-C , 41-C ) :   1.3643 B( 40-C , 64-H ) :   0.9926 B( 41-C , 42-C ) :   1.3842
B( 41-C , 65-H ) :   0.9937 B( 42-C , 66-H ) :   0.9864

-----------------------------------------------------------------------------
         ABSORPTION SPECTRUM VIA TRANSITION ELECTRIC DIPOLE MOMENTS
-----------------------------------------------------------------------------
State   Energy  Wavelength   fosc         T2         TX        TY        TZ
        (cm-1)    (nm)                  (au**2)     (au)      (au)      (au)
-----------------------------------------------------------------------------
   0   16580.0    603.1   0.904279050  17.95534  -1.86751   3.18484  -2.07955
   1   25559.0    391.3   0.004411213   0.05682  -0.04778   0.07421  -0.22142
   2   27600.8    362.3   0.003917582   0.04673   0.07659  -0.16014   0.12335
   3   29049.0    344.2   0.001329169   0.01506  -0.11946  -0.02814  -0.00055
   4   29428.0    339.8   0.003100373   0.03468  -0.04840   0.17978  -0.00453
   5   29621.3    337.6   1.019507739  11.33083   1.67914  -2.90551   0.26331
   6   30009.6    333.2   0.000879669   0.00965  -0.06449   0.07114   0.02075
   7   30390.5    329.1   0.064102466   0.69441  -0.40243   0.70270  -0.19665
   8   33009.0    302.9   0.000498299   0.00497  -0.01717   0.00351  -0.06828
   9   33530.8    298.2   0.694736794   6.82106  -1.28463   2.22908   0.44947
  10   35332.6    283.0   0.019870150   0.18514   0.21900  -0.24130  -0.28098
  11   36078.4    277.2   0.022621997   0.20642   0.07752  -0.42551   0.13913
  12   37089.7    269.6   0.013624968   0.12094   0.08489  -0.14349   0.30519
  13   37915.2    263.7   0.115247507   1.00068  -0.47511   0.86055   0.18547
  14   39738.7    251.6   0.011063899   0.09166   0.11260   0.27743   0.04483
  15   40007.2    250.0   0.004699383   0.03867   0.01888  -0.08139  -0.17801

FINAL SINGLE POINT ENERGY     -2308.227737049455

DIPOLE MOMENT
-------------
                                X             Y             Z
Electronic contribution:     10.94094     -11.45967       2.33086
Nuclear contribution   :    -10.85864      11.38691      -3.19997
                        -----------------------------------------
Total Dipole Moment    :      0.08230      -0.07277      -0.86911
                        -----------------------------------------
Magnitude (a.u.)       :      0.87602
Magnitude (Debye)      :      2.22667

Rotational constants in cm-1:     0.008820     0.000584     0.000552
Rotational constants in MHz :   264.413205    17.521093    16.543677

                             ****ORCA TERMINATED NORMALLY****
TOTAL RUN TIME: 0 days 0 hours 3 minutes 37 seconds 14 msec
