                         Program Version 4.2.0 -  RELEASE  -
|  1> # ORCA input file
|  2> # SCF done       -164.376751120794          0.000603300025
|  3> ! CAM-B3LYP def2-SVP def2/J RIJCOSX Grid4 TightSCF
|  4> %maxcore 5000
|  5> %tddft
|  6>     Mode sTDDFT
|  7>     Ethresh 5.0
|  8>     maxcore 5000
|  9> end
| 10>
| 11> %pal
| 12>   nprocs 6
| 13>   end
| 14> * xyz 0 1
| 15>    C      -10.02594         8.19103         3.18703
| 16>    N       -9.38885         7.01430         3.44189
| 17>    C       -9.97365         5.82549         4.01271
| 18>    C      -10.61617         4.93949         2.94978
| 19>    C       -8.05163         7.05632         3.01854
| 20>    O       -7.28900         6.10448         3.14411
| 21>    C       -7.88125         8.37887         2.48321
| 22>    C       -9.14015         9.05473         2.60868
| 23>    C       -8.98394        10.39062         2.07301
| 24>    O       -9.74944        11.32170         1.95649
| 25>    N       -7.63890        10.43532         1.65121
| 26>    C       -7.07361        11.63983         1.09614
| 27>    C       -6.24631        12.40675         2.12551
| 28>    C       -6.97412         9.25373         1.89070
| 29>    C       -5.61323         9.02378         1.54772
| 30>    C       -5.05441         7.82026         1.82489
| 31>    C       -3.73363         7.36716         1.55169
| 32>    C       -2.67641         8.13074         0.99706
| 33>    C       -1.51730         7.42952         0.85580
| 34>    S       -0.02599         8.06841         0.21366
| 35>    C        1.07146         6.63246         0.37005
| 36>    S       -1.68300         5.78039         1.39419
| 37>    C       -3.34772         6.04599         1.82785
| 38>    C       -4.16083         5.02676         2.36582
| 39>    C       -3.80670         3.74203         2.61796
| 40>    C       -4.72809         2.80843         3.16524
| 41>    S       -4.23300         1.18003         3.54944
| 42>    C       -5.80943         0.76715         4.15686
| 43>    C       -6.67425         1.85313         4.02178
| 44>    C       -6.05972         2.99164         3.47226
| 45>    C       -8.05699         1.86176         4.27869
| 46>    N       -9.19604         1.95189         4.38839
| 47>    C       -6.01695        -0.51397         4.73579
| 48>    C       -7.04547        -0.80814         5.56280
| 49>    C       -7.23784        -2.07174         6.20776
| 50>    C       -6.64897        -3.29200         5.79413
| 51>    C       -6.99827        -4.35372         6.57490
| 52>    S       -6.54755        -6.03382         6.44933
| 53>    C       -5.50212        -6.02044         4.96483
| 54>    S       -8.05866        -3.89772         7.87211
| 55>    C       -8.04229        -2.22998         7.34300
| 56>    C       -8.72612        -1.21049         8.02455
| 57>    C       -9.49188        -1.34205         9.14266
| 58>    C      -10.15642        -0.21690         9.68352
| 59>    N      -11.00024        -0.25244        10.77213
| 60>    C      -11.34782        -1.41602        11.54902
| 61>    C      -12.40637        -2.27044        10.85516
| 62>    C      -11.57606         1.00167        11.03858
| 63>    O      -12.35046         1.19690        11.95581
| 64>    C      -11.02161         1.87403        10.02806
| 65>    C      -10.13671         1.09927         9.22555
| 66>    C       -9.56628         1.97058         8.23333
| 67>    O       -8.72174         1.79279         7.36877
| 68>    N      -10.18574         3.20927         8.45647
| 69>    C       -9.90148         4.33315         7.59967
| 70>    C       -8.87132         5.27994         8.21053
| 71>    C      -11.04374         3.16900         9.53247
| 72>    C      -11.79625         4.30325         9.98404
| 73>    C      -12.60673         4.26256        11.04377
| 74>    H      -11.06009         8.32607         3.44331
| 75>    H      -10.70951         6.12015         4.76516
| 76>    H       -9.16329         5.27431         4.49777
| 77>    H      -11.45920         5.44334         2.48187
| 78>    H      -10.95647         4.01393         3.40475
| 79>    H       -9.88509         4.69413         2.18330
| 80>    H       -7.92217        12.25264         0.77860
| 81>    H       -6.47012        11.39182         0.21805
| 82>    H       -6.87301        12.68626         2.96881
| 83>    H       -5.84360        13.31069         1.67671
| 84>    H       -5.42216        11.79961         2.49400
| 85>    H       -5.05888         9.81038         1.05897
| 86>    H       -5.69439         7.10542         2.31414
| 87>    H       -2.76005         9.16476         0.71876
| 88>    H        2.04028         6.94738        -0.00385
| 89>    H        0.68499         5.81203        -0.22794
| 90>    H        1.14609         6.34416         1.41469
| 91>    H       -5.17341         5.31381         2.59941
| 92>    H       -2.80282         3.39233         2.41409
| 93>    H       -6.59065         3.91353         3.31507
| 94>    H       -5.23868        -1.24108         4.54436
| 95>    H       -7.75049        -0.02497         5.79991
| 96>    H       -6.01462        -3.37024         4.93138
| 97>    H       -5.18631        -7.04824         4.81531
| 98>    H       -4.63627        -5.38625         5.13037
| 99>    H       -6.08257        -5.68210         4.11166
|100>    H       -8.62395        -0.22126         7.60269
|101>    H       -9.61219        -2.30793         9.61287
|102>    H      -11.74497        -1.04050        12.49663
|103>    H      -10.44629        -2.00191        11.74996
|104>    H      -13.31036        -1.68597        10.70254
|105>    H      -12.64807        -3.13171        11.47208
|106>    H      -12.05159        -2.61915         9.88776
|107>    H      -10.83129         4.86255         7.37294
|108>    H       -9.50408         3.90632         6.67346
|109>    H       -9.22807         5.68908         9.15351
|110>    H       -8.66905         6.09902         7.52512
|111>    H       -7.94342         4.74432         8.39490
|112>    H      -11.68016         5.22008         9.42193
|113>    H      -12.73425         3.36162        11.61988
|114>    H      -13.15813         5.13182        11.35825
|115> *
|116>
|117>                          ****END OF INPUT****

CARTESIAN COORDINATES (ANGSTROEM)
---------------------------------
  C    -10.025940    8.191030    3.187030
  N     -9.388850    7.014300    3.441890
  C     -9.973650    5.825490    4.012710
  C    -10.616170    4.939490    2.949780
  C     -8.051630    7.056320    3.018540
  O     -7.289000    6.104480    3.144110
  C     -7.881250    8.378870    2.483210
  C     -9.140150    9.054730    2.608680
  C     -8.983940   10.390620    2.073010
  O     -9.749440   11.321700    1.956490
  N     -7.638900   10.435320    1.651210
  C     -7.073610   11.639830    1.096140
  C     -6.246310   12.406750    2.125510
  C     -6.974120    9.253730    1.890700
  C     -5.613230    9.023780    1.547720
  C     -5.054410    7.820260    1.824890
  C     -3.733630    7.367160    1.551690
  C     -2.676410    8.130740    0.997060
  C     -1.517300    7.429520    0.855800
  S     -0.025990    8.068410    0.213660
  C      1.071460    6.632460    0.370050
  S     -1.683000    5.780390    1.394190
  C     -3.347720    6.045990    1.827850
  C     -4.160830    5.026760    2.365820
  C     -3.806700    3.742030    2.617960
  C     -4.728090    2.808430    3.165240
  S     -4.233000    1.180030    3.549440
  C     -5.809430    0.767150    4.156860
  C     -6.674250    1.853130    4.021780
  C     -6.059720    2.991640    3.472260
  C     -8.056990    1.861760    4.278690
  N     -9.196040    1.951890    4.388390
  C     -6.016950   -0.513970    4.735790
  C     -7.045470   -0.808140    5.562800
  C     -7.237840   -2.071740    6.207760
  C     -6.648970   -3.292000    5.794130
  C     -6.998270   -4.353720    6.574900
  S     -6.547550   -6.033820    6.449330
  C     -5.502120   -6.020440    4.964830
  S     -8.058660   -3.897720    7.872110
  C     -8.042290   -2.229980    7.343000
  C     -8.726120   -1.210490    8.024550
  C     -9.491880   -1.342050    9.142660
  C    -10.156420   -0.216900    9.683520
  N    -11.000240   -0.252440   10.772130
  C    -11.347820   -1.416020   11.549020
  C    -12.406370   -2.270440   10.855160
  C    -11.576060    1.001670   11.038580
  O    -12.350460    1.196900   11.955810
  C    -11.021610    1.874030   10.028060
  C    -10.136710    1.099270    9.225550
  C     -9.566280    1.970580    8.233330
  O     -8.721740    1.792790    7.368770
  N    -10.185740    3.209270    8.456470
  C     -9.901480    4.333150    7.599670
  C     -8.871320    5.279940    8.210530
  C    -11.043740    3.169000    9.532470
  C    -11.796250    4.303250    9.984040
  C    -12.606730    4.262560   11.043770
  H    -11.060090    8.326070    3.443310
  H    -10.709510    6.120150    4.765160
  H     -9.163290    5.274310    4.497770
  H    -11.459200    5.443340    2.481870
  H    -10.956470    4.013930    3.404750
  H     -9.885090    4.694130    2.183300
  H     -7.922170   12.252640    0.778600
  H     -6.470120   11.391820    0.218050
  H     -6.873010   12.686260    2.968810
  H     -5.843600   13.310690    1.676710
  H     -5.422160   11.799610    2.494000
  H     -5.058880    9.810380    1.058970
  H     -5.694390    7.105420    2.314140
  H     -2.760050    9.164760    0.718760
  H      2.040280    6.947380   -0.003850
  H      0.684990    5.812030   -0.227940
  H      1.146090    6.344160    1.414690
  H     -5.173410    5.313810    2.599410
  H     -2.802820    3.392330    2.414090
  H     -6.590650    3.913530    3.315070
  H     -5.238680   -1.241080    4.544360
  H     -7.750490   -0.024970    5.799910
  H     -6.014620   -3.370240    4.931380
  H     -5.186310   -7.048240    4.815310
  H     -4.636270   -5.386250    5.130370
  H     -6.082570   -5.682100    4.111660
  H     -8.623950   -0.221260    7.602690
  H     -9.612190   -2.307930    9.612870
  H    -11.744970   -1.040500   12.496630
  H    -10.446290   -2.001910   11.749960
  H    -13.310360   -1.685970   10.702540
  H    -12.648070   -3.131710   11.472080
  H    -12.051590   -2.619150    9.887760
  H    -10.831290    4.862550    7.372940
  H     -9.504080    3.906320    6.673460
  H     -9.228070    5.689080    9.153510
  H     -8.669050    6.099020    7.525120
  H     -7.943420    4.744320    8.394900
  H    -11.680160    5.220080    9.421930
  H    -12.734250    3.361620   11.619880
  H    -13.158130    5.131820   11.358250

 Total Charge           Charge          ....    0
 Multiplicity           Mult            ....    1
 Number of Electrons    NEL             ....  458
 Basis Dimension        Dim             .... 1051

ORBITAL ENERGIES
----------------

  NO   OCC          E(Eh)            E(eV)
   0   2.0000     -88.964878     -2420.8574
   1   2.0000     -88.960309     -2420.7331
   2   2.0000     -88.957021     -2420.6436
   3   2.0000     -88.941342     -2420.2170
   4   2.0000     -88.941318     -2420.2163
   5   2.0000     -19.184693      -522.0420
   6   2.0000     -19.181702      -521.9607
   7   2.0000     -19.175852      -521.8015
   8   2.0000     -19.173285      -521.7316
   9   2.0000     -14.446472      -393.1085
  10   2.0000     -14.446214      -393.1015
  11   2.0000     -14.438339      -392.8872
  12   2.0000     -14.437769      -392.8717
  13   2.0000     -14.391204      -391.6046
  14   2.0000     -10.367147      -282.1044
  15   2.0000     -10.365089      -282.0484
  16   2.0000     -10.358991      -281.8825
  17   2.0000     -10.355019      -281.7744
  18   2.0000     -10.338104      -281.3141
  19   2.0000     -10.327295      -281.0200
  20   2.0000     -10.325906      -280.9822
  21   2.0000     -10.324255      -280.9373
  22   2.0000     -10.318848      -280.7901
  23   2.0000     -10.317977      -280.7664
  24   2.0000     -10.313707      -280.6502
  25   2.0000     -10.308178      -280.4998
  26   2.0000     -10.305640      -280.4307
  27   2.0000     -10.305240      -280.4198
  28   2.0000     -10.303613      -280.3756
  29   2.0000     -10.302277      -280.3392
  30   2.0000     -10.299187      -280.2551
  31   2.0000     -10.298892      -280.2471
  32   2.0000     -10.298533      -280.2373
  33   2.0000     -10.297101      -280.1984
  34   2.0000     -10.294876      -280.1378
  35   2.0000     -10.292987      -280.0864
  36   2.0000     -10.288229      -279.9569
  37   2.0000     -10.286843      -279.9192
  38   2.0000     -10.286611      -279.9129
  39   2.0000     -10.284766      -279.8627
  40   2.0000     -10.284674      -279.8602
  41   2.0000     -10.282285      -279.7952
  42   2.0000     -10.280146      -279.7370
  43   2.0000     -10.277847      -279.6744
  44   2.0000     -10.277417      -279.6627
  45   2.0000     -10.275198      -279.6023
  46   2.0000     -10.274798      -279.5915
  47   2.0000     -10.274481      -279.5828
  48   2.0000     -10.273614      -279.5592
  49   2.0000     -10.273024      -279.5432
  50   2.0000     -10.263409      -279.2816
  51   2.0000     -10.260376      -279.1990
  52   2.0000     -10.253702      -279.0174
  53   2.0000     -10.252177      -278.9759
  54   2.0000     -10.251400      -278.9548
  55   2.0000     -10.248914      -278.8871
  56   2.0000     -10.247129      -278.8385
  57   2.0000     -10.242762      -278.7197
  58   2.0000     -10.240773      -278.6656
  59   2.0000      -8.060101      -219.3265
  60   2.0000      -8.056004      -219.2150
  61   2.0000      -8.052908      -219.1308
  62   2.0000      -8.037062      -218.6996
  63   2.0000      -8.036919      -218.6957
  64   2.0000      -6.029600      -164.0738
  65   2.0000      -6.025356      -163.9583
  66   2.0000      -6.025125      -163.9520
  67   2.0000      -6.022374      -163.8771
  68   2.0000      -6.021954      -163.8657
  69   2.0000      -6.021164      -163.8442
  70   2.0000      -6.018324      -163.7669
  71   2.0000      -6.018261      -163.7652
  72   2.0000      -6.014545      -163.6641
  73   2.0000      -6.007592      -163.4749
  74   2.0000      -6.007379      -163.4691
  75   2.0000      -6.003253      -163.3568
  76   2.0000      -6.003252      -163.3568
  77   2.0000      -5.996701      -163.1785
  78   2.0000      -5.996541      -163.1742
  79   2.0000      -1.125091       -30.6153
  80   2.0000      -1.118501       -30.4360
  81   2.0000      -1.117257       -30.4021
  82   2.0000      -1.110126       -30.2081
  83   2.0000      -1.055116       -28.7112
  84   2.0000      -1.047020       -28.4909
  85   2.0000      -1.046308       -28.4715
  86   2.0000      -1.039037       -28.2736
  87   2.0000      -0.996415       -27.1138
  88   2.0000      -0.993636       -27.0382
  89   2.0000      -0.990546       -26.9541
  90   2.0000      -0.969492       -26.3812
  91   2.0000      -0.922839       -25.1117
  92   2.0000      -0.919357       -25.0170
  93   2.0000      -0.917035       -24.9538
  94   2.0000      -0.912695       -24.8357
  95   2.0000      -0.906705       -24.6727
  96   2.0000      -0.896995       -24.4085
  97   2.0000      -0.887821       -24.1588
  98   2.0000      -0.879534       -23.9333
  99   2.0000      -0.875062       -23.8117
 100   2.0000      -0.865284       -23.5456
 101   2.0000      -0.856703       -23.3121
 102   2.0000      -0.851748       -23.1772
 103   2.0000      -0.845760       -23.0143
 104   2.0000      -0.839525       -22.8446
 105   2.0000      -0.825874       -22.4732
 106   2.0000      -0.819122       -22.2895
 107   2.0000      -0.811089       -22.0709
 108   2.0000      -0.807161       -21.9640
 109   2.0000      -0.794100       -21.6086
 110   2.0000      -0.784433       -21.3455
 111   2.0000      -0.776100       -21.1188
 112   2.0000      -0.760941       -20.7063
 113   2.0000      -0.760813       -20.7028
 114   2.0000      -0.751948       -20.4615
 115   2.0000      -0.751398       -20.4466
 116   2.0000      -0.748089       -20.3565
 117   2.0000      -0.740379       -20.1467
 118   2.0000      -0.713539       -19.4164
 119   2.0000      -0.708754       -19.2862
 120   2.0000      -0.701789       -19.0966
 121   2.0000      -0.696786       -18.9605
 122   2.0000      -0.692567       -18.8457
 123   2.0000      -0.686963       -18.6932
 124   2.0000      -0.668109       -18.1802
 125   2.0000      -0.661899       -18.0112
 126   2.0000      -0.659274       -17.9398
 127   2.0000      -0.647073       -17.6078
 128   2.0000      -0.644457       -17.5366
 129   2.0000      -0.642003       -17.4698
 130   2.0000      -0.635273       -17.2867
 131   2.0000      -0.634677       -17.2704
 132   2.0000      -0.619758       -16.8645
 133   2.0000      -0.613534       -16.6951
 134   2.0000      -0.605089       -16.4653
 135   2.0000      -0.595030       -16.1916
 136   2.0000      -0.592127       -16.1126
 137   2.0000      -0.589828       -16.0500
 138   2.0000      -0.580305       -15.7909
 139   2.0000      -0.574296       -15.6274
 140   2.0000      -0.572875       -15.5887
 141   2.0000      -0.571339       -15.5469
 142   2.0000      -0.565960       -15.4006
 143   2.0000      -0.564473       -15.3601
 144   2.0000      -0.563573       -15.3356
 145   2.0000      -0.558045       -15.1852
 146   2.0000      -0.555023       -15.1029
 147   2.0000      -0.547885       -14.9087
 148   2.0000      -0.538888       -14.6639
 149   2.0000      -0.529287       -14.4026
 150   2.0000      -0.526131       -14.3168
 151   2.0000      -0.525792       -14.3075
 152   2.0000      -0.525583       -14.3018
 153   2.0000      -0.525189       -14.2911
 154   2.0000      -0.521731       -14.1970
 155   2.0000      -0.520039       -14.1510
 156   2.0000      -0.518558       -14.1107
 157   2.0000      -0.516615       -14.0578
 158   2.0000      -0.516285       -14.0488
 159   2.0000      -0.514637       -14.0040
 160   2.0000      -0.512419       -13.9436
 161   2.0000      -0.506784       -13.7903
 162   2.0000      -0.506283       -13.7767
 163   2.0000      -0.504257       -13.7215
 164   2.0000      -0.500635       -13.6230
 165   2.0000      -0.498491       -13.5646
 166   2.0000      -0.496590       -13.5129
 167   2.0000      -0.495603       -13.4861
 168   2.0000      -0.490392       -13.3442
 169   2.0000      -0.488465       -13.2918
 170   2.0000      -0.485770       -13.2185
 171   2.0000      -0.483104       -13.1459
 172   2.0000      -0.479929       -13.0595
 173   2.0000      -0.479526       -13.0486
 174   2.0000      -0.474328       -12.9071
 175   2.0000      -0.470300       -12.7975
 176   2.0000      -0.464906       -12.6507
 177   2.0000      -0.463218       -12.6048
 178   2.0000      -0.461791       -12.5660
 179   2.0000      -0.458819       -12.4851
 180   2.0000      -0.457228       -12.4418
 181   2.0000      -0.454032       -12.3548
 182   2.0000      -0.451246       -12.2790
 183   2.0000      -0.450315       -12.2537
 184   2.0000      -0.447937       -12.1890
 185   2.0000      -0.447737       -12.1835
 186   2.0000      -0.442964       -12.0537
 187   2.0000      -0.442615       -12.0442
 188   2.0000      -0.439056       -11.9473
 189   2.0000      -0.437534       -11.9059
 190   2.0000      -0.435808       -11.8590
 191   2.0000      -0.432103       -11.7581
 192   2.0000      -0.428132       -11.6501
 193   2.0000      -0.427112       -11.6223
 194   2.0000      -0.426141       -11.5959
 195   2.0000      -0.425050       -11.5662
 196   2.0000      -0.422961       -11.5094
 197   2.0000      -0.420328       -11.4377
 198   2.0000      -0.419835       -11.4243
 199   2.0000      -0.416848       -11.3430
 200   2.0000      -0.414875       -11.2893
 201   2.0000      -0.413857       -11.2616
 202   2.0000      -0.410737       -11.1767
 203   2.0000      -0.409197       -11.1348
 204   2.0000      -0.405527       -11.0350
 205   2.0000      -0.404619       -11.0102
 206   2.0000      -0.400532       -10.8990
 207   2.0000      -0.397719       -10.8225
 208   2.0000      -0.392458       -10.6793
 209   2.0000      -0.387975       -10.5573
 210   2.0000      -0.380564       -10.3557
 211   2.0000      -0.370890       -10.0924
 212   2.0000      -0.349434        -9.5086
 213   2.0000      -0.341105        -9.2819
 214   2.0000      -0.335938        -9.1413
 215   2.0000      -0.332148        -9.0382
 216   2.0000      -0.324603        -8.8329
 217   2.0000      -0.323567        -8.8047
 218   2.0000      -0.319522        -8.6946
 219   2.0000      -0.318325        -8.6621
 220   2.0000      -0.314806        -8.5663
 221   2.0000      -0.308466        -8.3938
 222   2.0000      -0.304141        -8.2761
 223   2.0000      -0.298611        -8.1256
 224   2.0000      -0.283982        -7.7276
 225   2.0000      -0.266557        -7.2534
 226   2.0000      -0.248304        -6.7567
 227   2.0000      -0.231117        -6.2890
 228   2.0000      -0.216221        -5.8837
 229   0.0000      -0.076985        -2.0949
 230   0.0000      -0.063587        -1.7303
 231   0.0000      -0.032556        -0.8859
 232   0.0000      -0.012173        -0.3313
 233   0.0000       0.005472         0.1489

MULLIKEN ATOMIC CHARGES
-----------------------
   0 C :    0.030911
   1 N :   -0.242993
   2 C :    0.093716
   3 C :    0.007913
   4 C :    0.187438
   5 O :   -0.250477
   6 C :   -0.108541
   7 C :    0.006194
   8 C :    0.160497
   9 O :   -0.185183
  10 N :   -0.269641
  11 C :    0.101592
  12 C :    0.004387
  13 C :    0.155223
  14 C :   -0.021760
  15 C :    0.000454
  16 C :    0.134344
  17 C :   -0.000982
  18 C :   -0.125158
  19 S :    0.004742
  20 C :   -0.095935
  21 S :    0.098836
  22 C :   -0.070395
  23 C :   -0.022680
  24 C :    0.056611
  25 C :   -0.080910
  26 S :    0.130028
  27 C :   -0.067705
  28 C :   -0.051734
  29 C :   -0.000995
  30 C :   -0.148479
  31 N :    0.096406
  32 C :    0.043023
  33 C :   -0.043422
  34 C :    0.138378
  35 C :   -0.033620
  36 C :   -0.118821
  37 S :    0.011086
  38 C :   -0.092601
  39 S :    0.131380
  40 C :   -0.097543
  41 C :    0.016862
  42 C :   -0.046379
  43 C :    0.139677
  44 N :   -0.261452
  45 C :    0.106703
  46 C :    0.002760
  47 C :    0.159501
  48 O :   -0.212388
  49 C :   -0.060033
  50 C :   -0.078400
  51 C :    0.178854
  52 O :   -0.237978
  53 N :   -0.254587
  54 C :    0.088310
  55 C :    0.008943
  56 C :    0.100951
  57 C :   -0.034389
  58 C :    0.005035
  59 H :    0.010284
  60 H :    0.013614
  61 H :    0.047316
  62 H :    0.005851
  63 H :    0.040880
  64 H :    0.024988
  65 H :    0.043103
  66 H :    0.020395
  67 H :    0.028966
  68 H :    0.020910
  69 H :    0.014543
  70 H :   -0.038535
  71 H :   -0.002962
  72 H :   -0.019992
  73 H :    0.069630
  74 H :    0.072608
  75 H :    0.073526
  76 H :    0.023137
  77 H :   -0.023157
  78 H :   -0.000597
  79 H :   -0.026650
  80 H :    0.043368
  81 H :   -0.023213
  82 H :    0.068509
  83 H :    0.070909
  84 H :    0.074683
  85 H :    0.010247
  86 H :   -0.032404
  87 H :    0.038773
  88 H :    0.019199
  89 H :    0.028770
  90 H :    0.019518
  91 H :    0.015505
  92 H :    0.017874
  93 H :    0.052811
  94 H :    0.012043
  95 H :    0.017744
  96 H :    0.028833
  97 H :   -0.023970
  98 H :    0.053558
  99 H :    0.023813
Sum of atomic charges:   -0.0000000

LOEWDIN ATOMIC CHARGES
----------------------
   0 C :    0.078173
   1 N :    0.009345
   2 C :    0.037961
   3 C :   -0.059181
   4 C :    0.079996
   5 O :   -0.233042
   6 C :   -0.145979
   7 C :   -0.126276
   8 C :    0.084455
   9 O :   -0.189201
  10 N :   -0.008769
  11 C :    0.035547
  12 C :   -0.061462
  13 C :    0.097340
  14 C :   -0.064877
  15 C :    0.047697
  16 C :   -0.059975
  17 C :   -0.088214
  18 C :   -0.305972
  19 S :    0.298610
  20 C :   -0.161000
  21 S :    0.422507
  22 C :   -0.152857
  23 C :   -0.029762
  24 C :   -0.045733
  25 C :   -0.169599
  26 S :    0.442058
  27 C :   -0.141951
  28 C :   -0.101818
  29 C :   -0.017857
  30 C :   -0.016251
  31 N :   -0.067906
  32 C :   -0.046808
  33 C :    0.005224
  34 C :   -0.030785
  35 C :   -0.102833
  36 C :   -0.299985
  37 S :    0.297057
  38 C :   -0.148614
  39 S :    0.414871
  40 C :   -0.174607
  41 C :    0.018035
  42 C :   -0.072149
  43 C :    0.081311
  44 N :   -0.003921
  45 C :    0.036539
  46 C :   -0.061794
  47 C :    0.082585
  48 O :   -0.204433
  49 C :   -0.122996
  50 C :   -0.133016
  51 C :    0.079845
  52 O :   -0.213981
  53 N :    0.005337
  54 C :    0.035067
  55 C :   -0.060954
  56 C :    0.069783
  57 C :   -0.053765
  58 C :    0.012524
  59 H :    0.031181
  60 H :    0.022271
  61 H :    0.033093
  62 H :    0.019333
  63 H :    0.035394
  64 H :    0.029958
  65 H :    0.037385
  66 H :    0.021891
  67 H :    0.032174
  68 H :    0.029469
  69 H :    0.021465
  70 H :    0.024753
  71 H :    0.037925
  72 H :    0.027788
  73 H :    0.036847
  74 H :    0.024909
  75 H :    0.025597
  76 H :    0.041763
  77 H :    0.019921
  78 H :    0.037918
  79 H :    0.024461
  80 H :    0.044051
  81 H :    0.024565
  82 H :    0.036898
  83 H :    0.028360
  84 H :    0.029880
  85 H :    0.042586
  86 H :    0.020136
  87 H :    0.036019
  88 H :    0.022039
  89 H :    0.031810
  90 H :    0.028725
  91 H :    0.021927
  92 H :    0.019373
  93 H :    0.037459
  94 H :    0.020992
  95 H :    0.028132
  96 H :    0.032310
  97 H :    0.027577
  98 H :    0.031465
  99 H :    0.026655

  Mayer bond orders larger than 0.100000
B(  0-C ,  1-N ) :   1.1789 B(  0-C ,  7-C ) :   1.4628 B(  0-C , 59-H ) :   0.9930
B(  1-N ,  2-C ) :   0.9347 B(  1-N ,  4-C ) :   1.0922 B(  2-C ,  3-C ) :   1.1253
B(  2-C , 60-H ) :   0.9505 B(  2-C , 61-H ) :   0.9321 B(  3-C , 62-H ) :   0.9646
B(  3-C , 63-H ) :   0.9634 B(  3-C , 64-H ) :   0.9665 B(  4-C ,  5-O ) :   1.8776
B(  4-C ,  6-C ) :   1.0440 B(  6-C ,  7-C ) :   1.2052 B(  6-C , 13-C ) :   1.3354
B(  7-C ,  8-C ) :   0.9502 B(  8-C ,  9-O ) :   2.1777 B(  8-C , 10-N ) :   1.0119
B( 10-N , 11-C ) :   0.9490 B( 10-N , 13-C ) :   1.1621 B( 11-C , 12-C ) :   1.1216
B( 11-C , 65-H ) :   0.9278 B( 11-C , 66-H ) :   0.9497 B( 12-C , 67-H ) :   0.9640
B( 12-C , 68-H ) :   0.9678 B( 12-C , 69-H ) :   0.9681 B( 13-C , 14-C ) :   1.1518
B( 14-C , 15-C ) :   1.5942 B( 14-C , 70-H ) :   0.9739 B( 15-C , 16-C ) :   1.1353
B( 15-C , 71-H ) :   0.9567 B( 16-C , 17-C ) :   1.2227 B( 16-C , 22-C ) :   1.3960
B( 17-C , 18-C ) :   1.5867 B( 17-C , 72-H ) :   0.9889 B( 18-C , 19-S ) :   1.0280
B( 18-C , 21-S ) :   1.0946 B( 19-S , 20-C ) :   1.0134 B( 20-C , 73-H ) :   0.9726
B( 20-C , 74-H ) :   0.9651 B( 20-C , 75-H ) :   0.9652 B( 21-S , 22-C ) :   1.0891
B( 22-C , 23-C ) :   1.2016 B( 23-C , 24-C ) :   1.6652 B( 23-C , 76-H ) :   0.9570
B( 24-C , 25-C ) :   1.1163 B( 24-C , 77-H ) :   0.9659 B( 25-C , 26-S ) :   1.0995
B( 25-C , 29-C ) :   1.4853 B( 26-S , 27-C ) :   1.1318 B( 27-C , 28-C ) :   1.4456
B( 27-C , 32-C ) :   1.1320 B( 28-C , 29-C ) :   1.2981 B( 28-C , 30-C ) :   1.1178
B( 29-C , 78-H ) :   0.9825 B( 30-C , 31-N ) :   2.9209 B( 32-C , 33-C ) :   1.6880
B( 32-C , 79-H ) :   0.9474 B( 33-C , 34-C ) :   1.1313 B( 33-C , 80-H ) :   0.9535
B( 34-C , 35-C ) :   1.2129 B( 34-C , 40-C ) :   1.4084 B( 35-C , 36-C ) :   1.5443
B( 35-C , 81-H ) :   0.9915 B( 36-C , 37-S ) :   1.0253 B( 36-C , 39-S ) :   1.1134
B( 37-S , 38-C ) :   1.0254 B( 38-C , 82-H ) :   0.9704 B( 38-C , 83-H ) :   0.9657
B( 38-C , 84-H ) :   0.9659 B( 39-S , 40-C ) :   1.0737 B( 40-C , 41-C ) :   1.2197
B( 41-C , 42-C ) :   1.5522 B( 41-C , 85-H ) :   0.9417 B( 42-C , 43-C ) :   1.1778
B( 42-C , 86-H ) :   0.9708 B( 43-C , 44-N ) :   1.1512 B( 43-C , 50-C ) :   1.3303
B( 44-N , 45-C ) :   0.9514 B( 44-N , 47-C ) :   1.0537 B( 45-C , 46-C ) :   1.1200
B( 45-C , 87-H ) :   0.9287 B( 45-C , 88-H ) :   0.9505 B( 46-C , 89-H ) :   0.9641
B( 46-C , 90-H ) :   0.9678 B( 46-C , 91-H ) :   0.9686 B( 47-C , 48-O ) :   2.0473
B( 47-C , 49-C ) :   0.9815 B( 49-C , 50-C ) :   1.2355 B( 49-C , 56-C ) :   1.3793
B( 50-C , 51-C ) :   1.0185 B( 51-C , 52-O ) :   1.9443 B( 51-C , 53-N ) :   1.0695
B( 52-O , 85-H ) :   0.1216 B( 53-N , 54-C ) :   0.9468 B( 53-N , 56-C ) :   1.1610
B( 54-C , 55-C ) :   1.1175 B( 54-C , 92-H ) :   0.9487 B( 54-C , 93-H ) :   0.9261
B( 55-C , 94-H ) :   0.9680 B( 55-C , 95-H ) :   0.9676 B( 55-C , 96-H ) :   0.9637
B( 56-C , 57-C ) :   1.1261 B( 57-C , 58-C ) :   1.8914 B( 57-C , 97-H ) :   0.9527
B( 58-C , 98-H ) :   0.9276 B( 58-C , 99-H ) :   0.9447

-----------------------------------------------------------------------------
         ABSORPTION SPECTRUM VIA TRANSITION ELECTRIC DIPOLE MOMENTS
-----------------------------------------------------------------------------
State   Energy  Wavelength   fosc         T2         TX        TY        TZ
        (cm-1)    (nm)                  (au**2)     (au)      (au)      (au)
-----------------------------------------------------------------------------
   0   15190.4    658.3   0.265426996   5.75242   1.39339   0.20240  -1.94163
   1   18027.7    554.7   0.666797090  12.17666   1.31245  -3.23319   0.02393
   2   20361.3    491.1   0.029534762   0.47753   0.32843  -0.44804  -0.41100
   3   21719.5    460.4   0.622786027   9.43986  -1.65813  -2.08345   1.53288
   4   23162.6    431.7   0.215217861   3.05892   0.77418   1.34302  -0.80985
   5   25147.4    397.7   0.535204022   7.00651  -0.32846  -2.57035   0.54028
   6   26379.8    379.1   0.271829040   3.39234  -1.10469  -0.44621   1.40460
   7   27438.1    364.5   0.026022821   0.31223  -0.47359   0.18170   0.23437
   8   28326.7    353.0   0.029744489   0.34569   0.14222  -0.50412  -0.26706
   9   28777.0    347.5   0.391374898   4.47738   1.25622   1.60965  -0.55524
  10   28906.5    345.9   0.038721326   0.44099   0.30303   0.57543  -0.13432
  11   29510.9    338.9   0.117332769   1.30892   0.02302   1.13000  -0.17742
  12   29854.6    335.0   0.002859666   0.03153  -0.02043  -0.17430  -0.02716
  13   30963.6    323.0   0.047366502   0.50361  -0.24647   0.14088   0.65040
  14   31820.5    314.3   0.083185483   0.86063   0.67789  -0.25322  -0.58050
  15   32051.3    312.0   0.022028708   0.22627   0.45810  -0.11298  -0.06036
  16   32406.2    308.6   0.176133242   1.78932  -1.16344   0.61896   0.22936
  17   33120.5    301.9   0.047254555   0.46970  -0.07406   0.47672  -0.48679
  18   33489.3    298.6   0.197692319   1.94339   1.33025  -0.33676  -0.24578
  19   34077.3    293.5   0.013435040   0.12979   0.30564  -0.12624  -0.14296
  20   34331.3    291.3   0.105038509   1.00724   0.88008   0.22610  -0.42612
  21   34883.8    286.7   0.281932371   2.66071   1.01859  -1.26812  -0.12272
  22   36424.1    274.5   0.033381325   0.30171   0.42501   0.20374  -0.28208
  23   36857.8    271.3   0.293265042   2.61943  -1.17220   1.09136   0.23303
  24   37785.7    264.7   0.010973562   0.09561   0.08398   0.10760   0.27745
  25   38027.0    263.0   0.001240689   0.01074   0.00331  -0.04189   0.09474
  26   38150.1    262.1   0.025025361   0.21595   0.45166  -0.06473  -0.08811
  27   38567.4    259.3   0.002226111   0.01900   0.02100   0.08942   0.10279
  28   38839.9    257.5   0.068575347   0.58125  -0.60286   0.39717   0.24508
  29   39119.0    255.6   0.098225953   0.82663  -0.80626   0.41587   0.06027
  30   39486.8    253.2   0.171372660   1.42878  -0.94198   0.73423   0.04854
  31   39791.7    251.3   0.039418704   0.32613  -0.08713  -0.23772  -0.51188
  32   39967.8    250.2   0.074078888   0.61018  -0.60760   0.05492   0.48784
  33   40085.9    249.5   0.002222658   0.01825  -0.08982   0.01023   0.10041

FINAL SINGLE POINT ENERGY     -4301.554542075747

DIPOLE MOMENT
-------------
                                X             Y             Z
Electronic contribution:     22.23866     -21.45255      -9.92700
Nuclear contribution   :    -19.28266      20.52058       8.60527
                        -----------------------------------------
Total Dipole Moment    :      2.95601      -0.93197      -1.32173
                        -----------------------------------------
Magnitude (a.u.)       :      3.36950
Magnitude (Debye)      :      8.56458

Rotational constants in cm-1:     0.001423     0.000584     0.000441
Rotational constants in MHz :    42.673910    17.521624    13.216698

                             ****ORCA TERMINATED NORMALLY****
TOTAL RUN TIME: 0 days 0 hours 8 minutes 40 seconds 551 msec
