                         Program Version 4.2.0 -  RELEASE  -
|  1> # ORCA input file
|  2> # SCF done       -187.194240316375          0.000863299278
|  3> ! CAM-B3LYP def2-SVP def2/J RIJCOSX Grid4 TightSCF
|  4> %maxcore 5000
|  5> %tddft
|  6>     Mode sTDDFT
|  7>     Ethresh 5.0
|  8>     maxcore 5000
|  9> end
| 10>
| 11> %pal
| 12>   nprocs 6
| 13>   end
| 14> * xyz 0 1
| 15>    C        3.74551        15.24959        -1.91938
| 16>    S        3.70343        14.19239        -3.26648
| 17>    C        4.00260        12.80921        -2.24737
| 18>    C        4.10118        13.18786        -0.92623
| 19>    C        3.96056        14.58751        -0.74872
| 20>    C        4.00810        15.26321         0.58988
| 21>    C        4.53769        14.33098         1.68396
| 22>    C        6.06056        14.27998         1.65812
| 23>    F        6.60162        14.06053         0.45347
| 24>    F        6.58702        15.44061         2.09067
| 25>    F        6.55213        13.32538         2.46898
| 26>    C        3.91436        12.93978         1.55253
| 27>    C        4.29791        12.26525         0.23626
| 28>    C        4.12001        11.52916        -2.88314
| 29>    C        4.72339        10.45401        -2.35122
| 30>    N        4.85084         9.25099        -3.00612
| 31>    C        5.51191         8.16911        -2.51242
| 32>    S        6.28377         7.06512        -3.60801
| 33>    C        6.94223         6.19708        -2.25480
| 34>    N        7.71398         5.07060        -2.52816
| 35>    O        8.16405         4.44307        -1.58579
| 36>    O        7.88121         4.79259        -3.70723
| 37>    C        6.58872         6.73666        -1.04610
| 38>    C        5.74826         7.85569        -1.17079
| 39>    C        5.15295         8.55007        -0.04957
| 40>    C        5.82250         8.83275         1.08839
| 41>    C        5.26571         9.50322         2.20386
| 42>    C        6.02632        10.00155         3.22403
| 43>    C        5.59314        10.64107         4.41671
| 44>    C        6.59915        11.01211         5.25246
| 45>    C        7.89046        10.70404         4.76457
| 46>    S        7.78108         9.93418         3.19638
| 47>    C        9.11686        10.90183         5.35756
| 48>    C        9.43804        11.41759         6.63426
| 49>    C       10.76696        11.40717         6.92809
| 50>    C       11.58674        10.89369         5.89123
| 51>    S       10.57777        10.43233         4.51304
| 52>    C       12.93980        10.72921         5.85877
| 53>    N       13.54852        10.24237         4.74593
| 54>    C       14.85166         9.95941         4.54137
| 55>    S       16.02066        10.04010         5.81756
| 56>    C       17.24029         9.50109         4.70088
| 57>    N       18.53403         9.37209         5.19323
| 58>    O       19.40608         8.99617         4.42703
| 59>    O       18.70078         9.64902         6.37416
| 60>    C       16.76517         9.28057         3.43311
| 61>    C       15.39126         9.54419         3.30886
| 62>    C       14.60563         9.47971         2.10522
| 63>    C       15.04339         9.00194         0.92242
| 64>    C       14.35237         8.99158        -0.32667
| 65>    S       15.28992         8.50260        -1.70921
| 66>    C       13.97118         8.78952        -2.79498
| 67>    C       12.86580         9.25085        -2.10858
| 68>    C       13.06903         9.34469        -0.71516
| 69>    C       11.98661         9.78208         0.22976
| 70>    C       10.62186         9.93060        -0.45345
| 71>    C        9.91314         8.58410        -0.54505
| 72>    F       10.67857         7.56936        -0.95043
| 73>    F        9.40891         8.21588         0.64680
| 74>    F        8.85960         8.62614        -1.38713
| 75>    C       10.77653        10.57713        -1.83039
| 76>    C       11.59030         9.68352        -2.76229
| 77>    C       14.19709         8.53766        -4.19439
| 78>    C       13.27990         8.35285        -5.14119
| 79>    H        3.60736        16.30222        -2.06554
| 80>    H        2.99677        15.57623         0.86554
| 81>    H        4.62224        16.16527         0.53132
| 82>    H        4.29131        14.74771         2.66739
| 83>    H        2.83029        13.05867         1.60226
| 84>    H        4.23061        12.31177         2.38713
| 85>    H        3.68717        11.37063         0.09964
| 86>    H        5.34248        11.94406         0.28631
| 87>    H        3.72245        11.47171        -3.88835
| 88>    H        5.19033        10.47882        -1.38277
| 89>    H        4.62092         9.23835        -3.99143
| 90>    H        6.90243         6.31624        -0.10807
| 91>    H        4.11958         8.85322        -0.16153
| 92>    H        6.87253         8.57905         1.15439
| 93>    H        4.19287         9.63507         2.24840
| 94>    H        4.54649        10.78286         4.62465
| 95>    H        6.45421        11.49439         6.20277
| 96>    H        8.67324        11.76760         7.30403
| 97>    H       11.19015        11.74748         7.85601
| 98>    H       13.56653        10.97974         6.70002
| 99>    H       12.92517        10.04785         3.96858
|100>    H       17.40900         8.95527         2.63730
|101>    H       13.60936         9.88534         2.17324
|102>    H       16.04759         8.60460         0.86624
|103>    H       12.25358        10.75381         0.65628
|104>    H       11.90158         9.06339         1.05015
|105>    H        9.97113        10.54837         0.17602
|106>    H       11.28781        11.53189        -1.69588
|107>    H        9.79615        10.77512        -2.26661
|108>    H       11.82229        10.22779        -3.68060
|109>    H       11.00144         8.80587        -3.04258
|110>    H       15.24486         8.46747        -4.46077
|111>    H       12.22396         8.34897        -4.94649
|112>    H       13.57640         8.16277        -6.15806
|113> *
|114>
|115>                          ****END OF INPUT****

CARTESIAN COORDINATES (ANGSTROEM)
---------------------------------
  C      3.745510   15.249590   -1.919380
  S      3.703430   14.192390   -3.266480
  C      4.002600   12.809210   -2.247370
  C      4.101180   13.187860   -0.926230
  C      3.960560   14.587510   -0.748720
  C      4.008100   15.263210    0.589880
  C      4.537690   14.330980    1.683960
  C      6.060560   14.279980    1.658120
  F      6.601620   14.060530    0.453470
  F      6.587020   15.440610    2.090670
  F      6.552130   13.325380    2.468980
  C      3.914360   12.939780    1.552530
  C      4.297910   12.265250    0.236260
  C      4.120010   11.529160   -2.883140
  C      4.723390   10.454010   -2.351220
  N      4.850840    9.250990   -3.006120
  C      5.511910    8.169110   -2.512420
  S      6.283770    7.065120   -3.608010
  C      6.942230    6.197080   -2.254800
  N      7.713980    5.070600   -2.528160
  O      8.164050    4.443070   -1.585790
  O      7.881210    4.792590   -3.707230
  C      6.588720    6.736660   -1.046100
  C      5.748260    7.855690   -1.170790
  C      5.152950    8.550070   -0.049570
  C      5.822500    8.832750    1.088390
  C      5.265710    9.503220    2.203860
  C      6.026320   10.001550    3.224030
  C      5.593140   10.641070    4.416710
  C      6.599150   11.012110    5.252460
  C      7.890460   10.704040    4.764570
  S      7.781080    9.934180    3.196380
  C      9.116860   10.901830    5.357560
  C      9.438040   11.417590    6.634260
  C     10.766960   11.407170    6.928090
  C     11.586740   10.893690    5.891230
  S     10.577770   10.432330    4.513040
  C     12.939800   10.729210    5.858770
  N     13.548520   10.242370    4.745930
  C     14.851660    9.959410    4.541370
  S     16.020660   10.040100    5.817560
  C     17.240290    9.501090    4.700880
  N     18.534030    9.372090    5.193230
  O     19.406080    8.996170    4.427030
  O     18.700780    9.649020    6.374160
  C     16.765170    9.280570    3.433110
  C     15.391260    9.544190    3.308860
  C     14.605630    9.479710    2.105220
  C     15.043390    9.001940    0.922420
  C     14.352370    8.991580   -0.326670
  S     15.289920    8.502600   -1.709210
  C     13.971180    8.789520   -2.794980
  C     12.865800    9.250850   -2.108580
  C     13.069030    9.344690   -0.715160
  C     11.986610    9.782080    0.229760
  C     10.621860    9.930600   -0.453450
  C      9.913140    8.584100   -0.545050
  F     10.678570    7.569360   -0.950430
  F      9.408910    8.215880    0.646800
  F      8.859600    8.626140   -1.387130
  C     10.776530   10.577130   -1.830390
  C     11.590300    9.683520   -2.762290
  C     14.197090    8.537660   -4.194390
  C     13.279900    8.352850   -5.141190
  H      3.607360   16.302220   -2.065540
  H      2.996770   15.576230    0.865540
  H      4.622240   16.165270    0.531320
  H      4.291310   14.747710    2.667390
  H      2.830290   13.058670    1.602260
  H      4.230610   12.311770    2.387130
  H      3.687170   11.370630    0.099640
  H      5.342480   11.944060    0.286310
  H      3.722450   11.471710   -3.888350
  H      5.190330   10.478820   -1.382770
  H      4.620920    9.238350   -3.991430
  H      6.902430    6.316240   -0.108070
  H      4.119580    8.853220   -0.161530
  H      6.872530    8.579050    1.154390
  H      4.192870    9.635070    2.248400
  H      4.546490   10.782860    4.624650
  H      6.454210   11.494390    6.202770
  H      8.673240   11.767600    7.304030
  H     11.190150   11.747480    7.856010
  H     13.566530   10.979740    6.700020
  H     12.925170   10.047850    3.968580
  H     17.409000    8.955270    2.637300
  H     13.609360    9.885340    2.173240
  H     16.047590    8.604600    0.866240
  H     12.253580   10.753810    0.656280
  H     11.901580    9.063390    1.050150
  H      9.971130   10.548370    0.176020
  H     11.287810   11.531890   -1.695880
  H      9.796150   10.775120   -2.266610
  H     11.822290   10.227790   -3.680600
  H     11.001440    8.805870   -3.042580
  H     15.244860    8.467470   -4.460770
  H     12.223960    8.348970   -4.946490
  H     13.576400    8.162770   -6.158060

 Total Charge           Charge          ....    0
 Multiplicity           Mult            ....    1
 Number of Electrons    NEL             ....  508
 Basis Dimension        Dim             .... 1090

ORBITAL ENERGIES
----------------

  NO   OCC          E(Eh)            E(eV)
   0   2.0000     -88.979155     -2421.2459
   1   2.0000     -88.972100     -2421.0539
   2   2.0000     -88.954712     -2420.5808
   3   2.0000     -88.945913     -2420.3413
   4   2.0000     -88.945642     -2420.3340
   5   2.0000     -88.944759     -2420.3099
   6   2.0000     -24.801220      -674.8755
   7   2.0000     -24.800288      -674.8502
   8   2.0000     -24.799414      -674.8264
   9   2.0000     -24.799375      -674.8253
  10   2.0000     -24.795811      -674.7283
  11   2.0000     -24.793119      -674.6551
  12   2.0000     -19.225334      -523.1479
  13   2.0000     -19.224975      -523.1382
  14   2.0000     -19.221469      -523.0428
  15   2.0000     -19.221276      -523.0375
  16   2.0000     -14.637131      -398.2966
  17   2.0000     -14.633516      -398.1982
  18   2.0000     -14.487896      -394.2357
  19   2.0000     -14.473241      -393.8369
  20   2.0000     -10.510106      -285.9945
  21   2.0000     -10.507395      -285.9208
  22   2.0000     -10.364644      -282.0363
  23   2.0000     -10.358342      -281.8648
  24   2.0000     -10.339273      -281.3459
  25   2.0000     -10.332939      -281.1736
  26   2.0000     -10.326639      -281.0021
  27   2.0000     -10.321184      -280.8537
  28   2.0000     -10.318042      -280.7682
  29   2.0000     -10.314164      -280.6627
  30   2.0000     -10.310682      -280.5679
  31   2.0000     -10.309703      -280.5413
  32   2.0000     -10.302635      -280.3489
  33   2.0000     -10.299808      -280.2720
  34   2.0000     -10.299733      -280.2700
  35   2.0000     -10.296068      -280.1703
  36   2.0000     -10.295918      -280.1662
  37   2.0000     -10.295836      -280.1639
  38   2.0000     -10.293824      -280.1092
  39   2.0000     -10.293604      -280.1032
  40   2.0000     -10.292644      -280.0771
  41   2.0000     -10.292454      -280.0719
  42   2.0000     -10.291383      -280.0428
  43   2.0000     -10.289347      -279.9874
  44   2.0000     -10.288072      -279.9527
  45   2.0000     -10.287764      -279.9443
  46   2.0000     -10.287130      -279.9270
  47   2.0000     -10.286622      -279.9132
  48   2.0000     -10.284662      -279.8599
  49   2.0000     -10.283668      -279.8328
  50   2.0000     -10.281103      -279.7630
  51   2.0000     -10.280030      -279.7338
  52   2.0000     -10.279754      -279.7263
  53   2.0000     -10.279526      -279.7201
  54   2.0000     -10.278830      -279.7012
  55   2.0000     -10.278208      -279.6843
  56   2.0000     -10.278109      -279.6816
  57   2.0000     -10.277374      -279.6616
  58   2.0000     -10.274933      -279.5952
  59   2.0000     -10.273079      -279.5447
  60   2.0000     -10.271922      -279.5132
  61   2.0000     -10.271867      -279.5117
  62   2.0000     -10.268913      -279.4313
  63   2.0000     -10.262474      -279.2561
  64   2.0000      -8.074563      -219.7200
  65   2.0000      -8.068024      -219.5421
  66   2.0000      -8.051082      -219.0811
  67   2.0000      -8.042103      -218.8367
  68   2.0000      -8.041773      -218.8278
  69   2.0000      -8.041124      -218.8101
  70   2.0000      -6.044308      -164.4740
  71   2.0000      -6.039920      -164.3546
  72   2.0000      -6.037715      -164.2946
  73   2.0000      -6.035878      -164.2446
  74   2.0000      -6.033378      -164.1766
  75   2.0000      -6.029331      -164.0664
  76   2.0000      -6.020948      -163.8383
  77   2.0000      -6.017023      -163.7315
  78   2.0000      -6.011707      -163.5869
  79   2.0000      -6.011175      -163.5724
  80   2.0000      -6.011032      -163.5685
  81   2.0000      -6.010875      -163.5642
  82   2.0000      -6.007313      -163.4673
  83   2.0000      -6.006908      -163.4563
  84   2.0000      -6.006877      -163.4554
  85   2.0000      -6.004286      -163.3849
  86   2.0000      -6.003969      -163.3763
  87   2.0000      -6.001919      -163.3205
  88   2.0000      -1.390102       -37.8266
  89   2.0000      -1.386176       -37.7198
  90   2.0000      -1.304470       -35.4964
  91   2.0000      -1.301650       -35.4197
  92   2.0000      -1.293088       -35.1867
  93   2.0000      -1.289521       -35.0896
  94   2.0000      -1.289413       -35.0867
  95   2.0000      -1.285263       -34.9738
  96   2.0000      -1.123390       -30.5690
  97   2.0000      -1.120429       -30.4884
  98   2.0000      -1.095785       -29.8178
  99   2.0000      -1.077973       -29.3331
 100   2.0000      -1.003837       -27.3158
 101   2.0000      -0.995301       -27.0835
 102   2.0000      -0.991673       -26.9848
 103   2.0000      -0.987286       -26.8654
 104   2.0000      -0.982327       -26.7305
 105   2.0000      -0.975247       -26.5378
 106   2.0000      -0.936947       -25.4956
 107   2.0000      -0.934589       -25.4315
 108   2.0000      -0.918323       -24.9888
 109   2.0000      -0.915430       -24.9101
 110   2.0000      -0.898794       -24.4574
 111   2.0000      -0.894886       -24.3511
 112   2.0000      -0.884419       -24.0663
 113   2.0000      -0.875763       -23.8307
 114   2.0000      -0.867681       -23.6108
 115   2.0000      -0.860791       -23.4233
 116   2.0000      -0.855008       -23.2660
 117   2.0000      -0.851705       -23.1761
 118   2.0000      -0.850628       -23.1468
 119   2.0000      -0.839602       -22.8467
 120   2.0000      -0.836339       -22.7580
 121   2.0000      -0.833767       -22.6879
 122   2.0000      -0.827884       -22.5279
 123   2.0000      -0.825201       -22.4549
 124   2.0000      -0.799975       -21.7684
 125   2.0000      -0.792749       -21.5718
 126   2.0000      -0.788138       -21.4463
 127   2.0000      -0.777113       -21.1463
 128   2.0000      -0.773690       -21.0532
 129   2.0000      -0.766515       -20.8579
 130   2.0000      -0.752829       -20.4855
 131   2.0000      -0.732327       -19.9276
 132   2.0000      -0.727550       -19.7976
 133   2.0000      -0.726440       -19.7674
 134   2.0000      -0.724666       -19.7192
 135   2.0000      -0.721187       -19.6245
 136   2.0000      -0.708751       -19.2861
 137   2.0000      -0.700427       -19.0596
 138   2.0000      -0.696982       -18.9659
 139   2.0000      -0.688379       -18.7317
 140   2.0000      -0.677075       -18.4242
 141   2.0000      -0.674731       -18.3604
 142   2.0000      -0.672410       -18.2972
 143   2.0000      -0.671382       -18.2692
 144   2.0000      -0.667318       -18.1586
 145   2.0000      -0.666179       -18.1276
 146   2.0000      -0.658344       -17.9145
 147   2.0000      -0.655669       -17.8417
 148   2.0000      -0.643578       -17.5126
 149   2.0000      -0.642007       -17.4699
 150   2.0000      -0.635220       -17.2852
 151   2.0000      -0.631099       -17.1731
 152   2.0000      -0.628149       -17.0928
 153   2.0000      -0.624006       -16.9801
 154   2.0000      -0.622113       -16.9285
 155   2.0000      -0.620939       -16.8966
 156   2.0000      -0.618334       -16.8257
 157   2.0000      -0.617768       -16.8103
 158   2.0000      -0.614799       -16.7295
 159   2.0000      -0.607925       -16.5425
 160   2.0000      -0.603395       -16.4192
 161   2.0000      -0.598302       -16.2806
 162   2.0000      -0.591299       -16.0901
 163   2.0000      -0.581590       -15.8259
 164   2.0000      -0.581214       -15.8156
 165   2.0000      -0.573716       -15.6116
 166   2.0000      -0.573549       -15.6071
 167   2.0000      -0.569417       -15.4946
 168   2.0000      -0.567299       -15.4370
 169   2.0000      -0.562728       -15.3126
 170   2.0000      -0.555715       -15.1218
 171   2.0000      -0.552943       -15.0464
 172   2.0000      -0.551663       -15.0115
 173   2.0000      -0.549604       -14.9555
 174   2.0000      -0.547872       -14.9084
 175   2.0000      -0.546309       -14.8658
 176   2.0000      -0.545631       -14.8474
 177   2.0000      -0.544041       -14.8041
 178   2.0000      -0.539885       -14.6910
 179   2.0000      -0.538656       -14.6576
 180   2.0000      -0.536571       -14.6008
 181   2.0000      -0.531522       -14.4635
 182   2.0000      -0.530133       -14.4257
 183   2.0000      -0.528442       -14.3796
 184   2.0000      -0.523600       -14.2479
 185   2.0000      -0.517112       -14.0713
 186   2.0000      -0.514532       -14.0011
 187   2.0000      -0.512623       -13.9492
 188   2.0000      -0.511245       -13.9117
 189   2.0000      -0.502041       -13.6612
 190   2.0000      -0.501490       -13.6462
 191   2.0000      -0.500864       -13.6292
 192   2.0000      -0.498051       -13.5527
 193   2.0000      -0.497375       -13.5343
 194   2.0000      -0.495352       -13.4792
 195   2.0000      -0.494626       -13.4595
 196   2.0000      -0.492557       -13.4032
 197   2.0000      -0.491855       -13.3840
 198   2.0000      -0.491376       -13.3710
 199   2.0000      -0.488087       -13.2815
 200   2.0000      -0.486544       -13.2395
 201   2.0000      -0.484416       -13.1816
 202   2.0000      -0.480535       -13.0760
 203   2.0000      -0.477831       -13.0024
 204   2.0000      -0.477163       -12.9843
 205   2.0000      -0.475141       -12.9292
 206   2.0000      -0.474229       -12.9044
 207   2.0000      -0.472344       -12.8531
 208   2.0000      -0.471044       -12.8178
 209   2.0000      -0.467517       -12.7218
 210   2.0000      -0.462292       -12.5796
 211   2.0000      -0.460884       -12.5413
 212   2.0000      -0.457588       -12.4516
 213   2.0000      -0.449465       -12.2306
 214   2.0000      -0.448568       -12.2062
 215   2.0000      -0.445973       -12.1355
 216   2.0000      -0.442091       -12.0299
 217   2.0000      -0.440440       -11.9850
 218   2.0000      -0.438114       -11.9217
 219   2.0000      -0.435764       -11.8577
 220   2.0000      -0.432412       -11.7665
 221   2.0000      -0.428465       -11.6591
 222   2.0000      -0.424554       -11.5527
 223   2.0000      -0.421635       -11.4733
 224   2.0000      -0.412349       -11.2206
 225   2.0000      -0.409829       -11.1520
 226   2.0000      -0.407264       -11.0822
 227   2.0000      -0.405858       -11.0440
 228   2.0000      -0.404675       -11.0118
 229   2.0000      -0.401479       -10.9248
 230   2.0000      -0.400449       -10.8968
 231   2.0000      -0.400009       -10.8848
 232   2.0000      -0.395044       -10.7497
 233   2.0000      -0.374388       -10.1876
 234   2.0000      -0.372437       -10.1345
 235   2.0000      -0.370370       -10.0783
 236   2.0000      -0.369102       -10.0438
 237   2.0000      -0.363203        -9.8833
 238   2.0000      -0.362491        -9.8639
 239   2.0000      -0.360370        -9.8062
 240   2.0000      -0.354137        -9.6366
 241   2.0000      -0.350304        -9.5323
 242   2.0000      -0.345504        -9.4017
 243   2.0000      -0.341877        -9.3029
 244   2.0000      -0.328230        -8.9316
 245   2.0000      -0.326451        -8.8832
 246   2.0000      -0.314691        -8.5632
 247   2.0000      -0.305667        -8.3176
 248   2.0000      -0.303401        -8.2560
 249   2.0000      -0.299641        -8.1536
 250   2.0000      -0.280127        -7.6227
 251   2.0000      -0.250022        -6.8035
 252   2.0000      -0.242845        -6.6081
 253   2.0000      -0.211837        -5.7644
 254   0.0000      -0.077384        -2.1057
 255   0.0000      -0.043937        -1.1956
 256   0.0000      -0.043134        -1.1737
 257   0.0000      -0.032338        -0.8800
 258   0.0000      -0.003202        -0.0871

MULLIKEN ATOMIC CHARGES
-----------------------
   0 C :   -0.141163
   1 S :    0.099914
   2 C :   -0.169009
   3 C :   -0.022863
   4 C :   -0.063224
   5 C :    0.162362
   6 C :   -0.169933
   7 C :    0.476685
   8 F :   -0.158764
   9 F :   -0.172190
  10 F :   -0.165043
  11 C :    0.068683
  12 C :    0.056732
  13 C :    0.023892
  14 C :    0.032318
  15 N :   -0.030733
  16 C :   -0.100960
  17 S :    0.154671
  18 C :   -0.016032
  19 N :    0.279061
  20 O :   -0.257444
  21 O :   -0.279090
  22 C :    0.014975
  23 C :    0.071900
  24 C :   -0.063673
  25 C :   -0.008932
  26 C :   -0.017428
  27 C :   -0.025323
  28 C :    0.042159
  29 C :    0.033426
  30 C :   -0.045839
  31 S :    0.058335
  32 C :   -0.039335
  33 C :    0.029677
  34 C :    0.045014
  35 C :   -0.047270
  36 S :    0.008333
  37 C :    0.040111
  38 N :   -0.034884
  39 C :   -0.121071
  40 S :    0.153501
  41 C :   -0.015571
  42 N :    0.281308
  43 O :   -0.260345
  44 O :   -0.277438
  45 C :    0.006686
  46 C :    0.131100
  47 C :   -0.053687
  48 C :    0.069968
  49 C :   -0.140314
  50 S :    0.117068
  51 C :   -0.148339
  52 C :   -0.043473
  53 C :   -0.082104
  54 C :    0.115817
  55 C :   -0.145575
  56 C :    0.490697
  57 F :   -0.148445
  58 F :   -0.167098
  59 F :   -0.170935
  60 C :    0.067082
  61 C :    0.063749
  62 C :    0.027029
  63 C :   -0.027624
  64 H :    0.006098
  65 H :    0.022074
  66 H :    0.023884
  67 H :    0.025882
  68 H :    0.010939
  69 H :    0.004471
  70 H :    0.005640
  71 H :    0.056065
  72 H :   -0.028087
  73 H :    0.038584
  74 H :    0.129814
  75 H :    0.007876
  76 H :    0.014098
  77 H :    0.006261
  78 H :   -0.016390
  79 H :   -0.011801
  80 H :   -0.015032
  81 H :   -0.012285
  82 H :   -0.009053
  83 H :    0.024115
  84 H :    0.157036
  85 H :    0.010755
  86 H :   -0.061422
  87 H :   -0.025711
  88 H :    0.039265
  89 H :    0.036809
  90 H :    0.031283
  91 H :    0.016161
  92 H :    0.016776
  93 H :    0.023148
  94 H :    0.043526
  95 H :   -0.005912
  96 H :    0.019188
  97 H :    0.024844
Sum of atomic charges:   -0.0000000

LOEWDIN ATOMIC CHARGES
----------------------
   0 C :   -0.202785
   1 S :    0.423176
   2 C :   -0.172898
   3 C :   -0.071082
   4 C :   -0.068489
   5 C :   -0.015694
   6 C :   -0.066036
   7 C :    0.163538
   8 F :   -0.052909
   9 F :   -0.070008
  10 F :   -0.064251
  11 C :   -0.020022
  12 C :   -0.034031
  13 C :   -0.099305
  14 C :    0.027760
  15 N :    0.027901
  16 C :   -0.103152
  17 S :    0.439603
  18 C :   -0.217502
  19 N :    0.274510
  20 O :   -0.222774
  21 O :   -0.244749
  22 C :    0.008311
  23 C :   -0.109616
  24 C :   -0.031364
  25 C :   -0.034916
  26 C :   -0.066645
  27 C :   -0.139915
  28 C :   -0.041591
  29 C :   -0.025032
  30 C :   -0.185177
  31 S :    0.364198
  32 C :   -0.169990
  33 C :   -0.040964
  34 C :   -0.027755
  35 C :   -0.183554
  36 S :    0.335120
  37 C :   -0.005464
  38 N :    0.049842
  39 C :   -0.105193
  40 S :    0.447585
  41 C :   -0.213777
  42 N :    0.274299
  43 O :   -0.225903
  44 O :   -0.244016
  45 C :    0.006461
  46 C :   -0.102310
  47 C :   -0.046719
  48 C :   -0.032121
  49 C :   -0.177130
  50 S :    0.439844
  51 C :   -0.176633
  52 C :   -0.055675
  53 C :   -0.058552
  54 C :   -0.021542
  55 C :   -0.063688
  56 C :    0.165536
  57 F :   -0.042701
  58 F :   -0.063342
  59 F :   -0.062657
  60 C :   -0.018286
  61 C :   -0.032478
  62 C :   -0.042230
  63 C :   -0.043152
  64 H :    0.018899
  65 H :    0.038251
  66 H :    0.035569
  67 H :    0.042362
  68 H :    0.028746
  69 H :    0.025954
  70 H :    0.029002
  71 H :    0.029230
  72 H :    0.022641
  73 H :    0.035659
  74 H :    0.089918
  75 H :    0.044909
  76 H :    0.027465
  77 H :    0.019846
  78 H :    0.029177
  79 H :    0.030970
  80 H :    0.032009
  81 H :    0.033262
  82 H :    0.035022
  83 H :    0.032726
  84 H :    0.079531
  85 H :    0.044369
  86 H :    0.017303
  87 H :    0.026810
  88 H :    0.036651
  89 H :    0.033907
  90 H :    0.043877
  91 H :    0.030727
  92 H :    0.028440
  93 H :    0.036576
  94 H :    0.029704
  95 H :    0.028864
  96 H :    0.022613
  97 H :    0.027102

  Mayer bond orders larger than 0.100000
B(  0-C ,  1-S ) :   1.1461 B(  0-C ,  4-C ) :   1.5776 B(  0-C , 64-H ) :   0.9732
B(  1-S ,  2-C ) :   1.1322 B(  2-C ,  3-C ) :   1.5467 B(  2-C , 13-C ) :   1.1120
B(  3-C ,  4-C ) :   1.2925 B(  3-C , 12-C ) :   1.0445 B(  4-C ,  5-C ) :   1.0137
B(  5-C ,  6-C ) :   1.0433 B(  5-C , 65-H ) :   0.9139 B(  5-C , 66-H ) :   0.9231
B(  6-C ,  7-C ) :   0.9823 B(  6-C , 11-C ) :   1.0435 B(  6-C , 67-H ) :   0.9034
B(  7-C ,  8-F ) :   1.1357 B(  7-C ,  9-F ) :   1.1402 B(  7-C , 10-F ) :   1.1368
B( 11-C , 12-C ) :   1.0856 B( 11-C , 68-H ) :   0.9374 B( 11-C , 69-H ) :   0.9255
B( 12-C , 70-H ) :   0.9108 B( 12-C , 71-H ) :   0.8926 B( 13-C , 14-C ) :   1.7162
B( 13-C , 72-H ) :   0.9464 B( 14-C , 15-N ) :   1.1080 B( 14-C , 73-H ) :   0.9510
B( 15-N , 16-C ) :   1.1972 B( 15-N , 74-H ) :   0.9146 B( 16-C , 17-S ) :   1.1340
B( 16-C , 23-C ) :   1.3839 B( 17-S , 18-C ) :   1.0751 B( 18-C , 19-N ) :   0.9853
B( 18-C , 22-C ) :   1.4589 B( 19-N , 20-O ) :   1.5303 B( 19-N , 21-O ) :   1.4988
B( 20-O , 21-O ) :   0.2509 B( 22-C , 23-C ) :   1.2631 B( 22-C , 75-H ) :   1.0101
B( 23-C , 24-C ) :   1.0209 B( 24-C , 25-C ) :   1.7146 B( 24-C , 76-H ) :   0.9724
B( 25-C , 26-C ) :   1.1211 B( 25-C , 77-H ) :   0.9664 B( 26-C , 27-C ) :   1.6061
B( 26-C , 78-H ) :   0.9776 B( 27-C , 28-C ) :   1.1234 B( 27-C , 31-S ) :   1.0339
B( 28-C , 29-C ) :   1.6108 B( 28-C , 79-H ) :   0.9921 B( 29-C , 30-C ) :   1.1801
B( 29-C , 80-H ) :   0.9935 B( 30-C , 31-S ) :   1.0344 B( 30-C , 32-C ) :   1.5349
B( 32-C , 33-C ) :   1.1810 B( 32-C , 36-S ) :   1.0409 B( 33-C , 34-C ) :   1.6156
B( 33-C , 81-H ) :   0.9914 B( 34-C , 35-C ) :   1.1546 B( 34-C , 82-H ) :   0.9936
B( 35-C , 36-S ) :   1.0079 B( 35-C , 37-C ) :   1.6040 B( 37-C , 38-N ) :   1.1405
B( 37-C , 83-H ) :   0.9639 B( 38-N , 39-C ) :   1.2409 B( 38-N , 84-H ) :   0.8974
B( 39-C , 40-S ) :   1.1280 B( 39-C , 46-C ) :   1.3335 B( 40-S , 41-C ) :   1.0623
B( 41-C , 42-N ) :   0.9906 B( 41-C , 45-C ) :   1.4800 B( 42-N , 43-O ) :   1.5206
B( 42-N , 44-O ) :   1.4964 B( 43-O , 44-O ) :   0.2499 B( 45-C , 46-C ) :   1.2449
B( 45-C , 85-H ) :   0.9980 B( 46-C , 47-C ) :   1.0754 B( 47-C , 48-C ) :   1.7332
B( 47-C , 86-H ) :   0.9456 B( 48-C , 49-C ) :   1.1220 B( 48-C , 87-H ) :   0.9456
B( 49-C , 50-S ) :   1.1261 B( 49-C , 53-C ) :   1.5057 B( 50-S , 51-C ) :   1.1252
B( 51-C , 52-C ) :   1.5378 B( 51-C , 62-C ) :   1.0865 B( 52-C , 53-C ) :   1.3108
B( 52-C , 61-C ) :   1.0483 B( 53-C , 54-C ) :   1.0545 B( 54-C , 55-C ) :   1.0197
B( 54-C , 88-H ) :   0.8915 B( 54-C , 89-H ) :   0.9094 B( 55-C , 56-C ) :   0.9852
B( 55-C , 60-C ) :   1.0439 B( 55-C , 90-H ) :   0.8974 B( 56-C , 57-F ) :   1.1474
B( 56-C , 58-F ) :   1.1069 B( 56-C , 59-F ) :   1.1062 B( 60-C , 61-C ) :   1.0834
B( 60-C , 91-H ) :   0.9419 B( 60-C , 92-H ) :   0.9321 B( 61-C , 93-H ) :   0.9129
B( 61-C , 94-H ) :   0.8986 B( 62-C , 63-C ) :   1.9367 B( 62-C , 95-H ) :   0.9486
B( 63-C , 96-H ) :   0.9584 B( 63-C , 97-H ) :   0.9456

-----------------------------------------------------------------------------
         ABSORPTION SPECTRUM VIA TRANSITION ELECTRIC DIPOLE MOMENTS
-----------------------------------------------------------------------------
State   Energy  Wavelength   fosc         T2         TX        TY        TZ
        (cm-1)    (nm)                  (au**2)     (au)      (au)      (au)
-----------------------------------------------------------------------------
   0   15179.0    658.8   1.162951128  25.22285  -4.78659  -0.31000  -1.48840
   1   22354.0    447.3   0.179171564   2.63869  -0.72112   0.30676   1.42288
   2   22880.1    437.1   0.136110572   1.95843   0.61920  -1.19522   0.38273
   3   23213.4    430.8   0.092973166   1.31854  -1.04710   0.36091  -0.30309
   4   23971.8    417.2   0.053037458   0.72838   0.17947   0.26867  -0.78993
   5   25256.2    395.9   0.728526787   9.49627   0.53883   0.99611   2.86595
   6   27850.6    359.1   0.710698912   8.40093   1.38798  -2.54257  -0.09884
   7   28871.7    346.4   0.020475575   0.23347   0.44692  -0.18304  -0.01526
   8   29261.8    341.7   0.570988020   6.42393  -0.37840  -0.76796  -2.38558
   9   29633.5    337.5   0.095329351   1.05906   0.75575  -0.41507  -0.56179
  10   31336.0    319.1   0.166513082   1.74936   1.23467  -0.25736  -0.39840
  11   31732.6    315.1   0.017935312   0.18607   0.06601  -0.39214  -0.16716
  12   32461.3    308.1   0.527907213   5.35386   0.64341   0.42735   2.18111
  13   33323.7    300.1   0.074544121   0.73644   0.55558  -0.54313   0.36438
  14   33966.1    294.4   0.078235891   0.75829   0.16419   0.01984   0.85495
  15   34468.0    290.1   0.017073261   0.16307  -0.25520   0.30084   0.08623
  16   34740.8    287.8   0.012095534   0.11462   0.05074  -0.17161  -0.28739
  17   35137.5    284.6   0.051692271   0.48432   0.18921  -0.00347   0.66970
  18   37028.1    270.1   0.001692962   0.01505  -0.03083   0.06871  -0.09685
  19   37183.6    268.9   0.027823905   0.24634   0.21955  -0.30230   0.32674
  20   37284.6    268.2   0.022029287   0.19451   0.37448  -0.23088  -0.03115
  21   37797.2    264.6   0.061746380   0.53781  -0.28587   0.66915   0.09122
  22   37967.2    263.4   0.045992877   0.39880  -0.14695  -0.57480  -0.21636
  23   38223.5    261.6   0.040820787   0.35158   0.13570  -0.04413   0.57552
  24   38537.8    259.5   0.065406520   0.55874  -0.09440  -0.68769  -0.27732
  25   38962.0    256.7   0.064441481   0.54450   0.28202  -0.67621  -0.08778
  26   39186.6    255.2   0.001106347   0.00929   0.07482   0.01083   0.05983
  27   39614.5    252.4   0.035292049   0.29329   0.11966  -0.47532   0.23032
  28   39907.2    250.6   0.071531532   0.59009  -0.37198   0.13722  -0.65795
  29   40281.7    248.3   0.151995425   1.24222   0.04298   0.68522   0.87798

FINAL SINGLE POINT ENERGY     -5200.924898067450

DIPOLE MOMENT
-------------
                                X             Y             Z
Electronic contribution:     18.82587     -12.08416       8.66184
Nuclear contribution   :    -22.84805      15.22435      -8.35870
                        -----------------------------------------
Total Dipole Moment    :     -4.02219       3.14020       0.30314
                        -----------------------------------------
Magnitude (a.u.)       :      5.11182
Magnitude (Debye)      :     12.99321

Rotational constants in cm-1:     0.001230     0.000650     0.000513
Rotational constants in MHz :    36.885519    19.475869    15.380148

                             ****ORCA TERMINATED NORMALLY****
TOTAL RUN TIME: 0 days 0 hours 10 minutes 2 seconds 598 msec
