                         Program Version 4.2.0 -  RELEASE  -
|  1> # ORCA input file
|  2> # SCF done       -233.186145539155          0.002613958780
|  3> ! CAM-B3LYP def2-SVP def2/J RIJCOSX Grid4 TightSCF
|  4> %maxcore 5000
|  5> %tddft
|  6>     Mode sTDDFT
|  7>     Ethresh 5.0
|  8>     maxcore 5000
|  9> end
| 10>
| 11> %pal
| 12>   nprocs 6
| 13>   end
| 14> * xyz 0 1
| 15>    C       -2.05169         4.03153         1.87243
| 16>    C       -1.35447         3.72730         3.01086
| 17>    C       -0.01232         3.28959         3.01845
| 18>    N        1.08316         2.95961         3.10727
| 19>    C       -1.82212         3.84285         4.33839
| 20>    N       -2.09528         3.90906         5.45140
| 21>    C       -1.53494         3.91948         0.51410
| 22>    C       -2.52582         4.38223        -0.38913
| 23>    C       -2.33245         4.42451        -1.75040
| 24>    C       -1.09109         4.01078        -2.24218
| 25>    C       -0.10428         3.55167        -1.33422
| 26>    C       -0.31152         3.48652         0.03838
| 27>    S        1.36795         3.14376        -2.14700
| 28>    C        0.66144         3.59938        -3.67030
| 29>    C       -0.62285         4.02593        -3.58146
| 30>   Br        1.67707         3.47831        -5.23840
| 31>    C       -3.69429         4.83616         0.36956
| 32>    O       -4.69634         5.35698        -0.09327
| 33>    C       -3.40164         4.56787         1.78526
| 34>    C       -4.25328         4.74987         2.84072
| 35>    C       -5.54943         5.30818         2.87131
| 36>    S       -6.35193         6.07635         1.53795
| 37>    C       -7.70721         6.53513         2.52405
| 38>    C       -7.53696         6.09463         3.84550
| 39>    C       -6.34572         5.38668         4.02658
| 40>    C       -5.90789         4.70716         5.29655
| 41>    F       -5.48000         3.45148         5.05189
| 42>    F       -4.88127         5.35337         5.87391
| 43>    F       -6.85987         4.58126         6.21424
| 44>    C       -8.48257         6.40986         4.97200
| 45>    F       -9.35625         7.38469         4.67386
| 46>    F       -9.22863         5.35233         5.33158
| 47>    F       -7.83614         6.84381         6.06290
| 48>    C       -8.80213         7.20740         1.93842
| 49>    C       -8.76473         7.71575         0.66711
| 50>    C       -9.84280         8.37497         0.06918
| 51>    C       -9.80076         8.94585        -1.18455
| 52>    C      -10.86277         9.61789        -1.83902
| 53>    C      -10.54175        10.09576        -3.07315
| 54>    C       -9.20496         9.82902        -3.45226
| 55>    S       -8.37399         8.94501        -2.20068
| 56>    C       -8.57740        10.19304        -4.63359
| 57>    C       -9.13650        10.86455        -5.74288
| 58>    C       -8.25740        11.05860        -6.76514
| 59>    C       -6.95619        10.55264        -6.51685
| 60>    S       -6.88989         9.82980        -4.92614
| 61>    C       -5.91013        10.59207        -7.41250
| 62>    C       -4.62057        10.08531        -7.20551
| 63>    S       -4.10140         9.47213        -5.67224
| 64>    C       -2.51422         9.06867        -6.27214
| 65>    C       -2.40405         9.42462        -7.61793
| 66>    C       -3.57774         9.98365        -8.14265
| 67>    C       -3.82729        10.41629        -9.55617
| 68>    F       -4.93567         9.82867       -10.05628
| 69>    F       -4.05728        11.74371        -9.63405
| 70>    F       -2.85384        10.14641       -10.41704
| 71>    C       -1.14334         9.27656        -8.42530
| 72>    F       -0.08207         8.91388        -7.69063
| 73>    F       -1.25810         8.34789        -9.38549
| 74>    F       -0.79037        10.42878        -9.01271
| 75>    C       -1.61644         8.40649        -5.39989
| 76>    C       -1.87862         8.29161        -4.06820
| 77>    C       -1.09670         7.55894        -3.15491
| 78>    C       -1.41484         7.31703        -1.84707
| 79>    C       -2.61430         7.62453        -1.09836
| 80>    C       -3.89182         7.73570        -1.59076
| 81>    C       -4.98704         8.20185        -0.84412
| 82>    N       -5.89895         8.66299        -0.31929
| 83>    C       -4.28525         7.30106        -2.87240
| 84>    N       -4.67382         6.87658        -3.86617
| 85>    C       -2.26889         7.57696         0.31527
| 86>    C       -0.95204         7.06474         0.44732
| 87>    C       -0.38824         6.82803        -0.89637
| 88>    O        0.68428         6.33753        -1.17596
| 89>    C       -0.38209         6.80596         1.67014
| 90>    C       -1.14570         7.05998         2.81642
| 91>    C       -2.46055         7.56927         2.67316
| 92>    C       -3.03460         7.83586         1.43752
| 93>    S       -3.23820         7.77082         4.21470
| 94>    C       -1.80799         7.18533         5.02328
| 95>    C       -0.79936         6.85369         4.17806
| 96>   Br       -1.78124         7.07768         6.88375
| 97>    H       -3.10801         4.77273        -2.41569
| 98>    H        0.47185         3.12892         0.68501
| 99>    H       -1.21278         4.34772        -4.42032
|100>    H       -3.87858         4.42504         3.80163
|101>    H       -9.70746         7.32653         2.51403
|102>    H       -7.84690         7.63836         0.09764
|103>    H      -10.77123         8.45660         0.62013
|104>    H      -11.82798         9.72559        -1.37680
|105>    H      -11.22091        10.63218        -3.71048
|106>    H      -10.16489        11.17590        -5.76538
|107>    H       -8.49983        11.54275        -7.69412
|108>    H       -6.12457        11.04313        -8.37058
|109>    H       -0.73322         7.94267        -5.81160
|110>    H       -2.74355         8.81285        -3.68087
|111>    H       -0.13011         7.19557        -3.48509
|112>    H        0.61682         6.40419         1.74406
|113>    H       -4.03801         8.22291         1.37315
|114>    H        0.15238         6.47671         4.50677
|115> *
|116>
|117>                          ****END OF INPUT****

CARTESIAN COORDINATES (ANGSTROEM)
---------------------------------
  C     -2.051690    4.031530    1.872430
  C     -1.354470    3.727300    3.010860
  C     -0.012320    3.289590    3.018450
  N      1.083160    2.959610    3.107270
  C     -1.822120    3.842850    4.338390
  N     -2.095280    3.909060    5.451400
  C     -1.534940    3.919480    0.514100
  C     -2.525820    4.382230   -0.389130
  C     -2.332450    4.424510   -1.750400
  C     -1.091090    4.010780   -2.242180
  C     -0.104280    3.551670   -1.334220
  C     -0.311520    3.486520    0.038380
  S      1.367950    3.143760   -2.147000
  C      0.661440    3.599380   -3.670300
  C     -0.622850    4.025930   -3.581460
  Br     1.677070    3.478310   -5.238400
  C     -3.694290    4.836160    0.369560
  O     -4.696340    5.356980   -0.093270
  C     -3.401640    4.567870    1.785260
  C     -4.253280    4.749870    2.840720
  C     -5.549430    5.308180    2.871310
  S     -6.351930    6.076350    1.537950
  C     -7.707210    6.535130    2.524050
  C     -7.536960    6.094630    3.845500
  C     -6.345720    5.386680    4.026580
  C     -5.907890    4.707160    5.296550
  F     -5.480000    3.451480    5.051890
  F     -4.881270    5.353370    5.873910
  F     -6.859870    4.581260    6.214240
  C     -8.482570    6.409860    4.972000
  F     -9.356250    7.384690    4.673860
  F     -9.228630    5.352330    5.331580
  F     -7.836140    6.843810    6.062900
  C     -8.802130    7.207400    1.938420
  C     -8.764730    7.715750    0.667110
  C     -9.842800    8.374970    0.069180
  C     -9.800760    8.945850   -1.184550
  C    -10.862770    9.617890   -1.839020
  C    -10.541750   10.095760   -3.073150
  C     -9.204960    9.829020   -3.452260
  S     -8.373990    8.945010   -2.200680
  C     -8.577400   10.193040   -4.633590
  C     -9.136500   10.864550   -5.742880
  C     -8.257400   11.058600   -6.765140
  C     -6.956190   10.552640   -6.516850
  S     -6.889890    9.829800   -4.926140
  C     -5.910130   10.592070   -7.412500
  C     -4.620570   10.085310   -7.205510
  S     -4.101400    9.472130   -5.672240
  C     -2.514220    9.068670   -6.272140
  C     -2.404050    9.424620   -7.617930
  C     -3.577740    9.983650   -8.142650
  C     -3.827290   10.416290   -9.556170
  F     -4.935670    9.828670  -10.056280
  F     -4.057280   11.743710   -9.634050
  F     -2.853840   10.146410  -10.417040
  C     -1.143340    9.276560   -8.425300
  F     -0.082070    8.913880   -7.690630
  F     -1.258100    8.347890   -9.385490
  F     -0.790370   10.428780   -9.012710
  C     -1.616440    8.406490   -5.399890
  C     -1.878620    8.291610   -4.068200
  C     -1.096700    7.558940   -3.154910
  C     -1.414840    7.317030   -1.847070
  C     -2.614300    7.624530   -1.098360
  C     -3.891820    7.735700   -1.590760
  C     -4.987040    8.201850   -0.844120
  N     -5.898950    8.662990   -0.319290
  C     -4.285250    7.301060   -2.872400
  N     -4.673820    6.876580   -3.866170
  C     -2.268890    7.576960    0.315270
  C     -0.952040    7.064740    0.447320
  C     -0.388240    6.828030   -0.896370
  O      0.684280    6.337530   -1.175960
  C     -0.382090    6.805960    1.670140
  C     -1.145700    7.059980    2.816420
  C     -2.460550    7.569270    2.673160
  C     -3.034600    7.835860    1.437520
  S     -3.238200    7.770820    4.214700
  C     -1.807990    7.185330    5.023280
  C     -0.799360    6.853690    4.178060
  Br    -1.781240    7.077680    6.883750
  H     -3.108010    4.772730   -2.415690
  H      0.471850    3.128920    0.685010
  H     -1.212780    4.347720   -4.420320
  H     -3.878580    4.425040    3.801630
  H     -9.707460    7.326530    2.514030
  H     -7.846900    7.638360    0.097640
  H    -10.771230    8.456600    0.620130
  H    -11.827980    9.725590   -1.376800
  H    -11.220910   10.632180   -3.710480
  H    -10.164890   11.175900   -5.765380
  H     -8.499830   11.542750   -7.694120
  H     -6.124570   11.043130   -8.370580
  H     -0.733220    7.942670   -5.811600
  H     -2.743550    8.812850   -3.680870
  H     -0.130110    7.195570   -3.485090
  H      0.616820    6.404190    1.744060
  H     -4.038010    8.222910    1.373150
  H      0.152380    6.476710    4.506770

 Total Charge           Charge          ....    0
 Multiplicity           Mult            ....    1
 Number of Electrons    NEL             ....  672
 Basis Dimension        Dim             .... 1298

ORBITAL ENERGIES
----------------

  NO   OCC          E(Eh)            E(eV)
   0   2.0000    -482.885751    -13139.9893
   1   2.0000    -482.879410    -13139.8168
   2   2.0000     -88.982305     -2421.3316
   3   2.0000     -88.980748     -2421.2892
   4   2.0000     -88.978262     -2421.2216
   5   2.0000     -88.975243     -2421.1395
   6   2.0000     -88.969204     -2420.9751
   7   2.0000     -88.964790     -2420.8550
   8   2.0000     -62.563473     -1702.4387
   9   2.0000     -62.557062     -1702.2642
  10   2.0000     -56.397407     -1534.6515
  11   2.0000     -56.394722     -1534.5784
  12   2.0000     -56.394683     -1534.5774
  13   2.0000     -56.391020     -1534.4777
  14   2.0000     -56.388314     -1534.4040
  15   2.0000     -56.388249     -1534.4023
  16   2.0000     -24.810926      -675.1396
  17   2.0000     -24.806727      -675.0254
  18   2.0000     -24.806323      -675.0144
  19   2.0000     -24.805996      -675.0055
  20   2.0000     -24.801819      -674.8918
  21   2.0000     -24.801298      -674.8776
  22   2.0000     -24.801275      -674.8770
  23   2.0000     -24.801019      -674.8700
  24   2.0000     -24.799628      -674.8322
  25   2.0000     -24.798690      -674.8066
  26   2.0000     -24.798386      -674.7984
  27   2.0000     -24.797326      -674.7695
  28   2.0000     -19.231713      -523.3215
  29   2.0000     -19.221253      -523.0369
  30   2.0000     -14.425702      -392.5433
  31   2.0000     -14.421268      -392.4227
  32   2.0000     -14.421156      -392.4196
  33   2.0000     -14.419765      -392.3818
  34   2.0000     -10.530076      -286.5379
  35   2.0000     -10.528597      -286.4977
  36   2.0000     -10.526850      -286.4501
  37   2.0000     -10.525659      -286.4177
  38   2.0000     -10.379717      -282.4465
  39   2.0000     -10.370173      -282.1867
  40   2.0000     -10.358998      -281.8827
  41   2.0000     -10.358675      -281.8739
  42   2.0000     -10.347730      -281.5760
  43   2.0000     -10.346995      -281.5561
  44   2.0000     -10.346849      -281.5521
  45   2.0000     -10.346419      -281.5404
  46   2.0000     -10.339463      -281.3511
  47   2.0000     -10.336333      -281.2659
  48   2.0000     -10.336134      -281.2605
  49   2.0000     -10.333836      -281.1980
  50   2.0000     -10.333269      -281.1826
  51   2.0000     -10.332583      -281.1639
  52   2.0000     -10.331063      -281.1225
  53   2.0000     -10.330526      -281.1079
  54   2.0000     -10.329310      -281.0748
  55   2.0000     -10.329134      -281.0700
  56   2.0000     -10.328794      -281.0608
  57   2.0000     -10.328025      -281.0399
  58   2.0000     -10.327520      -281.0261
  59   2.0000     -10.326387      -280.9953
  60   2.0000     -10.324261      -280.9374
  61   2.0000     -10.323997      -280.9302
  62   2.0000     -10.321644      -280.8662
  63   2.0000     -10.319870      -280.8179
  64   2.0000     -10.319055      -280.7958
  65   2.0000     -10.318060      -280.7687
  66   2.0000     -10.315322      -280.6942
  67   2.0000     -10.313126      -280.6344
  68   2.0000     -10.311839      -280.5994
  69   2.0000     -10.311348      -280.5860
  70   2.0000     -10.310933      -280.5747
  71   2.0000     -10.308837      -280.5177
  72   2.0000     -10.308595      -280.5111
  73   2.0000     -10.307612      -280.4844
  74   2.0000     -10.307548      -280.4826
  75   2.0000     -10.307276      -280.4752
  76   2.0000     -10.307107      -280.4706
  77   2.0000     -10.305162      -280.4177
  78   2.0000     -10.304935      -280.4115
  79   2.0000     -10.301522      -280.3187
  80   2.0000     -10.301247      -280.3112
  81   2.0000     -10.300754      -280.2978
  82   2.0000     -10.300096      -280.2799
  83   2.0000     -10.298368      -280.2329
  84   2.0000     -10.298313      -280.2314
  85   2.0000     -10.298166      -280.2273
  86   2.0000     -10.297249      -280.2024
  87   2.0000     -10.296668      -280.1866
  88   2.0000     -10.296309      -280.1768
  89   2.0000     -10.295484      -280.1544
  90   2.0000      -8.792908      -239.2672
  91   2.0000      -8.786509      -239.0931
  92   2.0000      -8.077250      -219.7931
  93   2.0000      -8.073758      -219.6981
  94   2.0000      -8.073633      -219.6947
  95   2.0000      -8.071216      -219.6290
  96   2.0000      -8.065126      -219.4632
  97   2.0000      -8.060816      -219.3460
  98   2.0000      -6.629181      -180.3892
  99   2.0000      -6.622936      -180.2192
 100   2.0000      -6.614682      -179.9947
 101   2.0000      -6.614429      -179.9878
 102   2.0000      -6.608194      -179.8181
 103   2.0000      -6.607950      -179.8115
 104   2.0000      -6.046435      -164.5319
 105   2.0000      -6.043316      -164.4470
 106   2.0000      -6.043021      -164.4390
 107   2.0000      -6.042289      -164.4190
 108   2.0000      -6.040871      -164.3805
 109   2.0000      -6.039455      -164.3419
 110   2.0000      -6.039028      -164.3303
 111   2.0000      -6.038571      -164.3179
 112   2.0000      -6.036567      -164.2633
 113   2.0000      -6.036091      -164.2504
 114   2.0000      -6.034970      -164.2199
 115   2.0000      -6.034831      -164.2161
 116   2.0000      -6.032532      -164.1535
 117   2.0000      -6.030590      -164.1007
 118   2.0000      -6.030483      -164.0978
 119   2.0000      -6.026361      -163.9856
 120   2.0000      -6.026237      -163.9823
 121   2.0000      -6.021846      -163.8627
 122   2.0000      -2.745062       -74.6969
 123   2.0000      -2.741005       -74.5865
 124   2.0000      -2.740816       -74.5814
 125   2.0000      -2.738794       -74.5264
 126   2.0000      -2.734648       -74.4135
 127   2.0000      -2.734488       -74.4092
 128   2.0000      -2.729296       -74.2679
 129   2.0000      -2.729275       -74.2674
 130   2.0000      -2.722760       -74.0901
 131   2.0000      -2.722724       -74.0891
 132   2.0000      -1.398528       -38.0559
 133   2.0000      -1.397820       -38.0366
 134   2.0000      -1.392830       -37.9008
 135   2.0000      -1.392245       -37.8849
 136   2.0000      -1.301875       -35.4258
 137   2.0000      -1.301140       -35.4058
 138   2.0000      -1.296128       -35.2694
 139   2.0000      -1.295246       -35.2454
 140   2.0000      -1.294307       -35.2199
 141   2.0000      -1.292686       -35.1758
 142   2.0000      -1.292299       -35.1652
 143   2.0000      -1.288866       -35.0718
 144   2.0000      -1.147590       -31.2275
 145   2.0000      -1.135133       -30.8885
 146   2.0000      -1.030208       -28.0334
 147   2.0000      -1.026800       -27.9407
 148   2.0000      -1.023759       -27.8579
 149   2.0000      -1.020018       -27.7561
 150   2.0000      -1.018920       -27.7262
 151   2.0000      -1.016443       -27.6588
 152   2.0000      -1.015072       -27.6215
 153   2.0000      -1.003680       -27.3115
 154   2.0000      -0.999473       -27.1970
 155   2.0000      -0.996477       -27.1155
 156   2.0000      -0.994198       -27.0535
 157   2.0000      -0.993253       -27.0278
 158   2.0000      -0.950053       -25.8523
 159   2.0000      -0.947880       -25.7931
 160   2.0000      -0.936678       -25.4883
 161   2.0000      -0.934695       -25.4344
 162   2.0000      -0.919433       -25.0190
 163   2.0000      -0.913628       -24.8611
 164   2.0000      -0.912856       -24.8401
 165   2.0000      -0.910142       -24.7662
 166   2.0000      -0.899260       -24.4701
 167   2.0000      -0.898058       -24.4374
 168   2.0000      -0.889503       -24.2046
 169   2.0000      -0.888433       -24.1755
 170   2.0000      -0.886069       -24.1112
 171   2.0000      -0.880654       -23.9638
 172   2.0000      -0.873037       -23.7565
 173   2.0000      -0.862345       -23.4656
 174   2.0000      -0.854499       -23.2521
 175   2.0000      -0.845288       -23.0015
 176   2.0000      -0.844096       -22.9690
 177   2.0000      -0.837853       -22.7991
 178   2.0000      -0.832618       -22.6567
 179   2.0000      -0.830402       -22.5964
 180   2.0000      -0.815168       -22.1818
 181   2.0000      -0.795377       -21.6433
 182   2.0000      -0.791950       -21.5501
 183   2.0000      -0.779911       -21.2225
 184   2.0000      -0.778220       -21.1765
 185   2.0000      -0.776615       -21.1328
 186   2.0000      -0.767947       -20.8969
 187   2.0000      -0.766869       -20.8676
 188   2.0000      -0.756287       -20.5796
 189   2.0000      -0.746041       -20.3008
 190   2.0000      -0.730524       -19.8786
 191   2.0000      -0.722162       -19.6510
 192   2.0000      -0.716938       -19.5089
 193   2.0000      -0.711087       -19.3497
 194   2.0000      -0.709903       -19.3174
 195   2.0000      -0.705496       -19.1975
 196   2.0000      -0.700376       -19.0582
 197   2.0000      -0.695451       -18.9242
 198   2.0000      -0.693149       -18.8615
 199   2.0000      -0.691180       -18.8080
 200   2.0000      -0.687131       -18.6978
 201   2.0000      -0.680602       -18.5201
 202   2.0000      -0.678327       -18.4582
 203   2.0000      -0.678086       -18.4517
 204   2.0000      -0.677066       -18.4239
 205   2.0000      -0.676449       -18.4071
 206   2.0000      -0.675576       -18.3833
 207   2.0000      -0.674508       -18.3543
 208   2.0000      -0.674090       -18.3429
 209   2.0000      -0.671445       -18.2709
 210   2.0000      -0.670256       -18.2386
 211   2.0000      -0.660261       -17.9666
 212   2.0000      -0.657700       -17.8969
 213   2.0000      -0.652530       -17.7562
 214   2.0000      -0.644373       -17.5343
 215   2.0000      -0.641901       -17.4670
 216   2.0000      -0.635931       -17.3046
 217   2.0000      -0.630220       -17.1492
 218   2.0000      -0.628300       -17.0969
 219   2.0000      -0.619046       -16.8451
 220   2.0000      -0.615562       -16.7503
 221   2.0000      -0.613383       -16.6910
 222   2.0000      -0.610467       -16.6117
 223   2.0000      -0.599875       -16.3234
 224   2.0000      -0.597293       -16.2532
 225   2.0000      -0.590073       -16.0567
 226   2.0000      -0.585950       -15.9445
 227   2.0000      -0.583805       -15.8861
 228   2.0000      -0.581414       -15.8211
 229   2.0000      -0.573092       -15.5946
 230   2.0000      -0.569262       -15.4904
 231   2.0000      -0.565687       -15.3931
 232   2.0000      -0.560605       -15.2548
 233   2.0000      -0.559873       -15.2349
 234   2.0000      -0.558994       -15.2110
 235   2.0000      -0.556303       -15.1378
 236   2.0000      -0.555877       -15.1262
 237   2.0000      -0.555613       -15.1190
 238   2.0000      -0.553011       -15.0482
 239   2.0000      -0.551946       -15.0192
 240   2.0000      -0.551770       -15.0144
 241   2.0000      -0.548851       -14.9350
 242   2.0000      -0.546246       -14.8641
 243   2.0000      -0.544573       -14.8186
 244   2.0000      -0.543964       -14.8020
 245   2.0000      -0.542786       -14.7700
 246   2.0000      -0.538176       -14.6445
 247   2.0000      -0.532173       -14.4812
 248   2.0000      -0.528653       -14.3854
 249   2.0000      -0.527210       -14.3461
 250   2.0000      -0.526642       -14.3307
 251   2.0000      -0.524238       -14.2652
 252   2.0000      -0.523138       -14.2353
 253   2.0000      -0.522782       -14.2256
 254   2.0000      -0.520287       -14.1577
 255   2.0000      -0.517468       -14.0810
 256   2.0000      -0.516961       -14.0672
 257   2.0000      -0.515294       -14.0219
 258   2.0000      -0.514875       -14.0105
 259   2.0000      -0.511323       -13.9138
 260   2.0000      -0.510107       -13.8807
 261   2.0000      -0.509318       -13.8593
 262   2.0000      -0.507207       -13.8018
 263   2.0000      -0.507083       -13.7984
 264   2.0000      -0.503513       -13.7013
 265   2.0000      -0.500640       -13.6231
 266   2.0000      -0.500513       -13.6197
 267   2.0000      -0.500104       -13.6085
 268   2.0000      -0.498321       -13.5600
 269   2.0000      -0.497516       -13.5381
 270   2.0000      -0.496640       -13.5143
 271   2.0000      -0.493760       -13.4359
 272   2.0000      -0.492310       -13.3964
 273   2.0000      -0.491952       -13.3867
 274   2.0000      -0.491824       -13.3832
 275   2.0000      -0.490941       -13.3592
 276   2.0000      -0.488838       -13.3020
 277   2.0000      -0.486073       -13.2267
 278   2.0000      -0.484934       -13.1957
 279   2.0000      -0.482743       -13.1361
 280   2.0000      -0.482490       -13.1292
 281   2.0000      -0.481675       -13.1070
 282   2.0000      -0.478830       -13.0296
 283   2.0000      -0.477553       -12.9949
 284   2.0000      -0.476078       -12.9547
 285   2.0000      -0.469736       -12.7822
 286   2.0000      -0.465863       -12.6768
 287   2.0000      -0.464853       -12.6493
 288   2.0000      -0.461516       -12.5585
 289   2.0000      -0.461226       -12.5506
 290   2.0000      -0.458001       -12.4628
 291   2.0000      -0.455661       -12.3992
 292   2.0000      -0.454789       -12.3754
 293   2.0000      -0.452514       -12.3135
 294   2.0000      -0.451382       -12.2827
 295   2.0000      -0.448170       -12.1953
 296   2.0000      -0.447815       -12.1857
 297   2.0000      -0.446363       -12.1461
 298   2.0000      -0.444650       -12.0995
 299   2.0000      -0.442000       -12.0274
 300   2.0000      -0.441790       -12.0217
 301   2.0000      -0.438222       -11.9246
 302   2.0000      -0.434462       -11.8223
 303   2.0000      -0.432890       -11.7795
 304   2.0000      -0.430373       -11.7110
 305   2.0000      -0.429096       -11.6763
 306   2.0000      -0.426315       -11.6006
 307   2.0000      -0.422864       -11.5067
 308   2.0000      -0.416519       -11.3341
 309   2.0000      -0.414436       -11.2774
 310   2.0000      -0.409757       -11.1501
 311   2.0000      -0.406168       -11.0524
 312   2.0000      -0.404003       -10.9935
 313   2.0000      -0.402789       -10.9605
 314   2.0000      -0.394341       -10.7306
 315   2.0000      -0.387060       -10.5324
 316   2.0000      -0.379758       -10.3337
 317   2.0000      -0.375069       -10.2062
 318   2.0000      -0.368141       -10.0176
 319   2.0000      -0.367835       -10.0093
 320   2.0000      -0.361928        -9.8486
 321   2.0000      -0.359839        -9.7917
 322   2.0000      -0.354317        -9.6415
 323   2.0000      -0.352736        -9.5984
 324   2.0000      -0.346404        -9.4261
 325   2.0000      -0.342978        -9.3329
 326   2.0000      -0.340975        -9.2784
 327   2.0000      -0.338768        -9.2183
 328   2.0000      -0.324463        -8.8291
 329   2.0000      -0.323107        -8.7922
 330   2.0000      -0.313238        -8.5236
 331   2.0000      -0.299033        -8.1371
 332   2.0000      -0.293031        -7.9738
 333   2.0000      -0.292331        -7.9547
 334   2.0000      -0.275095        -7.4857
 335   2.0000      -0.228947        -6.2300
 336   0.0000      -0.121760        -3.3133
 337   0.0000      -0.106104        -2.8872
 338   0.0000      -0.085066        -2.3148
 339   0.0000      -0.076091        -2.0705
 340   0.0000      -0.059580        -1.6212

MULLIKEN ATOMIC CHARGES
-----------------------
   0 C :    0.334325
   1 C :   -0.362651
   2 C :   -0.206979
   3 N :    0.168005
   4 C :   -0.216060
   5 N :    0.178006
   6 C :    0.024541
   7 C :   -0.038531
   8 C :   -0.059738
   9 C :    0.098564
  10 C :   -0.065678
  11 C :   -0.026100
  12 S :    0.203661
  13 C :   -0.117854
  14 C :    0.030642
  15 Br:    0.024920
  16 C :    0.178697
  17 O :   -0.191838
  18 C :   -0.078773
  19 C :   -0.032608
  20 C :   -0.095202
  21 S :    0.193547
  22 C :   -0.063314
  23 C :   -0.073172
  24 C :   -0.057955
  25 C :    0.536891
  26 F :   -0.168309
  27 F :   -0.156071
  28 F :   -0.132812
  29 C :    0.519160
  30 F :   -0.156894
  31 F :   -0.156834
  32 F :   -0.157596
  33 C :   -0.023365
  34 C :    0.037870
  35 C :   -0.008184
  36 C :   -0.018011
  37 C :    0.047064
  38 C :    0.024784
  39 C :   -0.035956
  40 S :    0.130942
  41 C :   -0.043540
  42 C :    0.044452
  43 C :    0.026400
  44 C :   -0.027767
  45 S :    0.097460
  46 C :    0.003674
  47 C :   -0.085491
  48 S :    0.126825
  49 C :   -0.101322
  50 C :   -0.049810
  51 C :   -0.067493
  52 C :    0.510987
  53 F :   -0.172307
  54 F :   -0.170223
  55 F :   -0.133161
  56 C :    0.513109
  57 F :   -0.154193
  58 F :   -0.154612
  59 F :   -0.156462
  60 C :    0.030843
  61 C :   -0.015523
  62 C :    0.016351
  63 C :   -0.094344
  64 C :    0.264875
  65 C :   -0.346460
  66 C :   -0.100874
  67 N :    0.096936
  68 C :   -0.229696
  69 N :    0.165694
  70 C :    0.024028
  71 C :    0.000187
  72 C :    0.135456
  73 O :   -0.150386
  74 C :   -0.077904
  75 C :    0.113673
  76 C :   -0.096463
  77 C :   -0.030324
  78 S :    0.180778
  79 C :   -0.123071
  80 C :    0.043667
  81 Br:    0.055260
  82 H :   -0.005417
  83 H :   -0.009251
  84 H :   -0.001252
  85 H :    0.032916
  86 H :    0.005369
  87 H :    0.025964
  88 H :   -0.006140
  89 H :   -0.001870
  90 H :   -0.004124
  91 H :   -0.006884
  92 H :   -0.001723
  93 H :    0.012030
  94 H :    0.021432
  95 H :    0.034710
  96 H :    0.018378
  97 H :   -0.005782
  98 H :   -0.013529
  99 H :    0.004816
Sum of atomic charges:   -0.0000000

LOEWDIN ATOMIC CHARGES
----------------------
   0 C :    0.076240
   1 C :   -0.138193
   2 C :   -0.020335
   3 N :   -0.051746
   4 C :   -0.030901
   5 N :   -0.040035
   6 C :   -0.021090
   7 C :   -0.062041
   8 C :    0.024315
   9 C :   -0.033826
  10 C :   -0.135212
  11 C :   -0.007996
  12 S :    0.453545
  13 C :   -0.268899
  14 C :   -0.071279
  15 Br:    0.139530
  16 C :    0.085861
  17 O :   -0.168794
  18 C :   -0.092410
  19 C :    0.044986
  20 C :   -0.178077
  21 S :    0.557963
  22 C :   -0.137118
  23 C :   -0.113829
  24 C :   -0.072322
  25 C :    0.163930
  26 F :   -0.059219
  27 F :   -0.053358
  28 F :   -0.032331
  29 C :    0.161840
  30 F :   -0.051959
  31 F :   -0.060058
  32 F :   -0.054657
  33 C :   -0.046067
  34 C :    0.000121
  35 C :   -0.036888
  36 C :   -0.136149
  37 C :   -0.018105
  38 C :   -0.027883
  39 C :   -0.158726
  40 S :    0.425051
  41 C :   -0.183737
  42 C :   -0.020525
  43 C :   -0.033187
  44 C :   -0.130050
  45 S :    0.397753
  46 C :   -0.086726
  47 C :   -0.132012
  48 S :    0.496193
  49 C :   -0.169919
  50 C :   -0.083760
  51 C :   -0.119150
  52 C :    0.165821
  53 F :   -0.067420
  54 F :   -0.068584
  55 F :   -0.033500
  56 C :    0.161561
  57 F :   -0.050347
  58 F :   -0.055629
  59 F :   -0.054151
  60 C :    0.012218
  61 C :   -0.047409
  62 C :    0.061943
  63 C :   -0.094179
  64 C :    0.073062
  65 C :   -0.147180
  66 C :    0.001772
  67 N :   -0.077400
  68 C :   -0.027966
  69 N :   -0.062177
  70 C :   -0.024963
  71 C :   -0.052113
  72 C :    0.082868
  73 O :   -0.143319
  74 C :    0.019247
  75 C :   -0.033371
  76 C :   -0.149155
  77 C :   -0.013785
  78 S :    0.440119
  79 C :   -0.263676
  80 C :   -0.072532
  81 Br:    0.166435
  82 H :    0.042837
  83 H :    0.040646
  84 H :    0.038948
  85 H :    0.043106
  86 H :    0.031966
  87 H :    0.018300
  88 H :    0.037121
  89 H :    0.038106
  90 H :    0.035022
  91 H :    0.035235
  92 H :    0.038023
  93 H :    0.039732
  94 H :    0.039359
  95 H :    0.022456
  96 H :    0.045370
  97 H :    0.042440
  98 H :    0.035116
  99 H :    0.041268

  Mayer bond orders larger than 0.100000
B(  0-C ,  1-C ) :   1.6299 B(  0-C ,  6-C ) :   1.0012 B(  0-C , 18-C ) :   1.0658
B(  1-C ,  2-C ) :   1.1566 B(  1-C ,  4-C ) :   1.1393 B(  2-C ,  3-N ) :   2.9682
B(  4-C ,  5-N ) :   2.9616 B(  6-C ,  7-C ) :   1.2559 B(  6-C , 11-C ) :   1.4135
B(  7-C ,  8-C ) :   1.4109 B(  7-C , 16-C ) :   0.9699 B(  8-C ,  9-C ) :   1.2402
B(  8-C , 82-H ) :   1.0146 B(  9-C , 10-C ) :   1.3072 B(  9-C , 14-C ) :   1.1787
B( 10-C , 11-C ) :   1.3127 B( 10-C , 12-S ) :   1.0967 B( 11-C , 83-H ) :   0.9802
B( 12-S , 13-C ) :   1.0972 B( 13-C , 14-C ) :   1.5992 B( 13-C , 15-Br) :   1.0199
B( 14-C , 84-H ) :   1.0010 B( 16-C , 17-O ) :   2.0707 B( 16-C , 18-C ) :   0.9756
B( 18-C , 19-C ) :   1.5578 B( 19-C , 20-C ) :   1.2176 B( 19-C , 85-H ) :   0.9145
B( 20-C , 21-S ) :   1.1256 B( 20-C , 24-C ) :   1.4092 B( 21-S , 22-C ) :   1.1344
B( 22-C , 23-C ) :   1.3951 B( 22-C , 33-C ) :   1.1821 B( 23-C , 24-C ) :   1.4130
B( 23-C , 29-C ) :   0.9357 B( 24-C , 25-C ) :   0.9357 B( 25-C , 26-F ) :   1.1242
B( 25-C , 27-F ) :   1.1443 B( 25-C , 28-F ) :   1.1709 B( 29-C , 30-F ) :   1.1365
B( 29-C , 31-F ) :   1.1828 B( 29-C , 32-F ) :   1.1567 B( 33-C , 34-C ) :   1.5734
B( 33-C , 86-H ) :   0.9817 B( 34-C , 35-C ) :   1.1936 B( 34-C , 87-H ) :   0.9547
B( 35-C , 36-C ) :   1.5235 B( 35-C , 88-H ) :   0.9850 B( 36-C , 37-C ) :   1.1472
B( 36-C , 40-S ) :   1.0545 B( 37-C , 38-C ) :   1.5802 B( 37-C , 89-H ) :   1.0003
B( 38-C , 39-C ) :   1.1919 B( 38-C , 90-H ) :   0.9946 B( 39-C , 40-S ) :   1.0786
B( 39-C , 41-C ) :   1.4773 B( 41-C , 42-C ) :   1.2014 B( 41-C , 45-S ) :   1.0436
B( 42-C , 43-C ) :   1.5726 B( 42-C , 91-H ) :   0.9923 B( 43-C , 44-C ) :   1.1591
B( 43-C , 92-H ) :   1.0002 B( 44-C , 45-S ) :   1.0687 B( 44-C , 46-C ) :   1.5145
B( 46-C , 47-C ) :   1.2411 B( 46-C , 93-H ) :   0.9479 B( 47-C , 48-S ) :   1.1475
B( 47-C , 51-C ) :   1.3924 B( 48-S , 49-C ) :   1.1128 B( 49-C , 50-C ) :   1.4418
B( 49-C , 60-C ) :   1.1829 B( 50-C , 51-C ) :   1.3923 B( 50-C , 56-C ) :   0.9353
B( 51-C , 52-C ) :   0.9426 B( 52-C , 53-F ) :   1.1382 B( 52-C , 54-F ) :   1.1451
B( 52-C , 55-F ) :   1.1744 B( 56-C , 57-F ) :   1.1410 B( 56-C , 58-F ) :   1.1789
B( 56-C , 59-F ) :   1.1654 B( 60-C , 61-C ) :   1.5790 B( 60-C , 94-H ) :   0.9833
B( 61-C , 62-C ) :   1.1614 B( 61-C , 95-H ) :   0.9519 B( 62-C , 63-C ) :   1.5863
B( 62-C , 96-H ) :   0.9619 B( 63-C , 64-C ) :   1.0423 B( 63-C , 72-C ) :   0.9436
B( 64-C , 65-C ) :   1.6032 B( 64-C , 70-C ) :   1.0364 B( 65-C , 66-C ) :   1.1510
B( 65-C , 68-C ) :   1.1801 B( 66-C , 67-N ) :   2.8408 B( 68-C , 69-N ) :   2.9428
B( 70-C , 71-C ) :   1.2753 B( 70-C , 77-C ) :   1.3914 B( 71-C , 72-C ) :   0.9168
B( 71-C , 74-C ) :   1.4167 B( 72-C , 73-O ) :   2.2275 B( 74-C , 75-C ) :   1.2289
B( 74-C , 97-H ) :   1.0263 B( 75-C , 76-C ) :   1.3029 B( 75-C , 80-C ) :   1.1731
B( 76-C , 77-C ) :   1.3213 B( 76-C , 78-S ) :   1.0880 B( 77-C , 98-H ) :   0.9860
B( 78-S , 79-C ) :   1.0875 B( 79-C , 80-C ) :   1.5953 B( 79-C , 81-Br) :   1.0424
B( 80-C , 99-H ) :   1.0029

-----------------------------------------------------------------------------
         ABSORPTION SPECTRUM VIA TRANSITION ELECTRIC DIPOLE MOMENTS
-----------------------------------------------------------------------------
State   Energy  Wavelength   fosc         T2         TX        TY        TZ
        (cm-1)    (nm)                  (au**2)     (au)      (au)      (au)
-----------------------------------------------------------------------------
   0    8664.9   1154.1   0.160054390   6.08108   1.25941   1.07626  -1.82665
   1   13138.0    761.2   0.422948606  10.59828  -1.89958   1.68489  -2.03740
   2   17541.5    570.1   0.248432544   4.66249  -1.75008   0.09458   1.26126
   3   19053.7    524.8   0.694240873  11.99520  -2.40639   1.74724  -1.77528
   4   20266.1    493.4   0.404778902   6.57543  -0.30564   1.08481  -2.30330
   5   21321.6    469.0   0.018366890   0.28359  -0.51247  -0.11193  -0.09187
   6   21980.1    455.0   0.318821878   4.77522  -1.45472  -0.16057   1.62273
   7   22831.3    438.0   0.067580756   0.97447  -0.87325   0.14933   0.43543
   8   23154.5    431.9   0.143006472   2.03327  -0.10660   0.56705  -1.30398
   9   23686.4    422.2   0.297826742   4.13942   1.71179   0.10316  -1.09478
  10   24386.4    410.1   0.025633089   0.34604  -0.33762   0.17956   0.44700
  11   24733.5    404.3   0.176809675   2.35340   0.08938  -0.01538  -1.53140
  12   25105.9    398.3   0.377818333   4.95430  -1.14883   0.00961   1.90641
  13   26328.5    379.8   0.127551792   1.59491  -0.91529   0.37162  -0.78680
  14   26543.9    376.7   0.326437546   4.04865   0.06414   0.37736  -1.97538
  15   26714.9    374.3   0.176387673   2.17365  -1.30988   0.67564   0.03723
  16   27295.2    366.4   0.012161611   0.14668   0.11246   0.08291  -0.35660
  17   27551.3    363.0   0.042093744   0.50298   0.61976  -0.03505   0.34300
  18   27937.3    357.9   0.011906564   0.14031   0.30442   0.13658   0.17023
  19   28217.0    354.4   0.198366026   2.31436  -0.81742   0.26310   1.25577
  20   28514.5    350.7   0.021752315   0.25114   0.30413   0.22318   0.32991
  21   28774.8    347.5   0.024759677   0.28327   0.50441   0.16980  -0.00311
  22   29221.9    342.2   0.008128265   0.09157  -0.19323   0.09168  -0.21408
  23   29416.2    339.9   0.124377515   1.39197  -0.31820   0.09032   1.13250
  24   29899.8    334.5   0.065332580   0.71934   0.69458  -0.45458   0.17394
  25   30169.2    331.5   0.006276532   0.06849  -0.17973   0.15640   0.10830
  26   30425.5    328.7   0.022744844   0.24610  -0.05591  -0.13689   0.47354
  27   30722.6    325.5   0.168191712   1.80228   0.77534  -0.35883   1.03555
  28   31034.0    322.2   0.037773618   0.40071  -0.18055   0.24239  -0.55620
  29   31123.9    321.3   0.094686516   1.00154   0.32495  -0.40887   0.85368
  30   31374.8    318.7   0.109941648   1.15360  -0.37507   0.13275  -0.99765
  31   31675.9    315.7   0.115673898   1.20221  -0.18889   0.21552   1.05834
  32   31916.7    313.3   0.051488905   0.53109   0.25223  -0.17776   0.66021
  33   32047.8    312.0   0.008512018   0.08744   0.15081  -0.22503   0.11856
  34   32096.9    311.6   0.001503457   0.01542  -0.05190   0.10828  -0.03164
  35   32358.0    309.0   0.026912671   0.27381  -0.00519  -0.03240  -0.52224
  36   32408.5    308.6   0.061511539   0.62485   0.55093  -0.09536  -0.55878
  37   32768.7    305.2   0.080101739   0.80474  -0.28708   0.22750  -0.81888
  38   33174.0    301.4   0.156831029   1.55636  -0.38702   0.19994  -1.16901
  39   33267.4    300.6   0.073730449   0.72963  -0.33439   0.42037  -0.66416
  40   33367.6    299.7   0.009115732   0.08994  -0.02298  -0.29851  -0.01737
  41   33692.9    296.8   0.026913708   0.26297   0.06276  -0.12997   0.49208
  42   33767.2    296.1   0.067868655   0.66168  -0.09021   0.05532   0.80653
  43   34281.4    291.7   0.002456419   0.02359   0.08557  -0.08688   0.09337
  44   34425.1    290.5   0.017516028   0.16751  -0.23540  -0.32358   0.08595
  45   35064.3    285.2   0.041694774   0.39146   0.14226   0.24781  -0.55661
  46   35653.9    280.5   0.049313681   0.45534  -0.45998   0.07362   0.48820
  47   35869.3    278.8   0.131969154   1.21122   0.19788   0.04469  -1.08170
  48   35971.2    278.0   0.165378172   1.51356  -0.66347   0.12537  -1.02842
  49   36251.6    275.8   0.045223503   0.41069  -0.38388   0.30719   0.41104
  50   36270.4    275.7   0.120159028   1.09063   0.78295  -0.05809  -0.68866
  51   36536.3    273.7   0.105868265   0.95393   0.64340  -0.07255  -0.73123
  52   36861.2    271.3   0.066104169   0.59038  -0.53284   0.28714  -0.47330
  53   37015.4    270.2   0.041052759   0.36512   0.50491  -0.00395  -0.33193
  54   37259.0    268.4   0.053490513   0.47263   0.23663  -0.26782   0.58729
  55   37458.6    267.0   0.128378835   1.12828   0.60510  -0.29894   0.82023
  56   37562.4    266.2   0.010632399   0.09319  -0.14715   0.03325   0.26538
  57   37738.1    265.0   0.120100617   1.04771   0.11172  -0.12648   1.00957
  58   38022.7    263.0   0.027893918   0.24151  -0.47488   0.12220   0.03269
  59   38253.4    261.4   0.238961257   2.05652   1.26134  -0.43064  -0.52923
  60   38413.0    260.3   0.023153052   0.19843   0.43254  -0.07013  -0.08011
  61   38846.3    257.4   0.044268105   0.37516   0.58650  -0.12800   0.12164
  62   38931.1    256.9   0.007987646   0.06755  -0.12369   0.22259   0.05196
  63   39050.8    256.1   0.022715891   0.19150  -0.26425   0.09043   0.33689
  64   39273.5    254.6   0.045512684   0.38151   0.22377  -0.03072  -0.57489
  65   39478.7    253.3   0.050402856   0.42031   0.23686  -0.25435   0.54728
  66   39766.5    251.5   0.053582802   0.44359  -0.58823   0.24638   0.19202
  67   40164.8    249.0   0.011270389   0.09238   0.30198  -0.03164  -0.01365

FINAL SINGLE POINT ENERGY    -11244.240674682018

DIPOLE MOMENT
-------------
                                X             Y             Z
Electronic contribution:     75.37446     -34.01030      34.13918
Nuclear contribution   :    -77.83668      35.81240     -35.62773
                        -----------------------------------------
Total Dipole Moment    :     -2.46222       1.80210      -1.48855
                        -----------------------------------------
Magnitude (a.u.)       :      3.39497
Magnitude (Debye)      :      8.62934

Rotational constants in cm-1:     0.000813     0.000437     0.000315
Rotational constants in MHz :    24.359342    13.091738     9.443721

                             ****ORCA TERMINATED NORMALLY****
TOTAL RUN TIME: 0 days 0 hours 17 minutes 1 seconds 222 msec
