                         Program Version 4.2.0 -  RELEASE  -
|  1> # ORCA input file
|  2> # SCF done       -194.987874563205          0.000496538451
|  3> ! CAM-B3LYP def2-SVP def2/J RIJCOSX Grid4 TightSCF
|  4> %maxcore 5000
|  5> %tddft
|  6>     Mode sTDDFT
|  7>     Ethresh 5.0
|  8>     maxcore 5000
|  9> end
| 10>
| 11> %pal
| 12>   nprocs 6
| 13>   end
| 14> * xyz 0 1
| 15>    C       -2.29703        -0.78360        -1.67773
| 16>    C       -2.00303        -1.81307        -0.81669
| 17>    C       -0.90261        -2.67908        -0.96332
| 18>    N       -0.02194        -3.41297        -1.03551
| 19>    C       -2.76257        -2.12294         0.32803
| 20>    N       -3.34820        -2.40788         1.27416
| 21>    C       -1.52420        -0.41459        -2.86260
| 22>    C       -2.12987         0.71465        -3.47229
| 23>    C       -1.63602         1.29486        -4.61466
| 24>    C       -0.48924         0.73333        -5.18785
| 25>    C        0.10819        -0.39126        -4.57349
| 26>    C       -0.39084        -0.97723        -3.41457
| 27>    S        1.51077        -0.92674        -5.44718
| 28>    C        1.27716         0.34959        -6.61205
| 29>    C        0.20569         1.13832        -6.36018
| 30>   Br        2.47044         0.52214        -8.04946
| 31>    C       -3.31408         1.09253        -2.69060
| 32>    O       -4.08712         2.02365        -2.91167
| 33>    C       -3.40320         0.13446        -1.59043
| 34>    C       -4.44580         0.17083        -0.68852
| 35>    N       -5.39060         1.10920        -0.80597
| 36>    C       -6.51106         1.25452        -0.06436
| 37>    S       -6.89548         0.16374         1.23079
| 38>    C       -8.37882         1.03648         1.47952
| 39>    N       -9.19076         0.60037         2.52593
| 40>    O      -10.20160         1.23795         2.77909
| 41>    O       -8.82341        -0.38870         3.13874
| 42>    C       -8.56679         2.08363         0.61738
| 43>    C       -7.49273         2.24236        -0.28505
| 44>    C       -7.37483         3.24491        -1.29122
| 45>    C       -8.38906         4.03629        -1.74497
| 46>    C       -8.21078         4.96501        -2.78183
| 47>    C       -9.23323         5.62038        -3.42897
| 48>    C       -9.12133         6.49967        -4.53233
| 49>    C      -10.31720         6.89812        -5.05743
| 50>    C      -11.43602         6.35770        -4.39558
| 51>    S      -10.92398         5.36553        -3.04486
| 52>    C      -12.78056         6.44475        -4.71766
| 53>    C      -13.41659         7.05738        -5.81622
| 54>    C      -14.76006         6.81715        -5.87433
| 55>    C      -15.25883         6.00753        -4.82651
| 56>    S      -13.95167         5.60725        -3.72958
| 57>    C      -16.53917         5.51636        -4.69076
| 58>    C      -16.99115         4.67456        -3.66729
| 59>    S      -15.99755         4.32530        -2.27799
| 60>    C      -17.19097         3.25030        -1.61052
| 61>    C      -18.30997         3.18381        -2.43907
| 62>    C      -18.20598         3.98219        -3.57815
| 63>    C      -19.29422         4.06144        -4.60196
| 64>    C      -20.25465         2.88569        -4.45595
| 65>    C      -20.70520         2.73690        -3.00348
| 66>    O      -21.73480         1.76844        -2.98208
| 67>    C      -22.44589         1.68402        -1.77400
| 68>    C      -19.50525         2.33666        -2.13326
| 69>    C      -16.90311         2.57576        -0.39953
| 70>    C      -15.81951         2.91394         0.34673
| 71>    C      -15.33081         2.28876         1.51296
| 72>    S      -15.90630         0.74785         2.08646
| 73>    C      -14.74150         0.74326         3.38040
| 74>    C      -13.97594         1.89474         3.36695
| 75>    C      -14.30121         2.76384         2.31536
| 76>    C      -13.64556         4.09050         2.09118
| 77>    C      -12.62475         4.47388         3.17078
| 78>    C      -11.19920         4.25177         2.68459
| 79>    O      -10.88215         4.02182         1.54567
| 80>    O      -10.32772         4.46192         3.67177
| 81>    C       -8.94438         4.37149         3.37018
| 82>    C      -12.88852         3.77857         4.50885
| 83>    C      -12.90737         2.26077         4.34293
| 84>    C      -14.64638        -0.36147         4.28907
| 85>    C      -15.42513        -1.44183         4.25870
| 86>    H       -2.11900         2.15232        -5.05642
| 87>    H        0.09986        -1.83508        -2.98630
| 88>    H       -0.08437         1.97079        -6.97497
| 89>    H       -4.54630        -0.54431         0.11696
| 90>    H       -5.23409         1.75414        -1.60315
| 91>    H       -9.43758         2.71606         0.66051
| 92>    H       -6.40720         3.35686        -1.76323
| 93>    H       -9.38501         3.92753        -1.33739
| 94>    H       -7.20595         5.13939        -3.14468
| 95>    H       -8.16082         6.79493        -4.91662
| 96>    H      -10.42004         7.55078        -5.90620
| 97>    H      -12.87298         7.63390        -6.54337
| 98>    H      -15.40664         7.18520        -6.65195
| 99>    H      -17.24690         5.77380        -5.46742
|100>    H      -18.86712         4.06606        -5.60693
|101>    H      -19.83960         5.00267        -4.47186
|102>    H      -19.76649         1.95950        -4.76205
|103>    H      -21.13180         3.02826        -5.08720
|104>    H      -21.10467         3.70225        -2.64460
|105>    H      -23.28640         1.01842        -1.96207
|106>    H      -22.82315         2.66745        -1.46602
|107>    H      -21.83649         1.26919        -0.96347
|108>    H      -19.27247         1.28553        -2.33416
|109>    H      -19.75437         2.42579        -1.07344
|110>    H      -17.55880         1.77545        -0.08702
|111>    H      -15.23062         3.75919         0.01169
|112>    H      -14.42384         4.85632         2.03638
|113>    H      -13.12992         4.07687         1.12535
|114>    H      -12.68099         5.55762         3.33588
|115>    H       -8.43053         5.04956         4.04882
|116>    H       -8.76101         4.65455         2.33155
|117>    H       -8.59929         3.35001         3.53587
|118>    H      -13.85721         4.11225         4.88977
|119>    H      -12.11945         4.06675         5.22496
|120>    H      -13.08050         1.78415         5.30842
|121>    H      -11.94246         1.91849         3.96053
|122>    H      -13.86395        -0.28048         5.03138
|123>    H      -16.20565        -1.55169         3.52370
|124>    H      -15.30300        -2.24527         4.96269
|125> *
|126>
|127>                          ****END OF INPUT****

CARTESIAN COORDINATES (ANGSTROEM)
---------------------------------
  C     -2.297030   -0.783600   -1.677730
  C     -2.003030   -1.813070   -0.816690
  C     -0.902610   -2.679080   -0.963320
  N     -0.021940   -3.412970   -1.035510
  C     -2.762570   -2.122940    0.328030
  N     -3.348200   -2.407880    1.274160
  C     -1.524200   -0.414590   -2.862600
  C     -2.129870    0.714650   -3.472290
  C     -1.636020    1.294860   -4.614660
  C     -0.489240    0.733330   -5.187850
  C      0.108190   -0.391260   -4.573490
  C     -0.390840   -0.977230   -3.414570
  S      1.510770   -0.926740   -5.447180
  C      1.277160    0.349590   -6.612050
  C      0.205690    1.138320   -6.360180
  Br     2.470440    0.522140   -8.049460
  C     -3.314080    1.092530   -2.690600
  O     -4.087120    2.023650   -2.911670
  C     -3.403200    0.134460   -1.590430
  C     -4.445800    0.170830   -0.688520
  N     -5.390600    1.109200   -0.805970
  C     -6.511060    1.254520   -0.064360
  S     -6.895480    0.163740    1.230790
  C     -8.378820    1.036480    1.479520
  N     -9.190760    0.600370    2.525930
  O    -10.201600    1.237950    2.779090
  O     -8.823410   -0.388700    3.138740
  C     -8.566790    2.083630    0.617380
  C     -7.492730    2.242360   -0.285050
  C     -7.374830    3.244910   -1.291220
  C     -8.389060    4.036290   -1.744970
  C     -8.210780    4.965010   -2.781830
  C     -9.233230    5.620380   -3.428970
  C     -9.121330    6.499670   -4.532330
  C    -10.317200    6.898120   -5.057430
  C    -11.436020    6.357700   -4.395580
  S    -10.923980    5.365530   -3.044860
  C    -12.780560    6.444750   -4.717660
  C    -13.416590    7.057380   -5.816220
  C    -14.760060    6.817150   -5.874330
  C    -15.258830    6.007530   -4.826510
  S    -13.951670    5.607250   -3.729580
  C    -16.539170    5.516360   -4.690760
  C    -16.991150    4.674560   -3.667290
  S    -15.997550    4.325300   -2.277990
  C    -17.190970    3.250300   -1.610520
  C    -18.309970    3.183810   -2.439070
  C    -18.205980    3.982190   -3.578150
  C    -19.294220    4.061440   -4.601960
  C    -20.254650    2.885690   -4.455950
  C    -20.705200    2.736900   -3.003480
  O    -21.734800    1.768440   -2.982080
  C    -22.445890    1.684020   -1.774000
  C    -19.505250    2.336660   -2.133260
  C    -16.903110    2.575760   -0.399530
  C    -15.819510    2.913940    0.346730
  C    -15.330810    2.288760    1.512960
  S    -15.906300    0.747850    2.086460
  C    -14.741500    0.743260    3.380400
  C    -13.975940    1.894740    3.366950
  C    -14.301210    2.763840    2.315360
  C    -13.645560    4.090500    2.091180
  C    -12.624750    4.473880    3.170780
  C    -11.199200    4.251770    2.684590
  O    -10.882150    4.021820    1.545670
  O    -10.327720    4.461920    3.671770
  C     -8.944380    4.371490    3.370180
  C    -12.888520    3.778570    4.508850
  C    -12.907370    2.260770    4.342930
  C    -14.646380   -0.361470    4.289070
  C    -15.425130   -1.441830    4.258700
  H     -2.119000    2.152320   -5.056420
  H      0.099860   -1.835080   -2.986300
  H     -0.084370    1.970790   -6.974970
  H     -4.546300   -0.544310    0.116960
  H     -5.234090    1.754140   -1.603150
  H     -9.437580    2.716060    0.660510
  H     -6.407200    3.356860   -1.763230
  H     -9.385010    3.927530   -1.337390
  H     -7.205950    5.139390   -3.144680
  H     -8.160820    6.794930   -4.916620
  H    -10.420040    7.550780   -5.906200
  H    -12.872980    7.633900   -6.543370
  H    -15.406640    7.185200   -6.651950
  H    -17.246900    5.773800   -5.467420
  H    -18.867120    4.066060   -5.606930
  H    -19.839600    5.002670   -4.471860
  H    -19.766490    1.959500   -4.762050
  H    -21.131800    3.028260   -5.087200
  H    -21.104670    3.702250   -2.644600
  H    -23.286400    1.018420   -1.962070
  H    -22.823150    2.667450   -1.466020
  H    -21.836490    1.269190   -0.963470
  H    -19.272470    1.285530   -2.334160
  H    -19.754370    2.425790   -1.073440
  H    -17.558800    1.775450   -0.087020
  H    -15.230620    3.759190    0.011690
  H    -14.423840    4.856320    2.036380
  H    -13.129920    4.076870    1.125350
  H    -12.680990    5.557620    3.335880
  H     -8.430530    5.049560    4.048820
  H     -8.761010    4.654550    2.331550
  H     -8.599290    3.350010    3.535870
  H    -13.857210    4.112250    4.889770
  H    -12.119450    4.066750    5.224960
  H    -13.080500    1.784150    5.308420
  H    -11.942460    1.918490    3.960530
  H    -13.863950   -0.280480    5.031380
  H    -16.205650   -1.551690    3.523700
  H    -15.303000   -2.245270    4.962690

 Total Charge           Charge          ....    0
 Multiplicity           Mult            ....    1
 Number of Electrons    NEL             ....  570
 Basis Dimension        Dim             .... 1231

ORBITAL ENERGIES
----------------

  NO   OCC          E(Eh)            E(eV)
   0   2.0000    -482.888138    -13140.0543
   1   2.0000     -88.983604     -2421.3670
   2   2.0000     -88.978880     -2421.2384
   3   2.0000     -88.939691     -2420.1720
   4   2.0000     -88.939606     -2420.1697
   5   2.0000     -88.938286     -2420.1338
   6   2.0000     -88.932720     -2419.9823
   7   2.0000     -62.565815     -1702.5024
   8   2.0000     -56.399771     -1534.7158
   9   2.0000     -56.397048     -1534.6417
  10   2.0000     -56.397015     -1534.6408
  11   2.0000     -19.258278      -524.0444
  12   2.0000     -19.240334      -523.5561
  13   2.0000     -19.239760      -523.5405
  14   2.0000     -19.232270      -523.3367
  15   2.0000     -19.204733      -522.5874
  16   2.0000     -19.204163      -522.5719
  17   2.0000     -14.651027      -398.6747
  18   2.0000     -14.494687      -394.4205
  19   2.0000     -14.418202      -392.3392
  20   2.0000     -14.414145      -392.2288
  21   2.0000     -10.394810      -282.8572
  22   2.0000     -10.378955      -282.4257
  23   2.0000     -10.368340      -282.1369
  24   2.0000     -10.364457      -282.0312
  25   2.0000     -10.361719      -281.9567
  26   2.0000     -10.345696      -281.5207
  27   2.0000     -10.343184      -281.4524
  28   2.0000     -10.340789      -281.3872
  29   2.0000     -10.328754      -281.0597
  30   2.0000     -10.320686      -280.8401
  31   2.0000     -10.320357      -280.8312
  32   2.0000     -10.317544      -280.7546
  33   2.0000     -10.311939      -280.6021
  34   2.0000     -10.310731      -280.5693
  35   2.0000     -10.310562      -280.5646
  36   2.0000     -10.308848      -280.5180
  37   2.0000     -10.306628      -280.4576
  38   2.0000     -10.305842      -280.4362
  39   2.0000     -10.304418      -280.3975
  40   2.0000     -10.303472      -280.3717
  41   2.0000     -10.302454      -280.3440
  42   2.0000     -10.301745      -280.3247
  43   2.0000     -10.301151      -280.3086
  44   2.0000     -10.300706      -280.2965
  45   2.0000     -10.299786      -280.2714
  46   2.0000     -10.298306      -280.2312
  47   2.0000     -10.297869      -280.2193
  48   2.0000     -10.289655      -279.9957
  49   2.0000     -10.288408      -279.9618
  50   2.0000     -10.285782      -279.8904
  51   2.0000     -10.284478      -279.8549
  52   2.0000     -10.283093      -279.8172
  53   2.0000     -10.281306      -279.7686
  54   2.0000     -10.280439      -279.7450
  55   2.0000     -10.279870      -279.7295
  56   2.0000     -10.279705      -279.7250
  57   2.0000     -10.279611      -279.7224
  58   2.0000     -10.279325      -279.7147
  59   2.0000     -10.278112      -279.6816
  60   2.0000     -10.271889      -279.5123
  61   2.0000     -10.271006      -279.4883
  62   2.0000     -10.270265      -279.4681
  63   2.0000     -10.270000      -279.4609
  64   2.0000     -10.268653      -279.4242
  65   2.0000     -10.267913      -279.4041
  66   2.0000     -10.265247      -279.3316
  67   2.0000     -10.263302      -279.2787
  68   2.0000     -10.261071      -279.2179
  69   2.0000     -10.260742      -279.2090
  70   2.0000     -10.258805      -279.1563
  71   2.0000     -10.258185      -279.1394
  72   2.0000     -10.256509      -279.0938
  73   2.0000     -10.252053      -278.9725
  74   2.0000     -10.251334      -278.9530
  75   2.0000      -8.795221      -239.3301
  76   2.0000      -8.078753      -219.8340
  77   2.0000      -8.074814      -219.7269
  78   2.0000      -8.035885      -218.6675
  79   2.0000      -8.035147      -218.6475
  80   2.0000      -8.034676      -218.6347
  81   2.0000      -8.028245      -218.4596
  82   2.0000      -6.631525      -180.4530
  83   2.0000      -6.616956      -180.0565
  84   2.0000      -6.616747      -180.0508
  85   2.0000      -6.048402      -164.5854
  86   2.0000      -6.044495      -164.4791
  87   2.0000      -6.044133      -164.4692
  88   2.0000      -6.040207      -164.3624
  89   2.0000      -6.040150      -164.3608
  90   2.0000      -6.036076      -164.2500
  91   2.0000      -6.005648      -163.4220
  92   2.0000      -6.004407      -163.3882
  93   2.0000      -6.004324      -163.3860
  94   2.0000      -6.001411      -163.3067
  95   2.0000      -6.000403      -163.2793
  96   2.0000      -6.000387      -163.2788
  97   2.0000      -5.997412      -163.1979
  98   2.0000      -5.997199      -163.1921
  99   2.0000      -5.996810      -163.1815
 100   2.0000      -5.995528      -163.1466
 101   2.0000      -5.993616      -163.0946
 102   2.0000      -5.990332      -163.0052
 103   2.0000      -2.747424       -74.7612
 104   2.0000      -2.743282       -74.6485
 105   2.0000      -2.743154       -74.6450
 106   2.0000      -2.731561       -74.3295
 107   2.0000      -2.731550       -74.3293
 108   2.0000      -1.319838       -35.9146
 109   2.0000      -1.190550       -32.3965
 110   2.0000      -1.146276       -31.1918
 111   2.0000      -1.137489       -30.9526
 112   2.0000      -1.106808       -30.1178
 113   2.0000      -1.101588       -29.9757
 114   2.0000      -1.097202       -29.8564
 115   2.0000      -1.026146       -27.9229
 116   2.0000      -1.015196       -27.6249
 117   2.0000      -1.004676       -27.3386
 118   2.0000      -0.995488       -27.0886
 119   2.0000      -0.992642       -27.0112
 120   2.0000      -0.991991       -26.9935
 121   2.0000      -0.980988       -26.6940
 122   2.0000      -0.971924       -26.4474
 123   2.0000      -0.966759       -26.3068
 124   2.0000      -0.944963       -25.7137
 125   2.0000      -0.921693       -25.0805
 126   2.0000      -0.913692       -24.8628
 127   2.0000      -0.911594       -24.8057
 128   2.0000      -0.907639       -24.6981
 129   2.0000      -0.904453       -24.6114
 130   2.0000      -0.898674       -24.4542
 131   2.0000      -0.889304       -24.1992
 132   2.0000      -0.886549       -24.1242
 133   2.0000      -0.878842       -23.9145
 134   2.0000      -0.869782       -23.6680
 135   2.0000      -0.855741       -23.2859
 136   2.0000      -0.851326       -23.1658
 137   2.0000      -0.847459       -23.0605
 138   2.0000      -0.840899       -22.8820
 139   2.0000      -0.834934       -22.7197
 140   2.0000      -0.833015       -22.6675
 141   2.0000      -0.826649       -22.4943
 142   2.0000      -0.824921       -22.4472
 143   2.0000      -0.818036       -22.2599
 144   2.0000      -0.812711       -22.1150
 145   2.0000      -0.799663       -21.7599
 146   2.0000      -0.797085       -21.6898
 147   2.0000      -0.791581       -21.5400
 148   2.0000      -0.778154       -21.1746
 149   2.0000      -0.765340       -20.8260
 150   2.0000      -0.759601       -20.6698
 151   2.0000      -0.755062       -20.5463
 152   2.0000      -0.743740       -20.2382
 153   2.0000      -0.732912       -19.9435
 154   2.0000      -0.726279       -19.7631
 155   2.0000      -0.712567       -19.3899
 156   2.0000      -0.709995       -19.3200
 157   2.0000      -0.704195       -19.1621
 158   2.0000      -0.695011       -18.9122
 159   2.0000      -0.692762       -18.8510
 160   2.0000      -0.687347       -18.7037
 161   2.0000      -0.683736       -18.6054
 162   2.0000      -0.677674       -18.4404
 163   2.0000      -0.662101       -18.0167
 164   2.0000      -0.658422       -17.9166
 165   2.0000      -0.655374       -17.8336
 166   2.0000      -0.654127       -17.7997
 167   2.0000      -0.647969       -17.6321
 168   2.0000      -0.638556       -17.3760
 169   2.0000      -0.635118       -17.2824
 170   2.0000      -0.634214       -17.2578
 171   2.0000      -0.631248       -17.1771
 172   2.0000      -0.627369       -17.0716
 173   2.0000      -0.623526       -16.9670
 174   2.0000      -0.621046       -16.8995
 175   2.0000      -0.614304       -16.7161
 176   2.0000      -0.610301       -16.6071
 177   2.0000      -0.604926       -16.4609
 178   2.0000      -0.600472       -16.3397
 179   2.0000      -0.598940       -16.2980
 180   2.0000      -0.597403       -16.2562
 181   2.0000      -0.594680       -16.1821
 182   2.0000      -0.588469       -16.0131
 183   2.0000      -0.584571       -15.9070
 184   2.0000      -0.577212       -15.7067
 185   2.0000      -0.569431       -15.4950
 186   2.0000      -0.568968       -15.4824
 187   2.0000      -0.563766       -15.3408
 188   2.0000      -0.563080       -15.3222
 189   2.0000      -0.557714       -15.1762
 190   2.0000      -0.557336       -15.1659
 191   2.0000      -0.552984       -15.0474
 192   2.0000      -0.549754       -14.9596
 193   2.0000      -0.546715       -14.8769
 194   2.0000      -0.541730       -14.7412
 195   2.0000      -0.539504       -14.6806
 196   2.0000      -0.538260       -14.6468
 197   2.0000      -0.537193       -14.6178
 198   2.0000      -0.533782       -14.5249
 199   2.0000      -0.532660       -14.4944
 200   2.0000      -0.527412       -14.3516
 201   2.0000      -0.526963       -14.3394
 202   2.0000      -0.520874       -14.1737
 203   2.0000      -0.516140       -14.0449
 204   2.0000      -0.512764       -13.9530
 205   2.0000      -0.511409       -13.9161
 206   2.0000      -0.511018       -13.9055
 207   2.0000      -0.509048       -13.8519
 208   2.0000      -0.503649       -13.7050
 209   2.0000      -0.501825       -13.6554
 210   2.0000      -0.500116       -13.6088
 211   2.0000      -0.498715       -13.5707
 212   2.0000      -0.497706       -13.5433
 213   2.0000      -0.495380       -13.4800
 214   2.0000      -0.493865       -13.4388
 215   2.0000      -0.490729       -13.3534
 216   2.0000      -0.487688       -13.2707
 217   2.0000      -0.485058       -13.1991
 218   2.0000      -0.480166       -13.0660
 219   2.0000      -0.479561       -13.0495
 220   2.0000      -0.474330       -12.9072
 221   2.0000      -0.471879       -12.8405
 222   2.0000      -0.470117       -12.7925
 223   2.0000      -0.467763       -12.7285
 224   2.0000      -0.466695       -12.6994
 225   2.0000      -0.463904       -12.6235
 226   2.0000      -0.462428       -12.5833
 227   2.0000      -0.461938       -12.5700
 228   2.0000      -0.460344       -12.5266
 229   2.0000      -0.454857       -12.3773
 230   2.0000      -0.454561       -12.3692
 231   2.0000      -0.451295       -12.2804
 232   2.0000      -0.450611       -12.2617
 233   2.0000      -0.449260       -12.2250
 234   2.0000      -0.446468       -12.1490
 235   2.0000      -0.444452       -12.0941
 236   2.0000      -0.443674       -12.0730
 237   2.0000      -0.441971       -12.0267
 238   2.0000      -0.437229       -11.8976
 239   2.0000      -0.435941       -11.8626
 240   2.0000      -0.434726       -11.8295
 241   2.0000      -0.428251       -11.6533
 242   2.0000      -0.427934       -11.6447
 243   2.0000      -0.427826       -11.6417
 244   2.0000      -0.425997       -11.5920
 245   2.0000      -0.422476       -11.4962
 246   2.0000      -0.418940       -11.3999
 247   2.0000      -0.415244       -11.2994
 248   2.0000      -0.414151       -11.2696
 249   2.0000      -0.412736       -11.2311
 250   2.0000      -0.411024       -11.1845
 251   2.0000      -0.406527       -11.0622
 252   2.0000      -0.405099       -11.0233
 253   2.0000      -0.397664       -10.8210
 254   2.0000      -0.395708       -10.7678
 255   2.0000      -0.392315       -10.6754
 256   2.0000      -0.391488       -10.6529
 257   2.0000      -0.388239       -10.5645
 258   2.0000      -0.386914       -10.5285
 259   2.0000      -0.381150       -10.3716
 260   2.0000      -0.379074       -10.3151
 261   2.0000      -0.377583       -10.2746
 262   2.0000      -0.377427       -10.2703
 263   2.0000      -0.374577       -10.1928
 264   2.0000      -0.372959       -10.1487
 265   2.0000      -0.371956       -10.1214
 266   2.0000      -0.366427        -9.9710
 267   2.0000      -0.365658        -9.9500
 268   2.0000      -0.355603        -9.6764
 269   2.0000      -0.355155        -9.6643
 270   2.0000      -0.348588        -9.4856
 271   2.0000      -0.339139        -9.2284
 272   2.0000      -0.336887        -9.1672
 273   2.0000      -0.330984        -9.0065
 274   2.0000      -0.321450        -8.7471
 275   2.0000      -0.320904        -8.7322
 276   2.0000      -0.319326        -8.6893
 277   2.0000      -0.308855        -8.4044
 278   2.0000      -0.297739        -8.1019
 279   2.0000      -0.296775        -8.0757
 280   2.0000      -0.291148        -7.9225
 281   2.0000      -0.285323        -7.7640
 282   2.0000      -0.265141        -7.2148
 283   2.0000      -0.232849        -6.3361
 284   2.0000      -0.195166        -5.3107
 285   0.0000      -0.091992        -2.5032
 286   0.0000      -0.078476        -2.1355
 287   0.0000      -0.069023        -1.8782
 288   0.0000      -0.041704        -1.1348
 289   0.0000      -0.031364        -0.8535

MULLIKEN ATOMIC CHARGES
-----------------------
   0 C :    0.325109
   1 C :   -0.344704
   2 C :   -0.185991
   3 N :    0.149221
   4 C :   -0.198258
   5 N :    0.144431
   6 C :    0.007968
   7 C :   -0.004173
   8 C :   -0.065935
   9 C :    0.113173
  10 C :   -0.092406
  11 C :   -0.017267
  12 S :    0.190139
  13 C :   -0.123946
  14 C :    0.040181
  15 Br:    0.024784
  16 C :    0.165482
  17 O :   -0.226285
  18 C :   -0.133904
  19 C :    0.025865
  20 N :    0.005544
  21 C :   -0.127588
  22 S :    0.163950
  23 C :   -0.005369
  24 N :    0.285614
  25 O :   -0.247008
  26 O :   -0.252931
  27 C :    0.003103
  28 C :    0.151091
  29 C :   -0.083998
  30 C :    0.017782
  31 C :   -0.029966
  32 C :   -0.008531
  33 C :    0.026112
  34 C :    0.029797
  35 C :   -0.052524
  36 S :    0.074119
  37 C :   -0.024920
  38 C :    0.027297
  39 C :    0.031282
  40 C :   -0.040271
  41 S :    0.055258
  42 C :   -0.009596
  43 C :   -0.093117
  44 S :    0.052502
  45 C :   -0.076512
  46 C :   -0.069116
  47 C :   -0.082498
  48 C :    0.122297
  49 C :    0.067466
  50 C :    0.070600
  51 O :   -0.373819
  52 C :    0.194764
  53 C :    0.164033
  54 C :   -0.016457
  55 C :   -0.037562
  56 C :   -0.087705
  57 S :    0.092697
  58 C :   -0.121394
  59 C :   -0.061796
  60 C :   -0.073982
  61 C :    0.171595
  62 C :   -0.110122
  63 C :    0.189699
  64 O :   -0.217557
  65 O :   -0.294950
  66 C :    0.170794
  67 C :    0.056919
  68 C :    0.127266
  69 C :   -0.004385
  70 C :   -0.030594
  71 H :   -0.012061
  72 H :   -0.005377
  73 H :   -0.004037
  74 H :    0.046659
  75 H :    0.182901
  76 H :    0.014901
  77 H :   -0.010836
  78 H :    0.018661
  79 H :   -0.017687
  80 H :   -0.016327
  81 H :   -0.013130
  82 H :   -0.018416
  83 H :   -0.014184
  84 H :   -0.014887
  85 H :    0.012666
  86 H :    0.014610
  87 H :    0.007104
  88 H :    0.003742
  89 H :   -0.017365
  90 H :    0.026829
  91 H :   -0.004714
  92 H :    0.004981
  93 H :    0.017372
  94 H :    0.009667
  95 H :   -0.010587
  96 H :    0.009867
  97 H :    0.013199
  98 H :    0.043576
  99 H :    0.028681
 100 H :    0.034809
 101 H :    0.040655
 102 H :    0.030194
 103 H :    0.006103
 104 H :    0.014103
 105 H :   -0.001403
 106 H :    0.034403
 107 H :   -0.004767
 108 H :    0.018483
 109 H :    0.020813
Sum of atomic charges:   -0.0000000

LOEWDIN ATOMIC CHARGES
----------------------
   0 C :    0.078555
   1 C :   -0.151307
   2 C :   -0.019860
   3 N :   -0.056557
   4 C :   -0.021054
   5 N :   -0.054904
   6 C :   -0.017508
   7 C :   -0.050660
   8 C :    0.023227
   9 C :   -0.034726
  10 C :   -0.144028
  11 C :   -0.007672
  12 S :    0.436426
  13 C :   -0.271612
  14 C :   -0.070185
  15 Br:    0.137553
  16 C :    0.095389
  17 O :   -0.180558
  18 C :   -0.148771
  19 C :    0.109851
  20 N :    0.087721
  21 C :   -0.122676
  22 S :    0.458513
  23 C :   -0.206332
  24 N :    0.279050
  25 O :   -0.215820
  26 O :   -0.221791
  27 C :    0.011741
  28 C :   -0.078908
  29 C :   -0.052931
  30 C :   -0.008613
  31 C :   -0.072593
  32 C :   -0.136889
  33 C :   -0.043856
  34 C :   -0.026927
  35 C :   -0.186824
  36 S :    0.373070
  37 C :   -0.173146
  38 C :   -0.046951
  39 C :   -0.028107
  40 C :   -0.164055
  41 S :    0.375467
  42 C :   -0.059952
  43 C :   -0.182652
  44 S :    0.430642
  45 C :   -0.161308
  46 C :   -0.063359
  47 C :   -0.050799
  48 C :   -0.026118
  49 C :   -0.027150
  50 C :    0.067062
  51 O :   -0.170431
  52 C :    0.067262
  53 C :   -0.036567
  54 C :   -0.056627
  55 C :   -0.037795
  56 C :   -0.179419
  57 S :    0.416368
  58 C :   -0.171665
  59 C :   -0.051540
  60 C :   -0.046351
  61 C :   -0.023405
  62 C :   -0.052134
  63 C :    0.103350
  64 O :   -0.177100
  65 O :   -0.079356
  66 C :    0.080063
  67 C :   -0.017299
  68 C :   -0.029504
  69 C :   -0.036814
  70 C :   -0.055625
  71 H :    0.040761
  72 H :    0.041947
  73 H :    0.038646
  74 H :    0.036041
  75 H :    0.085687
  76 H :    0.043321
  77 H :    0.027294
  78 H :    0.029110
  79 H :    0.031582
  80 H :    0.031369
  81 H :    0.032066
  82 H :    0.029905
  83 H :    0.032384
  84 H :    0.036586
  85 H :    0.031081
  86 H :    0.032270
  87 H :    0.026210
  88 H :    0.026770
  89 H :    0.004403
  90 H :    0.023064
  91 H :    0.005223
  92 H :    0.004223
  93 H :    0.036272
  94 H :    0.028188
  95 H :    0.027039
  96 H :    0.023361
  97 H :    0.034175
  98 H :    0.040647
  99 H :    0.047322
 100 H :    0.026303
 101 H :    0.021229
 102 H :    0.019199
 103 H :    0.024041
 104 H :    0.025190
 105 H :    0.028316
 106 H :    0.032032
 107 H :    0.033994
 108 H :    0.015524
 109 H :    0.024702

  Mayer bond orders larger than 0.100000
B(  0-C ,  1-C ) :   1.6169 B(  0-C ,  6-C ) :   0.9999 B(  0-C , 18-C ) :   1.1101
B(  1-C ,  2-C ) :   1.1463 B(  1-C ,  4-C ) :   1.1510 B(  2-C ,  3-N ) :   2.9668
B(  4-C ,  5-N ) :   2.9537 B(  6-C ,  7-C ) :   1.2757 B(  6-C , 11-C ) :   1.4294
B(  7-C ,  8-C ) :   1.4277 B(  7-C , 16-C ) :   0.9797 B(  8-C ,  9-C ) :   1.2403
B(  8-C , 71-H ) :   1.0174 B(  9-C , 10-C ) :   1.3161 B(  9-C , 14-C ) :   1.1608
B( 10-C , 11-C ) :   1.3161 B( 10-C , 12-S ) :   1.0883 B( 11-C , 72-H ) :   0.9794
B( 12-S , 13-C ) :   1.0885 B( 13-C , 14-C ) :   1.6172 B( 13-C , 15-Br) :   1.0198
B( 14-C , 73-H ) :   1.0008 B( 16-C , 17-O ) :   2.0275 B( 16-C , 18-C ) :   1.0121
B( 17-O , 75-H ) :   0.1441 B( 18-C , 19-C ) :   1.4278 B( 19-C , 20-N ) :   1.3564
B( 19-C , 74-H ) :   0.9327 B( 20-N , 21-C ) :   1.1972 B( 20-N , 75-H ) :   0.8209
B( 21-C , 22-S ) :   1.1250 B( 21-C , 28-C ) :   1.3447 B( 22-S , 23-C ) :   1.0734
B( 23-C , 24-N ) :   0.9785 B( 23-C , 27-C ) :   1.4802 B( 24-N , 25-O ) :   1.4825
B( 24-N , 26-O ) :   1.5188 B( 25-O , 26-O ) :   0.2468 B( 27-C , 28-C ) :   1.2150
B( 27-C , 76-H ) :   0.9845 B( 28-C , 29-C ) :   1.0759 B( 29-C , 30-C ) :   1.6508
B( 29-C , 77-H ) :   0.9754 B( 30-C , 31-C ) :   1.1653 B( 30-C , 78-H ) :   0.9731
B( 31-C , 32-C ) :   1.5353 B( 31-C , 79-H ) :   0.9857 B( 32-C , 33-C ) :   1.1536
B( 32-C , 36-S ) :   1.0463 B( 33-C , 34-C ) :   1.5678 B( 33-C , 80-H ) :   0.9998
B( 34-C , 35-C ) :   1.2088 B( 34-C , 81-H ) :   0.9954 B( 35-C , 36-S ) :   1.0405
B( 35-C , 37-C ) :   1.4803 B( 37-C , 38-C ) :   1.2001 B( 37-C , 41-S ) :   1.0532
B( 38-C , 39-C ) :   1.5718 B( 38-C , 82-H ) :   0.9931 B( 39-C , 40-C ) :   1.1642
B( 39-C , 83-H ) :   0.9979 B( 40-C , 41-S ) :   1.0329 B( 40-C , 42-C ) :   1.5303
B( 42-C , 43-C ) :   1.2232 B( 42-C , 84-H ) :   0.9656 B( 43-C , 44-S ) :   1.0817
B( 43-C , 47-C ) :   1.4170 B( 44-S , 45-C ) :   1.1159 B( 45-C , 46-C ) :   1.4246
B( 45-C , 54-C ) :   1.1857 B( 46-C , 47-C ) :   1.3808 B( 46-C , 53-C ) :   1.0365
B( 47-C , 48-C ) :   1.0443 B( 48-C , 49-C ) :   1.0799 B( 48-C , 85-H ) :   0.9118
B( 48-C , 86-H ) :   0.9076 B( 49-C , 50-C ) :   1.0352 B( 49-C , 87-H ) :   0.9390
B( 49-C , 88-H ) :   0.9288 B( 50-C , 51-O ) :   1.0374 B( 50-C , 53-C ) :   1.0451
B( 50-C , 89-H ) :   0.9338 B( 51-O , 52-C ) :   0.9961 B( 52-C , 90-H ) :   0.9826
B( 52-C , 91-H ) :   0.9626 B( 52-C , 92-H ) :   0.9665 B( 53-C , 93-H ) :   0.8904
B( 53-C , 94-H ) :   0.9079 B( 54-C , 55-C ) :   1.6091 B( 54-C , 95-H ) :   0.9761
B( 55-C , 56-C ) :   1.1893 B( 55-C , 96-H ) :   0.9518 B( 56-C , 57-S ) :   1.0972
B( 56-C , 60-C ) :   1.4756 B( 57-S , 58-C ) :   1.1007 B( 58-C , 59-C ) :   1.5117
B( 58-C , 69-C ) :   1.1301 B( 59-C , 60-C ) :   1.3100 B( 59-C , 68-C ) :   1.0454
B( 60-C , 61-C ) :   1.0638 B( 61-C , 62-C ) :   1.0355 B( 61-C , 97-H ) :   0.9027
B( 61-C , 98-H ) :   0.8895 B( 62-C , 63-C ) :   0.9248 B( 62-C , 67-C ) :   1.0787
B( 62-C , 99-H ) :   0.8886 B( 63-C , 64-O ) :   2.0067 B( 63-C , 65-O ) :   1.2095
B( 65-O , 66-C ) :   0.9230 B( 66-C ,100-H ) :   0.9790 B( 66-C ,101-H ) :   0.9663
B( 66-C ,102-H ) :   0.9807 B( 67-C , 68-C ) :   1.0748 B( 67-C ,103-H ) :   0.9410
B( 67-C ,104-H ) :   0.9283 B( 68-C ,105-H ) :   0.9045 B( 68-C ,106-H ) :   0.8967
B( 69-C , 70-C ) :   1.9127 B( 69-C ,107-H ) :   0.9615 B( 70-C ,108-H ) :   0.9554
B( 70-C ,109-H ) :   0.9487

-----------------------------------------------------------------------------
         ABSORPTION SPECTRUM VIA TRANSITION ELECTRIC DIPOLE MOMENTS
-----------------------------------------------------------------------------
State   Energy  Wavelength   fosc         T2         TX        TY        TZ
        (cm-1)    (nm)                  (au**2)     (au)      (au)      (au)
-----------------------------------------------------------------------------
   0   10344.9    966.7   0.760664831  24.20699   4.84369  -0.60745  -0.61371
   1   12928.5    773.5   0.126966182   3.23307  -1.27409  -1.11307   0.60896
   2   16212.2    616.8   0.004474659   0.09086   0.03601   0.19128  -0.23018
   3   18283.3    546.9   0.268771590   4.83953   1.75972  -1.14639   0.65476
   4   19576.6    510.8   0.381495299   6.41547   1.45974  -1.76929   1.07436
   5   21319.9    469.0   0.451413321   6.97052   0.50160  -1.39697   2.18344
   6   23114.3    432.6   1.069942132  15.23896   2.64331  -1.94603   2.11302
   7   23885.7    418.7   0.331840187   4.57369   0.60693  -0.12382  -2.04695
   8   24735.0    404.3   0.047733089   0.63531   0.76760  -0.18747  -0.10468
   9   26052.8    383.8   0.259833858   3.28335   0.92581   0.38635  -1.50896
  10   27602.2    362.3   0.108427153   1.29321  -0.22101   0.52297  -0.98533
  11   28218.3    354.4   0.065205021   0.76072   0.30923   0.66527  -0.47171
  12   28685.4    348.6   0.007493988   0.08601  -0.03714  -0.11398  -0.26765
  13   29030.2    344.5   0.150353195   1.70505  -1.12189  -0.55711  -0.36883
  14   29813.8    335.4   0.740628262   8.17822   1.39036   0.92888  -2.31997
  15   29922.2    334.2   0.158874515   1.74798   1.05371   0.27677  -0.74905
  16   30243.5    330.6   0.014928980   0.16251   0.33598   0.22245   0.01182
  17   30686.7    325.9   0.007284833   0.07815   0.22477  -0.12800   0.10606
  18   31319.4    319.3   0.067588193   0.71045   0.23092   0.21955  -0.78034
  19   31445.9    318.0   0.102806903   1.07630  -0.86736  -0.11711   0.55703
  20   31645.3    316.0   0.043993536   0.45767   0.60302   0.29093   0.09693
  21   32223.1    310.3   0.018093327   0.18485  -0.15158  -0.22874   0.33099
  22   32941.7    303.6   0.007047851   0.07043   0.09209   0.21276   0.12918
  23   33005.3    303.0   0.001985649   0.01981   0.00864  -0.06577  -0.12412
  24   33740.3    296.4   0.011274894   0.11001   0.27540  -0.07115  -0.17060
  25   33752.8    296.3   0.001721516   0.01679  -0.08997   0.00119   0.09325
  26   34228.8    292.2   0.443864502   4.26908   0.41410   1.22838  -1.60894
  27   34382.9    290.8   0.111549181   1.06807  -0.07017  -0.53653   0.88050
  28   34862.1    286.8   0.033004995   0.31168  -0.32649  -0.27960   0.35624
  29   35089.8    285.0   0.003354625   0.03147  -0.17331   0.00635   0.03736
  30   35512.7    281.6   0.007099793   0.06582  -0.01845   0.12643  -0.22247
  31   35958.5    278.1   0.001037482   0.00950   0.08223  -0.02506  -0.04592
  32   36051.2    277.4   0.013399348   0.12236   0.27288   0.10763  -0.19055
  33   36588.9    273.3   0.085177934   0.76640   0.36611  -0.55273   0.57171
  34   37063.6    269.8   0.006827320   0.06064  -0.11799   0.13288  -0.17048
  35   37074.3    269.7   0.082230289   0.73019   0.69175  -0.22334   0.44921
  36   37377.0    267.5   0.145379195   1.28048  -0.12787   0.87240  -0.70926
  37   38048.8    262.8   0.128717354   1.11371  -0.90696   0.42116   0.33729
  38   38218.7    261.7   0.008814361   0.07593  -0.05486  -0.26451   0.05434
  39   38602.4    259.1   0.054771793   0.46711   0.48286   0.37399  -0.30674
  40   38798.0    257.7   0.015227734   0.12921   0.35297   0.06702  -0.01163
  41   38917.8    257.0   0.008982137   0.07598  -0.00153  -0.11636  -0.24988
  42   39244.5    254.8   0.033599813   0.28186  -0.36216  -0.38796   0.01385
  43   39393.7    253.8   0.010712442   0.08952   0.21591   0.18332  -0.09645
  44   39487.2    253.2   0.018211596   0.15183  -0.06692  -0.38241   0.03343
  45   39844.4    251.0   0.143310811   1.18410  -0.39111   0.94513  -0.37129
  46   39931.8    250.4   0.017616738   0.14524  -0.36779   0.05065  -0.08606
  47   40218.5    248.6   0.023942629   0.19598  -0.14521  -0.24515  -0.33882
  48   40252.4    248.4   0.074623998   0.61033  -0.68739   0.33817   0.15316

FINAL SINGLE POINT ENERGY     -7710.346264063275

DIPOLE MOMENT
-------------
                                X             Y             Z
Electronic contribution:    248.87362     -45.27933     -93.06893
Nuclear contribution   :   -249.17058      48.56416      90.80334
                        -----------------------------------------
Total Dipole Moment    :     -0.29695       3.28483      -2.26559
                        -----------------------------------------
Magnitude (a.u.)       :      4.00140
Magnitude (Debye)      :     10.17075

Rotational constants in cm-1:     0.001038     0.000275     0.000238
Rotational constants in MHz :    31.121260     8.234315     7.130132

                             ****ORCA TERMINATED NORMALLY****
TOTAL RUN TIME: 0 days 0 hours 12 minutes 3 seconds 626 msec
