                         Program Version 4.2.0 -  RELEASE  -
|  1> # ORCA input file
|  2> # SCF done       -178.990271431538          0.000687770673
|  3> ! CAM-B3LYP def2-SVP def2/J RIJCOSX Grid4 TightSCF
|  4> %maxcore 5000
|  5> %tddft
|  6>     Mode sTDDFT
|  7>     Ethresh 5.0
|  8>     maxcore 5000
|  9> end
| 10>
| 11> %pal
| 12>   nprocs 6
| 13>   end
| 14> * xyz 0 1
| 15>    C       13.94410       -16.72953         7.22084
| 16>    C       14.00711       -15.52416         6.63687
| 17>    C       15.14680       -14.66123         6.52191
| 18>    C       14.90146       -13.49865         5.87568
| 19>    C       13.55905       -13.34793         5.43158
| 20>    S       12.61219       -14.75127         5.86594
| 21>    C       13.01889       -12.27106         4.75853
| 22>    C       13.67567       -11.08367         4.35675
| 23>    C       12.87258       -10.18863         3.71738
| 24>    C       11.53051       -10.60784         3.57503
| 25>    S       11.33895       -12.20937         4.28589
| 26>    C       10.40371       -10.02606         3.03721
| 27>    C       10.14293        -8.78748         2.42310
| 28>    C        8.77807        -8.52416         2.07297
| 29>    C        8.35017        -7.27652         1.48983
| 30>    N        7.06245        -7.12306         1.12649
| 31>    C        6.20227        -8.07970         1.36455
| 32>    C        6.61281        -9.28855         2.00902
| 33>    N        7.87603        -9.47833         2.32179
| 34>    C        5.66739       -10.29798         2.30274
| 35>    N        4.87004       -11.08955         2.53139
| 36>    C        4.85249        -7.89081         0.97571
| 37>    N        3.75237        -7.74511         0.69023
| 38>    C        9.24381        -6.21780         1.23849
| 39>    C       10.59584        -6.48787         1.52153
| 40>    C       11.04528        -7.73701         2.10607
| 41>    N       12.36182        -7.73296         2.29168
| 42>    S       12.97644        -6.32571         1.80480
| 43>    N       11.60825        -5.63914         1.32933
| 44>    C        8.79159        -4.93771         0.72217
| 45>    C        7.55166        -4.41604         1.12068
| 46>    C        7.12321        -3.22156         0.60215
| 47>    C        7.91473        -2.50807        -0.31554
| 48>    C        9.15076        -3.00909        -0.70334
| 49>    C        9.57943        -4.21190        -0.18130
| 50>    C        7.21552        -1.29677        -0.67832
| 51>    C        5.98974        -1.26320         0.01244
| 52>    C        5.83146        -2.49089         0.87782
| 53>    C        4.61638        -3.33502         0.44735
| 54>    C        4.68402        -3.77375        -1.00999
| 55>    C        5.69836        -2.11742         2.36537
| 56>    C        6.87097        -1.28675         2.87312
| 57>    C        5.13221        -0.20455        -0.14145
| 58>    C        5.47558         0.86013        -0.99357
| 59>    C        6.69829         0.80618        -1.68108
| 60>    C        7.56396        -0.25631        -1.53057
| 61>    C        4.55940         1.96215        -1.10690
| 62>    C        4.69663         3.06787        -1.87104
| 63>    C        3.74868         4.12012        -1.90930
| 64>    S        2.28512         4.13217        -0.96225
| 65>    C        1.77340         5.67811        -1.59926
| 66>    C        2.73821         6.15859        -2.47792
| 67>    C        3.82658         5.28467        -2.65836
| 68>    O        4.85420         5.57209        -3.49034
| 69>    O        2.73631         7.38107        -3.11716
| 70>    C        3.10749         8.46593        -2.28349
| 71>    C        0.52836         6.18449        -1.18064
| 72>    C       -0.23652         7.17734        -1.73546
| 73>    C       -1.49558         7.58947        -1.21604
| 74>    C       -2.12112         8.54784        -1.94458
| 75>    C       -1.39612         8.95435        -3.09275
| 76>    S        0.11524         8.06938        -3.20467
| 77>    C       -1.75586         9.90263        -4.01966
| 78>    C       -2.95093        10.67499        -4.04882
| 79>    C       -3.03415        11.53645        -5.08633
| 80>    C       -1.90229        11.51396        -5.96823
| 81>    S       -0.73227        10.32082        -5.38023
| 82>    C       -1.70667        12.25106        -7.07002
| 83>    H       14.81496       -17.16397         7.67924
| 84>    H       13.03143       -17.29583         7.25091
| 85>    H       16.09883       -14.95063         6.93015
| 86>    H       15.63888       -12.73551         5.70054
| 87>    H       14.72096       -10.91971         4.54931
| 88>    H       13.19367        -9.23707         3.33742
| 89>    H        9.50800       -10.63293         3.11648
| 90>    H        6.95284        -4.94513         1.84436
| 91>    H        9.76663        -2.47170        -1.40915
| 92>    H       10.53025        -4.61891        -0.48621
| 93>    H        3.70911        -2.74902         0.60904
| 94>    H        4.56154        -4.22082         1.08319
| 95>    H        4.72381        -2.91132        -1.67245
| 96>    H        3.80567        -4.36380        -1.25974
| 97>    H        5.56637        -4.38516        -1.18416
| 98>    H        5.62414        -3.03671         2.95002
| 99>    H        4.77043        -1.55866         2.50425
|100>    H        7.80519        -1.83278         2.76044
|101>    H        6.73469        -1.05008         3.92611
|102>    H        6.95007        -0.35457         2.31785
|103>    H        4.19100        -0.17260         0.38892
|104>    H        6.97059         1.61654        -2.33930
|105>    H        8.50159        -0.27666        -2.06625
|106>    H        3.66356         1.88789        -0.50012
|107>    H        5.55406         3.21907        -2.51108
|108>    H        4.63195         6.39984        -3.94338
|109>    H        3.02391         9.35781        -2.90113
|110>    H        4.13705         8.35413        -1.92490
|111>    H        2.43820         8.55446        -1.42310
|112>    H        0.09194         5.67264        -0.33167
|113>    H       -1.88974         7.15432        -0.31432
|114>    H       -3.07552         8.97364        -1.69155
|115>    H       -3.70907        10.55986        -3.29440
|116>    H       -3.86039        12.19964        -5.27189
|117>    H       -2.44488        12.96471        -7.39089
|118>    H       -0.81672        12.15509        -7.66438
|119> *
|120>
|121>                          ****END OF INPUT****

CARTESIAN COORDINATES (ANGSTROEM)
---------------------------------
  C     13.944100  -16.729530    7.220840
  C     14.007110  -15.524160    6.636870
  C     15.146800  -14.661230    6.521910
  C     14.901460  -13.498650    5.875680
  C     13.559050  -13.347930    5.431580
  S     12.612190  -14.751270    5.865940
  C     13.018890  -12.271060    4.758530
  C     13.675670  -11.083670    4.356750
  C     12.872580  -10.188630    3.717380
  C     11.530510  -10.607840    3.575030
  S     11.338950  -12.209370    4.285890
  C     10.403710  -10.026060    3.037210
  C     10.142930   -8.787480    2.423100
  C      8.778070   -8.524160    2.072970
  C      8.350170   -7.276520    1.489830
  N      7.062450   -7.123060    1.126490
  C      6.202270   -8.079700    1.364550
  C      6.612810   -9.288550    2.009020
  N      7.876030   -9.478330    2.321790
  C      5.667390  -10.297980    2.302740
  N      4.870040  -11.089550    2.531390
  C      4.852490   -7.890810    0.975710
  N      3.752370   -7.745110    0.690230
  C      9.243810   -6.217800    1.238490
  C     10.595840   -6.487870    1.521530
  C     11.045280   -7.737010    2.106070
  N     12.361820   -7.732960    2.291680
  S     12.976440   -6.325710    1.804800
  N     11.608250   -5.639140    1.329330
  C      8.791590   -4.937710    0.722170
  C      7.551660   -4.416040    1.120680
  C      7.123210   -3.221560    0.602150
  C      7.914730   -2.508070   -0.315540
  C      9.150760   -3.009090   -0.703340
  C      9.579430   -4.211900   -0.181300
  C      7.215520   -1.296770   -0.678320
  C      5.989740   -1.263200    0.012440
  C      5.831460   -2.490890    0.877820
  C      4.616380   -3.335020    0.447350
  C      4.684020   -3.773750   -1.009990
  C      5.698360   -2.117420    2.365370
  C      6.870970   -1.286750    2.873120
  C      5.132210   -0.204550   -0.141450
  C      5.475580    0.860130   -0.993570
  C      6.698290    0.806180   -1.681080
  C      7.563960   -0.256310   -1.530570
  C      4.559400    1.962150   -1.106900
  C      4.696630    3.067870   -1.871040
  C      3.748680    4.120120   -1.909300
  S      2.285120    4.132170   -0.962250
  C      1.773400    5.678110   -1.599260
  C      2.738210    6.158590   -2.477920
  C      3.826580    5.284670   -2.658360
  O      4.854200    5.572090   -3.490340
  O      2.736310    7.381070   -3.117160
  C      3.107490    8.465930   -2.283490
  C      0.528360    6.184490   -1.180640
  C     -0.236520    7.177340   -1.735460
  C     -1.495580    7.589470   -1.216040
  C     -2.121120    8.547840   -1.944580
  C     -1.396120    8.954350   -3.092750
  S      0.115240    8.069380   -3.204670
  C     -1.755860    9.902630   -4.019660
  C     -2.950930   10.674990   -4.048820
  C     -3.034150   11.536450   -5.086330
  C     -1.902290   11.513960   -5.968230
  S     -0.732270   10.320820   -5.380230
  C     -1.706670   12.251060   -7.070020
  H     14.814960  -17.163970    7.679240
  H     13.031430  -17.295830    7.250910
  H     16.098830  -14.950630    6.930150
  H     15.638880  -12.735510    5.700540
  H     14.720960  -10.919710    4.549310
  H     13.193670   -9.237070    3.337420
  H      9.508000  -10.632930    3.116480
  H      6.952840   -4.945130    1.844360
  H      9.766630   -2.471700   -1.409150
  H     10.530250   -4.618910   -0.486210
  H      3.709110   -2.749020    0.609040
  H      4.561540   -4.220820    1.083190
  H      4.723810   -2.911320   -1.672450
  H      3.805670   -4.363800   -1.259740
  H      5.566370   -4.385160   -1.184160
  H      5.624140   -3.036710    2.950020
  H      4.770430   -1.558660    2.504250
  H      7.805190   -1.832780    2.760440
  H      6.734690   -1.050080    3.926110
  H      6.950070   -0.354570    2.317850
  H      4.191000   -0.172600    0.388920
  H      6.970590    1.616540   -2.339300
  H      8.501590   -0.276660   -2.066250
  H      3.663560    1.887890   -0.500120
  H      5.554060    3.219070   -2.511080
  H      4.631950    6.399840   -3.943380
  H      3.023910    9.357810   -2.901130
  H      4.137050    8.354130   -1.924900
  H      2.438200    8.554460   -1.423100
  H      0.091940    5.672640   -0.331670
  H     -1.889740    7.154320   -0.314320
  H     -3.075520    8.973640   -1.691550
  H     -3.709070   10.559860   -3.294400
  H     -3.860390   12.199640   -5.271890
  H     -2.444880   12.964710   -7.390890
  H     -0.816720   12.155090   -7.664380

 Total Charge           Charge          ....    0
 Multiplicity           Mult            ....    1
 Number of Electrons    NEL             ....  514
 Basis Dimension        Dim             .... 1156

ORBITAL ENERGIES
----------------

  NO   OCC          E(Eh)            E(eV)
   0   2.0000     -89.036109     -2422.7957
   1   2.0000     -88.951839     -2420.5026
   2   2.0000     -88.949762     -2420.4461
   3   2.0000     -88.942592     -2420.2510
   4   2.0000     -88.934811     -2420.0392
   5   2.0000     -88.932063     -2419.9644
   6   2.0000     -19.244764      -523.6767
   7   2.0000     -19.242205      -523.6070
   8   2.0000     -14.449355      -393.1869
   9   2.0000     -14.448465      -393.1627
  10   2.0000     -14.445030      -393.0692
  11   2.0000     -14.442661      -393.0048
  12   2.0000     -14.419092      -392.3634
  13   2.0000     -14.415950      -392.2780
  14   2.0000     -10.367324      -282.1092
  15   2.0000     -10.364199      -282.0242
  16   2.0000     -10.337302      -281.2923
  17   2.0000     -10.334876      -281.2263
  18   2.0000     -10.333063      -281.1769
  19   2.0000     -10.332410      -281.1592
  20   2.0000     -10.326229      -280.9910
  21   2.0000     -10.324802      -280.9521
  22   2.0000     -10.319939      -280.8198
  23   2.0000     -10.319701      -280.8133
  24   2.0000     -10.318442      -280.7791
  25   2.0000     -10.316714      -280.7321
  26   2.0000     -10.315991      -280.7124
  27   2.0000     -10.312696      -280.6227
  28   2.0000     -10.310921      -280.5744
  29   2.0000     -10.310326      -280.5582
  30   2.0000     -10.302961      -280.3578
  31   2.0000     -10.302253      -280.3385
  32   2.0000     -10.300889      -280.3015
  33   2.0000     -10.300650      -280.2949
  34   2.0000     -10.298438      -280.2348
  35   2.0000     -10.298347      -280.2323
  36   2.0000     -10.298243      -280.2294
  37   2.0000     -10.294876      -280.1378
  38   2.0000     -10.294646      -280.1315
  39   2.0000     -10.285215      -279.8749
  40   2.0000     -10.284081      -279.8441
  41   2.0000     -10.283966      -279.8410
  42   2.0000     -10.281715      -279.7797
  43   2.0000     -10.280224      -279.7391
  44   2.0000     -10.279714      -279.7252
  45   2.0000     -10.278879      -279.7025
  46   2.0000     -10.277552      -279.6664
  47   2.0000     -10.276793      -279.6458
  48   2.0000     -10.272058      -279.5169
  49   2.0000     -10.266377      -279.3623
  50   2.0000     -10.265667      -279.3430
  51   2.0000     -10.264260      -279.3047
  52   2.0000     -10.263145      -279.2744
  53   2.0000     -10.260175      -279.1935
  54   2.0000     -10.259613      -279.1783
  55   2.0000     -10.258167      -279.1389
  56   2.0000     -10.258105      -279.1372
  57   2.0000     -10.257662      -279.1252
  58   2.0000     -10.257546      -279.1220
  59   2.0000     -10.256394      -279.0907
  60   2.0000     -10.256002      -279.0800
  61   2.0000     -10.255020      -279.0533
  62   2.0000     -10.254315      -279.0341
  63   2.0000     -10.252628      -278.9882
  64   2.0000     -10.250921      -278.9417
  65   2.0000     -10.246635      -278.8251
  66   2.0000     -10.235467      -278.5212
  67   2.0000     -10.228572      -278.3336
  68   2.0000      -8.127441      -221.1589
  69   2.0000      -8.048525      -219.0115
  70   2.0000      -8.046273      -218.9502
  71   2.0000      -8.037963      -218.7241
  72   2.0000      -8.030234      -218.5138
  73   2.0000      -8.028803      -218.4748
  74   2.0000      -6.098565      -165.9504
  75   2.0000      -6.090811      -165.7394
  76   2.0000      -6.090134      -165.7210
  77   2.0000      -6.018280      -163.7657
  78   2.0000      -6.015912      -163.7013
  79   2.0000      -6.014355      -163.6589
  80   2.0000      -6.011920      -163.5927
  81   2.0000      -6.009171      -163.5179
  82   2.0000      -6.007315      -163.4674
  83   2.0000      -6.007259      -163.4658
  84   2.0000      -6.003694      -163.3688
  85   2.0000      -6.000082      -163.2705
  86   2.0000      -5.999454      -163.2534
  87   2.0000      -5.998624      -163.2309
  88   2.0000      -5.995864      -163.1558
  89   2.0000      -5.994724      -163.1247
  90   2.0000      -5.991070      -163.0253
  91   2.0000      -5.989315      -162.9775
  92   2.0000      -1.152903       -31.3721
  93   2.0000      -1.133209       -30.8362
  94   2.0000      -1.126706       -30.6592
  95   2.0000      -1.106294       -30.1038
  96   2.0000      -1.032906       -28.1068
  97   2.0000      -1.002429       -27.2775
  98   2.0000      -1.001480       -27.2517
  99   2.0000      -0.992402       -27.0046
 100   2.0000      -0.988069       -26.8867
 101   2.0000      -0.985183       -26.8082
 102   2.0000      -0.978432       -26.6245
 103   2.0000      -0.974546       -26.5187
 104   2.0000      -0.970400       -26.4059
 105   2.0000      -0.964298       -26.2399
 106   2.0000      -0.960544       -26.1377
 107   2.0000      -0.931495       -25.3473
 108   2.0000      -0.909258       -24.7422
 109   2.0000      -0.898741       -24.4560
 110   2.0000      -0.893812       -24.3219
 111   2.0000      -0.889512       -24.2049
 112   2.0000      -0.880976       -23.9726
 113   2.0000      -0.874504       -23.7965
 114   2.0000      -0.860415       -23.4131
 115   2.0000      -0.854234       -23.2449
 116   2.0000      -0.850298       -23.1378
 117   2.0000      -0.841101       -22.8875
 118   2.0000      -0.837790       -22.7974
 119   2.0000      -0.827742       -22.5240
 120   2.0000      -0.823239       -22.4015
 121   2.0000      -0.821932       -22.3659
 122   2.0000      -0.820388       -22.3239
 123   2.0000      -0.819257       -22.2931
 124   2.0000      -0.817514       -22.2457
 125   2.0000      -0.813918       -22.1478
 126   2.0000      -0.807113       -21.9627
 127   2.0000      -0.793217       -21.5845
 128   2.0000      -0.790407       -21.5081
 129   2.0000      -0.773127       -21.0379
 130   2.0000      -0.769258       -20.9326
 131   2.0000      -0.751717       -20.4553
 132   2.0000      -0.747411       -20.3381
 133   2.0000      -0.739256       -20.1162
 134   2.0000      -0.724075       -19.7031
 135   2.0000      -0.723570       -19.6893
 136   2.0000      -0.711251       -19.3541
 137   2.0000      -0.703035       -19.1305
 138   2.0000      -0.694738       -18.9048
 139   2.0000      -0.691745       -18.8233
 140   2.0000      -0.687099       -18.6969
 141   2.0000      -0.680318       -18.5124
 142   2.0000      -0.670938       -18.2571
 143   2.0000      -0.663297       -18.0492
 144   2.0000      -0.659720       -17.9519
 145   2.0000      -0.657190       -17.8830
 146   2.0000      -0.654296       -17.8043
 147   2.0000      -0.646209       -17.5842
 148   2.0000      -0.641507       -17.4563
 149   2.0000      -0.638800       -17.3826
 150   2.0000      -0.630840       -17.1660
 151   2.0000      -0.628043       -17.0899
 152   2.0000      -0.625679       -17.0256
 153   2.0000      -0.619674       -16.8622
 154   2.0000      -0.614467       -16.7205
 155   2.0000      -0.611917       -16.6511
 156   2.0000      -0.609440       -16.5837
 157   2.0000      -0.608195       -16.5498
 158   2.0000      -0.602267       -16.3885
 159   2.0000      -0.592717       -16.1287
 160   2.0000      -0.591404       -16.0929
 161   2.0000      -0.582908       -15.8617
 162   2.0000      -0.579360       -15.7652
 163   2.0000      -0.569737       -15.5033
 164   2.0000      -0.566309       -15.4101
 165   2.0000      -0.559939       -15.2367
 166   2.0000      -0.558799       -15.2057
 167   2.0000      -0.549691       -14.9579
 168   2.0000      -0.548346       -14.9213
 169   2.0000      -0.546785       -14.8788
 170   2.0000      -0.541474       -14.7343
 171   2.0000      -0.537957       -14.6386
 172   2.0000      -0.530811       -14.4441
 173   2.0000      -0.528826       -14.3901
 174   2.0000      -0.525217       -14.2919
 175   2.0000      -0.523461       -14.2441
 176   2.0000      -0.521525       -14.1914
 177   2.0000      -0.519677       -14.1411
 178   2.0000      -0.515597       -14.0301
 179   2.0000      -0.509039       -13.8517
 180   2.0000      -0.507399       -13.8070
 181   2.0000      -0.505447       -13.7539
 182   2.0000      -0.503919       -13.7123
 183   2.0000      -0.503159       -13.6917
 184   2.0000      -0.501098       -13.6356
 185   2.0000      -0.499533       -13.5930
 186   2.0000      -0.496697       -13.5158
 187   2.0000      -0.493187       -13.4203
 188   2.0000      -0.488906       -13.3038
 189   2.0000      -0.486971       -13.2511
 190   2.0000      -0.485045       -13.1987
 191   2.0000      -0.482568       -13.1313
 192   2.0000      -0.477852       -13.0030
 193   2.0000      -0.476082       -12.9548
 194   2.0000      -0.473598       -12.8873
 195   2.0000      -0.473264       -12.8782
 196   2.0000      -0.467278       -12.7153
 197   2.0000      -0.466806       -12.7024
 198   2.0000      -0.464256       -12.6331
 199   2.0000      -0.462076       -12.5737
 200   2.0000      -0.459497       -12.5035
 201   2.0000      -0.456779       -12.4296
 202   2.0000      -0.456033       -12.4093
 203   2.0000      -0.452674       -12.3179
 204   2.0000      -0.451660       -12.2903
 205   2.0000      -0.448871       -12.2144
 206   2.0000      -0.445329       -12.1180
 207   2.0000      -0.442105       -12.0303
 208   2.0000      -0.441319       -12.0089
 209   2.0000      -0.441004       -12.0003
 210   2.0000      -0.436300       -11.8723
 211   2.0000      -0.435399       -11.8478
 212   2.0000      -0.431855       -11.7514
 213   2.0000      -0.431149       -11.7322
 214   2.0000      -0.429906       -11.6983
 215   2.0000      -0.428761       -11.6672
 216   2.0000      -0.428289       -11.6543
 217   2.0000      -0.423739       -11.5305
 218   2.0000      -0.422641       -11.5006
 219   2.0000      -0.421713       -11.4754
 220   2.0000      -0.415369       -11.3028
 221   2.0000      -0.413517       -11.2524
 222   2.0000      -0.410647       -11.1743
 223   2.0000      -0.409994       -11.1565
 224   2.0000      -0.409237       -11.1359
 225   2.0000      -0.407973       -11.1015
 226   2.0000      -0.405111       -11.0236
 227   2.0000      -0.401236       -10.9182
 228   2.0000      -0.399543       -10.8721
 229   2.0000      -0.395885       -10.7726
 230   2.0000      -0.392371       -10.6770
 231   2.0000      -0.391333       -10.6487
 232   2.0000      -0.390549       -10.6274
 233   2.0000      -0.389064       -10.5870
 234   2.0000      -0.380322       -10.3491
 235   2.0000      -0.374217       -10.1830
 236   2.0000      -0.371478       -10.1084
 237   2.0000      -0.369168       -10.0456
 238   2.0000      -0.367250        -9.9934
 239   2.0000      -0.356867        -9.7108
 240   2.0000      -0.350015        -9.5244
 241   2.0000      -0.346779        -9.4363
 242   2.0000      -0.345382        -9.3983
 243   2.0000      -0.341188        -9.2842
 244   2.0000      -0.338062        -9.1991
 245   2.0000      -0.330890        -9.0040
 246   2.0000      -0.328024        -8.9260
 247   2.0000      -0.321969        -8.7612
 248   2.0000      -0.310890        -8.4598
 249   2.0000      -0.306318        -8.3353
 250   2.0000      -0.299481        -8.1493
 251   2.0000      -0.293889        -7.9971
 252   2.0000      -0.287977        -7.8363
 253   2.0000      -0.273939        -7.4543
 254   2.0000      -0.243818        -6.6346
 255   2.0000      -0.217453        -5.9172
 256   2.0000      -0.202823        -5.5191
 257   0.0000      -0.116459        -3.1690
 258   0.0000      -0.064304        -1.7498
 259   0.0000      -0.060594        -1.6488
 260   0.0000      -0.037132        -1.0104
 261   0.0000      -0.025439        -0.6922

MULLIKEN ATOMIC CHARGES
-----------------------
   0 C :   -0.015431
   1 C :   -0.072647
   2 C :    0.061860
   3 C :    0.028613
   4 C :   -0.056843
   5 S :    0.103240
   6 C :   -0.042884
   7 C :    0.015380
   8 C :    0.045306
   9 C :   -0.051219
  10 S :    0.105368
  11 C :   -0.058076
  12 C :    0.107738
  13 C :   -0.051307
  14 C :   -0.077256
  15 N :    0.039014
  16 C :   -0.144148
  17 C :   -0.140448
  18 N :    0.052920
  19 C :   -0.215482
  20 N :    0.225405
  21 C :   -0.205527
  22 N :    0.233818
  23 C :    0.099538
  24 C :   -0.007900
  25 C :    0.027794
  26 N :   -0.300186
  27 S :    0.527955
  28 N :   -0.280207
  29 C :    0.002306
  30 C :   -0.040932
  31 C :   -0.015421
  32 C :    0.127658
  33 C :   -0.070040
  34 C :    0.026563
  35 C :    0.105324
  36 C :    0.019274
  37 C :   -0.132432
  38 C :    0.069606
  39 C :    0.025922
  40 C :    0.068990
  41 C :    0.028669
  42 C :   -0.115587
  43 C :    0.138158
  44 C :   -0.018636
  45 C :   -0.041254
  46 C :   -0.028972
  47 C :    0.041975
  48 C :   -0.160311
  49 S :    0.107638
  50 C :   -0.154213
  51 C :    0.127418
  52 C :    0.131901
  53 O :   -0.180265
  54 O :   -0.366045
  55 C :    0.205440
  56 C :    0.001906
  57 C :   -0.036776
  58 C :    0.034592
  59 C :    0.031231
  60 C :   -0.052149
  61 S :    0.097532
  62 C :   -0.072898
  63 C :    0.030196
  64 C :    0.048847
  65 C :   -0.061153
  66 S :    0.074657
  67 C :   -0.034252
  68 H :    0.027216
  69 H :    0.031004
  70 H :   -0.005172
  71 H :   -0.005164
  72 H :   -0.014975
  73 H :   -0.013383
  74 H :    0.006485
  75 H :   -0.040470
  76 H :   -0.039216
  77 H :   -0.027029
  78 H :   -0.005287
  79 H :    0.001829
  80 H :    0.018051
  81 H :    0.013913
  82 H :    0.020990
  83 H :   -0.004362
  84 H :   -0.005048
  85 H :    0.018596
  86 H :    0.004129
  87 H :    0.020721
  88 H :   -0.043509
  89 H :   -0.032957
  90 H :   -0.041405
  91 H :   -0.026326
  92 H :   -0.005748
  93 H :    0.185622
  94 H :    0.036817
  95 H :    0.015144
  96 H :    0.028808
  97 H :   -0.017931
  98 H :   -0.015597
  99 H :   -0.018088
 100 H :   -0.012366
 101 H :   -0.012636
 102 H :    0.018497
 103 H :    0.019988
Sum of atomic charges:   -0.0000000

LOEWDIN ATOMIC CHARGES
----------------------
   0 C :   -0.055886
   1 C :   -0.141786
   2 C :   -0.019696
   3 C :   -0.027391
   4 C :   -0.160404
   5 S :    0.371612
   6 C :   -0.188730
   7 C :   -0.020479
   8 C :   -0.040992
   9 C :   -0.114623
  10 S :    0.393131
  11 C :   -0.059303
  12 C :   -0.021453
  13 C :   -0.009114
  14 C :   -0.007702
  15 N :    0.004346
  16 C :   -0.031812
  17 C :   -0.043280
  18 N :    0.002806
  19 C :   -0.038121
  20 N :   -0.017651
  21 C :   -0.033693
  22 N :   -0.013235
  23 C :   -0.029470
  24 C :   -0.037259
  25 C :   -0.038876
  26 N :   -0.268983
  27 S :    0.654052
  28 N :   -0.278299
  29 C :   -0.023755
  30 C :   -0.001767
  31 C :   -0.003669
  32 C :   -0.006804
  33 C :   -0.028132
  34 C :   -0.003486
  35 C :   -0.023779
  36 C :    0.005828
  37 C :   -0.035493
  38 C :   -0.010255
  39 C :   -0.057212
  40 C :   -0.011821
  41 C :   -0.058155
  42 C :   -0.024502
  43 C :   -0.018488
  44 C :   -0.018048
  45 C :   -0.016028
  46 C :   -0.036562
  47 C :   -0.028691
  48 C :   -0.208114
  49 S :    0.424341
  50 C :   -0.185964
  51 C :   -0.038432
  52 C :    0.005381
  53 O :   -0.053019
  54 O :   -0.139097
  55 C :    0.070682
  56 C :   -0.087961
  57 C :   -0.148679
  58 C :   -0.033994
  59 C :   -0.035935
  60 C :   -0.186050
  61 S :    0.401993
  62 C :   -0.178844
  63 C :   -0.026693
  64 C :   -0.034150
  65 C :   -0.139044
  66 S :    0.346939
  67 C :   -0.080816
  68 H :    0.032068
  69 H :    0.030354
  70 H :    0.036183
  71 H :    0.034634
  72 H :    0.031433
  73 H :    0.022385
  74 H :    0.033958
  75 H :    0.021247
  76 H :    0.025140
  77 H :    0.024015
  78 H :    0.018890
  79 H :    0.021566
  80 H :    0.023803
  81 H :    0.026373
  82 H :    0.025487
  83 H :    0.019022
  84 H :    0.019137
  85 H :    0.024481
  86 H :    0.021923
  87 H :    0.025424
  88 H :    0.022941
  89 H :    0.024831
  90 H :    0.025364
  91 H :    0.017676
  92 H :    0.034514
  93 H :    0.093870
  94 H :    0.024016
  95 H :    0.012578
  96 H :    0.015138
  97 H :    0.033132
  98 H :    0.031796
  99 H :    0.029444
 100 H :    0.031815
 101 H :    0.032696
 102 H :    0.027864
 103 H :    0.025372

  Mayer bond orders larger than 0.100000
B(  0-C ,  1-C ) :   1.8571 B(  0-C , 68-H ) :   0.9514 B(  0-C , 69-H ) :   0.9420
B(  1-C ,  2-C ) :   1.0820 B(  1-C ,  5-S ) :   1.0070 B(  2-C ,  3-C ) :   1.6529
B(  2-C , 70-H ) :   0.9929 B(  3-C ,  4-C ) :   1.1619 B(  3-C , 71-H ) :   0.9920
B(  4-C ,  5-S ) :   1.0677 B(  4-C ,  6-C ) :   1.5020 B(  6-C ,  7-C ) :   1.1934
B(  6-C , 10-S ) :   1.0486 B(  7-C ,  8-C ) :   1.5609 B(  7-C , 72-H ) :   0.9938
B(  8-C ,  9-C ) :   1.1937 B(  8-C , 73-H ) :   0.9649 B(  9-C , 10-S ) :   1.0787
B(  9-C , 11-C ) :   1.4405 B( 11-C , 12-C ) :   1.3368 B( 11-C , 74-H ) :   0.9128
B( 12-C , 13-C ) :   1.2063 B( 12-C , 23-C ) :   0.1179 B( 12-C , 25-C ) :   1.1386
B( 13-C , 14-C ) :   1.0964 B( 13-C , 18-N ) :   1.4741 B( 14-C , 15-N ) :   1.4130
B( 14-C , 23-C ) :   1.3082 B( 15-N , 16-C ) :   1.7408 B( 16-C , 17-C ) :   1.2083
B( 16-C , 21-C ) :   1.1585 B( 17-C , 18-N ) :   1.7132 B( 17-C , 19-C ) :   1.1580
B( 19-C , 20-N ) :   3.0406 B( 21-C , 22-N ) :   3.0367 B( 23-C , 24-C ) :   1.2278
B( 23-C , 29-C ) :   1.0069 B( 24-C , 25-C ) :   1.0976 B( 24-C , 28-N ) :   1.5151
B( 25-C , 26-N ) :   1.5088 B( 26-N , 27-S ) :   1.2552 B( 26-N , 28-N ) :   0.1467
B( 26-N , 73-H ) :   0.1028 B( 27-S , 28-N ) :   1.2740 B( 29-C , 30-C ) :   1.3017
B( 29-C , 34-C ) :   1.3635 B( 30-C , 31-C ) :   1.4210 B( 30-C , 75-H ) :   0.9904
B( 31-C , 32-C ) :   1.3557 B( 31-C , 37-C ) :   0.9108 B( 32-C , 33-C ) :   1.3305
B( 32-C , 35-C ) :   0.9974 B( 33-C , 34-C ) :   1.3866 B( 33-C , 76-H ) :   0.9924
B( 34-C , 77-H ) :   0.9785 B( 35-C , 36-C ) :   1.3681 B( 35-C , 45-C ) :   1.3228
B( 36-C , 37-C ) :   0.9126 B( 36-C , 42-C ) :   1.3775 B( 37-C , 38-C ) :   1.0360
B( 37-C , 40-C ) :   1.0406 B( 38-C , 39-C ) :   1.1040 B( 38-C , 78-H ) :   0.9392
B( 38-C , 79-H ) :   0.9385 B( 39-C , 80-H ) :   0.9646 B( 39-C , 81-H ) :   0.9633
B( 39-C , 82-H ) :   0.9630 B( 40-C , 41-C ) :   1.1017 B( 40-C , 83-H ) :   0.9386
B( 40-C , 84-H ) :   0.9388 B( 41-C , 85-H ) :   0.9640 B( 41-C , 86-H ) :   0.9637
B( 41-C , 87-H ) :   0.9641 B( 42-C , 43-C ) :   1.2819 B( 42-C , 88-H ) :   1.0136
B( 43-C , 44-C ) :   1.3390 B( 43-C , 46-C ) :   1.0827 B( 44-C , 45-C ) :   1.4039
B( 44-C , 89-H ) :   0.9836 B( 45-C , 90-H ) :   0.9892 B( 46-C , 47-C ) :   1.6337
B( 46-C , 91-H ) :   0.9828 B( 47-C , 48-C ) :   1.1700 B( 47-C , 92-H ) :   0.9722
B( 48-C , 49-S ) :   1.0661 B( 48-C , 50-C ) :   0.1122 B( 48-C , 52-C ) :   1.4608
B( 49-S , 50-C ) :   1.1065 B( 50-C , 51-C ) :   1.4328 B( 50-C , 56-C ) :   1.1560
B( 51-C , 52-C ) :   1.2375 B( 51-C , 54-O ) :   1.1039 B( 52-C , 53-O ) :   1.2766
B( 53-O , 93-H ) :   0.9416 B( 54-O , 55-C ) :   0.9190 B( 55-C , 94-H ) :   0.9798
B( 55-C , 95-H ) :   0.9680 B( 55-C , 96-H ) :   0.9716 B( 56-C , 57-C ) :   1.6085
B( 56-C , 97-H ) :   0.9437 B( 57-C , 58-C ) :   1.1263 B( 57-C , 61-S ) :   1.0448
B( 58-C , 59-C ) :   1.6113 B( 58-C , 98-H ) :   0.9999 B( 59-C , 60-C ) :   1.1628
B( 59-C , 99-H ) :   0.9926 B( 60-C , 61-S ) :   1.0154 B( 60-C , 62-C ) :   1.5625
B( 62-C , 63-C ) :   1.1530 B( 62-C , 66-S ) :   1.0410 B( 63-C , 64-C ) :   1.6610
B( 63-C ,100-H ) :   0.9912 B( 64-C , 65-C ) :   1.0799 B( 64-C ,101-H ) :   0.9928
B( 65-C , 66-S ) :   1.0069 B( 65-C , 67-C ) :   1.8630 B( 67-C ,102-H ) :   0.9507
B( 67-C ,103-H ) :   0.9421

-----------------------------------------------------------------------------
         ABSORPTION SPECTRUM VIA TRANSITION ELECTRIC DIPOLE MOMENTS
-----------------------------------------------------------------------------
State   Energy  Wavelength   fosc         T2         TX        TY        TZ
        (cm-1)    (nm)                  (au**2)     (au)      (au)      (au)
-----------------------------------------------------------------------------
   0    7624.4   1311.6   0.779035400  33.63794  -2.63176   4.58002  -2.39482
   1   12169.1    821.8   0.044815163   1.21239  -0.44626   0.99813  -0.13027
   2   17127.7    583.8   1.931429877  37.12398  -3.17085   4.68321  -2.26655
   3   17709.0    564.7   0.078153505   1.45288   0.79299  -0.69051   0.58926
   4   19622.8    509.6   0.591958470   9.93130   1.71903  -2.20176   1.45893
   5   22266.1    449.1   0.073965277   1.09360   0.15628  -0.95114   0.40560
   6   23166.3    431.7   0.039140706   0.55622  -0.10393   0.73842   0.01260
   7   23328.0    428.7   0.110093207   1.55367  -0.51100  -1.11758   0.20870
   8   24093.1    415.1   0.074958417   1.02424   0.56767  -0.76153   0.34937
   9   24563.8    407.1   0.063911771   0.85656  -0.08604  -0.45943   0.79880
  10   25204.1    396.8   0.006503321   0.08495  -0.08995   0.24737  -0.12515
  11   26135.5    382.6   0.131362423   1.65469   0.48259  -1.17550   0.19997
  12   26675.9    374.9   0.103763371   1.28056   0.66042  -0.74028  -0.54442
  13   27383.7    365.2   0.010248521   0.12321   0.11324   0.15280  -0.29502
  14   28124.5    355.6   0.081281020   0.95144  -0.67163   0.53395   0.46395
  15   28672.9    348.8   0.003559077   0.04086  -0.05690   0.08434  -0.17468
  16   29408.2    340.0   0.068957168   0.77195   0.65336  -0.43135  -0.39876
  17   29758.0    336.0   0.014856962   0.16436  -0.25736  -0.27428   0.15132
  18   30394.9    329.0   0.035112466   0.38031   0.44064   0.31915  -0.29033
  19   30674.1    326.0   0.128315660   1.37716  -0.22262  -1.06309   0.44433
  20   30741.2    325.3   0.007681532   0.08226  -0.22387  -0.15004   0.09814
  21   31362.5    318.9   0.001958699   0.02056   0.13248  -0.01664   0.05228
  22   31849.7    314.0   0.025160763   0.26007   0.31481   0.32447   0.23598
  23   31896.1    313.5   0.574434405   5.92897   2.28961   0.82862   0.00777
  24   32163.7    310.9   0.074529050   0.76284  -0.66237  -0.54601   0.16119
  25   32567.8    307.1   0.064508204   0.65208   0.13539  -0.60927   0.51238
  26   33265.2    300.6   0.117928281   1.16709  -0.48205   0.73270  -0.63077
  27   33760.2    296.2   0.110985708   1.08228   0.08628   0.87280  -0.55952
  28   34002.6    294.1   0.057355500   0.55531  -0.69894  -0.05214   0.25314
  29   34227.7    292.2   0.009694634   0.09325   0.07621  -0.13245   0.26438
  30   34718.3    288.0   0.017961282   0.17032  -0.28665   0.15056  -0.25589
  31   34730.8    287.9   0.002638861   0.02501   0.00699  -0.09452   0.12661
  32   34832.2    287.1   0.137611271   1.30062  -1.05650  -0.42884   0.02301
  33   35668.5    280.4   0.015385269   0.14200  -0.12663  -0.23258   0.26809
  34   35877.6    278.7   0.061663791   0.56582   0.41157   0.45024  -0.44014
  35   36003.0    277.8   0.073125243   0.66866   0.43927   0.60738  -0.32678
  36   36176.2    276.4   0.015815235   0.14392  -0.24849  -0.26727  -0.10366
  37   36656.0    272.8   0.058706480   0.52725  -0.53833   0.41139  -0.26117
  38   36914.4    270.9   0.042937292   0.38293   0.40259  -0.34177   0.32256
  39   37300.6    268.1   0.000534632   0.00472  -0.03305  -0.05794  -0.01642
  40   37877.6    264.0   0.017286548   0.15025  -0.19885  -0.09663   0.31838
  41   37913.3    263.8   0.006386475   0.05546  -0.14140  -0.14138   0.12440
  42   38335.1    260.9   0.016224826   0.13933   0.19170   0.15311  -0.28132
  43   38968.4    256.6   0.007459197   0.06302   0.20591   0.14339  -0.00746
  44   39256.1    254.7   0.096691413   0.81088   0.86404  -0.10098   0.23264
  45   39497.2    253.2   0.058977829   0.49158   0.00546  -0.59022   0.37841
  46   39716.2    251.8   0.296355464   2.45652  -0.16430  -1.41073   0.66286
  47   39732.7    251.7   0.101399476   0.84016  -0.85838  -0.23151  -0.22306
  48   40243.8    248.5   0.095290993   0.77952   0.86322   0.08165   0.16646

FINAL SINGLE POINT ENERGY     -4943.390967857971

DIPOLE MOMENT
-------------
                                X             Y             Z
Electronic contribution:     24.46896     -53.53318       7.47794
Nuclear contribution   :    -21.12911      54.72012      -5.98097
                        -----------------------------------------
Total Dipole Moment    :      3.33985       1.18694       1.49697
                        -----------------------------------------
Magnitude (a.u.)       :      3.84764
Magnitude (Debye)      :      9.77993

Rotational constants in cm-1:     0.003722     0.000170     0.000166
Rotational constants in MHz :   111.592847     5.102713     4.968808

                             ****ORCA TERMINATED NORMALLY****
TOTAL RUN TIME: 0 days 0 hours 11 minutes 0 seconds 888 msec
