                         Program Version 4.2.0 -  RELEASE  -
|  1> # ORCA input file
|  2> # SCF done       -137.182827688483          0.000386838252
|  3> ! CAM-B3LYP def2-SVP def2/J RIJCOSX Grid4 TightSCF
|  4> %maxcore 5000
|  5> %tddft
|  6>     Mode sTDDFT
|  7>     Ethresh 5.0
|  8>     maxcore 5000
|  9> end
| 10>
| 11> %pal
| 12>   nprocs 6
| 13>   end
| 14> * xyz 0 1
| 15>    C        1.64426        -3.06931         4.34609
| 16>    S        0.40719        -2.70270         3.23436
| 17>    C       -0.07168        -4.36478         3.08146
| 18>    C        0.73131        -5.17857         3.88860
| 19>    C        1.71801        -4.41816         4.61375
| 20>    C        2.62309        -5.07070         5.47947
| 21>    C        2.55905        -6.43141         5.62025
| 22>    C        3.45813        -7.10323         6.48058
| 23>    N        4.19443        -7.63091         7.18223
| 24>    C        1.58319        -7.19167         4.89506
| 25>    C        1.54398        -8.59492         5.05366
| 26>    N        1.49746        -9.73432         5.17027
| 27>    C        0.69194        -6.57513         4.05074
| 28>    C       -1.14517        -4.68745         2.20908
| 29>    S       -1.80332        -6.29852         2.03779
| 30>    C       -2.96295        -5.77403         0.84968
| 31>    C       -2.85364        -4.39752         0.63563
| 32>    C       -1.82159        -3.81228         1.39203
| 33>    C       -3.77505        -3.58873        -0.14761
| 34>    O       -3.56770        -2.45313        -0.50128
| 35>    C       -3.78856        -6.74225         0.23652
| 36>    C       -4.34438        -6.61320        -1.00164
| 37>    C       -5.19030        -7.54717        -1.63383
| 38>    S       -5.28819        -7.52521        -3.36294
| 39>    C       -6.33509        -8.90819        -3.43729
| 40>    C       -6.62379        -9.36752        -2.13525
| 41>    C       -5.99560        -8.58321        -1.11896
| 42>    C       -6.27473        -8.86035         0.22607
| 43>    C       -7.04824        -9.94156         0.59103
| 44>    C       -7.24553       -10.15971         2.02661
| 45>    C       -7.19181       -11.32167         2.66167
| 46>    C       -7.62012       -10.76561        -0.41667
| 47>    C       -8.49790       -11.93097        -0.07727
| 48>    C       -7.41476       -10.45930        -1.73927
| 49>    C       -6.69608        -9.34048        -4.73293
| 50>    C       -7.62241       -10.26762        -5.09369
| 51>    C       -7.87636       -10.65417        -6.43350
| 52>    C       -7.26743       -10.26643        -7.61401
| 53>    C       -7.78254       -10.89378        -8.74392
| 54>    C       -8.80301       -11.78500        -8.46828
| 55>    S       -9.12759       -11.82301        -6.75714
| 56>    C       -9.57044       -12.58150        -9.36071
| 57>    S      -11.16993       -13.08345        -8.91772
| 58>    C      -11.42692       -13.87885       -10.40243
| 59>    C      -10.33140       -13.79236       -11.23279
| 60>    C       -9.24575       -13.05581       -10.63637
| 61>    C       -8.02534       -12.95601       -11.32809
| 62>    C       -7.90144       -13.50956       -12.57938
| 63>    C       -6.67321       -13.41386       -13.27056
| 64>    N       -5.66757       -13.32151       -13.81289
| 65>    C       -9.00181       -14.19410       -13.19379
| 66>    C       -8.84106       -14.73316       -14.49126
| 67>    N       -8.72830       -15.17496       -15.54243
| 68>    C      -10.18862       -14.34115       -12.52641
| 69>    H        2.25557        -2.28631         4.74757
| 70>    H        3.35798        -4.49422         6.02077
| 71>    H       -0.02915        -7.17281         3.51620
| 72>    H       -1.60490        -2.75953         1.34164
| 73>    H       -4.73914        -4.08744        -0.36734
| 74>    H       -3.88566        -7.67932         0.76607
| 75>    H       -4.05103        -5.76731        -1.61072
| 76>    H       -5.88426        -8.21360         0.99565
| 77>    H       -7.38220        -9.25032         2.60044
| 78>    H       -6.99600       -12.25074         2.15608
| 79>    H       -7.30877       -11.37886         3.73055
| 80>    H       -9.04867       -11.75166         0.84265
| 81>    H       -7.89930       -12.83225         0.05432
| 82>    H       -9.20444       -12.11868        -0.88299
| 83>    H       -7.87564       -11.08380        -2.48562
| 84>    H       -6.16314        -8.83290        -5.52725
| 85>    H       -8.23435       -10.75391        -4.35136
| 86>    H       -6.47143        -9.54579        -7.65653
| 87>    H       -7.45053       -10.66957        -9.74100
| 88>    H      -12.35986       -14.36876       -10.59600
| 89>    H       -7.17490       -12.47216       -10.87489
| 90>    H      -11.01113       -14.87646       -12.97628
| 91> *
| 92>
| 93>                          ****END OF INPUT****

CARTESIAN COORDINATES (ANGSTROEM)
---------------------------------
  C      1.644260   -3.069310    4.346090
  S      0.407190   -2.702700    3.234360
  C     -0.071680   -4.364780    3.081460
  C      0.731310   -5.178570    3.888600
  C      1.718010   -4.418160    4.613750
  C      2.623090   -5.070700    5.479470
  C      2.559050   -6.431410    5.620250
  C      3.458130   -7.103230    6.480580
  N      4.194430   -7.630910    7.182230
  C      1.583190   -7.191670    4.895060
  C      1.543980   -8.594920    5.053660
  N      1.497460   -9.734320    5.170270
  C      0.691940   -6.575130    4.050740
  C     -1.145170   -4.687450    2.209080
  S     -1.803320   -6.298520    2.037790
  C     -2.962950   -5.774030    0.849680
  C     -2.853640   -4.397520    0.635630
  C     -1.821590   -3.812280    1.392030
  C     -3.775050   -3.588730   -0.147610
  O     -3.567700   -2.453130   -0.501280
  C     -3.788560   -6.742250    0.236520
  C     -4.344380   -6.613200   -1.001640
  C     -5.190300   -7.547170   -1.633830
  S     -5.288190   -7.525210   -3.362940
  C     -6.335090   -8.908190   -3.437290
  C     -6.623790   -9.367520   -2.135250
  C     -5.995600   -8.583210   -1.118960
  C     -6.274730   -8.860350    0.226070
  C     -7.048240   -9.941560    0.591030
  C     -7.245530  -10.159710    2.026610
  C     -7.191810  -11.321670    2.661670
  C     -7.620120  -10.765610   -0.416670
  C     -8.497900  -11.930970   -0.077270
  C     -7.414760  -10.459300   -1.739270
  C     -6.696080   -9.340480   -4.732930
  C     -7.622410  -10.267620   -5.093690
  C     -7.876360  -10.654170   -6.433500
  C     -7.267430  -10.266430   -7.614010
  C     -7.782540  -10.893780   -8.743920
  C     -8.803010  -11.785000   -8.468280
  S     -9.127590  -11.823010   -6.757140
  C     -9.570440  -12.581500   -9.360710
  S    -11.169930  -13.083450   -8.917720
  C    -11.426920  -13.878850  -10.402430
  C    -10.331400  -13.792360  -11.232790
  C     -9.245750  -13.055810  -10.636370
  C     -8.025340  -12.956010  -11.328090
  C     -7.901440  -13.509560  -12.579380
  C     -6.673210  -13.413860  -13.270560
  N     -5.667570  -13.321510  -13.812890
  C     -9.001810  -14.194100  -13.193790
  C     -8.841060  -14.733160  -14.491260
  N     -8.728300  -15.174960  -15.542430
  C    -10.188620  -14.341150  -12.526410
  H      2.255570   -2.286310    4.747570
  H      3.357980   -4.494220    6.020770
  H     -0.029150   -7.172810    3.516200
  H     -1.604900   -2.759530    1.341640
  H     -4.739140   -4.087440   -0.367340
  H     -3.885660   -7.679320    0.766070
  H     -4.051030   -5.767310   -1.610720
  H     -5.884260   -8.213600    0.995650
  H     -7.382200   -9.250320    2.600440
  H     -6.996000  -12.250740    2.156080
  H     -7.308770  -11.378860    3.730550
  H     -9.048670  -11.751660    0.842650
  H     -7.899300  -12.832250    0.054320
  H     -9.204440  -12.118680   -0.882990
  H     -7.875640  -11.083800   -2.485620
  H     -6.163140   -8.832900   -5.527250
  H     -8.234350  -10.753910   -4.351360
  H     -6.471430   -9.545790   -7.656530
  H     -7.450530  -10.669570   -9.741000
  H    -12.359860  -14.368760  -10.596000
  H     -7.174900  -12.472160  -10.874890
  H    -11.011130  -14.876460  -12.976280

 Total Charge           Charge          ....    0
 Multiplicity           Mult            ....    1
 Number of Electrons    NEL             ....  402
 Basis Dimension        Dim             ....  886

ORBITAL ENERGIES
----------------

  NO   OCC          E(Eh)            E(eV)
   0   2.0000     -88.993937     -2421.6481
   1   2.0000     -88.993880     -2421.6466
   2   2.0000     -88.979451     -2421.2539
   3   2.0000     -88.979086     -2421.2440
   4   2.0000     -88.972843     -2421.0742
   5   2.0000     -19.212439      -522.7970
   6   2.0000     -14.409327      -392.0977
   7   2.0000     -14.409135      -392.0925
   8   2.0000     -14.409059      -392.0904
   9   2.0000     -14.408301      -392.0698
  10   2.0000     -10.359309      -281.8911
  11   2.0000     -10.336523      -281.2711
  12   2.0000     -10.335291      -281.2376
  13   2.0000     -10.332551      -281.1630
  14   2.0000     -10.332218      -281.1539
  15   2.0000     -10.332171      -281.1527
  16   2.0000     -10.331337      -281.1300
  17   2.0000     -10.331027      -281.1215
  18   2.0000     -10.329073      -281.0684
  19   2.0000     -10.325631      -280.9747
  20   2.0000     -10.322127      -280.8794
  21   2.0000     -10.321228      -280.8549
  22   2.0000     -10.319737      -280.8143
  23   2.0000     -10.319513      -280.8082
  24   2.0000     -10.318416      -280.7784
  25   2.0000     -10.316870      -280.7363
  26   2.0000     -10.316616      -280.7294
  27   2.0000     -10.316107      -280.7156
  28   2.0000     -10.315880      -280.7094
  29   2.0000     -10.311583      -280.5924
  30   2.0000     -10.310381      -280.5597
  31   2.0000     -10.310238      -280.5558
  32   2.0000     -10.309889      -280.5464
  33   2.0000     -10.309616      -280.5389
  34   2.0000     -10.307884      -280.4918
  35   2.0000     -10.307758      -280.4883
  36   2.0000     -10.307557      -280.4829
  37   2.0000     -10.307021      -280.4683
  38   2.0000     -10.302145      -280.3356
  39   2.0000     -10.301030      -280.3053
  40   2.0000     -10.299394      -280.2608
  41   2.0000     -10.296668      -280.1866
  42   2.0000     -10.296113      -280.1715
  43   2.0000     -10.294942      -280.1396
  44   2.0000     -10.294707      -280.1332
  45   2.0000     -10.292756      -280.0801
  46   2.0000     -10.292083      -280.0618
  47   2.0000     -10.291606      -280.0488
  48   2.0000     -10.289205      -279.9835
  49   2.0000     -10.285821      -279.8914
  50   2.0000     -10.283413      -279.8259
  51   2.0000     -10.282811      -279.8095
  52   2.0000     -10.274518      -279.5839
  53   2.0000     -10.271307      -279.4965
  54   2.0000      -8.089261      -220.1200
  55   2.0000      -8.089076      -220.1150
  56   2.0000      -8.074702      -219.7238
  57   2.0000      -8.074528      -219.7191
  58   2.0000      -8.068830      -219.5640
  59   2.0000      -6.058163      -164.8510
  60   2.0000      -6.058056      -164.8481
  61   2.0000      -6.053791      -164.7320
  62   2.0000      -6.053588      -164.7265
  63   2.0000      -6.052440      -164.6953
  64   2.0000      -6.052205      -164.6889
  65   2.0000      -6.044105      -164.4685
  66   2.0000      -6.043345      -164.4478
  67   2.0000      -6.039895      -164.3539
  68   2.0000      -6.039413      -164.3408
  69   2.0000      -6.038042      -164.3035
  70   2.0000      -6.037455      -164.2875
  71   2.0000      -6.036667      -164.2661
  72   2.0000      -6.034037      -164.1945
  73   2.0000      -6.030903      -164.1092
  74   2.0000      -1.125419       -30.6242
  75   2.0000      -1.029147       -28.0045
  76   2.0000      -1.028125       -27.9767
  77   2.0000      -1.011062       -27.5124
  78   2.0000      -1.007329       -27.4108
  79   2.0000      -1.005679       -27.3659
  80   2.0000      -0.997663       -27.1478
  81   2.0000      -0.994597       -27.0643
  82   2.0000      -0.989677       -26.9305
  83   2.0000      -0.989188       -26.9172
  84   2.0000      -0.962500       -26.1910
  85   2.0000      -0.961453       -26.1625
  86   2.0000      -0.956219       -26.0200
  87   2.0000      -0.930852       -25.3298
  88   2.0000      -0.914488       -24.8845
  89   2.0000      -0.903070       -24.5738
  90   2.0000      -0.895504       -24.3679
  91   2.0000      -0.886283       -24.1170
  92   2.0000      -0.879652       -23.9365
  93   2.0000      -0.876860       -23.8606
  94   2.0000      -0.874592       -23.7989
  95   2.0000      -0.866821       -23.5874
  96   2.0000      -0.861415       -23.4403
  97   2.0000      -0.854762       -23.2592
  98   2.0000      -0.847565       -23.0634
  99   2.0000      -0.835775       -22.7426
 100   2.0000      -0.821331       -22.3495
 101   2.0000      -0.809763       -22.0348
 102   2.0000      -0.791826       -21.5467
 103   2.0000      -0.778258       -21.1775
 104   2.0000      -0.762317       -20.7437
 105   2.0000      -0.761273       -20.7153
 106   2.0000      -0.752382       -20.4733
 107   2.0000      -0.741600       -20.1800
 108   2.0000      -0.736442       -20.0396
 109   2.0000      -0.729595       -19.8533
 110   2.0000      -0.721294       -19.6274
 111   2.0000      -0.705502       -19.1977
 112   2.0000      -0.700858       -19.0713
 113   2.0000      -0.688335       -18.7305
 114   2.0000      -0.678894       -18.4737
 115   2.0000      -0.675983       -18.3944
 116   2.0000      -0.674328       -18.3494
 117   2.0000      -0.656509       -17.8645
 118   2.0000      -0.643530       -17.5113
 119   2.0000      -0.641011       -17.4428
 120   2.0000      -0.638219       -17.3668
 121   2.0000      -0.629814       -17.1381
 122   2.0000      -0.619726       -16.8636
 123   2.0000      -0.615173       -16.7397
 124   2.0000      -0.612959       -16.6795
 125   2.0000      -0.611825       -16.6486
 126   2.0000      -0.607753       -16.5378
 127   2.0000      -0.597419       -16.2566
 128   2.0000      -0.585067       -15.9205
 129   2.0000      -0.581170       -15.8144
 130   2.0000      -0.576411       -15.6849
 131   2.0000      -0.566350       -15.4112
 132   2.0000      -0.559954       -15.2371
 133   2.0000      -0.554268       -15.0824
 134   2.0000      -0.551350       -15.0030
 135   2.0000      -0.544559       -14.8182
 136   2.0000      -0.541864       -14.7449
 137   2.0000      -0.535756       -14.5787
 138   2.0000      -0.534987       -14.5577
 139   2.0000      -0.531938       -14.4748
 140   2.0000      -0.528690       -14.3864
 141   2.0000      -0.526122       -14.3165
 142   2.0000      -0.521456       -14.1895
 143   2.0000      -0.519066       -14.1245
 144   2.0000      -0.516958       -14.0672
 145   2.0000      -0.515755       -14.0344
 146   2.0000      -0.513533       -13.9739
 147   2.0000      -0.508179       -13.8282
 148   2.0000      -0.506015       -13.7694
 149   2.0000      -0.503540       -13.7020
 150   2.0000      -0.501198       -13.6383
 151   2.0000      -0.497961       -13.5502
 152   2.0000      -0.490593       -13.3497
 153   2.0000      -0.486972       -13.2512
 154   2.0000      -0.483934       -13.1685
 155   2.0000      -0.480244       -13.0681
 156   2.0000      -0.478591       -13.0231
 157   2.0000      -0.477183       -12.9848
 158   2.0000      -0.473651       -12.8887
 159   2.0000      -0.472108       -12.8467
 160   2.0000      -0.470027       -12.7901
 161   2.0000      -0.461961       -12.5706
 162   2.0000      -0.459489       -12.5033
 163   2.0000      -0.454208       -12.3596
 164   2.0000      -0.450508       -12.2590
 165   2.0000      -0.447298       -12.1716
 166   2.0000      -0.445123       -12.1124
 167   2.0000      -0.444881       -12.1058
 168   2.0000      -0.437245       -11.8980
 169   2.0000      -0.437089       -11.8938
 170   2.0000      -0.436564       -11.8795
 171   2.0000      -0.436153       -11.8683
 172   2.0000      -0.435613       -11.8536
 173   2.0000      -0.434859       -11.8331
 174   2.0000      -0.434319       -11.8184
 175   2.0000      -0.431240       -11.7346
 176   2.0000      -0.427805       -11.6412
 177   2.0000      -0.424936       -11.5631
 178   2.0000      -0.416929       -11.3452
 179   2.0000      -0.415435       -11.3046
 180   2.0000      -0.415390       -11.3033
 181   2.0000      -0.411111       -11.1869
 182   2.0000      -0.411005       -11.1840
 183   2.0000      -0.410122       -11.1600
 184   2.0000      -0.406536       -11.0624
 185   2.0000      -0.401625       -10.9288
 186   2.0000      -0.392712       -10.6862
 187   2.0000      -0.376149       -10.2355
 188   2.0000      -0.369725       -10.0607
 189   2.0000      -0.356298        -9.6954
 190   2.0000      -0.342640        -9.3237
 191   2.0000      -0.342428        -9.3180
 192   2.0000      -0.334500        -9.1022
 193   2.0000      -0.334269        -9.0959
 194   2.0000      -0.334036        -9.0896
 195   2.0000      -0.325802        -8.8655
 196   2.0000      -0.321651        -8.7526
 197   2.0000      -0.309837        -8.4311
 198   2.0000      -0.282519        -7.6877
 199   2.0000      -0.265396        -7.2218
 200   2.0000      -0.230815        -6.2808
 201   0.0000      -0.097919        -2.6645
 202   0.0000      -0.076508        -2.0819
 203   0.0000      -0.065915        -1.7936
 204   0.0000      -0.036000        -0.9796
 205   0.0000      -0.024497        -0.6666

MULLIKEN ATOMIC CHARGES
-----------------------
   0 C :   -0.117195
   1 S :    0.188585
   2 C :   -0.091674
   3 C :    0.105853
   4 C :    0.105313
   5 C :   -0.016899
   6 C :   -0.072086
   7 C :   -0.176090
   8 N :    0.169760
   9 C :   -0.069596
  10 C :   -0.179946
  11 N :    0.167172
  12 C :   -0.050589
  13 C :   -0.051630
  14 S :    0.116748
  15 C :   -0.074259
  16 C :    0.022819
  17 C :   -0.050823
  18 C :    0.116546
  19 O :   -0.188909
  20 C :    0.013719
  21 C :    0.035586
  22 C :   -0.143019
  23 S :    0.168787
  24 C :   -0.128509
  25 C :    0.139309
  26 C :    0.132932
  27 C :   -0.102917
  28 C :    0.070044
  29 C :   -0.056404
  30 C :   -0.011871
  31 C :   -0.063341
  32 C :    0.082792
  33 C :   -0.093251
  34 C :    0.058019
  35 C :    0.053878
  36 C :   -0.070955
  37 C :   -0.003349
  38 C :    0.015994
  39 C :   -0.101141
  40 S :    0.123473
  41 C :   -0.109977
  42 S :    0.190557
  43 C :   -0.125724
  44 C :    0.100897
  45 C :    0.145213
  46 C :   -0.056283
  47 C :   -0.072604
  48 C :   -0.176543
  49 N :    0.169117
  50 C :   -0.075457
  51 C :   -0.172747
  52 N :    0.171917
  53 C :   -0.018061
  54 H :    0.030839
  55 H :   -0.003941
  56 H :    0.004992
  57 H :    0.004954
  58 H :   -0.005819
  59 H :    0.004304
  60 H :    0.004098
  61 H :   -0.034522
  62 H :    0.010695
  63 H :    0.020381
  64 H :    0.030743
  65 H :    0.034292
  66 H :    0.036578
  67 H :    0.012676
  68 H :   -0.055616
  69 H :   -0.017527
  70 H :   -0.022306
  71 H :   -0.008151
  72 H :   -0.006539
  73 H :    0.029572
  74 H :   -0.007547
  75 H :   -0.005335
Sum of atomic charges:   -0.0000000

LOEWDIN ATOMIC CHARGES
----------------------
   0 C :   -0.184898
   1 S :    0.521449
   2 C :   -0.180312
   3 C :   -0.054022
   4 C :   -0.050267
   5 C :    0.037362
   6 C :   -0.057060
   7 C :   -0.032237
   8 N :   -0.036584
   9 C :   -0.055955
  10 C :   -0.032763
  11 N :   -0.038795
  12 C :    0.024188
  13 C :   -0.188671
  14 S :    0.452854
  15 C :   -0.136282
  16 C :   -0.118892
  17 C :   -0.027833
  18 C :    0.095006
  19 O :   -0.143296
  20 C :   -0.063408
  21 C :   -0.023714
  22 C :   -0.185146
  23 S :    0.489737
  24 C :   -0.167635
  25 C :   -0.040421
  26 C :   -0.037207
  27 C :   -0.011273
  28 C :   -0.019887
  29 C :   -0.022990
  30 C :   -0.033827
  31 C :   -0.008240
  32 C :   -0.045864
  33 C :   -0.023461
  34 C :   -0.036888
  35 C :   -0.047259
  36 C :   -0.160153
  37 C :   -0.054308
  38 C :   -0.047988
  39 C :   -0.194404
  40 S :    0.427893
  41 C :   -0.185631
  42 S :    0.506583
  43 C :   -0.190635
  44 C :   -0.049496
  45 C :   -0.049267
  46 C :    0.032681
  47 C :   -0.058557
  48 C :   -0.033415
  49 N :   -0.039494
  50 C :   -0.056397
  51 C :   -0.032125
  52 N :   -0.036508
  53 C :    0.035704
  54 H :    0.030406
  55 H :    0.045488
  56 H :    0.027116
  57 H :    0.031918
  58 H :   -0.001551
  59 H :    0.032269
  60 H :    0.033189
  61 H :    0.027420
  62 H :    0.032655
  63 H :    0.023073
  64 H :    0.028562
  65 H :    0.034856
  66 H :    0.037215
  67 H :    0.030217
  68 H :    0.023316
  69 H :    0.028330
  70 H :    0.025246
  71 H :    0.031588
  72 H :    0.032366
  73 H :    0.029365
  74 H :    0.041936
  75 H :    0.045030

  Mayer bond orders larger than 0.100000
B(  0-C ,  1-S ) :   1.1994 B(  0-C ,  2-C ) :   0.1043 B(  0-C ,  4-C ) :   1.4203
B(  0-C , 54-H ) :   0.9710 B(  1-S ,  2-C ) :   1.1977 B(  2-C ,  3-C ) :   1.3560
B(  2-C , 13-C ) :   1.1628 B(  3-C ,  4-C ) :   1.1824 B(  3-C , 12-C ) :   1.1813
B(  4-C ,  5-C ) :   1.1541 B(  5-C ,  6-C ) :   1.5850 B(  5-C , 55-H ) :   1.0066
B(  6-C ,  7-C ) :   1.0751 B(  6-C ,  9-C ) :   1.2211 B(  7-C ,  8-N ) :   3.0474
B(  9-C , 10-C ) :   1.0813 B(  9-C , 12-C ) :   1.5978 B( 10-C , 11-N ) :   3.0401
B( 12-C , 56-H ) :   0.9805 B( 13-C , 14-S ) :   1.0943 B( 13-C , 17-C ) :   1.4889
B( 14-S , 15-C ) :   1.1335 B( 15-C , 16-C ) :   1.3989 B( 15-C , 20-C ) :   1.1655
B( 16-C , 17-C ) :   1.2537 B( 16-C , 18-C ) :   0.9800 B( 17-C , 57-H ) :   0.9964
B( 18-C , 19-O ) :   2.1690 B( 18-C , 58-H ) :   0.9592 B( 20-C , 21-C ) :   1.6211
B( 20-C , 59-H ) :   0.9497 B( 21-C , 22-C ) :   1.1923 B( 21-C , 60-H ) :   0.9496
B( 22-C , 23-S ) :   1.1465 B( 22-C , 24-C ) :   0.1033 B( 22-C , 26-C ) :   1.2874
B( 23-S , 24-C ) :   1.1658 B( 24-C , 25-C ) :   1.2942 B( 24-C , 34-C ) :   1.1791
B( 25-C , 26-C ) :   1.2290 B( 25-C , 33-C ) :   1.1903 B( 26-C , 27-C ) :   1.2082
B( 27-C , 28-C ) :   1.4817 B( 27-C , 61-H ) :   0.9953 B( 28-C , 29-C ) :   1.0179
B( 28-C , 31-C ) :   1.2347 B( 29-C , 30-C ) :   1.9707 B( 29-C , 62-H ) :   0.9640
B( 30-C , 63-H ) :   0.9631 B( 30-C , 64-H ) :   0.9503 B( 31-C , 32-C ) :   1.0738
B( 31-C , 33-C ) :   1.5380 B( 32-C , 65-H ) :   0.9459 B( 32-C , 66-H ) :   0.9465
B( 32-C , 67-H ) :   0.9524 B( 33-C , 68-H ) :   0.9962 B( 34-C , 35-C ) :   1.6633
B( 34-C , 69-H ) :   0.9431 B( 35-C , 36-C ) :   1.1407 B( 35-C , 70-H ) :   0.9579
B( 36-C , 37-C ) :   1.4799 B( 36-C , 39-C ) :   0.1047 B( 36-C , 40-S ) :   1.1154
B( 37-C , 38-C ) :   1.2908 B( 37-C , 71-H ) :   0.9922 B( 38-C , 39-C ) :   1.4844
B( 38-C , 72-H ) :   0.9949 B( 39-C , 40-S ) :   1.1237 B( 39-C , 41-C ) :   1.1164
B( 41-C , 42-S ) :   1.1982 B( 41-C , 43-C ) :   0.1101 B( 41-C , 45-C ) :   1.3728
B( 42-S , 43-C ) :   1.1945 B( 43-C , 44-C ) :   1.4203 B( 43-C , 73-H ) :   0.9708
B( 44-C , 45-C ) :   1.1865 B( 44-C , 53-C ) :   1.1534 B( 45-C , 46-C ) :   1.1853
B( 46-C , 47-C ) :   1.5754 B( 46-C , 74-H ) :   0.9958 B( 47-C , 48-C ) :   1.0808
B( 47-C , 50-C ) :   1.2197 B( 48-C , 49-N ) :   3.0425 B( 50-C , 51-C ) :   1.0780
B( 50-C , 53-C ) :   1.5832 B( 51-C , 52-N ) :   3.0467 B( 53-C , 75-H ) :   1.0069

-----------------------------------------------------------------------------
         ABSORPTION SPECTRUM VIA TRANSITION ELECTRIC DIPOLE MOMENTS
-----------------------------------------------------------------------------
State   Energy  Wavelength   fosc         T2         TX        TY        TZ
        (cm-1)    (nm)                  (au**2)     (au)      (au)      (au)
-----------------------------------------------------------------------------
   0   14900.1    671.1   1.979738015  43.74144  -3.48350  -3.07360  -4.70740
   1   20565.7    486.2   0.097296416   1.55750  -0.62198   0.46872   0.97516
   2   22594.2    442.6   0.030995762   0.45163   0.43605  -0.29172   0.41999
   3   23273.2    429.7   0.045616952   0.64528   0.68315  -0.14508  -0.39691
   4   26078.5    383.5   0.152854369   1.92962   0.60533  -0.01927   1.25013
   5   27272.1    366.7   0.115623875   1.39574  -0.57219  -0.39252   0.95617
   6   29032.4    344.4   0.021789220   0.24708  -0.33252  -0.15856  -0.33371
   7   29521.5    338.7   0.157278213   1.75391  -0.62359  -0.63955  -0.97776
   8   29907.7    334.4   0.106193837   1.16894  -0.32222  -0.53937   0.87988
   9   30919.9    323.4   0.002854623   0.03039  -0.15405   0.07254   0.03740
  10   31491.3    317.5   0.189599856   1.98209  -0.23870  -0.31987   1.35011
  11   32657.2    306.2   0.110869174   1.11765   0.49977  -0.67230   0.64490
  12   33388.8    299.5   0.054105488   0.53348  -0.03554   0.42492  -0.59301
  13   33916.0    294.8   0.084624099   0.82142   0.35338   0.57575   0.60419
  14   34407.1    290.6   0.033732849   0.32276  -0.47181  -0.22748  -0.22002
  15   35380.7    282.6   0.009417710   0.08763   0.11590  -0.03420  -0.27024
  16   35974.7    278.0   0.018169714   0.16627   0.19395  -0.17382   0.31376
  17   36039.1    277.5   0.046390124   0.42377   0.47904  -0.12703   0.42208
  18   37858.6    264.1   0.059905228   0.52093   0.70428  -0.13035   0.08900
  19   38000.2    263.2   0.142626148   1.23563   0.33968   0.89683   0.56209
  20   38126.4    262.3   0.079587884   0.68722   0.03253  -0.70767   0.43055
  21   38161.8    262.0   0.038696265   0.33382   0.41859  -0.35454   0.18139
  22   38455.3    260.0   0.095339511   0.81619  -0.62940  -0.64124  -0.09414
  23   38670.2    258.6   0.041643717   0.35453  -0.29875   0.50080  -0.12032
  24   38971.3    256.6   0.076338536   0.64487   0.28238   0.51555  -0.54713
  25   39234.0    254.9   0.006618631   0.05554   0.13108  -0.19190   0.03911
  26   39467.4    253.4   0.025409996   0.21195   0.02978   0.44251   0.12350
  27   39532.7    253.0   0.027191212   0.22644   0.02631   0.09921  -0.46465
  28   39836.0    251.0   0.093832550   0.77545  -0.32327   0.54765   0.60912
  29   40305.7    248.1   0.010639239   0.08690  -0.17996   0.23297  -0.01547

FINAL SINGLE POINT ENERGY     -3971.842877942127

DIPOLE MOMENT
-------------
                                X             Y             Z
Electronic contribution:     18.01122       8.37254     -15.63342
Nuclear contribution   :    -21.38875      -6.63050      17.32510
                        -----------------------------------------
Total Dipole Moment    :     -3.37753       1.74204       1.69167
                        -----------------------------------------
Magnitude (a.u.)       :      4.15982
Magnitude (Debye)      :     10.57343

Rotational constants in cm-1:     0.002792     0.000320     0.000314
Rotational constants in MHz :    83.701576     9.608300     9.426003

                             ****ORCA TERMINATED NORMALLY****
TOTAL RUN TIME: 0 days 0 hours 5 minutes 37 seconds 735 msec
