                         Program Version 4.2.0 -  RELEASE  -
|  1> # ORCA input file
|  2> # SCF done       -141.284624430036          0.000878151659
|  3> ! CAM-B3LYP def2-SVP def2/J RIJCOSX Grid4 TightSCF
|  4> %maxcore 5000
|  5> %tddft
|  6>     Mode sTDDFT
|  7>     Ethresh 5.0
|  8>     maxcore 5000
|  9> end
| 10>
| 11> %pal
| 12>   nprocs 6
| 13>   end
| 14> * xyz 0 1
| 15>    C        1.81268         2.18677         2.84521
| 16>    N        0.77958         2.53332         3.55167
| 17>    C        0.58978         3.86174         3.29683
| 18>    C        1.59370         4.35554         2.34146
| 19>    C        1.39986         5.78776         2.07679
| 20>    O        2.03763         6.51423         1.34524
| 21>    C        0.23973         6.11587         2.92828
| 22>    C       -0.22184         4.90316         3.65215
| 23>    N       -1.28263         5.20090         4.44604
| 24>    C       -1.49577         6.47772         4.27169
| 25>    C       -0.57822         7.11405         3.33751
| 26>    C        2.39251         3.27680         2.05230
| 27>    C        3.53302         3.19799         1.20741
| 28>    S        4.45673         1.74042         1.02296
| 29>    C        5.55682         2.52436        -0.04888
| 30>    C        6.60231         1.74856        -0.69118
| 31>    O        7.21971         2.08615        -1.66969
| 32>    C        5.22003         3.86436        -0.24080
| 33>    C        4.06679         4.23183         0.46714
| 34>    C        6.08550         4.77592        -0.95503
| 35>    N        5.69394         5.73916        -1.83805
| 36>    C        4.35957         5.98543        -2.33442
| 37>    C        3.74850         7.24557        -1.72772
| 38>    C        6.80270         6.47096        -2.32414
| 39>    O        6.70552         7.35632        -3.14936
| 40>    C        7.93949         5.90336        -1.63540
| 41>    C        7.45417         4.85649        -0.80508
| 42>    C        8.57067         4.27639        -0.09817
| 43>    O        8.64323         3.38797         0.72436
| 44>    N        9.67918         5.01526        -0.55646
| 45>    C       11.01719         4.67089        -0.14287
| 46>    C       11.73848         3.84067        -1.20186
| 47>    C        9.31850         5.97503        -1.47430
| 48>    C       10.25122         6.85936        -2.08898
| 49>    C        9.88149         7.78216        -3.00236
| 50>    C       10.76644         8.71102        -3.66634
| 51>    C       10.23836         9.63704        -4.56734
| 52>    C       11.08376        10.54089        -5.21678
| 53>    C       12.45171        10.48260        -4.91104
| 54>    N       12.96198         9.60275        -4.07295
| 55>    C       12.15884         8.74227        -3.47964
| 56>    C       10.54062        11.49268        -6.15328
| 57>    N        9.23442        11.60539        -6.33420
| 58>    C        9.07250        12.56361        -7.26534
| 59>    C       10.39020        13.09660        -7.70473
| 60>    C       10.20666        14.14623        -8.73213
| 61>    O       11.04914        14.79172        -9.30770
| 62>    C        8.73922        14.19790        -8.87018
| 63>    C        8.09384        13.21866        -7.95924
| 64>    N        6.74362        13.26782        -8.08980
| 65>    C        6.51955        14.18704        -8.99237
| 66>    C        7.72002        14.80770        -9.52350
| 67>    C       11.31364        12.41493        -6.99528
| 68>    H        2.18542         1.17699         2.86320
| 69>    H       -2.29469         6.97309         4.79567
| 70>    H       -0.58784         8.15078         3.06508
| 71>    H        6.76256         0.76360        -0.21534
| 72>    H        3.64690         5.22207         0.48060
| 73>    H        3.74228         5.10909        -2.12507
| 74>    H        4.43914         6.11704        -3.41837
| 75>    H        3.62442         7.15606        -0.65181
| 76>    H        2.77266         7.42318        -2.17089
| 77>    H        4.38668         8.09938        -1.93949
| 78>    H       10.90432         4.07984         0.77047
| 79>    H       11.57726         5.58005         0.09472
| 80>    H       11.17367         2.93397        -1.40399
| 81>    H       12.72689         3.56463        -0.84484
| 82>    H       11.84201         4.39551        -2.13185
| 83>    H       11.28385         6.76432        -1.78790
| 84>    H        8.83816         7.85487        -3.28110
| 85>    H        9.17979         9.66655        -4.77839
| 86>    H       13.16278        11.16861        -5.34870
| 87>    H       12.65620         8.04150        -2.82345
| 88>    H        5.51167        14.42553        -9.28605
| 89>    H        7.74610        15.57754       -10.26904
| 90>    H       12.38162        12.49620        -7.02245
| 91> *
| 92>
| 93>                          ****END OF INPUT****

CARTESIAN COORDINATES (ANGSTROEM)
---------------------------------
  C      1.812680    2.186770    2.845210
  N      0.779580    2.533320    3.551670
  C      0.589780    3.861740    3.296830
  C      1.593700    4.355540    2.341460
  C      1.399860    5.787760    2.076790
  O      2.037630    6.514230    1.345240
  C      0.239730    6.115870    2.928280
  C     -0.221840    4.903160    3.652150
  N     -1.282630    5.200900    4.446040
  C     -1.495770    6.477720    4.271690
  C     -0.578220    7.114050    3.337510
  C      2.392510    3.276800    2.052300
  C      3.533020    3.197990    1.207410
  S      4.456730    1.740420    1.022960
  C      5.556820    2.524360   -0.048880
  C      6.602310    1.748560   -0.691180
  O      7.219710    2.086150   -1.669690
  C      5.220030    3.864360   -0.240800
  C      4.066790    4.231830    0.467140
  C      6.085500    4.775920   -0.955030
  N      5.693940    5.739160   -1.838050
  C      4.359570    5.985430   -2.334420
  C      3.748500    7.245570   -1.727720
  C      6.802700    6.470960   -2.324140
  O      6.705520    7.356320   -3.149360
  C      7.939490    5.903360   -1.635400
  C      7.454170    4.856490   -0.805080
  C      8.570670    4.276390   -0.098170
  O      8.643230    3.387970    0.724360
  N      9.679180    5.015260   -0.556460
  C     11.017190    4.670890   -0.142870
  C     11.738480    3.840670   -1.201860
  C      9.318500    5.975030   -1.474300
  C     10.251220    6.859360   -2.088980
  C      9.881490    7.782160   -3.002360
  C     10.766440    8.711020   -3.666340
  C     10.238360    9.637040   -4.567340
  C     11.083760   10.540890   -5.216780
  C     12.451710   10.482600   -4.911040
  N     12.961980    9.602750   -4.072950
  C     12.158840    8.742270   -3.479640
  C     10.540620   11.492680   -6.153280
  N      9.234420   11.605390   -6.334200
  C      9.072500   12.563610   -7.265340
  C     10.390200   13.096600   -7.704730
  C     10.206660   14.146230   -8.732130
  O     11.049140   14.791720   -9.307700
  C      8.739220   14.197900   -8.870180
  C      8.093840   13.218660   -7.959240
  N      6.743620   13.267820   -8.089800
  C      6.519550   14.187040   -8.992370
  C      7.720020   14.807700   -9.523500
  C     11.313640   12.414930   -6.995280
  H      2.185420    1.176990    2.863200
  H     -2.294690    6.973090    4.795670
  H     -0.587840    8.150780    3.065080
  H      6.762560    0.763600   -0.215340
  H      3.646900    5.222070    0.480600
  H      3.742280    5.109090   -2.125070
  H      4.439140    6.117040   -3.418370
  H      3.624420    7.156060   -0.651810
  H      2.772660    7.423180   -2.170890
  H      4.386680    8.099380   -1.939490
  H     10.904320    4.079840    0.770470
  H     11.577260    5.580050    0.094720
  H     11.173670    2.933970   -1.403990
  H     12.726890    3.564630   -0.844840
  H     11.842010    4.395510   -2.131850
  H     11.283850    6.764320   -1.787900
  H      8.838160    7.854870   -3.281100
  H      9.179790    9.666550   -4.778390
  H     13.162780   11.168610   -5.348700
  H     12.656200    8.041500   -2.823450
  H      5.511670   14.425530   -9.286050
  H      7.746100   15.577540  -10.269040
  H     12.381620   12.496200   -7.022450

 Total Charge           Charge          ....    0
 Multiplicity           Mult            ....    1
 Number of Electrons    NEL             ....  368
 Basis Dimension        Dim             ....  861

ORBITAL ENERGIES
----------------

  NO   OCC          E(Eh)            E(eV)
   0   2.0000     -88.985031     -2421.4058
   1   2.0000     -19.229423      -523.2592
   2   2.0000     -19.211587      -522.7739
   3   2.0000     -19.209605      -522.7199
   4   2.0000     -19.186402      -522.0885
   5   2.0000     -19.183883      -522.0200
   6   2.0000     -14.449993      -393.2043
   7   2.0000     -14.447282      -393.1305
   8   2.0000     -14.429869      -392.6567
   9   2.0000     -14.422364      -392.4525
  10   2.0000     -14.414601      -392.2412
  11   2.0000     -14.409792      -392.1104
  12   2.0000     -14.406486      -392.0204
  13   2.0000     -10.388749      -282.6922
  14   2.0000     -10.371261      -282.2164
  15   2.0000     -10.368142      -282.1315
  16   2.0000     -10.366308      -282.0816
  17   2.0000     -10.363272      -281.9990
  18   2.0000     -10.350806      -281.6598
  19   2.0000     -10.347479      -281.5692
  20   2.0000     -10.345716      -281.5213
  21   2.0000     -10.343412      -281.4585
  22   2.0000     -10.343112      -281.4504
  23   2.0000     -10.335926      -281.2548
  24   2.0000     -10.334028      -281.2032
  25   2.0000     -10.332576      -281.1637
  26   2.0000     -10.331216      -281.1267
  27   2.0000     -10.326901      -281.0093
  28   2.0000     -10.326505      -280.9985
  29   2.0000     -10.325112      -280.9606
  30   2.0000     -10.323005      -280.9033
  31   2.0000     -10.321346      -280.8581
  32   2.0000     -10.316806      -280.7346
  33   2.0000     -10.310415      -280.5607
  34   2.0000     -10.308171      -280.4996
  35   2.0000     -10.305952      -280.4392
  36   2.0000     -10.304752      -280.4066
  37   2.0000     -10.304403      -280.3971
  38   2.0000     -10.302223      -280.3377
  39   2.0000     -10.299483      -280.2632
  40   2.0000     -10.299085      -280.2524
  41   2.0000     -10.298230      -280.2291
  42   2.0000     -10.297534      -280.2102
  43   2.0000     -10.295827      -280.1637
  44   2.0000     -10.295068      -280.1430
  45   2.0000     -10.290656      -280.0230
  46   2.0000     -10.290634      -280.0224
  47   2.0000     -10.289866      -280.0015
  48   2.0000     -10.289764      -279.9987
  49   2.0000     -10.260143      -279.1927
  50   2.0000     -10.253030      -278.9991
  51   2.0000     -10.251063      -278.9456
  52   2.0000     -10.247921      -278.8601
  53   2.0000      -8.080540      -219.8827
  54   2.0000      -6.049525      -164.6159
  55   2.0000      -6.045519      -164.5069
  56   2.0000      -6.043143      -164.4423
  57   2.0000      -1.143326       -31.1115
  58   2.0000      -1.129269       -30.7290
  59   2.0000      -1.125501       -30.6264
  60   2.0000      -1.124944       -30.6113
  61   2.0000      -1.120230       -30.4830
  62   2.0000      -1.094204       -29.7748
  63   2.0000      -1.079645       -29.3786
  64   2.0000      -1.076129       -29.2830
  65   2.0000      -1.061248       -28.8780
  66   2.0000      -1.059206       -28.8225
  67   2.0000      -1.050990       -28.5989
  68   2.0000      -1.049905       -28.5694
  69   2.0000      -1.008028       -27.4298
  70   2.0000      -0.950779       -25.8720
  71   2.0000      -0.939839       -25.5743
  72   2.0000      -0.929109       -25.2823
  73   2.0000      -0.921182       -25.0666
  74   2.0000      -0.911130       -24.7931
  75   2.0000      -0.903095       -24.5745
  76   2.0000      -0.880626       -23.9630
  77   2.0000      -0.876898       -23.8616
  78   2.0000      -0.871559       -23.7163
  79   2.0000      -0.865565       -23.5532
  80   2.0000      -0.861150       -23.4331
  81   2.0000      -0.854137       -23.2422
  82   2.0000      -0.842716       -22.9315
  83   2.0000      -0.813476       -22.1358
  84   2.0000      -0.799238       -21.7484
  85   2.0000      -0.788785       -21.4639
  86   2.0000      -0.782770       -21.3003
  87   2.0000      -0.776119       -21.1193
  88   2.0000      -0.771592       -20.9961
  89   2.0000      -0.758607       -20.6427
  90   2.0000      -0.753255       -20.4971
  91   2.0000      -0.736335       -20.0367
  92   2.0000      -0.732894       -19.9431
  93   2.0000      -0.718987       -19.5646
  94   2.0000      -0.715695       -19.4750
  95   2.0000      -0.704702       -19.1759
  96   2.0000      -0.700140       -19.0518
  97   2.0000      -0.693834       -18.8802
  98   2.0000      -0.680376       -18.5140
  99   2.0000      -0.662644       -18.0315
 100   2.0000      -0.653752       -17.7895
 101   2.0000      -0.647110       -17.6088
 102   2.0000      -0.646022       -17.5792
 103   2.0000      -0.642671       -17.4880
 104   2.0000      -0.636848       -17.3295
 105   2.0000      -0.633918       -17.2498
 106   2.0000      -0.617025       -16.7901
 107   2.0000      -0.613120       -16.6839
 108   2.0000      -0.605054       -16.4644
 109   2.0000      -0.603940       -16.4340
 110   2.0000      -0.594713       -16.1830
 111   2.0000      -0.590320       -16.0634
 112   2.0000      -0.585156       -15.9229
 113   2.0000      -0.575483       -15.6597
 114   2.0000      -0.572615       -15.5816
 115   2.0000      -0.566855       -15.4249
 116   2.0000      -0.565634       -15.3917
 117   2.0000      -0.560549       -15.2533
 118   2.0000      -0.558284       -15.1917
 119   2.0000      -0.552966       -15.0470
 120   2.0000      -0.550122       -14.9696
 121   2.0000      -0.545549       -14.8451
 122   2.0000      -0.541621       -14.7383
 123   2.0000      -0.537567       -14.6279
 124   2.0000      -0.534620       -14.5478
 125   2.0000      -0.529549       -14.4098
 126   2.0000      -0.524367       -14.2688
 127   2.0000      -0.523110       -14.2346
 128   2.0000      -0.518463       -14.1081
 129   2.0000      -0.517632       -14.0855
 130   2.0000      -0.515869       -14.0375
 131   2.0000      -0.513726       -13.9792
 132   2.0000      -0.512217       -13.9381
 133   2.0000      -0.510708       -13.8971
 134   2.0000      -0.505731       -13.7616
 135   2.0000      -0.504543       -13.7293
 136   2.0000      -0.502618       -13.6769
 137   2.0000      -0.496368       -13.5069
 138   2.0000      -0.494710       -13.4617
 139   2.0000      -0.491339       -13.3700
 140   2.0000      -0.489818       -13.3286
 141   2.0000      -0.488058       -13.2807
 142   2.0000      -0.480647       -13.0791
 143   2.0000      -0.479081       -13.0365
 144   2.0000      -0.476534       -12.9671
 145   2.0000      -0.473039       -12.8721
 146   2.0000      -0.471991       -12.8435
 147   2.0000      -0.469969       -12.7885
 148   2.0000      -0.468147       -12.7389
 149   2.0000      -0.462650       -12.5894
 150   2.0000      -0.459413       -12.5013
 151   2.0000      -0.455515       -12.3952
 152   2.0000      -0.452241       -12.3061
 153   2.0000      -0.449208       -12.2236
 154   2.0000      -0.446580       -12.1521
 155   2.0000      -0.445583       -12.1249
 156   2.0000      -0.439507       -11.9596
 157   2.0000      -0.435121       -11.8403
 158   2.0000      -0.422724       -11.5029
 159   2.0000      -0.418871       -11.3981
 160   2.0000      -0.405178       -11.0254
 161   2.0000      -0.391813       -10.6618
 162   2.0000      -0.383112       -10.4250
 163   2.0000      -0.377757       -10.2793
 164   2.0000      -0.373126       -10.1533
 165   2.0000      -0.369667       -10.0592
 166   2.0000      -0.362121        -9.8538
 167   2.0000      -0.355286        -9.6678
 168   2.0000      -0.354214        -9.6386
 169   2.0000      -0.350106        -9.5269
 170   2.0000      -0.346937        -9.4406
 171   2.0000      -0.344724        -9.3804
 172   2.0000      -0.344088        -9.3631
 173   2.0000      -0.343302        -9.3417
 174   2.0000      -0.337406        -9.1813
 175   2.0000      -0.335459        -9.1283
 176   2.0000      -0.333037        -9.0624
 177   2.0000      -0.328360        -8.9351
 178   2.0000      -0.325100        -8.8464
 179   2.0000      -0.322321        -8.7708
 180   2.0000      -0.306975        -8.3532
 181   2.0000      -0.304726        -8.2920
 182   2.0000      -0.295636        -8.0447
 183   2.0000      -0.237939        -6.4746
 184   0.0000      -0.121903        -3.3171
 185   0.0000      -0.109611        -2.9827
 186   0.0000      -0.078365        -2.1324
 187   0.0000      -0.065899        -1.7932
 188   0.0000      -0.040870        -1.1121

MULLIKEN ATOMIC CHARGES
-----------------------
   0 C :    0.054913
   1 N :   -0.023605
   2 C :    0.058770
   3 C :   -0.159664
   4 C :    0.222535
   5 O :   -0.133628
   6 C :   -0.014590
   7 C :   -0.012283
   8 N :   -0.047879
   9 C :    0.095710
  10 C :   -0.089969
  11 C :    0.052517
  12 C :   -0.103875
  13 S :    0.161949
  14 C :   -0.169697
  15 C :    0.211177
  16 O :   -0.176655
  17 C :    0.066545
  18 C :   -0.015005
  19 C :    0.085629
  20 N :   -0.251143
  21 C :    0.113099
  22 C :   -0.006323
  23 C :    0.171881
  24 O :   -0.208587
  25 C :   -0.078679
  26 C :    0.000917
  27 C :    0.141471
  28 O :   -0.205562
  29 N :   -0.266882
  30 C :    0.100060
  31 C :    0.005082
  32 C :    0.130131
  33 C :    0.010248
  34 C :    0.003469
  35 C :    0.073522
  36 C :   -0.012935
  37 C :    0.039717
  38 C :    0.000238
  39 N :   -0.052397
  40 C :    0.000460
  41 C :    0.044248
  42 N :   -0.042108
  43 C :    0.048154
  44 C :   -0.036024
  45 C :    0.212441
  46 O :   -0.114402
  47 C :   -0.039004
  48 C :   -0.007303
  49 N :   -0.051777
  50 C :    0.091031
  51 C :   -0.093686
  52 C :   -0.099895
  53 H :    0.018538
  54 H :    0.019524
  55 H :    0.004384
  56 H :   -0.017542
  57 H :   -0.010427
  58 H :    0.024936
  59 H :    0.031115
  60 H :    0.033014
  61 H :    0.016063
  62 H :    0.033798
  63 H :    0.041279
  64 H :    0.020977
  65 H :    0.035748
  66 H :    0.020952
  67 H :    0.013226
  68 H :   -0.030739
  69 H :    0.015115
  70 H :    0.032263
  71 H :    0.003543
  72 H :    0.005241
  73 H :    0.010586
  74 H :   -0.001653
  75 H :   -0.002300
Sum of atomic charges:   -0.0000000

LOEWDIN ATOMIC CHARGES
----------------------
   0 C :    0.087063
   1 N :   -0.074035
   2 C :    0.047918
   3 C :   -0.053463
   4 C :    0.074571
   5 O :   -0.134413
   6 C :   -0.035217
   7 C :    0.038533
   8 N :   -0.088187
   9 C :    0.086636
  10 C :   -0.022932
  11 C :   -0.049188
  12 C :   -0.167826
  13 S :    0.477156
  14 C :   -0.207331
  15 C :    0.094982
  16 O :   -0.126105
  17 C :   -0.037134
  18 C :   -0.018401
  19 C :    0.074535
  20 N :    0.008042
  21 C :    0.039412
  22 C :   -0.062504
  23 C :    0.083304
  24 O :   -0.198838
  25 C :   -0.124154
  26 C :   -0.113381
  27 C :    0.084890
  28 O :   -0.199906
  29 N :   -0.002792
  30 C :    0.035111
  31 C :   -0.061048
  32 C :    0.083174
  33 C :   -0.043717
  34 C :    0.034400
  35 C :   -0.050898
  36 C :    0.063076
  37 C :   -0.068524
  38 C :    0.041724
  39 N :   -0.064907
  40 C :    0.050246
  41 C :    0.075484
  42 N :   -0.103953
  43 C :    0.042595
  44 C :   -0.026842
  45 C :    0.063245
  46 O :   -0.128936
  47 C :   -0.039896
  48 C :    0.029095
  49 N :   -0.094309
  50 C :    0.078356
  51 C :   -0.036514
  52 C :   -0.024038
  53 H :    0.025819
  54 H :    0.027741
  55 H :    0.038293
  56 H :   -0.003773
  57 H :    0.035408
  58 H :    0.026304
  59 H :    0.033971
  60 H :    0.023256
  61 H :    0.029423
  62 H :    0.031590
  63 H :    0.037354
  64 H :    0.021142
  65 H :    0.035123
  66 H :    0.029411
  67 H :    0.021190
  68 H :    0.026038
  69 H :    0.039846
  70 H :    0.047756
  71 H :    0.023494
  72 H :    0.022230
  73 H :    0.024250
  74 H :    0.035143
  75 H :    0.034830

  Mayer bond orders larger than 0.100000
B(  0-C ,  1-N ) :   1.7319 B(  0-C , 11-C ) :   1.0341 B(  0-C , 53-H ) :   0.9881
B(  1-N ,  2-C ) :   1.2741 B(  2-C ,  3-C ) :   1.0433 B(  2-C ,  7-C ) :   1.4955
B(  3-C ,  4-C ) :   0.9059 B(  3-C , 11-C ) :   1.6103 B(  4-C ,  5-O ) :   2.1957
B(  4-C ,  6-C ) :   0.9178 B(  6-C ,  7-C ) :   1.0520 B(  6-C , 10-C ) :   1.6384
B(  7-C ,  8-N ) :   1.2861 B(  8-N ,  9-C ) :   1.6846 B(  9-C , 10-C ) :   1.0440
B(  9-C , 54-H ) :   0.9884 B( 10-C , 55-H ) :   1.0105 B( 11-C , 12-C ) :   1.0900
B( 12-C , 13-S ) :   1.1426 B( 12-C , 18-C ) :   1.4764 B( 13-S , 14-C ) :   1.1248
B( 14-C , 15-C ) :   0.9853 B( 14-C , 17-C ) :   1.4741 B( 15-C , 16-O ) :   2.1586
B( 15-C , 56-H ) :   0.9472 B( 17-C , 18-C ) :   1.2656 B( 17-C , 19-C ) :   0.9771
B( 18-C , 57-H ) :   0.9908 B( 19-C , 20-N ) :   1.2252 B( 19-C , 26-C ) :   1.4510
B( 20-N , 21-C ) :   0.9385 B( 20-N , 23-C ) :   1.0400 B( 21-C , 22-C ) :   1.1175
B( 21-C , 58-H ) :   0.9490 B( 21-C , 59-H ) :   0.9357 B( 22-C , 60-H ) :   0.9616
B( 22-C , 61-H ) :   0.9639 B( 22-C , 62-H ) :   0.9614 B( 23-C , 24-O ) :   2.0213
B( 23-C , 25-C ) :   0.9930 B( 24-O , 69-H ) :   0.1099 B( 25-C , 26-C ) :   1.2173
B( 25-C , 32-C ) :   1.3707 B( 26-C , 27-C ) :   0.9663 B( 27-C , 28-O ) :   2.1146
B( 27-C , 29-N ) :   1.0373 B( 29-N , 30-C ) :   0.9499 B( 29-N , 32-C ) :   1.1603
B( 30-C , 31-C ) :   1.1205 B( 30-C , 63-H ) :   0.9257 B( 30-C , 64-H ) :   0.9495
B( 31-C , 65-H ) :   0.9631 B( 31-C , 66-H ) :   0.9678 B( 31-C , 67-H ) :   0.9680
B( 32-C , 33-C ) :   1.1356 B( 33-C , 34-C ) :   1.6316 B( 33-C , 68-H ) :   0.9562
B( 34-C , 35-C ) :   1.0548 B( 34-C , 69-H ) :   0.9689 B( 35-C , 36-C ) :   1.3347
B( 35-C , 40-C ) :   1.2995 B( 36-C , 37-C ) :   1.3447 B( 36-C , 70-H ) :   1.0039
B( 37-C , 38-C ) :   1.3261 B( 37-C , 41-C ) :   1.0008 B( 38-C , 39-N ) :   1.5558
B( 38-C , 71-H ) :   0.9826 B( 39-N , 40-C ) :   1.5767 B( 40-C , 72-H ) :   0.9833
B( 41-C , 42-N ) :   1.6372 B( 41-C , 43-C ) :   0.1170 B( 41-C , 52-C ) :   1.0598
B( 42-N , 43-C ) :   1.3440 B( 43-C , 44-C ) :   1.0277 B( 43-C , 48-C ) :   1.4383
B( 44-C , 45-C ) :   0.8658 B( 44-C , 52-C ) :   1.6368 B( 45-C , 46-O ) :   2.3301
B( 45-C , 47-C ) :   0.8837 B( 47-C , 48-C ) :   1.0384 B( 47-C , 51-C ) :   1.6208
B( 48-C , 49-N ) :   1.3055 B( 49-N , 50-C ) :   1.6655 B( 50-C , 51-C ) :   1.0689
B( 50-C , 73-H ) :   0.9892 B( 51-C , 74-H ) :   1.0106 B( 52-C , 75-H ) :   1.0059

-----------------------------------------------------------------------------
         ABSORPTION SPECTRUM VIA TRANSITION ELECTRIC DIPOLE MOMENTS
-----------------------------------------------------------------------------
State   Energy  Wavelength   fosc         T2         TX        TY        TZ
        (cm-1)    (nm)                  (au**2)     (au)      (au)      (au)
-----------------------------------------------------------------------------
   0   12191.6    820.2   0.005277928   0.14252  -0.03235   0.36465   0.09223
   1   15870.3    630.1   0.014962825   0.31039   0.54807  -0.03426   0.09395
   2   17162.5    582.7   0.333916518   6.40521   2.14442   1.00583  -0.89162
   3   19459.6    513.9   0.104666863   1.77072   0.74825  -0.94787  -0.55892
   4   21870.9    457.2   0.147829957   2.22521   1.15434   0.68613  -0.64957
   5   22362.9    447.2   0.000615005   0.00905   0.04917  -0.07316  -0.03583
   6   22811.7    438.4   0.000739809   0.01068  -0.06214  -0.02099  -0.07984
   7   25274.4    395.7   0.180347620   2.34912  -0.99143   0.80327  -0.84909
   8   26219.9    381.4   0.002905658   0.03648   0.17208   0.07954  -0.02331
   9   26508.9    377.2   0.002752119   0.03418   0.09289   0.06380  -0.14656
  10   26569.2    376.4   0.000762397   0.00945   0.00648   0.07390  -0.06280
  11   26625.2    375.6   0.001246170   0.01541  -0.05645   0.04564  -0.10069
  12   26794.3    373.2   0.091524025   1.12452  -0.51450   0.75381  -0.53999
  13   27164.5    368.1   0.179558450   2.17611   0.73786  -0.80191   0.99429
  14   27844.3    359.1   0.005841085   0.06906  -0.22185  -0.11404   0.08270
  15   28326.7    353.0   0.004733121   0.05501  -0.14974   0.01652  -0.17976
  16   28556.2    350.2   0.022909508   0.26411   0.22049  -0.14207   0.44194
  17   28833.0    346.8   0.341028860   3.89383   0.57952  -0.98791   1.60687
  18   28946.8    345.5   0.136361556   1.55084  -1.06828   0.63066   0.10906
  19   29103.7    343.6   0.157273533   1.77903  -1.06158   0.79006  -0.16699
  20   29591.6    337.9   0.048532221   0.53993  -0.57134   0.45406  -0.08564
  21   30195.5    331.2   0.387633858   4.22625  -1.58964   0.63568   1.13807
  22   30872.5    323.9   0.024662087   0.26299  -0.38326   0.16611   0.29750
  23   31201.1    320.5   0.000670701   0.00708   0.02388  -0.05825   0.05580
  24   31265.5    319.8   0.273333027   2.87808   0.67279  -1.16337   1.03537
  25   31338.8    319.1   0.000066705   0.00070   0.01776   0.01961  -0.00067
  26   31634.0    316.1   0.031944656   0.33245   0.45833  -0.01878  -0.34932
  27   31791.6    314.5   0.030764875   0.31858  -0.16867  -0.47929   0.24579
  28   31861.0    313.9   0.039647591   0.40967   0.34840  -0.43879   0.30943
  29   32026.5    312.2   0.020559264   0.21134   0.02191   0.35652   0.28940
  30   32520.1    307.5   0.257243587   2.60416  -1.28874   0.90004   0.36503
  31   32585.3    306.9   0.275896997   2.78741  -1.21985   0.81719   0.79472
  32   32687.2    305.9   0.013336646   0.13432   0.05254   0.18282  -0.31327
  33   33287.9    300.4   0.013833915   0.13682  -0.23667  -0.27868   0.05602
  34   33651.6    297.2   0.142596465   1.39501   0.94175   0.65895  -0.27186
  35   34276.7    291.7   0.002289764   0.02199  -0.02348  -0.14190  -0.03613
  36   34729.8    287.9   0.000081529   0.00077  -0.01459   0.00706   0.02258
  37   35035.3    285.4   0.010129711   0.09518  -0.22041   0.02605   0.21430
  38   35402.4    282.5   0.038805347   0.36086  -0.11985  -0.52845   0.25929
  39   35540.9    281.4   0.089911863   0.83284   0.42572   0.61861  -0.51859
  40   35614.2    280.8   0.061133030   0.56510   0.49092   0.46702  -0.32557
  41   36405.0    274.7   0.191229526   1.72930   0.01426   1.03728  -0.80818
  42   36944.3    270.7   0.054780573   0.48815  -0.01664  -0.60537   0.34842
  43   37059.6    269.8   0.097997116   0.87054  -0.69975   0.38076   0.48570
  44   37913.6    263.8   0.485069282   4.21196   0.17096   1.55465  -1.32883
  45   38813.7    257.6   0.000009363   0.00008  -0.00141  -0.00757   0.00449
  46   39411.0    253.7   0.001697266   0.01418  -0.07533   0.06230  -0.06798
  47   39534.3    252.9   0.000532745   0.00444  -0.00053   0.05068  -0.04322
  48   39637.7    252.3   0.026423125   0.21946  -0.11126   0.40267  -0.21198
  49   39777.4    251.4   0.000159680   0.00132   0.03244   0.00448  -0.01579
  50   39856.8    250.9   0.000834540   0.00689  -0.02779  -0.04189   0.06607
  51   40038.2    249.8   0.205509895   1.68979   1.08383  -0.13991  -0.70394

FINAL SINGLE POINT ENERGY     -2692.559553322544

DIPOLE MOMENT
-------------
                                X             Y             Z
Electronic contribution:    -16.13028       0.42055       3.09931
Nuclear contribution   :     15.13912      -0.43248      -2.24255
                        -----------------------------------------
Total Dipole Moment    :     -0.99116      -0.01193       0.85677
                        -----------------------------------------
Magnitude (a.u.)       :      1.31018
Magnitude (Debye)      :      3.33022

Rotational constants in cm-1:     0.002459     0.000612     0.000513
Rotational constants in MHz :    73.719491    18.341685    15.392899

                             ****ORCA TERMINATED NORMALLY****
TOTAL RUN TIME: 0 days 0 hours 5 minutes 51 seconds 502 msec
