                         Program Version 4.2.0 -  RELEASE  -
|  1> # ORCA input file
|  2> # SCF done       -145.150040037359          0.000635910815
|  3> ! CAM-B3LYP def2-SVP def2/J RIJCOSX Grid4 TightSCF
|  4> %maxcore 5000
|  5> %tddft
|  6>     Mode sTDDFT
|  7>     Ethresh 5.0
|  8>     maxcore 5000
|  9> end
| 10>
| 11> %pal
| 12>   nprocs 6
| 13>   end
| 14> * xyz 0 1
| 15>    C        3.37063        -0.89524         1.37356
| 16>    N        3.11994        -2.15093         1.16089
| 17>    C        3.61442        -2.41850        -0.08461
| 18>    C        4.22204        -1.21335        -0.67095
| 19>    C        4.73864        -1.49277        -2.01800
| 20>    O        5.28958        -0.73524        -2.78736
| 21>    C        4.40957        -2.92129        -2.19559
| 22>    C        3.72297        -3.44141        -0.98392
| 23>    N        3.41100        -4.75394        -1.14349
| 24>    C        3.84365        -5.06860        -2.33432
| 25>    C        4.47760        -3.96891        -3.04974
| 26>    C        4.06506        -0.22432         0.26769
| 27>    C        4.45867         1.14051         0.21278
| 28>    S        4.04776         2.28196         1.45437
| 29>    C        4.81741         3.55976         0.59010
| 30>    C        4.68685         4.92198         1.08006
| 31>    O        4.81879         5.91591         0.41203
| 32>    C        5.39173         3.10583        -0.59811
| 33>    C        5.17737         1.73452        -0.80240
| 34>    C        6.22147         3.96081        -1.41592
| 35>    N        6.26234         3.98424        -2.78165
| 36>    C        5.39458         3.28465        -3.70055
| 37>    C        3.93975         3.71646        -3.54965
| 38>    C        7.19126         4.94328        -3.24756
| 39>    O        7.38554         5.16278        -4.42668
| 40>    C        7.77083         5.50045        -2.04824
| 41>    C        7.15050         4.86390        -0.94043
| 42>    C        7.72250         5.39953         0.27304
| 43>    O        7.53509         5.14421         1.44368
| 44>    N        8.65205         6.35332        -0.18392
| 45>    C        9.36987         7.18870         0.74754
| 46>    C        8.69589         8.54827         0.91727
| 47>    C        8.67860         6.43428        -1.55763
| 48>    C        9.50108         7.33963        -2.28019
| 49>    C        9.50628         7.38407        -3.63520
| 50>    C       10.28016         8.28591        -4.41955
| 51>    S       10.22591         8.15669        -6.15498
| 52>    C       11.30244         9.48289        -6.33959
| 53>    C       11.67243         9.88536        -7.68598
| 54>    O       11.26651         9.31982        -8.67367
| 55>    C       11.69186        10.01706        -5.10180
| 56>    C       11.10283         9.31939        -4.02724
| 57>    C       12.56283        11.14001        -4.93136
| 58>    N       13.10771        11.79449        -5.94941
| 59>    C       13.83911        12.78181        -5.40650
| 60>    C       13.75358        12.74776        -3.92497
| 61>    C       14.55689        13.84363        -3.33501
| 62>    O       14.71557        14.11347        -2.16873
| 63>    C       15.10331        14.51137        -4.52983
| 64>    C       14.64199        13.83100        -5.76536
| 65>    N       15.14269        14.44808        -6.86354
| 66>    C       15.86217        15.43961        -6.40181
| 67>    C       15.88099        15.53847        -4.95452
| 68>    C       12.94516        11.70806        -3.63155
| 69>    H        3.08071        -0.41838         2.29411
| 70>    H        3.72004        -6.06865        -2.71236
| 71>    H        4.89281        -4.02690        -4.03643
| 72>    H        4.38788         4.97222         2.14307
| 73>    H        5.54677         1.17269        -1.64180
| 74>    H        5.49047         2.20439        -3.56525
| 75>    H        5.75964         3.54350        -4.69878
| 76>    H        3.55598         3.45753        -2.56523
| 77>    H        3.33259         3.21797        -4.29989
| 78>    H        3.84998         4.79193        -3.68456
| 79>    H       10.40736         7.29921         0.41962
| 80>    H        9.35808         6.65442         1.70176
| 81>    H        8.66553         9.09100        -0.02516
| 82>    H        9.23790         9.14143         1.64874
| 83>    H        7.67555         8.40973         1.26612
| 84>    H       10.13042         8.00698        -1.71053
| 85>    H        8.87864         6.69627        -4.18629
| 86>    H       12.35478        10.74767        -7.72494
| 87>    H       11.26957         9.57177        -2.99673
| 88>    H       16.37692        16.09791        -7.08021
| 89>    H       16.40869        16.27923        -4.38724
| 90>    H       12.63004        11.35101        -2.67198
| 91> *
| 92>
| 93>                          ****END OF INPUT****

CARTESIAN COORDINATES (ANGSTROEM)
---------------------------------
  C      3.370630   -0.895240    1.373560
  N      3.119940   -2.150930    1.160890
  C      3.614420   -2.418500   -0.084610
  C      4.222040   -1.213350   -0.670950
  C      4.738640   -1.492770   -2.018000
  O      5.289580   -0.735240   -2.787360
  C      4.409570   -2.921290   -2.195590
  C      3.722970   -3.441410   -0.983920
  N      3.411000   -4.753940   -1.143490
  C      3.843650   -5.068600   -2.334320
  C      4.477600   -3.968910   -3.049740
  C      4.065060   -0.224320    0.267690
  C      4.458670    1.140510    0.212780
  S      4.047760    2.281960    1.454370
  C      4.817410    3.559760    0.590100
  C      4.686850    4.921980    1.080060
  O      4.818790    5.915910    0.412030
  C      5.391730    3.105830   -0.598110
  C      5.177370    1.734520   -0.802400
  C      6.221470    3.960810   -1.415920
  N      6.262340    3.984240   -2.781650
  C      5.394580    3.284650   -3.700550
  C      3.939750    3.716460   -3.549650
  C      7.191260    4.943280   -3.247560
  O      7.385540    5.162780   -4.426680
  C      7.770830    5.500450   -2.048240
  C      7.150500    4.863900   -0.940430
  C      7.722500    5.399530    0.273040
  O      7.535090    5.144210    1.443680
  N      8.652050    6.353320   -0.183920
  C      9.369870    7.188700    0.747540
  C      8.695890    8.548270    0.917270
  C      8.678600    6.434280   -1.557630
  C      9.501080    7.339630   -2.280190
  C      9.506280    7.384070   -3.635200
  C     10.280160    8.285910   -4.419550
  S     10.225910    8.156690   -6.154980
  C     11.302440    9.482890   -6.339590
  C     11.672430    9.885360   -7.685980
  O     11.266510    9.319820   -8.673670
  C     11.691860   10.017060   -5.101800
  C     11.102830    9.319390   -4.027240
  C     12.562830   11.140010   -4.931360
  N     13.107710   11.794490   -5.949410
  C     13.839110   12.781810   -5.406500
  C     13.753580   12.747760   -3.924970
  C     14.556890   13.843630   -3.335010
  O     14.715570   14.113470   -2.168730
  C     15.103310   14.511370   -4.529830
  C     14.641990   13.831000   -5.765360
  N     15.142690   14.448080   -6.863540
  C     15.862170   15.439610   -6.401810
  C     15.880990   15.538470   -4.954520
  C     12.945160   11.708060   -3.631550
  H      3.080710   -0.418380    2.294110
  H      3.720040   -6.068650   -2.712360
  H      4.892810   -4.026900   -4.036430
  H      4.387880    4.972220    2.143070
  H      5.546770    1.172690   -1.641800
  H      5.490470    2.204390   -3.565250
  H      5.759640    3.543500   -4.698780
  H      3.555980    3.457530   -2.565230
  H      3.332590    3.217970   -4.299890
  H      3.849980    4.791930   -3.684560
  H     10.407360    7.299210    0.419620
  H      9.358080    6.654420    1.701760
  H      8.665530    9.091000   -0.025160
  H      9.237900    9.141430    1.648740
  H      7.675550    8.409730    1.266120
  H     10.130420    8.006980   -1.710530
  H      8.878640    6.696270   -4.186290
  H     12.354780   10.747670   -7.724940
  H     11.269570    9.571770   -2.996730
  H     16.376920   16.097910   -7.080210
  H     16.408690   16.279230   -4.387240
  H     12.630040   11.351010   -2.671980

 Total Charge           Charge          ....    0
 Multiplicity           Mult            ....    1
 Number of Electrons    NEL             ....  384
 Basis Dimension        Dim             ....  874

ORBITAL ENERGIES
----------------

  NO   OCC          E(Eh)            E(eV)
   0   2.0000     -88.987527     -2421.4737
   1   2.0000     -88.979699     -2421.2607
   2   2.0000     -19.231078      -523.3042
   3   2.0000     -19.214662      -522.8575
   4   2.0000     -19.214207      -522.8451
   5   2.0000     -19.207237      -522.6555
   6   2.0000     -19.191882      -522.2377
   7   2.0000     -19.189100      -522.1620
   8   2.0000     -14.453612      -393.3028
   9   2.0000     -14.452478      -393.2719
  10   2.0000     -14.431287      -392.6953
  11   2.0000     -14.423900      -392.4943
  12   2.0000     -14.416874      -392.3031
  13   2.0000     -14.410885      -392.1401
  14   2.0000     -10.390499      -282.7399
  15   2.0000     -10.376466      -282.3580
  16   2.0000     -10.373484      -282.2768
  17   2.0000     -10.371612      -282.2259
  18   2.0000     -10.366206      -282.0788
  19   2.0000     -10.354658      -281.7646
  20   2.0000     -10.352178      -281.6971
  21   2.0000     -10.348705      -281.6026
  22   2.0000     -10.348693      -281.6023
  23   2.0000     -10.344859      -281.4979
  24   2.0000     -10.344530      -281.4890
  25   2.0000     -10.341399      -281.4038
  26   2.0000     -10.338401      -281.3222
  27   2.0000     -10.338271      -281.3186
  28   2.0000     -10.333227      -281.1814
  29   2.0000     -10.331819      -281.1431
  30   2.0000     -10.331390      -281.1314
  31   2.0000     -10.326572      -281.0003
  32   2.0000     -10.324692      -280.9492
  33   2.0000     -10.319536      -280.8089
  34   2.0000     -10.318744      -280.7873
  35   2.0000     -10.313177      -280.6358
  36   2.0000     -10.312248      -280.6105
  37   2.0000     -10.309606      -280.5386
  38   2.0000     -10.309454      -280.5345
  39   2.0000     -10.307448      -280.4799
  40   2.0000     -10.305941      -280.4389
  41   2.0000     -10.304502      -280.3998
  42   2.0000     -10.302201      -280.3371
  43   2.0000     -10.301863      -280.3279
  44   2.0000     -10.301348      -280.3139
  45   2.0000     -10.301190      -280.3096
  46   2.0000     -10.298593      -280.2390
  47   2.0000     -10.297245      -280.2023
  48   2.0000     -10.295184      -280.1462
  49   2.0000     -10.294537      -280.1286
  50   2.0000     -10.264160      -279.3020
  51   2.0000     -10.259483      -279.1747
  52   2.0000     -10.259226      -279.1677
  53   2.0000     -10.257125      -279.1106
  54   2.0000      -8.083028      -219.9504
  55   2.0000      -8.074974      -219.7312
  56   2.0000      -6.052024      -164.6839
  57   2.0000      -6.047999      -164.5744
  58   2.0000      -6.045624      -164.5098
  59   2.0000      -6.043814      -164.4605
  60   2.0000      -6.039579      -164.3453
  61   2.0000      -6.037988      -164.3020
  62   2.0000      -1.144927       -31.1550
  63   2.0000      -1.134187       -30.8628
  64   2.0000      -1.130432       -30.7606
  65   2.0000      -1.128936       -30.7199
  66   2.0000      -1.124826       -30.6081
  67   2.0000      -1.120389       -30.4873
  68   2.0000      -1.095642       -29.8139
  69   2.0000      -1.085855       -29.5476
  70   2.0000      -1.077565       -29.3220
  71   2.0000      -1.066072       -29.0093
  72   2.0000      -1.063964       -28.9519
  73   2.0000      -1.055678       -28.7265
  74   2.0000      -1.010444       -27.4956
  75   2.0000      -1.005951       -27.3733
  76   2.0000      -0.952362       -25.9151
  77   2.0000      -0.941657       -25.6238
  78   2.0000      -0.928452       -25.2645
  79   2.0000      -0.917285       -24.9606
  80   2.0000      -0.912503       -24.8305
  81   2.0000      -0.887545       -24.1513
  82   2.0000      -0.881291       -23.9812
  83   2.0000      -0.878009       -23.8918
  84   2.0000      -0.871545       -23.7159
  85   2.0000      -0.868787       -23.6409
  86   2.0000      -0.856285       -23.3007
  87   2.0000      -0.852295       -23.1921
  88   2.0000      -0.845098       -22.9963
  89   2.0000      -0.818883       -22.2829
  90   2.0000      -0.803749       -21.8711
  91   2.0000      -0.792689       -21.5702
  92   2.0000      -0.780783       -21.2462
  93   2.0000      -0.776314       -21.1246
  94   2.0000      -0.773696       -21.0533
  95   2.0000      -0.761232       -20.7142
  96   2.0000      -0.759233       -20.6598
  97   2.0000      -0.737517       -20.0689
  98   2.0000      -0.729473       -19.8500
  99   2.0000      -0.719490       -19.5783
 100   2.0000      -0.717206       -19.5162
 101   2.0000      -0.707858       -19.2618
 102   2.0000      -0.697908       -18.9910
 103   2.0000      -0.692317       -18.8389
 104   2.0000      -0.680045       -18.5050
 105   2.0000      -0.664221       -18.0744
 106   2.0000      -0.655411       -17.8346
 107   2.0000      -0.652721       -17.7615
 108   2.0000      -0.648784       -17.6543
 109   2.0000      -0.644341       -17.5334
 110   2.0000      -0.636362       -17.3163
 111   2.0000      -0.631565       -17.1858
 112   2.0000      -0.624542       -16.9946
 113   2.0000      -0.620832       -16.8937
 114   2.0000      -0.608843       -16.5675
 115   2.0000      -0.605817       -16.4851
 116   2.0000      -0.593983       -16.1631
 117   2.0000      -0.590418       -16.0661
 118   2.0000      -0.586416       -15.9572
 119   2.0000      -0.578110       -15.7312
 120   2.0000      -0.576466       -15.6864
 121   2.0000      -0.574705       -15.6385
 122   2.0000      -0.570479       -15.5235
 123   2.0000      -0.562104       -15.2956
 124   2.0000      -0.556432       -15.1413
 125   2.0000      -0.553262       -15.0550
 126   2.0000      -0.551993       -15.0205
 127   2.0000      -0.547821       -14.9070
 128   2.0000      -0.546550       -14.8724
 129   2.0000      -0.542964       -14.7748
 130   2.0000      -0.536414       -14.5966
 131   2.0000      -0.535530       -14.5725
 132   2.0000      -0.531709       -14.4685
 133   2.0000      -0.529251       -14.4017
 134   2.0000      -0.524993       -14.2858
 135   2.0000      -0.522248       -14.2111
 136   2.0000      -0.518896       -14.1199
 137   2.0000      -0.518286       -14.1033
 138   2.0000      -0.517096       -14.0709
 139   2.0000      -0.514144       -13.9906
 140   2.0000      -0.508348       -13.8328
 141   2.0000      -0.506978       -13.7956
 142   2.0000      -0.505856       -13.7651
 143   2.0000      -0.503965       -13.7136
 144   2.0000      -0.499277       -13.5860
 145   2.0000      -0.496369       -13.5069
 146   2.0000      -0.492135       -13.3917
 147   2.0000      -0.491050       -13.3621
 148   2.0000      -0.485303       -13.2058
 149   2.0000      -0.481136       -13.0924
 150   2.0000      -0.480388       -13.0720
 151   2.0000      -0.478953       -13.0330
 152   2.0000      -0.477771       -13.0008
 153   2.0000      -0.474557       -12.9134
 154   2.0000      -0.473720       -12.8906
 155   2.0000      -0.471280       -12.8242
 156   2.0000      -0.469006       -12.7623
 157   2.0000      -0.462686       -12.5903
 158   2.0000      -0.460400       -12.5281
 159   2.0000      -0.458734       -12.4828
 160   2.0000      -0.452346       -12.3090
 161   2.0000      -0.450096       -12.2477
 162   2.0000      -0.449035       -12.2189
 163   2.0000      -0.445205       -12.1146
 164   2.0000      -0.437051       -11.8928
 165   2.0000      -0.435078       -11.8391
 166   2.0000      -0.426851       -11.6152
 167   2.0000      -0.424232       -11.5439
 168   2.0000      -0.408742       -11.1224
 169   2.0000      -0.387708       -10.5501
 170   2.0000      -0.379465       -10.3258
 171   2.0000      -0.375076       -10.2063
 172   2.0000      -0.374597       -10.1933
 173   2.0000      -0.371071       -10.0974
 174   2.0000      -0.362869        -9.8742
 175   2.0000      -0.359135        -9.7726
 176   2.0000      -0.357006        -9.7146
 177   2.0000      -0.351580        -9.5670
 178   2.0000      -0.350505        -9.5377
 179   2.0000      -0.348481        -9.4827
 180   2.0000      -0.347839        -9.4652
 181   2.0000      -0.345644        -9.4055
 182   2.0000      -0.338580        -9.2132
 183   2.0000      -0.337505        -9.1840
 184   2.0000      -0.335789        -9.1373
 185   2.0000      -0.331467        -9.0197
 186   2.0000      -0.320812        -8.7297
 187   2.0000      -0.320547        -8.7225
 188   2.0000      -0.312016        -8.4904
 189   2.0000      -0.299918        -8.1612
 190   2.0000      -0.297811        -8.1038
 191   2.0000      -0.241252        -6.5648
 192   0.0000      -0.123060        -3.3486
 193   0.0000      -0.117908        -3.2085
 194   0.0000      -0.087059        -2.3690
 195   0.0000      -0.070557        -1.9199
 196   0.0000      -0.045532        -1.2390

MULLIKEN ATOMIC CHARGES
-----------------------
   0 C :    0.054382
   1 N :   -0.021409
   2 C :    0.060933
   3 C :   -0.158673
   4 C :    0.219452
   5 O :   -0.137463
   6 C :   -0.012739
   7 C :   -0.015187
   8 N :   -0.046810
   9 C :    0.096072
  10 C :   -0.089469
  11 C :    0.053971
  12 C :   -0.106444
  13 S :    0.162933
  14 C :   -0.171996
  15 C :    0.215253
  16 O :   -0.181108
  17 C :    0.063867
  18 C :   -0.027193
  19 C :    0.087926
  20 N :   -0.250737
  21 C :    0.093822
  22 C :   -0.002704
  23 C :    0.170973
  24 O :   -0.204582
  25 C :   -0.090228
  26 C :    0.005870
  27 C :    0.141732
  28 O :   -0.204030
  29 N :   -0.263960
  30 C :    0.101071
  31 C :    0.002290
  32 C :    0.137771
  33 C :   -0.016202
  34 C :    0.077175
  35 C :   -0.073502
  36 S :    0.242936
  37 C :   -0.232025
  38 C :    0.178859
  39 O :   -0.189772
  40 C :    0.175773
  41 C :   -0.039066
  42 C :    0.012932
  43 N :   -0.050301
  44 C :    0.053155
  45 C :   -0.031139
  46 C :    0.214450
  47 O :   -0.114394
  48 C :   -0.043715
  49 C :   -0.015786
  50 N :   -0.051153
  51 C :    0.094389
  52 C :   -0.089127
  53 C :   -0.100082
  54 H :    0.017469
  55 H :    0.019414
  56 H :    0.004147
  57 H :   -0.015023
  58 H :    0.007802
  59 H :    0.035795
  60 H :    0.045684
  61 H :    0.024670
  62 H :    0.023432
  63 H :    0.028083
  64 H :    0.019972
  65 H :    0.042062
  66 H :    0.012555
  67 H :    0.023160
  68 H :    0.037634
  69 H :   -0.032526
  70 H :    0.009798
  71 H :    0.021216
  72 H :   -0.013493
  73 H :    0.013796
  74 H :   -0.001085
  75 H :   -0.011555
Sum of atomic charges:   -0.0000000

LOEWDIN ATOMIC CHARGES
----------------------
   0 C :    0.086792
   1 N :   -0.073526
   2 C :    0.047407
   3 C :   -0.053092
   4 C :    0.073856
   5 O :   -0.137717
   6 C :   -0.035496
   7 C :    0.039016
   8 N :   -0.087556
   9 C :    0.087019
  10 C :   -0.022329
  11 C :   -0.049756
  12 C :   -0.167645
  13 S :    0.478361
  14 C :   -0.206758
  15 C :    0.096159
  16 O :   -0.128234
  17 C :   -0.039520
  18 C :   -0.018532
  19 C :    0.076150
  20 N :    0.006078
  21 C :    0.035752
  22 C :   -0.060616
  23 C :    0.083322
  24 O :   -0.196451
  25 C :   -0.122187
  26 C :   -0.109658
  27 C :    0.085516
  28 O :   -0.197467
  29 N :   -0.001984
  30 C :    0.035776
  31 C :   -0.061346
  32 C :    0.080366
  33 C :   -0.037881
  34 C :    0.007776
  35 C :   -0.159907
  36 S :    0.541928
  37 C :   -0.193944
  38 C :    0.079613
  39 O :   -0.137787
  40 C :   -0.061776
  41 C :   -0.037145
  42 C :    0.075456
  43 N :   -0.103717
  44 C :    0.040984
  45 C :   -0.024965
  46 C :    0.063862
  47 O :   -0.128564
  48 C :   -0.040762
  49 C :    0.029522
  50 N :   -0.094807
  51 C :    0.081222
  52 C :   -0.034404
  53 C :   -0.023996
  54 H :    0.025712
  55 H :    0.027849
  56 H :    0.038336
  57 H :   -0.002961
  58 H :    0.035197
  59 H :    0.026086
  60 H :    0.037644
  61 H :    0.023139
  62 H :    0.031641
  63 H :    0.031270
  64 H :    0.021128
  65 H :    0.037905
  66 H :    0.020681
  67 H :    0.029952
  68 H :    0.035934
  69 H :    0.026775
  70 H :    0.037714
  71 H :    0.010670
  72 H :    0.028561
  73 H :    0.025555
  74 H :    0.035801
  75 H :    0.033006

  Mayer bond orders larger than 0.100000
B(  0-C ,  1-N ) :   1.7328 B(  0-C , 11-C ) :   1.0339 B(  0-C , 54-H ) :   0.9884
B(  1-N ,  2-C ) :   1.2723 B(  2-C ,  3-C ) :   1.0437 B(  2-C ,  7-C ) :   1.4997
B(  3-C ,  4-C ) :   0.9057 B(  3-C , 11-C ) :   1.6089 B(  4-C ,  5-O ) :   2.2022
B(  4-C ,  6-C ) :   0.9169 B(  6-C ,  7-C ) :   1.0524 B(  6-C , 10-C ) :   1.6369
B(  7-C ,  8-N ) :   1.2836 B(  8-N ,  9-C ) :   1.6868 B(  9-C , 10-C ) :   1.0433
B(  9-C , 55-H ) :   0.9882 B( 10-C , 56-H ) :   1.0101 B( 11-C , 12-C ) :   1.0865
B( 12-C , 13-S ) :   1.1426 B( 12-C , 18-C ) :   1.4816 B( 13-S , 14-C ) :   1.1287
B( 14-C , 15-C ) :   0.9811 B( 14-C , 17-C ) :   1.4684 B( 15-C , 16-O ) :   2.1534
B( 15-C , 57-H ) :   0.9462 B( 17-C , 18-C ) :   1.2585 B( 17-C , 19-C ) :   0.9887
B( 18-C , 58-H ) :   0.9897 B( 19-C , 20-N ) :   1.2184 B( 19-C , 26-C ) :   1.4567
B( 20-N , 21-C ) :   0.9405 B( 20-N , 23-C ) :   1.0436 B( 21-C , 22-C ) :   1.1178
B( 21-C , 59-H ) :   0.9489 B( 21-C , 60-H ) :   0.9270 B( 22-C , 61-H ) :   0.9673
B( 22-C , 62-H ) :   0.9663 B( 22-C , 63-H ) :   0.9645 B( 23-C , 24-O ) :   2.0211
B( 23-C , 25-C ) :   0.9958 B( 24-O , 70-H ) :   0.1178 B( 25-C , 26-C ) :   1.2198
B( 25-C , 32-C ) :   1.3611 B( 26-C , 27-C ) :   0.9630 B( 27-C , 28-O ) :   2.1112
B( 27-C , 29-N ) :   1.0425 B( 29-N , 30-C ) :   0.9487 B( 29-N , 32-C ) :   1.1561
B( 30-C , 31-C ) :   1.1208 B( 30-C , 64-H ) :   0.9499 B( 30-C , 65-H ) :   0.9267
B( 31-C , 66-H ) :   0.9680 B( 31-C , 67-H ) :   0.9678 B( 31-C , 68-H ) :   0.9630
B( 32-C , 33-C ) :   1.1546 B( 33-C , 34-C ) :   1.6419 B( 33-C , 69-H ) :   0.9622
B( 34-C , 35-C ) :   1.1012 B( 34-C , 70-H ) :   0.9372 B( 35-C , 36-S ) :   1.1555
B( 35-C , 41-C ) :   1.4762 B( 36-S , 37-C ) :   1.1761 B( 37-C , 38-C ) :   1.0032
B( 37-C , 40-C ) :   1.3677 B( 38-C , 39-O ) :   2.1511 B( 38-C , 71-H ) :   0.9450
B( 40-C , 41-C ) :   1.2784 B( 40-C , 42-C ) :   1.0263 B( 41-C , 72-H ) :   0.9894
B( 42-C , 43-N ) :   1.5968 B( 42-C , 44-C ) :   0.1212 B( 42-C , 53-C ) :   1.0682
B( 43-N , 44-C ) :   1.3610 B( 44-C , 45-C ) :   1.0250 B( 44-C , 49-C ) :   1.4232
B( 45-C , 46-C ) :   0.8621 B( 45-C , 53-C ) :   1.6316 B( 46-C , 47-O ) :   2.3294
B( 46-C , 48-C ) :   0.8843 B( 48-C , 49-C ) :   1.0396 B( 48-C , 52-C ) :   1.6210
B( 49-C , 50-N ) :   1.3130 B( 50-N , 51-C ) :   1.6556 B( 51-C , 52-C ) :   1.0727
B( 51-C , 73-H ) :   0.9889 B( 52-C , 74-H ) :   1.0091 B( 53-C , 75-H ) :   1.0067

-----------------------------------------------------------------------------
         ABSORPTION SPECTRUM VIA TRANSITION ELECTRIC DIPOLE MOMENTS
-----------------------------------------------------------------------------
State   Energy  Wavelength   fosc         T2         TX        TY        TZ
        (cm-1)    (nm)                  (au**2)     (au)      (au)      (au)
-----------------------------------------------------------------------------
   0   12887.2    776.0   0.006596361   0.16851   0.25287  -0.19775  -0.25585
   1   15082.2    663.0   0.016131515   0.35212   0.22936   0.21602  -0.50284
   2   16527.5    605.1   0.638475070  12.71779  -2.27500  -2.69860   0.50959
   3   19704.2    507.5   0.082701732   1.38176   0.28282  -0.93917  -0.64787
   4   20586.8    485.7   0.000546865   0.00875   0.06283  -0.06891   0.00697
   5   21622.1    462.5   0.209740319   3.19344   0.95194   1.49151  -0.25031
   6   22863.3    437.4   0.000839822   0.01209   0.09050  -0.05370   0.03191
   7   23063.8    433.6   0.000022505   0.00032   0.01519  -0.00946  -0.00105
   8   24035.9    416.0   0.258497128   3.54056   1.13133   1.49963  -0.10847
   9   25828.0    387.2   0.086640260   1.10435   0.62498   0.83992   0.09099
  10   26106.5    383.0   0.029638894   0.37376   0.37433   0.48327   0.00910
  11   26550.0    376.6   0.001744625   0.02163   0.00695  -0.01188   0.14643
  12   26597.6    376.0   0.000868378   0.01075  -0.02560  -0.01147  -0.09981
  13   26704.3    374.5   0.026523163   0.32698  -0.16341  -0.39491  -0.37990
  14   26734.0    374.1   0.000840927   0.01036   0.06554  -0.07784   0.00065
  15   27797.5    359.7   0.046949221   0.55603   0.36752   0.47359  -0.44348
  16   27961.7    357.6   0.013412168   0.15791   0.05438   0.38194  -0.09525
  17   28441.3    351.6   0.003531045   0.04087  -0.13333   0.14191  -0.05438
  18   28671.6    348.8   0.941161915  10.80659   1.91303   2.57089  -0.73311
  19   28740.3    347.9   0.104843671   1.20095   0.13793   1.04711   0.29240
  20   28988.3    345.0   0.001632718   0.01854  -0.02234   0.11585   0.06799
  21   29010.6    344.7   0.013091923   0.14857  -0.24792  -0.27850  -0.09767
  22   29909.8    334.3   0.307132129   3.38055   0.49298   1.39433  -1.09241
  23   30068.7    332.6   0.194414526   2.12858  -0.07557   1.33950   0.57325
  24   30497.6    327.9   0.055511638   0.59923   0.31158   0.13710  -0.69523
  25   30821.0    324.5   0.102040377   1.08994  -0.00959   0.89954   0.52979
  26   31307.5    319.4   0.000007471   0.00008  -0.00265  -0.00844   0.00055
  27   31317.4    319.3   0.011307573   0.11887   0.03140  -0.34326   0.00708
  28   31436.4    318.1   0.000573575   0.00601   0.04512   0.04846   0.04027
  29   31534.2    317.1   0.001955080   0.02041  -0.09240  -0.09077   0.06028
  30   31929.5    313.2   0.018888061   0.19475   0.11614   0.16277   0.39340
  31   32222.3    310.3   0.002178585   0.02226   0.12123  -0.01195  -0.08614
  32   32426.9    308.4   0.010664145   0.10827   0.10149   0.15020   0.27460
  33   32664.4    306.1   0.430148444   4.33530   0.08561  -1.71284  -1.18074
  34   32986.1    303.2   0.317145722   3.16522  -0.20030  -0.16143   1.76041
  35   33252.5    300.7   0.029884831   0.29587  -0.08479  -0.50130  -0.19335
  36   33405.9    299.3   0.000292444   0.00288   0.02762  -0.02940  -0.03543
  37   34240.4    292.1   0.002292486   0.02204   0.07032   0.08244  -0.10149
  38   35143.5    284.5   0.022187085   0.20784  -0.28009  -0.34007  -0.11722
  39   35724.5    279.9   0.003937938   0.03629   0.06758  -0.11223  -0.13830
  40   35916.7    278.4   0.000084860   0.00078  -0.00186   0.00309   0.02766
  41   36278.3    275.6   0.025610542   0.23241  -0.16085  -0.28340  -0.35527
  42   36370.5    274.9   0.000008282   0.00007   0.00223  -0.00774  -0.00318
  43   36446.9    274.4   0.015961515   0.14417  -0.04847   0.34836   0.14308
  44   37126.8    269.3   0.112714518   0.99946  -0.14885  -0.94236  -0.29877
  45   37976.7    263.3   0.088750188   0.76936   0.02902  -0.04599  -0.87544
  46   38183.6    261.9   0.071450415   0.61603   0.51680   0.58287   0.09596
  47   38888.7    257.1   0.057497415   0.48674  -0.18683  -0.29778  -0.60263
  48   39122.9    255.6   0.031512708   0.26517  -0.01274  -0.01892   0.51445
  49   39238.1    254.9   0.026043792   0.21851  -0.02319   0.11236  -0.45315
  50   39374.5    254.0   0.144314288   1.20662   0.49238   0.93211  -0.30880
  51   39812.3    251.2   0.000598742   0.00495  -0.05822  -0.00632   0.03901
  52   39842.5    251.0   0.056082406   0.46340  -0.02264   0.34072   0.58890
  53   40267.5    248.3   0.066167654   0.54096   0.24838  -0.44485  -0.53045

FINAL SINGLE POINT ENERGY     -3110.475352779075

DIPOLE MOMENT
-------------
                                X             Y             Z
Electronic contribution:      4.85867      -7.17600      -5.25910
Nuclear contribution   :     -5.20867       6.13589       6.47054
                        -----------------------------------------
Total Dipole Moment    :     -0.35000      -1.04012       1.21145
                        -----------------------------------------
Magnitude (a.u.)       :      1.63461
Magnitude (Debye)      :      4.15484

Rotational constants in cm-1:     0.004110     0.000456     0.000423
Rotational constants in MHz :   123.206476    13.658389    12.693601

                             ****ORCA TERMINATED NORMALLY****
TOTAL RUN TIME: 0 days 0 hours 6 minutes 48 seconds 901 msec
