                         Program Version 4.2.0 -  RELEASE  -
|  1> # ORCA input file
|  2> # SCF done       -200.163027704001          0.000498780625
|  3> ! CAM-B3LYP def2-SVP def2/J RIJCOSX Grid4 TightSCF
|  4> %maxcore 5000
|  5> %tddft
|  6>     Mode sTDDFT
|  7>     Ethresh 5.0
|  8>     maxcore 5000
|  9> end
| 10>
| 11> %pal
| 12>   nprocs 6
| 13>   end
| 14> * xyz 0 1
| 15>    C        0.55910        -3.38369         4.81007
| 16>    C        1.92694        -3.11323         4.78009
| 17>    C        2.64974        -2.47889         5.90590
| 18>    O        3.85993        -2.50617         5.99072
| 19>    C        1.82742        -1.76639         6.91693
| 20>    C        0.89658        -0.82125         6.60337
| 21>    S        0.25142        -0.04243         7.99311
| 22>    C        1.24133        -0.98938         9.02064
| 23>    C        2.02696        -1.86613         8.33179
| 24>    C        2.94469        -2.81907         8.99929
| 25>    O        3.50577        -2.54958        10.03886
| 26>    C        3.11206        -4.11677         8.30039
| 27>    C        4.36402        -4.72362         8.29180
| 28>    C        4.55548        -5.90581         7.60220
| 29>    C        3.49670        -6.50012         6.93484
| 30>    C        2.23918        -5.91959         6.97092
| 31>    C        2.04526        -4.73045         7.64813
| 32>    C        2.66521        -3.49604         3.65856
| 33>    C        2.05655        -4.10167         2.58331
| 34>    C        0.68112        -4.36080         2.60339
| 35>    C       -0.04994        -4.00237         3.74078
| 36>    C        0.02558        -4.98404         1.47650
| 37>    S       -1.58576        -5.63296         1.63154
| 38>    C       -1.62078        -6.12449        -0.03328
| 39>    C       -0.42232        -5.78431        -0.66844
| 40>    C        0.49055        -5.15019         0.19962
| 41>    C       -0.09976        -6.02955        -2.06501
| 42>    O        0.94624        -5.73199        -2.58895
| 43>    C       -2.74982        -6.77374        -0.58921
| 44>    C       -3.85283        -7.09755         0.13535
| 45>    C       -5.04452        -7.75480        -0.25291
| 46>    N       -5.46547        -8.20062        -1.48945
| 47>    C       -4.83434        -8.02985        -2.77542
| 48>    C       -4.95463        -6.59664        -3.28777
| 49>    C       -6.72375        -8.82871        -1.41496
| 50>    O       -7.29693        -9.28967        -2.38497
| 51>    C       -7.08255        -8.77118        -0.01885
| 52>    C       -6.03932        -8.09999         0.65923
| 53>    C       -6.37175        -8.04491         2.06532
| 54>    O       -5.79365        -7.57594         3.02284
| 55>    N       -7.61368        -8.70651         2.14649
| 56>    C       -8.31233        -8.83335         3.40211
| 57>    C       -9.43874        -7.81108         3.53351
| 58>    C       -8.04960        -9.14208         0.91685
| 59>    C       -9.25806        -9.85007         0.71168
| 60>    C       -9.66224       -10.25981        -0.51782
| 61>    C      -10.85901       -10.97509        -0.76777
| 62>    S      -11.98175       -11.41539         0.48381
| 63>    C      -13.03232       -12.17259        -0.66454
| 64>    C      -14.24588       -12.82022        -0.24656
| 65>    O      -15.04686       -13.34566        -0.98653
| 66>    C      -12.51533       -12.10188        -1.95242
| 67>    C      -11.29973       -11.41589        -2.00320
| 68>    C      -13.21478       -12.67244        -3.11272
| 69>    C      -12.82035       -13.90575        -3.65097
| 70>    C      -11.70838       -14.64422        -3.01263
| 71>    O      -11.29740       -14.37578        -1.90048
| 72>    C      -11.07204       -15.72187        -3.80662
| 73>    C      -10.66312       -15.58588        -5.10091
| 74>    S       -9.79496       -16.95602        -5.66523
| 75>    C       -9.96783       -17.73052        -4.14570
| 76>    C      -10.66327       -16.97610        -3.24901
| 77>    C      -10.96263       -17.42772        -1.86749
| 78>    O      -10.17351       -18.09103        -1.22978
| 79>    C      -12.28543       -17.01762        -1.34161
| 80>    C      -12.41182       -16.73293         0.01503
| 81>    C      -13.62868       -16.32551         0.52735
| 82>    C      -14.73266       -16.22008        -0.30311
| 83>    C      -14.61815       -16.52252        -1.65014
| 84>    C      -13.40040       -16.91568        -2.17124
| 85>    C      -13.52711       -14.42804        -4.73360
| 86>    C      -14.58507       -13.73379        -5.28541
| 87>    C      -14.95270       -12.50245        -4.76578
| 88>    C      -14.27080       -11.97625        -3.68478
| 89>    H       -0.02916        -3.12061         5.67577
| 90>    H        0.58146        -0.50994         5.62662
| 91>    H        1.18636        -0.87433        10.08498
| 92>    H        5.17875        -4.24181         8.81021
| 93>    H        5.53272        -6.36446         7.58158
| 94>    H        3.64838        -7.42089         6.39107
| 95>    H        1.40890        -6.39109         6.46557
| 96>    H        1.05881        -4.29135         7.69435
| 97>    H        3.72685        -3.29958         3.65561
| 98>    H        2.64542        -4.39088         1.72749
| 99>    H       -1.10985        -4.21053         3.77335
|100>    H        1.45197        -4.81905        -0.14837
|101>    H       -0.90040        -6.52213        -2.64972
|102>    H       -2.67927        -7.01152        -1.63810
|103>    H       -3.85190        -6.84900         1.19109
|104>    H       -5.36768        -8.70246        -3.45441
|105>    H       -3.79155        -8.35339        -2.72297
|106>    H       -6.00329        -6.33903        -3.41432
|107>    H       -4.45733        -6.50584        -4.24967
|108>    H       -4.50880        -5.88891        -2.59249
|109>    H       -7.56486        -8.65713         4.18086
|110>    H       -8.69715        -9.85165         3.50604
|111>    H       -9.03443        -6.80385         3.46992
|112>    H       -9.93049        -7.92800         4.49514
|113>    H      -10.17654        -7.93931         2.74462
|114>    H       -9.87446       -10.07481         1.57140
|115>    H       -9.04907       -10.04399        -1.38391
|116>    H      -14.40312       -12.79787         0.84966
|117>    H      -10.73993       -11.25236        -2.90698
|118>    H      -10.79051       -14.73698        -5.74392
|119>    H       -9.56738       -18.71244        -3.98921
|120>    H      -11.53985       -16.81814         0.64575
|121>    H      -13.71766       -16.09094         1.57814
|122>    H      -15.68321       -15.89901         0.09379
|123>    H      -15.47973       -16.44172        -2.29531
|124>    H      -13.32030       -17.17444        -3.21786
|125>    H      -13.25804       -15.39442        -5.13167
|126>    H      -15.12940       -14.15464        -6.11734
|127>    H      -15.77954       -11.95786        -5.19606
|128>    H      -14.56318       -11.02440        -3.26693
|129> *
|130>
|131>                          ****END OF INPUT****

CARTESIAN COORDINATES (ANGSTROEM)
---------------------------------
  C      0.559100   -3.383690    4.810070
  C      1.926940   -3.113230    4.780090
  C      2.649740   -2.478890    5.905900
  O      3.859930   -2.506170    5.990720
  C      1.827420   -1.766390    6.916930
  C      0.896580   -0.821250    6.603370
  S      0.251420   -0.042430    7.993110
  C      1.241330   -0.989380    9.020640
  C      2.026960   -1.866130    8.331790
  C      2.944690   -2.819070    8.999290
  O      3.505770   -2.549580   10.038860
  C      3.112060   -4.116770    8.300390
  C      4.364020   -4.723620    8.291800
  C      4.555480   -5.905810    7.602200
  C      3.496700   -6.500120    6.934840
  C      2.239180   -5.919590    6.970920
  C      2.045260   -4.730450    7.648130
  C      2.665210   -3.496040    3.658560
  C      2.056550   -4.101670    2.583310
  C      0.681120   -4.360800    2.603390
  C     -0.049940   -4.002370    3.740780
  C      0.025580   -4.984040    1.476500
  S     -1.585760   -5.632960    1.631540
  C     -1.620780   -6.124490   -0.033280
  C     -0.422320   -5.784310   -0.668440
  C      0.490550   -5.150190    0.199620
  C     -0.099760   -6.029550   -2.065010
  O      0.946240   -5.731990   -2.588950
  C     -2.749820   -6.773740   -0.589210
  C     -3.852830   -7.097550    0.135350
  C     -5.044520   -7.754800   -0.252910
  N     -5.465470   -8.200620   -1.489450
  C     -4.834340   -8.029850   -2.775420
  C     -4.954630   -6.596640   -3.287770
  C     -6.723750   -8.828710   -1.414960
  O     -7.296930   -9.289670   -2.384970
  C     -7.082550   -8.771180   -0.018850
  C     -6.039320   -8.099990    0.659230
  C     -6.371750   -8.044910    2.065320
  O     -5.793650   -7.575940    3.022840
  N     -7.613680   -8.706510    2.146490
  C     -8.312330   -8.833350    3.402110
  C     -9.438740   -7.811080    3.533510
  C     -8.049600   -9.142080    0.916850
  C     -9.258060   -9.850070    0.711680
  C     -9.662240  -10.259810   -0.517820
  C    -10.859010  -10.975090   -0.767770
  S    -11.981750  -11.415390    0.483810
  C    -13.032320  -12.172590   -0.664540
  C    -14.245880  -12.820220   -0.246560
  O    -15.046860  -13.345660   -0.986530
  C    -12.515330  -12.101880   -1.952420
  C    -11.299730  -11.415890   -2.003200
  C    -13.214780  -12.672440   -3.112720
  C    -12.820350  -13.905750   -3.650970
  C    -11.708380  -14.644220   -3.012630
  O    -11.297400  -14.375780   -1.900480
  C    -11.072040  -15.721870   -3.806620
  C    -10.663120  -15.585880   -5.100910
  S     -9.794960  -16.956020   -5.665230
  C     -9.967830  -17.730520   -4.145700
  C    -10.663270  -16.976100   -3.249010
  C    -10.962630  -17.427720   -1.867490
  O    -10.173510  -18.091030   -1.229780
  C    -12.285430  -17.017620   -1.341610
  C    -12.411820  -16.732930    0.015030
  C    -13.628680  -16.325510    0.527350
  C    -14.732660  -16.220080   -0.303110
  C    -14.618150  -16.522520   -1.650140
  C    -13.400400  -16.915680   -2.171240
  C    -13.527110  -14.428040   -4.733600
  C    -14.585070  -13.733790   -5.285410
  C    -14.952700  -12.502450   -4.765780
  C    -14.270800  -11.976250   -3.684780
  H     -0.029160   -3.120610    5.675770
  H      0.581460   -0.509940    5.626620
  H      1.186360   -0.874330   10.084980
  H      5.178750   -4.241810    8.810210
  H      5.532720   -6.364460    7.581580
  H      3.648380   -7.420890    6.391070
  H      1.408900   -6.391090    6.465570
  H      1.058810   -4.291350    7.694350
  H      3.726850   -3.299580    3.655610
  H      2.645420   -4.390880    1.727490
  H     -1.109850   -4.210530    3.773350
  H      1.451970   -4.819050   -0.148370
  H     -0.900400   -6.522130   -2.649720
  H     -2.679270   -7.011520   -1.638100
  H     -3.851900   -6.849000    1.191090
  H     -5.367680   -8.702460   -3.454410
  H     -3.791550   -8.353390   -2.722970
  H     -6.003290   -6.339030   -3.414320
  H     -4.457330   -6.505840   -4.249670
  H     -4.508800   -5.888910   -2.592490
  H     -7.564860   -8.657130    4.180860
  H     -8.697150   -9.851650    3.506040
  H     -9.034430   -6.803850    3.469920
  H     -9.930490   -7.928000    4.495140
  H    -10.176540   -7.939310    2.744620
  H     -9.874460  -10.074810    1.571400
  H     -9.049070  -10.043990   -1.383910
  H    -14.403120  -12.797870    0.849660
  H    -10.739930  -11.252360   -2.906980
  H    -10.790510  -14.736980   -5.743920
  H     -9.567380  -18.712440   -3.989210
  H    -11.539850  -16.818140    0.645750
  H    -13.717660  -16.090940    1.578140
  H    -15.683210  -15.899010    0.093790
  H    -15.479730  -16.441720   -2.295310
  H    -13.320300  -17.174440   -3.217860
  H    -13.258040  -15.394420   -5.131670
  H    -15.129400  -14.154640   -6.117340
  H    -15.779540  -11.957860   -5.196060
  H    -14.563180  -11.024400   -3.266930

 Total Charge           Charge          ....    0
 Multiplicity           Mult            ....    1
 Number of Electrons    NEL             ....  542
 Basis Dimension        Dim             .... 1252

ORBITAL ENERGIES
----------------

  NO   OCC          E(Eh)            E(eV)
   0   2.0000     -88.969504     -2420.9833
   1   2.0000     -88.969486     -2420.9828
   2   2.0000     -88.968439     -2420.9543
   3   2.0000     -88.967853     -2420.9384
   4   2.0000     -19.212624      -522.8021
   5   2.0000     -19.208945      -522.7020
   6   2.0000     -19.208072      -522.6782
   7   2.0000     -19.203147      -522.5442
   8   2.0000     -19.195377      -522.3328
   9   2.0000     -19.195343      -522.3318
  10   2.0000     -19.195253      -522.3294
  11   2.0000     -19.191609      -522.2302
  12   2.0000     -14.457077      -393.3971
  13   2.0000     -14.455615      -393.3573
  14   2.0000     -10.378317      -282.4084
  15   2.0000     -10.374890      -282.3151
  16   2.0000     -10.364837      -282.0415
  17   2.0000     -10.360209      -281.9156
  18   2.0000     -10.359686      -281.9014
  19   2.0000     -10.358504      -281.8692
  20   2.0000     -10.350630      -281.6549
  21   2.0000     -10.350344      -281.6472
  22   2.0000     -10.346493      -281.5424
  23   2.0000     -10.338482      -281.3244
  24   2.0000     -10.326105      -280.9876
  25   2.0000     -10.317408      -280.7509
  26   2.0000     -10.314605      -280.6747
  27   2.0000     -10.312276      -280.6113
  28   2.0000     -10.310298      -280.5575
  29   2.0000     -10.308560      -280.5102
  30   2.0000     -10.305649      -280.4310
  31   2.0000     -10.304779      -280.4073
  32   2.0000     -10.304351      -280.3957
  33   2.0000     -10.303121      -280.3622
  34   2.0000     -10.301849      -280.3276
  35   2.0000     -10.301277      -280.3120
  36   2.0000     -10.301008      -280.3047
  37   2.0000     -10.299897      -280.2744
  38   2.0000     -10.299867      -280.2736
  39   2.0000     -10.295614      -280.1579
  40   2.0000     -10.295557      -280.1564
  41   2.0000     -10.288691      -279.9695
  42   2.0000     -10.288143      -279.9546
  43   2.0000     -10.287318      -279.9322
  44   2.0000     -10.286059      -279.8979
  45   2.0000     -10.285932      -279.8944
  46   2.0000     -10.285043      -279.8703
  47   2.0000     -10.284722      -279.8615
  48   2.0000     -10.284554      -279.8569
  49   2.0000     -10.283478      -279.8277
  50   2.0000     -10.283324      -279.8235
  51   2.0000     -10.282112      -279.7905
  52   2.0000     -10.281559      -279.7754
  53   2.0000     -10.280722      -279.7527
  54   2.0000     -10.280537      -279.7476
  55   2.0000     -10.279683      -279.7244
  56   2.0000     -10.279474      -279.7187
  57   2.0000     -10.279355      -279.7155
  58   2.0000     -10.270083      -279.4632
  59   2.0000     -10.268561      -279.4218
  60   2.0000     -10.267965      -279.4055
  61   2.0000     -10.267539      -279.3939
  62   2.0000     -10.266812      -279.3742
  63   2.0000     -10.266662      -279.3701
  64   2.0000     -10.266444      -279.3641
  65   2.0000     -10.266239      -279.3586
  66   2.0000     -10.264916      -279.3226
  67   2.0000     -10.264404      -279.3086
  68   2.0000     -10.264181      -279.3026
  69   2.0000     -10.263967      -279.2967
  70   2.0000     -10.263351      -279.2800
  71   2.0000     -10.262540      -279.2579
  72   2.0000     -10.262389      -279.2538
  73   2.0000     -10.262102      -279.2460
  74   2.0000      -8.065780      -219.4810
  75   2.0000      -8.064866      -219.4561
  76   2.0000      -8.064027      -219.4333
  77   2.0000      -8.063993      -219.4324
  78   2.0000      -6.034937      -164.2190
  79   2.0000      -6.034012      -164.1938
  80   2.0000      -6.033158      -164.1706
  81   2.0000      -6.033039      -164.1673
  82   2.0000      -6.030494      -164.0981
  83   2.0000      -6.029956      -164.0834
  84   2.0000      -6.029213      -164.0632
  85   2.0000      -6.028691      -164.0490
  86   2.0000      -6.028364      -164.0401
  87   2.0000      -6.027154      -164.0072
  88   2.0000      -6.026647      -163.9934
  89   2.0000      -6.026417      -163.9871
  90   2.0000      -1.136229       -30.9184
  91   2.0000      -1.128883       -30.7185
  92   2.0000      -1.127650       -30.6849
  93   2.0000      -1.125304       -30.6211
  94   2.0000      -1.121521       -30.5181
  95   2.0000      -1.121218       -30.5099
  96   2.0000      -1.111681       -30.2504
  97   2.0000      -1.111673       -30.2501
  98   2.0000      -1.066443       -29.0194
  99   2.0000      -1.056472       -28.7481
 100   2.0000      -1.002069       -27.2677
 101   2.0000      -0.998600       -27.1733
 102   2.0000      -0.992479       -27.0067
 103   2.0000      -0.990551       -26.9543
 104   2.0000      -0.963965       -26.2308
 105   2.0000      -0.963678       -26.2230
 106   2.0000      -0.945310       -25.7232
 107   2.0000      -0.943245       -25.6670
 108   2.0000      -0.932707       -25.3802
 109   2.0000      -0.918881       -25.0040
 110   2.0000      -0.914997       -24.8983
 111   2.0000      -0.886526       -24.1236
 112   2.0000      -0.878660       -23.9096
 113   2.0000      -0.873819       -23.7778
 114   2.0000      -0.873506       -23.7693
 115   2.0000      -0.865816       -23.5600
 116   2.0000      -0.860010       -23.4020
 117   2.0000      -0.856432       -23.3047
 118   2.0000      -0.854103       -23.2413
 119   2.0000      -0.844619       -22.9833
 120   2.0000      -0.842942       -22.9376
 121   2.0000      -0.832499       -22.6534
 122   2.0000      -0.830598       -22.6017
 123   2.0000      -0.829055       -22.5597
 124   2.0000      -0.827787       -22.5252
 125   2.0000      -0.824953       -22.4481
 126   2.0000      -0.824597       -22.4384
 127   2.0000      -0.823922       -22.4201
 128   2.0000      -0.820602       -22.3297
 129   2.0000      -0.792926       -21.5766
 130   2.0000      -0.779533       -21.2122
 131   2.0000      -0.764229       -20.7957
 132   2.0000      -0.748569       -20.3696
 133   2.0000      -0.743680       -20.2366
 134   2.0000      -0.732750       -19.9391
 135   2.0000      -0.725944       -19.7539
 136   2.0000      -0.723413       -19.6851
 137   2.0000      -0.721599       -19.6357
 138   2.0000      -0.713704       -19.4209
 139   2.0000      -0.706767       -19.2321
 140   2.0000      -0.703270       -19.1369
 141   2.0000      -0.696841       -18.9620
 142   2.0000      -0.693089       -18.8599
 143   2.0000      -0.686163       -18.6714
 144   2.0000      -0.685925       -18.6650
 145   2.0000      -0.684696       -18.6315
 146   2.0000      -0.676673       -18.4132
 147   2.0000      -0.673973       -18.3397
 148   2.0000      -0.662169       -18.0185
 149   2.0000      -0.661316       -17.9953
 150   2.0000      -0.657029       -17.8787
 151   2.0000      -0.655706       -17.8427
 152   2.0000      -0.653871       -17.7927
 153   2.0000      -0.647543       -17.6205
 154   2.0000      -0.634523       -17.2663
 155   2.0000      -0.632690       -17.2164
 156   2.0000      -0.624481       -16.9930
 157   2.0000      -0.618338       -16.8258
 158   2.0000      -0.614806       -16.7297
 159   2.0000      -0.613575       -16.6962
 160   2.0000      -0.611042       -16.6273
 161   2.0000      -0.601692       -16.3729
 162   2.0000      -0.594460       -16.1761
 163   2.0000      -0.589592       -16.0436
 164   2.0000      -0.588098       -16.0030
 165   2.0000      -0.581269       -15.8171
 166   2.0000      -0.579027       -15.7561
 167   2.0000      -0.566889       -15.4258
 168   2.0000      -0.566586       -15.4176
 169   2.0000      -0.557748       -15.1771
 170   2.0000      -0.555035       -15.1033
 171   2.0000      -0.554221       -15.0811
 172   2.0000      -0.552849       -15.0438
 173   2.0000      -0.550861       -14.9897
 174   2.0000      -0.545653       -14.8480
 175   2.0000      -0.540273       -14.7016
 176   2.0000      -0.539189       -14.6721
 177   2.0000      -0.538031       -14.6406
 178   2.0000      -0.536514       -14.5993
 179   2.0000      -0.533838       -14.5265
 180   2.0000      -0.530296       -14.4301
 181   2.0000      -0.529372       -14.4049
 182   2.0000      -0.526774       -14.3343
 183   2.0000      -0.525700       -14.3050
 184   2.0000      -0.525100       -14.2887
 185   2.0000      -0.523708       -14.2508
 186   2.0000      -0.520697       -14.1689
 187   2.0000      -0.519123       -14.1261
 188   2.0000      -0.514191       -13.9919
 189   2.0000      -0.514118       -13.9899
 190   2.0000      -0.512299       -13.9404
 191   2.0000      -0.511235       -13.9114
 192   2.0000      -0.510560       -13.8930
 193   2.0000      -0.508353       -13.8330
 194   2.0000      -0.507389       -13.8068
 195   2.0000      -0.506656       -13.7868
 196   2.0000      -0.505690       -13.7605
 197   2.0000      -0.501752       -13.6534
 198   2.0000      -0.499835       -13.6012
 199   2.0000      -0.497232       -13.5304
 200   2.0000      -0.496237       -13.5033
 201   2.0000      -0.493143       -13.4191
 202   2.0000      -0.492168       -13.3926
 203   2.0000      -0.491125       -13.3642
 204   2.0000      -0.489791       -13.3279
 205   2.0000      -0.488121       -13.2825
 206   2.0000      -0.485441       -13.2095
 207   2.0000      -0.479862       -13.0577
 208   2.0000      -0.478297       -13.0151
 209   2.0000      -0.477280       -12.9875
 210   2.0000      -0.477147       -12.9838
 211   2.0000      -0.474961       -12.9243
 212   2.0000      -0.474455       -12.9106
 213   2.0000      -0.470930       -12.8146
 214   2.0000      -0.469350       -12.7717
 215   2.0000      -0.468502       -12.7486
 216   2.0000      -0.467525       -12.7220
 217   2.0000      -0.462319       -12.5803
 218   2.0000      -0.458979       -12.4895
 219   2.0000      -0.457960       -12.4617
 220   2.0000      -0.457094       -12.4382
 221   2.0000      -0.455361       -12.3910
 222   2.0000      -0.453896       -12.3511
 223   2.0000      -0.450208       -12.2508
 224   2.0000      -0.445764       -12.1299
 225   2.0000      -0.444044       -12.0831
 226   2.0000      -0.442302       -12.0357
 227   2.0000      -0.440627       -11.9901
 228   2.0000      -0.438582       -11.9344
 229   2.0000      -0.437227       -11.8975
 230   2.0000      -0.436474       -11.8771
 231   2.0000      -0.433974       -11.8090
 232   2.0000      -0.432976       -11.7819
 233   2.0000      -0.431596       -11.7443
 234   2.0000      -0.429432       -11.6854
 235   2.0000      -0.426819       -11.6143
 236   2.0000      -0.423327       -11.5193
 237   2.0000      -0.422673       -11.5015
 238   2.0000      -0.422095       -11.4858
 239   2.0000      -0.420339       -11.4380
 240   2.0000      -0.414315       -11.2741
 241   2.0000      -0.411373       -11.1940
 242   2.0000      -0.409713       -11.1488
 243   2.0000      -0.391218       -10.6456
 244   2.0000      -0.376675       -10.2499
 245   2.0000      -0.352047        -9.5797
 246   2.0000      -0.351235        -9.5576
 247   2.0000      -0.345304        -9.3962
 248   2.0000      -0.343788        -9.3550
 249   2.0000      -0.338976        -9.2240
 250   2.0000      -0.336404        -9.1540
 251   2.0000      -0.334975        -9.1151
 252   2.0000      -0.334296        -9.0967
 253   2.0000      -0.332577        -9.0499
 254   2.0000      -0.331255        -9.0139
 255   2.0000      -0.330703        -8.9989
 256   2.0000      -0.324271        -8.8239
 257   2.0000      -0.324213        -8.8223
 258   2.0000      -0.323156        -8.7935
 259   2.0000      -0.319280        -8.6880
 260   2.0000      -0.318594        -8.6694
 261   2.0000      -0.317847        -8.6491
 262   2.0000      -0.317295        -8.6340
 263   2.0000      -0.314506        -8.5581
 264   2.0000      -0.313800        -8.5389
 265   2.0000      -0.311324        -8.4716
 266   2.0000      -0.307267        -8.3612
 267   2.0000      -0.305343        -8.3088
 268   2.0000      -0.294949        -8.0260
 269   2.0000      -0.284922        -7.7531
 270   2.0000      -0.235318        -6.4033
 271   0.0000      -0.098243        -2.6733
 272   0.0000      -0.057811        -1.5731
 273   0.0000      -0.036986        -1.0064
 274   0.0000      -0.034532        -0.9397
 275   0.0000      -0.016884        -0.4594

MULLIKEN ATOMIC CHARGES
-----------------------
   0 C :    0.001543
   1 C :    0.011905
   2 C :    0.148797
   3 O :   -0.166387
   4 C :   -0.017712
   5 C :   -0.127429
   6 S :    0.136219
   7 C :   -0.112077
   8 C :    0.040208
   9 C :    0.126591
  10 O :   -0.170861
  11 C :   -0.037583
  12 C :    0.038012
  13 C :    0.026122
  14 C :    0.028828
  15 C :    0.024470
  16 C :    0.012287
  17 C :    0.007101
  18 C :   -0.030010
  19 C :    0.157437
  20 C :   -0.046241
  21 C :   -0.040737
  22 S :    0.125635
  23 C :   -0.052268
  24 C :    0.018081
  25 C :   -0.025402
  26 C :    0.137389
  27 O :   -0.181694
  28 C :    0.006774
  29 C :   -0.042605
  30 C :    0.109683
  31 N :   -0.264815
  32 C :    0.100358
  33 C :    0.000327
  34 C :    0.161174
  35 O :   -0.221101
  36 C :   -0.065873
  37 C :   -0.031726
  38 C :    0.148437
  39 O :   -0.189521
  40 N :   -0.265108
  41 C :    0.098912
  42 C :    0.002548
  43 C :    0.147486
  44 C :   -0.038072
  45 C :    0.045502
  46 C :   -0.043468
  47 S :    0.127906
  48 C :   -0.152972
  49 C :    0.190777
  50 O :   -0.191953
  51 C :    0.103877
  52 C :    0.006743
  53 C :   -0.009414
  54 C :    0.072133
  55 C :    0.130125
  56 O :   -0.172258
  57 C :   -0.007290
  58 C :   -0.128687
  59 S :    0.136252
  60 C :   -0.111214
  61 C :    0.040639
  62 C :    0.124856
  63 O :   -0.172792
  64 C :   -0.032667
  65 C :    0.029264
  66 C :    0.002959
  67 C :    0.059302
  68 C :    0.026371
  69 C :    0.015394
  70 C :   -0.045510
  71 C :    0.036289
  72 C :    0.042421
  73 C :    0.019625
  74 H :   -0.000037
  75 H :    0.032609
  76 H :    0.038882
  77 H :   -0.007752
  78 H :   -0.012105
  79 H :   -0.012386
  80 H :   -0.015537
  81 H :   -0.012255
  82 H :    0.001882
  83 H :   -0.014061
  84 H :   -0.008424
  85 H :   -0.003617
  86 H :   -0.023815
  87 H :   -0.024855
  88 H :    0.015813
  89 H :    0.044111
  90 H :    0.024422
  91 H :    0.027217
  92 H :    0.022993
  93 H :    0.021516
  94 H :    0.044394
  95 H :    0.025615
  96 H :    0.029216
  97 H :    0.024125
  98 H :    0.017156
  99 H :   -0.017919
 100 H :    0.021424
 101 H :   -0.027840
 102 H :   -0.004511
 103 H :    0.034660
 104 H :    0.036084
 105 H :   -0.009906
 106 H :   -0.017351
 107 H :   -0.010630
 108 H :   -0.015399
 109 H :   -0.014368
 110 H :   -0.000558
 111 H :   -0.012543
 112 H :   -0.006361
 113 H :   -0.021201
Sum of atomic charges:   -0.0000000

LOEWDIN ATOMIC CHARGES
----------------------
   0 C :   -0.001130
   1 C :   -0.065820
   2 C :    0.087248
   3 O :   -0.136846
   4 C :   -0.087266
   5 C :   -0.173140
   6 S :    0.463417
   7 C :   -0.147974
   8 C :   -0.087595
   9 C :    0.090650
  10 O :   -0.140659
  11 C :   -0.060967
  12 C :    0.017939
  13 C :   -0.017123
  14 C :   -0.011827
  15 C :   -0.021156
  16 C :   -0.018569
  17 C :    0.023364
  18 C :   -0.011631
  19 C :   -0.022491
  20 C :   -0.031299
  21 C :   -0.153906
  22 S :    0.463230
  23 C :   -0.139962
  24 C :   -0.113507
  25 C :   -0.022564
  26 C :    0.102766
  27 O :   -0.137183
  28 C :   -0.037220
  29 C :   -0.025521
  30 C :    0.058741
  31 N :   -0.003298
  32 C :    0.034574
  33 C :   -0.063354
  34 C :    0.080427
  35 O :   -0.209494
  36 C :   -0.130809
  37 C :   -0.103672
  38 C :    0.080806
  39 O :   -0.192895
  40 N :   -0.003849
  41 C :    0.036477
  42 C :   -0.061082
  43 C :    0.087873
  44 C :   -0.058026
  45 C :    0.028294
  46 C :   -0.154506
  47 S :    0.451825
  48 C :   -0.222768
  49 C :    0.088120
  50 O :   -0.139286
  51 C :   -0.003169
  52 C :   -0.022440
  53 C :    0.015211
  54 C :   -0.058073
  55 C :    0.091830
  56 O :   -0.130241
  57 C :   -0.088611
  58 C :   -0.171958
  59 S :    0.463297
  60 C :   -0.149456
  61 C :   -0.083777
  62 C :    0.090345
  63 O :   -0.141587
  64 C :   -0.065985
  65 C :    0.015533
  66 C :   -0.029345
  67 C :   -0.000596
  68 C :   -0.015931
  69 C :   -0.018814
  70 C :   -0.001878
  71 C :   -0.024750
  72 C :    0.002096
  73 C :   -0.002535
  74 H :    0.031071
  75 H :    0.026847
  76 H :    0.033030
  77 H :    0.034923
  78 H :    0.029634
  79 H :    0.028795
  80 H :    0.028447
  81 H :    0.025786
  82 H :    0.038095
  83 H :    0.031783
  84 H :    0.022856
  85 H :    0.036155
  86 H :   -0.006860
  87 H :    0.028993
  88 H :    0.038678
  89 H :    0.038001
  90 H :    0.019857
  91 H :    0.032447
  92 H :    0.030915
  93 H :    0.021940
  94 H :    0.038162
  95 H :    0.023990
  96 H :    0.032084
  97 H :    0.031126
  98 H :    0.022191
  99 H :    0.022991
 100 H :    0.045003
 101 H :   -0.008391
 102 H :    0.038019
 103 H :    0.026932
 104 H :    0.032606
 105 H :    0.033602
 106 H :    0.026321
 107 H :    0.028596
 108 H :    0.029483
 109 H :    0.025068
 110 H :    0.029982
 111 H :    0.030318
 112 H :    0.032440
 113 H :    0.031556

  Mayer bond orders larger than 0.100000
B(  0-C ,  1-C ) :   1.3523 B(  0-C , 20-C ) :   1.4011 B(  0-C , 74-H ) :   0.9806
B(  1-C ,  2-C ) :   0.9328 B(  1-C , 17-C ) :   1.3656 B(  2-C ,  3-O ) :   2.2044
B(  2-C ,  4-C ) :   0.9119 B(  4-C ,  5-C ) :   1.5687 B(  4-C ,  8-C ) :   1.2583
B(  5-C ,  6-S ) :   1.1738 B(  5-C , 75-H ) :   0.9698 B(  6-S ,  7-C ) :   1.1917
B(  7-C ,  8-C ) :   1.5510 B(  7-C , 76-H ) :   0.9642 B(  8-C ,  9-C ) :   0.9235
B(  9-C , 10-O ) :   2.2446 B(  9-C , 11-C ) :   0.9292 B( 11-C , 12-C ) :   1.3979
B( 11-C , 16-C ) :   1.3737 B( 12-C , 13-C ) :   1.3808 B( 12-C , 77-H ) :   0.9964
B( 13-C , 14-C ) :   1.3740 B( 13-C , 78-H ) :   0.9925 B( 14-C , 15-C ) :   1.3939
B( 14-C , 79-H ) :   0.9932 B( 15-C , 16-C ) :   1.3907 B( 15-C , 80-H ) :   0.9920
B( 16-C , 81-H ) :   0.9868 B( 17-C , 18-C ) :   1.3801 B( 17-C , 82-H ) :   0.9969
B( 18-C , 19-C ) :   1.3423 B( 18-C , 83-H ) :   0.9977 B( 19-C , 20-C ) :   1.3308
B( 19-C , 21-C ) :   1.0616 B( 20-C , 84-H ) :   0.9865 B( 21-C , 22-S ) :   1.0999
B( 21-C , 25-C ) :   1.5329 B( 22-S , 23-C ) :   1.1427 B( 23-C , 24-C ) :   1.3834
B( 23-C , 28-C ) :   1.1827 B( 24-C , 25-C ) :   1.2248 B( 24-C , 26-C ) :   0.9960
B( 25-C , 85-H ) :   0.9994 B( 26-C , 27-O ) :   2.1771 B( 26-C , 86-H ) :   0.9617
B( 28-C , 29-C ) :   1.5593 B( 28-C , 87-H ) :   0.9716 B( 29-C , 30-C ) :   1.1993
B( 29-C , 88-H ) :   0.9423 B( 30-C , 31-N ) :   1.1552 B( 30-C , 37-C ) :   1.3509
B( 31-N , 32-C ) :   0.9461 B( 31-N , 34-C ) :   1.0649 B( 32-C , 33-C ) :   1.1152
B( 32-C , 89-H ) :   0.9222 B( 32-C , 90-H ) :   0.9504 B( 33-C , 91-H ) :   0.9616
B( 33-C , 92-H ) :   0.9682 B( 33-C , 93-H ) :   0.9682 B( 34-C , 35-O ) :   2.0066
B( 34-C , 36-C ) :   0.9988 B( 35-O ,100-H ) :   0.1159 B( 36-C , 37-C ) :   1.2457
B( 36-C , 43-C ) :   1.3173 B( 37-C , 38-C ) :   0.9724 B( 38-C , 39-O ) :   2.1310
B( 38-C , 40-N ) :   1.0336 B( 40-N , 41-C ) :   0.9449 B( 40-N , 43-C ) :   1.1684
B( 41-C , 42-C ) :   1.1189 B( 41-C , 94-H ) :   0.9285 B( 41-C , 95-H ) :   0.9501
B( 42-C , 96-H ) :   0.9639 B( 42-C , 97-H ) :   0.9684 B( 42-C , 98-H ) :   0.9687
B( 43-C , 44-C ) :   1.1771 B( 44-C , 45-C ) :   1.5708 B( 44-C , 99-H ) :   0.9606
B( 45-C , 46-C ) :   1.1568 B( 45-C ,100-H ) :   0.9540 B( 46-C , 47-S ) :   1.1361
B( 46-C , 52-C ) :   1.4246 B( 47-S , 48-C ) :   1.0977 B( 48-C , 49-C ) :   1.0287
B( 48-C , 51-C ) :   1.5020 B( 49-C , 50-O ) :   2.0989 B( 49-C ,101-H ) :   0.9469
B( 51-C , 52-C ) :   1.3012 B( 51-C , 53-C ) :   0.9453 B( 52-C ,102-H ) :   1.0107
B( 53-C , 54-C ) :   1.4185 B( 53-C , 73-C ) :   1.4119 B( 54-C , 55-C ) :   0.9203
B( 54-C , 70-C ) :   1.3379 B( 55-C , 56-O ) :   2.1464 B( 55-C , 57-C ) :   0.9238
B( 57-C , 58-C ) :   1.5604 B( 57-C , 61-C ) :   1.2591 B( 58-C , 59-S ) :   1.1783
B( 58-C ,103-H ) :   0.9684 B( 59-S , 60-C ) :   1.1869 B( 60-C , 61-C ) :   1.5557
B( 60-C ,104-H ) :   0.9658 B( 61-C , 62-C ) :   0.9199 B( 62-C , 63-O ) :   2.2429
B( 62-C , 64-C ) :   0.9303 B( 64-C , 65-C ) :   1.3930 B( 64-C , 69-C ) :   1.3693
B( 65-C , 66-C ) :   1.3775 B( 65-C ,105-H ) :   0.9977 B( 66-C , 67-C ) :   1.3705
B( 66-C ,106-H ) :   0.9944 B( 67-C , 68-C ) :   1.3946 B( 67-C ,107-H ) :   0.9886
B( 68-C , 69-C ) :   1.3958 B( 68-C ,108-H ) :   0.9919 B( 69-C ,109-H ) :   0.9846
B( 70-C , 71-C ) :   1.3944 B( 70-C ,110-H ) :   0.9798 B( 71-C , 72-C ) :   1.3682
B( 71-C ,111-H ) :   0.9906 B( 72-C , 73-C ) :   1.3706 B( 72-C ,112-H ) :   0.9910
B( 73-C ,113-H ) :   0.9934

-----------------------------------------------------------------------------
         ABSORPTION SPECTRUM VIA TRANSITION ELECTRIC DIPOLE MOMENTS
-----------------------------------------------------------------------------
State   Energy  Wavelength   fosc         T2         TX        TY        TZ
        (cm-1)    (nm)                  (au**2)     (au)      (au)      (au)
-----------------------------------------------------------------------------
   0   14866.0    672.7   1.099925154  24.35824  -4.38750  -2.24288   0.27851
   1   23465.9    426.2   0.016464312   0.23098   0.39762   0.17494   0.20561
   2   26035.6    384.1   0.369059949   4.66664  -1.58281  -0.91580  -1.15007
   3   27094.0    369.1   0.002273395   0.02762  -0.13163  -0.09893   0.02259
   4   27353.4    365.6   0.219564280   2.64257  -1.36054  -0.84699  -0.27223
   5   29111.8    343.5   0.000837530   0.00947  -0.01591  -0.09356  -0.02157
   6   29674.9    337.0   0.018936208   0.21008   0.32926   0.18687   0.25836
   7   29906.0    334.4   0.031136201   0.34275  -0.35845  -0.20690  -0.41408
   8   30470.8    328.2   0.327853334   3.54219  -0.59189  -0.73968  -1.62626
   9   31717.8    315.3   0.261708024   2.71638  -0.89127  -0.77650  -1.14851
  10   31873.9    313.7   0.016822350   0.17375  -0.18591  -0.18199  -0.32568
  11   32554.5    307.2   0.033875670   0.34257  -0.21516  -0.35534  -0.41233
  12   32630.6    306.5   0.002564385   0.02587  -0.04745   0.06833   0.13767
  13   32783.9    305.0   0.062368017   0.62629   0.50351   0.37893   0.47873
  14   33246.5    300.8   0.272594774   2.69927   1.15906   0.73790   0.90075
  15   34232.5    292.1   0.005565893   0.05353  -0.01483  -0.08980  -0.21270
  16   35297.1    283.3   0.004017415   0.03747  -0.11865  -0.14651   0.04392
  17   35880.4    278.7   0.011557566   0.10604  -0.07260   0.11421  -0.29619
  18   35892.5    278.6   0.035665202   0.32713   0.05908  -0.16140   0.54551
  19   35953.0    278.1   0.032819146   0.30052   0.25009  -0.07784  -0.48157
  20   36322.1    275.3   0.004453947   0.04037  -0.13056   0.10105   0.11451
  21   36684.1    272.6   0.056290055   0.50516   0.20564   0.41195   0.54146
  22   36986.2    270.4   0.007217557   0.06424   0.21143   0.04616   0.13195
  23   37397.2    267.4   0.014648455   0.12895   0.24710   0.25880   0.03025
  24   37617.6    265.8   0.005067913   0.04435  -0.18595  -0.00883   0.09847
  25   37990.4    263.2   0.032931988   0.28538  -0.45602  -0.22034   0.16994
  26   38126.7    262.3   0.040166833   0.34683   0.55029   0.13840  -0.15766
  27   38339.9    260.8   0.002263723   0.01944   0.04828   0.12566   0.03627
  28   38356.1    260.7   0.009135354   0.07841  -0.20152  -0.07535   0.17922
  29   38576.4    259.2   0.005330458   0.04549  -0.05117   0.18645  -0.09005
  30   38810.8    257.7   0.055528573   0.47102  -0.66099  -0.14982  -0.10804
  31   39042.5    256.1   0.020100628   0.16949  -0.38717  -0.11704   0.07677
  32   39101.0    255.7   0.029384592   0.24740  -0.22650  -0.12846   0.42379
  33   39551.2    252.8   0.017344801   0.14437   0.29371   0.03560   0.23841
  34   40103.3    249.4   0.138876930   1.14006   0.13939  -0.40605  -0.97763
  35   40174.7    248.9   0.105524568   0.86472  -0.43570   0.22754   0.78938

FINAL SINGLE POINT ENERGY     -4610.266087452970

DIPOLE MOMENT
-------------
                                X             Y             Z
Electronic contribution:     10.93316      -0.34199       5.62148
Nuclear contribution   :    -14.34798       0.50685      -7.67089
                        -----------------------------------------
Total Dipole Moment    :     -3.41483       0.16485      -2.04941
                        -----------------------------------------
Magnitude (a.u.)       :      3.98601
Magnitude (Debye)      :     10.13164

Rotational constants in cm-1:     0.001718     0.000207     0.000202
Rotational constants in MHz :    51.500306     6.212805     6.041367

                             ****ORCA TERMINATED NORMALLY****
TOTAL RUN TIME: 0 days 0 hours 10 minutes 51 seconds 134 msec
