                         Program Version 4.2.0 -  RELEASE  -
|  1> # ORCA input file
|  2> # SCF done       -164.865328105361          0.000970283563
|  3> ! CAM-B3LYP def2-SVP def2/J RIJCOSX Grid4 TightSCF
|  4> %maxcore 5000
|  5> %tddft
|  6>     Mode sTDDFT
|  7>     Ethresh 5.0
|  8>     maxcore 5000
|  9> end
| 10>
| 11> %pal
| 12>   nprocs 6
| 13>   end
| 14> * xyz 0 1
| 15>    C        1.35798         2.41359         1.89319
| 16>    C        0.72619         3.55092         2.29188
| 17>    S        0.83022         3.75642         4.00186
| 18>    C        1.74533         2.27922         4.19110
| 19>   Cl        2.26747         1.75031         5.71195
| 20>    C        1.94207         1.68441         2.97979
| 21>    C        2.60044         0.48280         2.46850
| 22>    O        3.20840        -0.35879         3.09884
| 23>    C        2.36869         0.50435         1.00507
| 24>    C        1.62031         1.70620         0.65528
| 25>    C        1.22355         2.13593        -0.58237
| 26>    C        0.49388         3.33435        -0.74129
| 27>    N       -0.10021         4.30432        -0.88871
| 28>    C        1.47640         1.48805        -1.80784
| 29>    N        1.65319         1.01152        -2.83744
| 30>    C        2.75494        -0.46372         0.12550
| 31>    C        3.44649        -1.67740         0.34214
| 32>    S        4.08931        -2.27835         1.84350
| 33>    C        4.65615        -3.70151         1.07066
| 34>    C        5.44552        -4.67180         1.82144
| 35>    O        6.24623        -5.42859         1.33525
| 36>    C        4.35745        -3.73037        -0.29484
| 37>    C        3.68082        -2.57737        -0.69321
| 38>    C        4.57990        -4.91660        -1.09346
| 39>    N        5.01882        -4.96814        -2.38483
| 40>    C        5.56336        -3.88159        -3.16291
| 41>    C        6.82985        -3.31171        -2.53223
| 42>    C        5.06014        -6.30839        -2.86146
| 43>    O        5.43101        -6.60016        -3.97532
| 44>    C        4.57455        -7.09393        -1.74772
| 45>    C        4.29513        -6.20119        -0.68121
| 46>    C        3.79987        -6.97194         0.43182
| 47>    O        3.44568        -6.64359         1.54582
| 48>    N        3.78692        -8.29958        -0.04186
| 49>    C        3.47980        -9.36970         0.87848
| 50>    C        4.71351       -10.19343         1.23380
| 51>    C        4.25153        -8.38233        -1.33869
| 52>    C        4.36324        -9.52079        -2.18655
| 53>    C        3.83655       -10.75467        -2.02723
| 54>    C        4.02621       -11.79563        -2.99620
| 55>    N        4.78877       -11.58664        -4.08432
| 56>    C        4.97086       -12.59888        -4.88293
| 57>    C        4.28570       -13.81995        -4.67573
| 58>    N        3.47564       -13.91241        -3.61007
| 59>    N        3.40353       -12.95660        -2.76558
| 60>    C        4.35986       -14.92753        -5.58282
| 61>    C        4.27411       -16.23898        -5.26159
| 62>    C        3.98786       -17.24094        -6.34059
| 63>    O        4.08800       -17.06181        -7.52942
| 64>    C        3.51893       -18.42423        -5.61204
| 65>    C        2.99868       -19.64683        -5.91728
| 66>    S        2.65121       -20.54568        -4.45934
| 67>    C        3.22697       -19.26532        -3.45435
| 68>    C        3.64923       -18.20942        -4.19895
| 69>    C        4.24913       -16.90907        -3.97022
| 70>    C        4.85140       -16.52196        -2.80515
| 71>    C        4.79082       -17.32029        -1.64407
| 72>    N        4.74036       -17.95951        -0.69291
| 73>    C        5.64030       -15.36403        -2.66445
| 74>    N        6.33267       -14.45884        -2.52637
| 75>   Cl        2.68871       -20.29811        -7.44990
| 76>    H        0.20568         4.28221         1.70585
| 77>    H        2.48479        -0.31427        -0.91345
| 78>    H        5.28313        -4.61467         2.91204
| 79>    H        3.32401        -2.40053        -1.69255
| 80>    H        4.81280        -3.09633        -3.28984
| 81>    H        5.79055        -4.30905        -4.14397
| 82>    H        6.61581        -2.87166        -1.56063
| 83>    H        7.24797        -2.54450        -3.17782
| 84>    H        7.56870        -4.09804        -2.39971
| 85>    H        2.68167        -9.99811         0.47509
| 86>    H        3.10123        -8.87181         1.77701
| 87>    H        5.12036       -10.69645         0.35994
| 88>    H        4.45079       -10.94233         1.97587
| 89>    H        5.48132        -9.54507         1.64965
| 90>    H        4.91225        -9.32499        -3.10013
| 91>    H        3.23349       -11.04648        -1.18363
| 92>    H        5.66182       -12.46570        -5.70411
| 93>    H        4.42795       -14.69140        -6.63894
| 94>    H        3.20175       -19.37827        -2.38866
| 95> *
| 96>
| 97>                          ****END OF INPUT****

CARTESIAN COORDINATES (ANGSTROEM)
---------------------------------
  C      1.357980    2.413590    1.893190
  C      0.726190    3.550920    2.291880
  S      0.830220    3.756420    4.001860
  C      1.745330    2.279220    4.191100
  Cl     2.267470    1.750310    5.711950
  C      1.942070    1.684410    2.979790
  C      2.600440    0.482800    2.468500
  O      3.208400   -0.358790    3.098840
  C      2.368690    0.504350    1.005070
  C      1.620310    1.706200    0.655280
  C      1.223550    2.135930   -0.582370
  C      0.493880    3.334350   -0.741290
  N     -0.100210    4.304320   -0.888710
  C      1.476400    1.488050   -1.807840
  N      1.653190    1.011520   -2.837440
  C      2.754940   -0.463720    0.125500
  C      3.446490   -1.677400    0.342140
  S      4.089310   -2.278350    1.843500
  C      4.656150   -3.701510    1.070660
  C      5.445520   -4.671800    1.821440
  O      6.246230   -5.428590    1.335250
  C      4.357450   -3.730370   -0.294840
  C      3.680820   -2.577370   -0.693210
  C      4.579900   -4.916600   -1.093460
  N      5.018820   -4.968140   -2.384830
  C      5.563360   -3.881590   -3.162910
  C      6.829850   -3.311710   -2.532230
  C      5.060140   -6.308390   -2.861460
  O      5.431010   -6.600160   -3.975320
  C      4.574550   -7.093930   -1.747720
  C      4.295130   -6.201190   -0.681210
  C      3.799870   -6.971940    0.431820
  O      3.445680   -6.643590    1.545820
  N      3.786920   -8.299580   -0.041860
  C      3.479800   -9.369700    0.878480
  C      4.713510  -10.193430    1.233800
  C      4.251530   -8.382330   -1.338690
  C      4.363240   -9.520790   -2.186550
  C      3.836550  -10.754670   -2.027230
  C      4.026210  -11.795630   -2.996200
  N      4.788770  -11.586640   -4.084320
  C      4.970860  -12.598880   -4.882930
  C      4.285700  -13.819950   -4.675730
  N      3.475640  -13.912410   -3.610070
  N      3.403530  -12.956600   -2.765580
  C      4.359860  -14.927530   -5.582820
  C      4.274110  -16.238980   -5.261590
  C      3.987860  -17.240940   -6.340590
  O      4.088000  -17.061810   -7.529420
  C      3.518930  -18.424230   -5.612040
  C      2.998680  -19.646830   -5.917280
  S      2.651210  -20.545680   -4.459340
  C      3.226970  -19.265320   -3.454350
  C      3.649230  -18.209420   -4.198950
  C      4.249130  -16.909070   -3.970220
  C      4.851400  -16.521960   -2.805150
  C      4.790820  -17.320290   -1.644070
  N      4.740360  -17.959510   -0.692910
  C      5.640300  -15.364030   -2.664450
  N      6.332670  -14.458840   -2.526370
  Cl     2.688710  -20.298110   -7.449900
  H      0.205680    4.282210    1.705850
  H      2.484790   -0.314270   -0.913450
  H      5.283130   -4.614670    2.912040
  H      3.324010   -2.400530   -1.692550
  H      4.812800   -3.096330   -3.289840
  H      5.790550   -4.309050   -4.143970
  H      6.615810   -2.871660   -1.560630
  H      7.247970   -2.544500   -3.177820
  H      7.568700   -4.098040   -2.399710
  H      2.681670   -9.998110    0.475090
  H      3.101230   -8.871810    1.777010
  H      5.120360  -10.696450    0.359940
  H      4.450790  -10.942330    1.975870
  H      5.481320   -9.545070    1.649650
  H      4.912250   -9.324990   -3.100130
  H      3.233490  -11.046480   -1.183630
  H      5.661820  -12.465700   -5.704110
  H      4.427950  -14.691400   -6.638940
  H      3.201750  -19.378270   -2.388660

 Total Charge           Charge          ....    0
 Multiplicity           Mult            ....    1
 Number of Electrons    NEL             ....  456
 Basis Dimension        Dim             ....  969

ORBITAL ENERGIES
----------------

  NO   OCC          E(Eh)            E(eV)
   0   2.0000    -101.625573     -2765.3724
   1   2.0000    -101.620174     -2765.2255
   2   2.0000     -89.001859     -2421.8637
   3   2.0000     -88.996385     -2421.7148
   4   2.0000     -88.989626     -2421.5308
   5   2.0000     -19.237803      -523.4872
   6   2.0000     -19.226148      -523.1701
   7   2.0000     -19.219657      -522.9935
   8   2.0000     -19.197703      -522.3961
   9   2.0000     -19.189629      -522.1763
  10   2.0000     -14.466746      -393.6602
  11   2.0000     -14.459182      -393.4544
  12   2.0000     -14.452283      -393.2666
  13   2.0000     -14.452087      -393.2613
  14   2.0000     -14.438385      -392.8884
  15   2.0000     -14.432205      -392.7203
  16   2.0000     -14.427755      -392.5992
  17   2.0000     -14.422812      -392.4647
  18   2.0000     -14.422564      -392.4579
  19   2.0000     -10.391501      -282.7671
  20   2.0000     -10.385457      -282.6027
  21   2.0000     -10.382149      -282.5126
  22   2.0000     -10.380347      -282.4636
  23   2.0000     -10.379663      -282.4450
  24   2.0000     -10.372126      -282.2399
  25   2.0000     -10.368975      -282.1542
  26   2.0000     -10.359261      -281.8898
  27   2.0000     -10.358966      -281.8818
  28   2.0000     -10.357426      -281.8399
  29   2.0000     -10.352214      -281.6981
  30   2.0000     -10.351616      -281.6818
  31   2.0000     -10.349215      -281.6165
  32   2.0000     -10.345631      -281.5189
  33   2.0000     -10.341544      -281.4077
  34   2.0000     -10.339166      -281.3430
  35   2.0000     -10.338306      -281.3196
  36   2.0000     -10.337931      -281.3094
  37   2.0000     -10.337183      -281.2891
  38   2.0000     -10.334359      -281.2122
  39   2.0000     -10.331556      -281.1359
  40   2.0000     -10.329819      -281.0887
  41   2.0000     -10.325990      -280.9845
  42   2.0000     -10.324942      -280.9560
  43   2.0000     -10.323940      -280.9287
  44   2.0000     -10.321612      -280.8653
  45   2.0000     -10.321546      -280.8636
  46   2.0000     -10.319108      -280.7972
  47   2.0000     -10.316867      -280.7362
  48   2.0000     -10.316464      -280.7252
  49   2.0000     -10.316334      -280.7217
  50   2.0000     -10.315287      -280.6932
  51   2.0000     -10.311025      -280.5773
  52   2.0000     -10.309389      -280.5327
  53   2.0000     -10.304307      -280.3944
  54   2.0000     -10.302196      -280.3370
  55   2.0000     -10.298731      -280.2427
  56   2.0000     -10.290773      -280.0262
  57   2.0000     -10.266956      -279.3781
  58   2.0000     -10.264949      -279.3235
  59   2.0000     -10.259699      -279.1806
  60   2.0000     -10.255818      -279.0750
  61   2.0000      -9.580330      -260.6940
  62   2.0000      -9.574945      -260.5475
  63   2.0000      -8.097598      -220.3468
  64   2.0000      -8.092145      -220.1985
  65   2.0000      -8.082978      -219.9490
  66   2.0000      -7.350942      -200.0293
  67   2.0000      -7.345584      -199.8835
  68   2.0000      -7.340385      -199.7420
  69   2.0000      -7.339848      -199.7274
  70   2.0000      -7.334981      -199.5950
  71   2.0000      -7.334445      -199.5804
  72   2.0000      -6.067001      -165.0915
  73   2.0000      -6.062343      -164.9647
  74   2.0000      -6.061514      -164.9422
  75   2.0000      -6.059832      -164.8964
  76   2.0000      -6.056897      -164.8165
  77   2.0000      -6.054397      -164.7485
  78   2.0000      -6.052081      -164.6855
  79   2.0000      -6.047554      -164.5623
  80   2.0000      -6.045827      -164.5153
  81   2.0000      -1.157464       -31.4962
  82   2.0000      -1.155165       -31.4336
  83   2.0000      -1.142789       -31.0969
  84   2.0000      -1.138086       -30.9689
  85   2.0000      -1.133868       -30.8541
  86   2.0000      -1.126331       -30.6490
  87   2.0000      -1.068593       -29.0779
  88   2.0000      -1.055178       -28.7128
  89   2.0000      -1.047588       -28.5063
  90   2.0000      -1.041891       -28.3513
  91   2.0000      -1.039530       -28.2870
  92   2.0000      -1.027616       -27.9629
  93   2.0000      -1.019718       -27.7479
  94   2.0000      -1.015415       -27.6309
  95   2.0000      -1.008589       -27.4451
  96   2.0000      -1.001180       -27.2435
  97   2.0000      -0.997513       -27.1437
  98   2.0000      -0.992583       -27.0096
  99   2.0000      -0.967572       -26.3290
 100   2.0000      -0.964039       -26.2328
 101   2.0000      -0.951555       -25.8931
 102   2.0000      -0.930717       -25.3261
 103   2.0000      -0.923236       -25.1225
 104   2.0000      -0.913041       -24.8451
 105   2.0000      -0.910620       -24.7792
 106   2.0000      -0.904208       -24.6048
 107   2.0000      -0.885363       -24.0920
 108   2.0000      -0.875313       -23.8185
 109   2.0000      -0.867874       -23.6161
 110   2.0000      -0.856976       -23.3195
 111   2.0000      -0.841891       -22.9090
 112   2.0000      -0.835896       -22.7459
 113   2.0000      -0.826001       -22.4766
 114   2.0000      -0.819845       -22.3091
 115   2.0000      -0.806337       -21.9415
 116   2.0000      -0.797456       -21.6999
 117   2.0000      -0.785925       -21.3861
 118   2.0000      -0.776186       -21.1211
 119   2.0000      -0.766748       -20.8643
 120   2.0000      -0.760319       -20.6893
 121   2.0000      -0.759792       -20.6750
 122   2.0000      -0.747241       -20.3335
 123   2.0000      -0.738621       -20.0989
 124   2.0000      -0.712098       -19.3772
 125   2.0000      -0.705405       -19.1950
 126   2.0000      -0.700465       -19.0606
 127   2.0000      -0.693131       -18.8610
 128   2.0000      -0.687642       -18.7117
 129   2.0000      -0.687078       -18.6963
 130   2.0000      -0.681068       -18.5328
 131   2.0000      -0.678868       -18.4729
 132   2.0000      -0.672482       -18.2992
 133   2.0000      -0.655015       -17.8239
 134   2.0000      -0.652357       -17.7515
 135   2.0000      -0.648681       -17.6515
 136   2.0000      -0.640530       -17.4297
 137   2.0000      -0.626671       -17.0526
 138   2.0000      -0.621910       -16.9230
 139   2.0000      -0.617969       -16.8158
 140   2.0000      -0.617138       -16.7932
 141   2.0000      -0.609483       -16.5849
 142   2.0000      -0.607091       -16.5198
 143   2.0000      -0.587163       -15.9775
 144   2.0000      -0.583762       -15.8850
 145   2.0000      -0.579172       -15.7601
 146   2.0000      -0.577253       -15.7079
 147   2.0000      -0.566635       -15.4189
 148   2.0000      -0.564565       -15.3626
 149   2.0000      -0.563524       -15.3343
 150   2.0000      -0.562344       -15.3022
 151   2.0000      -0.556079       -15.1317
 152   2.0000      -0.553744       -15.0681
 153   2.0000      -0.550927       -14.9915
 154   2.0000      -0.549432       -14.9508
 155   2.0000      -0.547319       -14.8933
 156   2.0000      -0.536844       -14.6083
 157   2.0000      -0.536675       -14.6037
 158   2.0000      -0.535670       -14.5763
 159   2.0000      -0.534398       -14.5417
 160   2.0000      -0.529422       -14.4063
 161   2.0000      -0.526977       -14.3398
 162   2.0000      -0.524511       -14.2727
 163   2.0000      -0.521718       -14.1967
 164   2.0000      -0.516843       -14.0640
 165   2.0000      -0.515545       -14.0287
 166   2.0000      -0.513158       -13.9637
 167   2.0000      -0.508858       -13.8467
 168   2.0000      -0.508334       -13.8325
 169   2.0000      -0.507199       -13.8016
 170   2.0000      -0.506368       -13.7790
 171   2.0000      -0.504554       -13.7296
 172   2.0000      -0.503635       -13.7046
 173   2.0000      -0.498967       -13.5776
 174   2.0000      -0.497414       -13.5353
 175   2.0000      -0.490467       -13.3463
 176   2.0000      -0.489288       -13.3142
 177   2.0000      -0.477705       -12.9990
 178   2.0000      -0.475201       -12.9309
 179   2.0000      -0.467080       -12.7099
 180   2.0000      -0.464309       -12.6345
 181   2.0000      -0.462527       -12.5860
 182   2.0000      -0.460889       -12.5414
 183   2.0000      -0.459193       -12.4953
 184   2.0000      -0.458620       -12.4797
 185   2.0000      -0.456200       -12.4138
 186   2.0000      -0.455789       -12.4027
 187   2.0000      -0.454389       -12.3645
 188   2.0000      -0.452993       -12.3266
 189   2.0000      -0.451723       -12.2920
 190   2.0000      -0.449971       -12.2443
 191   2.0000      -0.449627       -12.2350
 192   2.0000      -0.446636       -12.1536
 193   2.0000      -0.444492       -12.0953
 194   2.0000      -0.441300       -12.0084
 195   2.0000      -0.439620       -11.9627
 196   2.0000      -0.436396       -11.8749
 197   2.0000      -0.433612       -11.7992
 198   2.0000      -0.431863       -11.7516
 199   2.0000      -0.430273       -11.7083
 200   2.0000      -0.425631       -11.5820
 201   2.0000      -0.424457       -11.5501
 202   2.0000      -0.424189       -11.5428
 203   2.0000      -0.423694       -11.5293
 204   2.0000      -0.416187       -11.3250
 205   2.0000      -0.413537       -11.2529
 206   2.0000      -0.413115       -11.2414
 207   2.0000      -0.410315       -11.1652
 208   2.0000      -0.406368       -11.0578
 209   2.0000      -0.398866       -10.8537
 210   2.0000      -0.393929       -10.7193
 211   2.0000      -0.383955       -10.4479
 212   2.0000      -0.362371        -9.8606
 213   2.0000      -0.355528        -9.6744
 214   2.0000      -0.352345        -9.5878
 215   2.0000      -0.350517        -9.5380
 216   2.0000      -0.349319        -9.5055
 217   2.0000      -0.344302        -9.3689
 218   2.0000      -0.339793        -9.2462
 219   2.0000      -0.338087        -9.1998
 220   2.0000      -0.333753        -9.0819
 221   2.0000      -0.326414        -8.8822
 222   2.0000      -0.324107        -8.8194
 223   2.0000      -0.315767        -8.5925
 224   2.0000      -0.313230        -8.5234
 225   2.0000      -0.303387        -8.2556
 226   2.0000      -0.299583        -8.1521
 227   2.0000      -0.247951        -6.7471
 228   0.0000      -0.109172        -2.9707
 229   0.0000      -0.106677        -2.9028
 230   0.0000      -0.078851        -2.1457
 231   0.0000      -0.064180        -1.7464
 232   0.0000      -0.052386        -1.4255

MULLIKEN ATOMIC CHARGES
-----------------------
   0 C :    0.026113
   1 C :   -0.126094
   2 S :    0.192800
   3 C :   -0.169757
   4 Cl:    0.005885
   5 C :    0.076222
   6 C :    0.172231
   7 O :   -0.158269
   8 C :   -0.100589
   9 C :    0.308849
  10 C :   -0.333444
  11 C :   -0.193349
  12 N :    0.160206
  13 C :   -0.179577
  14 N :    0.151238
  15 C :   -0.015591
  16 C :   -0.058047
  17 S :    0.240288
  18 C :   -0.157513
  19 C :    0.213281
  20 O :   -0.176215
  21 C :    0.071336
  22 C :   -0.026229
  23 C :    0.104476
  24 N :   -0.260217
  25 C :    0.101115
  26 C :   -0.005208
  27 C :    0.156251
  28 O :   -0.170165
  29 C :   -0.042095
  30 C :   -0.007528
  31 C :    0.143823
  32 O :   -0.211523
  33 N :   -0.271163
  34 C :    0.100090
  35 C :   -0.006420
  36 C :    0.120181
  37 C :   -0.000218
  38 C :    0.040852
  39 C :   -0.057243
  40 N :   -0.017810
  41 C :    0.071488
  42 C :   -0.044489
  43 N :   -0.050452
  44 N :   -0.044653
  45 C :    0.067276
  46 C :   -0.114143
  47 C :    0.130097
  48 O :   -0.122894
  49 C :    0.084381
  50 C :   -0.167924
  51 S :    0.190373
  52 C :   -0.124802
  53 C :    0.017090
  54 C :    0.283762
  55 C :   -0.296262
  56 C :   -0.189065
  57 N :    0.157137
  58 C :   -0.181757
  59 N :    0.169450
  60 Cl:    0.002813
  61 H :    0.057159
  62 H :    0.010403
  63 H :   -0.001370
  64 H :    0.012805
  65 H :    0.017981
  66 H :    0.049441
  67 H :    0.025706
  68 H :    0.026113
  69 H :    0.033458
  70 H :    0.026650
  71 H :    0.043341
  72 H :    0.029828
  73 H :    0.025524
  74 H :    0.029649
  75 H :    0.033290
  76 H :   -0.009759
  77 H :    0.019308
  78 H :    0.034823
  79 H :    0.057254
Sum of atomic charges:   -0.0000000

LOEWDIN ATOMIC CHARGES
----------------------
   0 C :   -0.059223
   1 C :   -0.146068
   2 S :    0.481166
   3 C :   -0.270426
   4 Cl:    0.196822
   5 C :   -0.117630
   6 C :    0.083364
   7 O :   -0.152453
   8 C :   -0.094200
   9 C :    0.076193
  10 C :   -0.135660
  11 C :   -0.015571
  12 N :   -0.047211
  13 C :   -0.022050
  14 N :   -0.046208
  15 C :    0.060423
  16 C :   -0.180933
  17 S :    0.560387
  18 C :   -0.197548
  19 C :    0.100288
  20 O :   -0.120420
  21 C :   -0.055730
  22 C :   -0.006102
  23 C :    0.090157
  24 N :   -0.001945
  25 C :    0.035950
  26 C :   -0.060517
  27 C :    0.088046
  28 O :   -0.174185
  29 C :   -0.099336
  30 C :   -0.119073
  31 C :    0.084470
  32 O :   -0.199380
  33 N :   -0.002950
  34 C :    0.035404
  35 C :   -0.062002
  36 C :    0.067999
  37 C :    0.016449
  38 C :   -0.029040
  39 C :    0.018833
  40 N :   -0.040794
  41 C :    0.062181
  42 C :   -0.055531
  43 N :   -0.010469
  44 N :   -0.049222
  45 C :    0.054728
  46 C :   -0.051696
  47 C :    0.082385
  48 O :   -0.126464
  49 C :   -0.119311
  50 C :   -0.270972
  51 S :    0.479678
  52 C :   -0.149727
  53 C :   -0.054382
  54 C :    0.075009
  55 C :   -0.116267
  56 C :   -0.014203
  57 N :   -0.045183
  58 C :   -0.016150
  59 N :   -0.049888
  60 Cl:    0.194062
  61 H :    0.038927
  62 H :    0.052483
  63 H :    0.002540
  64 H :    0.039442
  65 H :    0.020044
  66 H :    0.038966
  67 H :    0.023850
  68 H :    0.032235
  69 H :    0.033647
  70 H :    0.020630
  71 H :    0.037125
  72 H :    0.024793
  73 H :    0.032400
  74 H :    0.032928
  75 H :    0.051671
  76 H :    0.035886
  77 H :    0.034139
  78 H :    0.051372
  79 H :    0.039047

  Mayer bond orders larger than 0.100000
B(  0-C ,  1-C ) :   1.5475 B(  0-C ,  5-C ) :   1.2236 B(  0-C ,  9-C ) :   0.9963
B(  1-C ,  2-S ) :   1.1633 B(  1-C , 61-H ) :   0.9533 B(  2-S ,  3-C ) :   1.1514
B(  3-C ,  4-Cl) :   1.1341 B(  3-C ,  5-C ) :   1.4716 B(  5-C ,  6-C ) :   0.9706
B(  6-C ,  7-O ) :   2.1552 B(  6-C ,  8-C ) :   0.9586 B(  8-C ,  9-C ) :   1.0703
B(  8-C , 15-C ) :   1.5701 B(  9-C , 10-C ) :   1.6511 B( 10-C , 11-C ) :   1.1476
B( 10-C , 13-C ) :   1.1390 B( 11-C , 12-N ) :   2.9906 B( 13-C , 14-N ) :   2.9592
B( 15-C , 16-C ) :   1.2083 B( 15-C , 62-H ) :   0.9414 B( 16-C , 17-S ) :   1.1318
B( 16-C , 22-C ) :   1.3681 B( 17-S , 18-C ) :   1.1533 B( 18-C , 19-C ) :   0.9645
B( 18-C , 21-C ) :   1.4290 B( 19-C , 20-O ) :   2.1591 B( 19-C , 63-H ) :   0.9482
B( 21-C , 22-C ) :   1.3087 B( 21-C , 23-C ) :   0.9732 B( 22-C , 64-H ) :   1.0128
B( 23-C , 24-N ) :   1.2325 B( 23-C , 30-C ) :   1.4467 B( 24-N , 25-C ) :   0.9448
B( 24-N , 27-C ) :   1.0006 B( 25-C , 26-C ) :   1.1180 B( 25-C , 65-H ) :   0.9503
B( 25-C , 66-H ) :   0.9284 B( 26-C , 67-H ) :   0.9674 B( 26-C , 68-H ) :   0.9661
B( 26-C , 69-H ) :   0.9643 B( 27-C , 28-O ) :   2.1559 B( 27-C , 29-C ) :   0.9715
B( 29-C , 30-C ) :   1.2107 B( 29-C , 36-C ) :   1.3874 B( 30-C , 31-C ) :   0.9750
B( 31-C , 32-O ) :   2.0849 B( 31-C , 33-N ) :   1.0546 B( 33-N , 34-C ) :   0.9409
B( 33-N , 36-C ) :   1.1610 B( 34-C , 35-C ) :   1.1173 B( 34-C , 70-H ) :   0.9509
B( 34-C , 71-H ) :   0.9225 B( 35-C , 72-H ) :   0.9672 B( 35-C , 73-H ) :   0.9672
B( 35-C , 74-H ) :   0.9624 B( 36-C , 37-C ) :   1.1338 B( 37-C , 38-C ) :   1.5878
B( 37-C , 75-H ) :   0.9498 B( 38-C , 39-C ) :   1.0736 B( 38-C , 76-H ) :   0.9762
B( 39-C , 40-N ) :   1.4676 B( 39-C , 44-N ) :   1.5158 B( 40-N , 41-C ) :   1.6268
B( 41-C , 42-C ) :   1.2314 B( 41-C , 77-H ) :   0.9850 B( 42-C , 43-N ) :   1.4721
B( 42-C , 45-C ) :   1.0072 B( 43-N , 44-N ) :   1.3618 B( 45-C , 46-C ) :   1.7791
B( 45-C , 78-H ) :   0.9436 B( 46-C , 47-C ) :   0.9233 B( 46-C , 54-C ) :   1.0059
B( 47-C , 48-O ) :   2.2886 B( 47-C , 49-C ) :   0.9276 B( 49-C , 50-C ) :   1.4806
B( 49-C , 53-C ) :   1.2185 B( 50-C , 51-S ) :   1.1566 B( 50-C , 60-Cl) :   1.1311
B( 51-S , 52-C ) :   1.1599 B( 52-C , 53-C ) :   1.5521 B( 52-C , 79-H ) :   0.9555
B( 53-C , 54-C ) :   1.0155 B( 54-C , 55-C ) :   1.7047 B( 55-C , 56-C ) :   1.1358
B( 55-C , 58-C ) :   1.1549 B( 56-C , 57-N ) :   2.9989 B( 58-C , 59-N ) :   3.0074

-----------------------------------------------------------------------------
         ABSORPTION SPECTRUM VIA TRANSITION ELECTRIC DIPOLE MOMENTS
-----------------------------------------------------------------------------
State   Energy  Wavelength   fosc         T2         TX        TY        TZ
        (cm-1)    (nm)                  (au**2)     (au)      (au)      (au)
-----------------------------------------------------------------------------
   0   14872.6    672.4   0.047091027   1.04238   0.33881   0.93654   0.22468
   1   16703.8    598.7   0.751771736  14.81655  -0.03582  -3.81685  -0.49691
   2   18256.2    547.8   0.025480791   0.45949   0.00524  -0.67641  -0.04404
   3   21858.4    457.5   0.072451437   1.09120  -0.19907  -0.94191   0.40543
   4   25405.1    393.6   0.668796747   8.66659  -1.52432   2.51576  -0.11828
   5   26069.9    383.6   0.013413965   0.16939   0.11077  -0.35407   0.17819
   6   26485.9    377.6   0.011471857   0.14259   0.30325  -0.14196   0.17458
   7   26797.0    373.2   0.044695019   0.54910  -0.12127   0.72478   0.09533
   8   27088.5    369.2   0.065472432   0.79570  -0.51050   0.70953  -0.17793
   9   27638.6    361.8   0.001443673   0.01720  -0.12411  -0.04235   0.00031
  10   28166.4    355.0   0.006189183   0.07234  -0.14442   0.14319  -0.17602
  11   28481.4    351.1   0.010273074   0.11874   0.08496  -0.29912  -0.14850
  12   28705.3    348.4   0.046957999   0.53855  -0.04499  -0.68341  -0.26358
  13   28750.2    347.8   0.000412090   0.00472  -0.04829   0.04852  -0.00569
  14   28960.1    345.3   0.005267355   0.05988   0.21418   0.05054  -0.10700
  15   29377.4    340.4   0.336828340   3.77460   0.57408  -1.76252  -0.58187
  16   29835.4    335.2   0.185968955   2.05203  -0.26587  -1.39997  -0.14641
  17   30151.1    331.7   0.022838487   0.24937   0.11445  -0.47424  -0.10661
  18   30792.0    324.8   0.044311905   0.47376   0.26665   0.57149  -0.27578
  19   31200.7    320.5   0.022815243   0.24073   0.02112  -0.08112   0.48343
  20   31935.3    313.1   0.086907670   0.89591   0.03706  -0.10028  -0.94047
  21   32182.6    310.7   0.018118352   0.18534   0.32954   0.13120   0.24399
  22   32328.8    309.3   0.013618777   0.13868  -0.09262  -0.12796  -0.33724
  23   32635.6    306.4   0.228287740   2.30286   0.28436   1.29565   0.73708
  24   33456.3    298.9   0.092359380   0.90882   0.22753  -0.24046  -0.89400
  25   33682.9    296.9   0.000444711   0.00435  -0.02863  -0.04639  -0.03708
  26   34005.5    294.1   0.011075698   0.10723   0.25047   0.17481   0.11804
  27   34547.8    289.5   0.606464885   5.77911  -0.35174  -1.69333  -1.66974
  28   34873.5    286.8   0.006950272   0.06561  -0.20859  -0.09278   0.11617
  29   34983.9    285.8   0.020301095   0.19104   0.25937   0.26675   0.22936
  30   35269.0    283.5   0.015502536   0.14471  -0.07806  -0.09894   0.35892
  31   35402.4    282.5   0.120541485   1.12093   0.33989  -0.51634  -0.85953
  32   35566.4    281.2   0.012464622   0.11538   0.15742   0.23630   0.18643
  33   35963.7    278.1   0.067244562   0.61556   0.13180   0.46407   0.61873
  34   36036.4    277.5   0.134451337   1.22829  -0.28323  -0.94889  -0.49767
  35   36350.1    275.1   0.196256798   1.77744  -0.06255   0.99777   0.88204
  36   36885.8    271.1   0.485093227   4.32954  -0.11916  -0.32363  -2.05198
  37   37758.8    264.8   0.204931017   1.78676  -0.29830  -0.28770  -1.27083
  38   38076.5    262.6   0.243066322   2.10157   0.84031   1.02965   0.57902
  39   38284.2    261.2   0.010784602   0.09274   0.29100  -0.03565  -0.08238
  40   38462.7    260.0   0.103432754   0.88531   0.31300  -0.38611  -0.79891
  41   39186.6    255.2   0.075120680   0.63110   0.22430  -0.67590  -0.35207
  42   39482.8    253.3   0.014306199   0.11929  -0.01351   0.34025   0.05776
  43   39622.0    252.4   0.001071706   0.00890  -0.01108  -0.04459  -0.08242
  44   39845.6    251.0   0.033596606   0.27758   0.29818  -0.35925  -0.24415
  45   39932.4    250.4   0.035089112   0.28928  -0.08310   0.43807   0.30078
  46   40129.2    249.2   0.028787990   0.23617  -0.09031   0.37356   0.29744

FINAL SINGLE POINT ENERGY     -4591.871539034328

DIPOLE MOMENT
-------------
                                X             Y             Z
Electronic contribution:    -20.95744     -11.12053       3.21358
Nuclear contribution   :     20.17505      11.80218      -2.47713
                        -----------------------------------------
Total Dipole Moment    :     -0.78239       0.68165       0.73645
                        -----------------------------------------
Magnitude (a.u.)       :      1.27245
Magnitude (Debye)      :      3.23432

Rotational constants in cm-1:     0.003353     0.000261     0.000254
Rotational constants in MHz :   100.512975     7.833561     7.626532

                             ****ORCA TERMINATED NORMALLY****
TOTAL RUN TIME: 0 days 0 hours 7 minutes 25 seconds 730 msec
