                         Program Version 4.2.0 -  RELEASE  -
|  1> # ORCA input file
|  2> # SCF done       -167.316378535666          0.000520454491
|  3> ! CAM-B3LYP def2-SVP def2/J RIJCOSX Grid4 TightSCF
|  4> %maxcore 5000
|  5> %tddft
|  6>     Mode sTDDFT
|  7>     Ethresh 5.0
|  8>     maxcore 5000
|  9> end
| 10>
| 11> %pal
| 12>   nprocs 6
| 13>   end
| 14> * xyz 0 1
| 15>    C        4.51337         3.58001         1.07781
| 16>    C        4.21982         4.87560         1.36843
| 17>    S        5.15224         5.44267         2.70652
| 18>    C        5.95830         3.90163         2.88075
| 19>   Cl        7.12184         3.64475         4.08456
| 20>    C        5.50912         3.02109         1.94264
| 21>    C        5.76403         1.63117         1.56144
| 22>    O        6.54255         0.85335         2.07947
| 23>    C        4.86826         1.36913         0.41572
| 24>    C        4.10010         2.56951         0.12188
| 25>    C        3.15864         2.77030        -0.85272
| 26>    C        2.50892         4.01499        -0.99454
| 27>    N        1.97138         5.02017        -1.12478
| 28>    C        2.72327         1.82339        -1.80073
| 29>    N        2.32069         1.10349        -2.59954
| 30>    C        4.76572         0.18197        -0.25800
| 31>    C        5.45428        -1.03183        -0.07469
| 32>    S        6.71516        -1.37545         1.08006
| 33>    C        6.88407        -3.00084         0.49400
| 34>    C        5.96494        -3.27727        -0.53215
| 35>    C        5.19247        -2.15865        -0.84586
| 36>    C        5.67993        -4.57391        -1.15207
| 37>    O        5.03896        -4.70975        -2.16193
| 38>    C        7.91528        -3.77860         1.07755
| 39>    C        8.47081        -4.89790         0.54150
| 40>    C        9.51413        -5.71423         1.04393
| 41>    N       10.26802        -5.61705         2.19433
| 42>    C       10.16040        -4.66771         3.27640
| 43>    C        8.97340        -4.97283         4.18710
| 44>    C       11.22003        -6.65219         2.28126
| 45>    O       12.00006        -6.76421         3.20762
| 46>    C       11.02446        -7.43609         1.08416
| 47>    C        9.97688        -6.83490         0.35429
| 48>    C        9.75151        -7.61120        -0.84562
| 49>    O        8.96470        -7.48959        -1.75836
| 50>    N       10.69489        -8.65574        -0.75541
| 51>    C       10.82990        -9.62774        -1.81292
| 52>    C       12.01223        -9.31319        -2.72627
| 53>    C       11.46398        -8.56168         0.38059
| 54>    C       12.48544        -9.47889         0.71962
| 55>    C       13.27052        -9.31388         1.81906
| 56>    C       14.31312       -10.18902         2.20332
| 57>    C       14.70388       -11.41078         1.66937
| 58>    C       15.76851       -11.98925         2.34036
| 59>    C       16.26225       -11.20987         3.37814
| 60>    S       15.32112        -9.75728         3.54914
| 61>    C       17.31261       -11.56715         4.25813
| 62>    C       18.08372       -10.77031         5.04577
| 63>    C       18.78424       -11.36929         6.22493
| 64>    O       18.93630       -12.54567         6.44960
| 65>    C       19.17316       -10.21085         7.03945
| 66>    C       19.74453        -9.98690         8.25614
| 67>    S       19.89260        -8.27110         8.55781
| 68>    C       19.19408        -7.87673         7.02853
| 69>    C       18.85939        -8.99863         6.33936
| 70>    C       18.31122        -9.33752         5.03963
| 71>    C       18.29266        -8.49519         3.95949
| 72>    C       18.62988        -7.13228         4.08385
| 73>    N       18.89378        -6.01958         4.17527
| 74>    C       18.04866        -8.91657         2.63790
| 75>    N       17.90901        -9.23878         1.54493
| 76>   Cl       20.27305       -11.12897         9.39017
| 77>    H        3.52395         5.53992         0.89592
| 78>    H        4.04771         0.13990        -1.06878
| 79>    H        4.43655        -2.18080        -1.61203
| 80>    H        6.05374        -5.44819        -0.58946
| 81>    H        8.29935        -3.36345         1.99694
| 82>    H        8.12225        -5.24120        -0.42361
| 83>    H       10.11257        -3.65226         2.87623
| 84>    H       11.08811        -4.76870         3.84838
| 85>    H        8.03877        -4.97991         3.63088
| 86>    H        8.90966        -4.22363         4.97131
| 87>    H        9.10584        -5.94820         4.64893
| 88>    H        9.90033        -9.57802        -2.38699
| 89>    H       10.92357       -10.62862        -1.38186
| 90>    H       11.87611        -8.33674        -3.18432
| 91>    H       12.07761       -10.05905        -3.51347
| 92>    H       12.94691        -9.30616        -2.16961
| 93>    H       12.64095       -10.32422         0.06613
| 94>    H       13.11290        -8.44831         2.44970
| 95>    H       14.21477       -11.86661         0.82809
| 96>    H       16.20929       -12.93337         2.07382
| 97>    H       17.47748       -12.63408         4.38040
| 98>    H       19.07045        -6.84810         6.75353
| 99> *
|100>
|101>                          ****END OF INPUT****

CARTESIAN COORDINATES (ANGSTROEM)
---------------------------------
  C      4.513370    3.580010    1.077810
  C      4.219820    4.875600    1.368430
  S      5.152240    5.442670    2.706520
  C      5.958300    3.901630    2.880750
  Cl     7.121840    3.644750    4.084560
  C      5.509120    3.021090    1.942640
  C      5.764030    1.631170    1.561440
  O      6.542550    0.853350    2.079470
  C      4.868260    1.369130    0.415720
  C      4.100100    2.569510    0.121880
  C      3.158640    2.770300   -0.852720
  C      2.508920    4.014990   -0.994540
  N      1.971380    5.020170   -1.124780
  C      2.723270    1.823390   -1.800730
  N      2.320690    1.103490   -2.599540
  C      4.765720    0.181970   -0.258000
  C      5.454280   -1.031830   -0.074690
  S      6.715160   -1.375450    1.080060
  C      6.884070   -3.000840    0.494000
  C      5.964940   -3.277270   -0.532150
  C      5.192470   -2.158650   -0.845860
  C      5.679930   -4.573910   -1.152070
  O      5.038960   -4.709750   -2.161930
  C      7.915280   -3.778600    1.077550
  C      8.470810   -4.897900    0.541500
  C      9.514130   -5.714230    1.043930
  N     10.268020   -5.617050    2.194330
  C     10.160400   -4.667710    3.276400
  C      8.973400   -4.972830    4.187100
  C     11.220030   -6.652190    2.281260
  O     12.000060   -6.764210    3.207620
  C     11.024460   -7.436090    1.084160
  C      9.976880   -6.834900    0.354290
  C      9.751510   -7.611200   -0.845620
  O      8.964700   -7.489590   -1.758360
  N     10.694890   -8.655740   -0.755410
  C     10.829900   -9.627740   -1.812920
  C     12.012230   -9.313190   -2.726270
  C     11.463980   -8.561680    0.380590
  C     12.485440   -9.478890    0.719620
  C     13.270520   -9.313880    1.819060
  C     14.313120  -10.189020    2.203320
  C     14.703880  -11.410780    1.669370
  C     15.768510  -11.989250    2.340360
  C     16.262250  -11.209870    3.378140
  S     15.321120   -9.757280    3.549140
  C     17.312610  -11.567150    4.258130
  C     18.083720  -10.770310    5.045770
  C     18.784240  -11.369290    6.224930
  O     18.936300  -12.545670    6.449600
  C     19.173160  -10.210850    7.039450
  C     19.744530   -9.986900    8.256140
  S     19.892600   -8.271100    8.557810
  C     19.194080   -7.876730    7.028530
  C     18.859390   -8.998630    6.339360
  C     18.311220   -9.337520    5.039630
  C     18.292660   -8.495190    3.959490
  C     18.629880   -7.132280    4.083850
  N     18.893780   -6.019580    4.175270
  C     18.048660   -8.916570    2.637900
  N     17.909010   -9.238780    1.544930
  Cl    20.273050  -11.128970    9.390170
  H      3.523950    5.539920    0.895920
  H      4.047710    0.139900   -1.068780
  H      4.436550   -2.180800   -1.612030
  H      6.053740   -5.448190   -0.589460
  H      8.299350   -3.363450    1.996940
  H      8.122250   -5.241200   -0.423610
  H     10.112570   -3.652260    2.876230
  H     11.088110   -4.768700    3.848380
  H      8.038770   -4.979910    3.630880
  H      8.909660   -4.223630    4.971310
  H      9.105840   -5.948200    4.648930
  H      9.900330   -9.578020   -2.386990
  H     10.923570  -10.628620   -1.381860
  H     11.876110   -8.336740   -3.184320
  H     12.077610  -10.059050   -3.513470
  H     12.946910   -9.306160   -2.169610
  H     12.640950  -10.324220    0.066130
  H     13.112900   -8.448310    2.449700
  H     14.214770  -11.866610    0.828090
  H     16.209290  -12.933370    2.073820
  H     17.477480  -12.634080    4.380400
  H     19.070450   -6.848100    6.753530

 Total Charge           Charge          ....    0
 Multiplicity           Mult            ....    1
 Number of Electrons    NEL             ....  472
 Basis Dimension        Dim             .... 1002

ORBITAL ENERGIES
----------------

  NO   OCC          E(Eh)            E(eV)
   0   2.0000    -101.619669     -2765.2118
   1   2.0000    -101.618197     -2765.1717
   2   2.0000     -88.994023     -2421.6505
   3   2.0000     -88.993746     -2421.6429
   4   2.0000     -88.980193     -2421.2741
   5   2.0000     -88.975224     -2421.1389
   6   2.0000     -19.228539      -523.2352
   7   2.0000     -19.220455      -523.0152
   8   2.0000     -19.212237      -522.7916
   9   2.0000     -19.202337      -522.5222
  10   2.0000     -19.198089      -522.4066
  11   2.0000     -14.463482      -393.5714
  12   2.0000     -14.461670      -393.5221
  13   2.0000     -14.421272      -392.4228
  14   2.0000     -14.421247      -392.4221
  15   2.0000     -14.419325      -392.3698
  16   2.0000     -14.418561      -392.3490
  17   2.0000     -10.384769      -282.5839
  18   2.0000     -10.382549      -282.5235
  19   2.0000     -10.381242      -282.4880
  20   2.0000     -10.378008      -282.4000
  21   2.0000     -10.377600      -282.3889
  22   2.0000     -10.376956      -282.3713
  23   2.0000     -10.358556      -281.8707
  24   2.0000     -10.354270      -281.7540
  25   2.0000     -10.350683      -281.6564
  26   2.0000     -10.349572      -281.6262
  27   2.0000     -10.349288      -281.6184
  28   2.0000     -10.346594      -281.5451
  29   2.0000     -10.345103      -281.5046
  30   2.0000     -10.331083      -281.1231
  31   2.0000     -10.330301      -281.1018
  32   2.0000     -10.329803      -281.0882
  33   2.0000     -10.329607      -281.0829
  34   2.0000     -10.329541      -281.0811
  35   2.0000     -10.328953      -281.0651
  36   2.0000     -10.327671      -281.0302
  37   2.0000     -10.323641      -280.9205
  38   2.0000     -10.323515      -280.9171
  39   2.0000     -10.323013      -280.9035
  40   2.0000     -10.321211      -280.8544
  41   2.0000     -10.321115      -280.8518
  42   2.0000     -10.316849      -280.7357
  43   2.0000     -10.314077      -280.6603
  44   2.0000     -10.313415      -280.6423
  45   2.0000     -10.313334      -280.6401
  46   2.0000     -10.311119      -280.5798
  47   2.0000     -10.309803      -280.5440
  48   2.0000     -10.309025      -280.5228
  49   2.0000     -10.307515      -280.4817
  50   2.0000     -10.307158      -280.4720
  51   2.0000     -10.305586      -280.4293
  52   2.0000     -10.305099      -280.4160
  53   2.0000     -10.303045      -280.3601
  54   2.0000     -10.301568      -280.3199
  55   2.0000     -10.301531      -280.3189
  56   2.0000     -10.300127      -280.2807
  57   2.0000     -10.292834      -280.0822
  58   2.0000     -10.274220      -279.5757
  59   2.0000     -10.270605      -279.4774
  60   2.0000     -10.270180      -279.4658
  61   2.0000     -10.269254      -279.4406
  62   2.0000      -9.574420      -260.5332
  63   2.0000      -9.572937      -260.4929
  64   2.0000      -8.089874      -220.1367
  65   2.0000      -8.089491      -220.1263
  66   2.0000      -8.075310      -219.7404
  67   2.0000      -8.068864      -219.5650
  68   2.0000      -7.345040      -199.8687
  69   2.0000      -7.343594      -199.8294
  70   2.0000      -7.334472      -199.5811
  71   2.0000      -7.333937      -199.5666
  72   2.0000      -7.332962      -199.5400
  73   2.0000      -7.332440      -199.5258
  74   2.0000      -6.059285      -164.8815
  75   2.0000      -6.058901      -164.8711
  76   2.0000      -6.054656      -164.7556
  77   2.0000      -6.054271      -164.7451
  78   2.0000      -6.052044      -164.6845
  79   2.0000      -6.051705      -164.6753
  80   2.0000      -6.044483      -164.4787
  81   2.0000      -6.040334      -164.3658
  82   2.0000      -6.038238      -164.3088
  83   2.0000      -6.037642      -164.2926
  84   2.0000      -6.033614      -164.1830
  85   2.0000      -6.031212      -164.1176
  86   2.0000      -1.145554       -31.1721
  87   2.0000      -1.143150       -31.1067
  88   2.0000      -1.137519       -30.9535
  89   2.0000      -1.135610       -30.9015
  90   2.0000      -1.126372       -30.6501
  91   2.0000      -1.073243       -29.2044
  92   2.0000      -1.062724       -28.9182
  93   2.0000      -1.039662       -28.2907
  94   2.0000      -1.039288       -28.2805
  95   2.0000      -1.019451       -27.7407
  96   2.0000      -1.017964       -27.7002
  97   2.0000      -1.009286       -27.4641
  98   2.0000      -1.006013       -27.3750
  99   2.0000      -0.998724       -27.1767
 100   2.0000      -0.997700       -27.1488
 101   2.0000      -0.989368       -26.9221
 102   2.0000      -0.988866       -26.9084
 103   2.0000      -0.956218       -26.0200
 104   2.0000      -0.955789       -26.0083
 105   2.0000      -0.939067       -25.5533
 106   2.0000      -0.929369       -25.2894
 107   2.0000      -0.926320       -25.2065
 108   2.0000      -0.909736       -24.7552
 109   2.0000      -0.908466       -24.7206
 110   2.0000      -0.896085       -24.3837
 111   2.0000      -0.892069       -24.2744
 112   2.0000      -0.879944       -23.9445
 113   2.0000      -0.861583       -23.4449
 114   2.0000      -0.858991       -23.3743
 115   2.0000      -0.847102       -23.0508
 116   2.0000      -0.841413       -22.8960
 117   2.0000      -0.833954       -22.6930
 118   2.0000      -0.833234       -22.6734
 119   2.0000      -0.828317       -22.5397
 120   2.0000      -0.811610       -22.0850
 121   2.0000      -0.801037       -21.7973
 122   2.0000      -0.774709       -21.0809
 123   2.0000      -0.768628       -20.9154
 124   2.0000      -0.767275       -20.8786
 125   2.0000      -0.757259       -20.6061
 126   2.0000      -0.750916       -20.4335
 127   2.0000      -0.734488       -19.9864
 128   2.0000      -0.721948       -19.6452
 129   2.0000      -0.716868       -19.5070
 130   2.0000      -0.708879       -19.2896
 131   2.0000      -0.700622       -19.0649
 132   2.0000      -0.691570       -18.8186
 133   2.0000      -0.685914       -18.6647
 134   2.0000      -0.684183       -18.6176
 135   2.0000      -0.680243       -18.5103
 136   2.0000      -0.676273       -18.4023
 137   2.0000      -0.676074       -18.3969
 138   2.0000      -0.660397       -17.9703
 139   2.0000      -0.647421       -17.6172
 140   2.0000      -0.642272       -17.4771
 141   2.0000      -0.632834       -17.2203
 142   2.0000      -0.631613       -17.1871
 143   2.0000      -0.620984       -16.8978
 144   2.0000      -0.617760       -16.8101
 145   2.0000      -0.616382       -16.7726
 146   2.0000      -0.610294       -16.6069
 147   2.0000      -0.608841       -16.5674
 148   2.0000      -0.601679       -16.3725
 149   2.0000      -0.592783       -16.1304
 150   2.0000      -0.590198       -16.0601
 151   2.0000      -0.580446       -15.7947
 152   2.0000      -0.579721       -15.7750
 153   2.0000      -0.573425       -15.6037
 154   2.0000      -0.568112       -15.4591
 155   2.0000      -0.553702       -15.0670
 156   2.0000      -0.552613       -15.0374
 157   2.0000      -0.550152       -14.9704
 158   2.0000      -0.549552       -14.9541
 159   2.0000      -0.545281       -14.8378
 160   2.0000      -0.540787       -14.7156
 161   2.0000      -0.539961       -14.6931
 162   2.0000      -0.537378       -14.6228
 163   2.0000      -0.534592       -14.5470
 164   2.0000      -0.531206       -14.4549
 165   2.0000      -0.528445       -14.3797
 166   2.0000      -0.524507       -14.2726
 167   2.0000      -0.523684       -14.2502
 168   2.0000      -0.522607       -14.2209
 169   2.0000      -0.520676       -14.1683
 170   2.0000      -0.516866       -14.0646
 171   2.0000      -0.514153       -13.9908
 172   2.0000      -0.511380       -13.9154
 173   2.0000      -0.509772       -13.8716
 174   2.0000      -0.508339       -13.8326
 175   2.0000      -0.506664       -13.7870
 176   2.0000      -0.506196       -13.7743
 177   2.0000      -0.503642       -13.7048
 178   2.0000      -0.502151       -13.6642
 179   2.0000      -0.500635       -13.6230
 180   2.0000      -0.493981       -13.4419
 181   2.0000      -0.492190       -13.3932
 182   2.0000      -0.486082       -13.2270
 183   2.0000      -0.485379       -13.2078
 184   2.0000      -0.481910       -13.1134
 185   2.0000      -0.476451       -12.9649
 186   2.0000      -0.474391       -12.9088
 187   2.0000      -0.470089       -12.7918
 188   2.0000      -0.465414       -12.6645
 189   2.0000      -0.464293       -12.6340
 190   2.0000      -0.461160       -12.5488
 191   2.0000      -0.457362       -12.4455
 192   2.0000      -0.456900       -12.4329
 193   2.0000      -0.454655       -12.3718
 194   2.0000      -0.453517       -12.3408
 195   2.0000      -0.453427       -12.3384
 196   2.0000      -0.452132       -12.3031
 197   2.0000      -0.450644       -12.2626
 198   2.0000      -0.447496       -12.1770
 199   2.0000      -0.447365       -12.1734
 200   2.0000      -0.446931       -12.1616
 201   2.0000      -0.444819       -12.1041
 202   2.0000      -0.443156       -12.0589
 203   2.0000      -0.440131       -11.9766
 204   2.0000      -0.440007       -11.9732
 205   2.0000      -0.436313       -11.8727
 206   2.0000      -0.432534       -11.7699
 207   2.0000      -0.431666       -11.7462
 208   2.0000      -0.430086       -11.7032
 209   2.0000      -0.429181       -11.6786
 210   2.0000      -0.422140       -11.4870
 211   2.0000      -0.421840       -11.4788
 212   2.0000      -0.419727       -11.4214
 213   2.0000      -0.414092       -11.2680
 214   2.0000      -0.411610       -11.2005
 215   2.0000      -0.404654       -11.0112
 216   2.0000      -0.404386       -11.0039
 217   2.0000      -0.397003       -10.8030
 218   2.0000      -0.390901       -10.6370
 219   2.0000      -0.360447        -9.8083
 220   2.0000      -0.357644        -9.7320
 221   2.0000      -0.356273        -9.6947
 222   2.0000      -0.347089        -9.4448
 223   2.0000      -0.345534        -9.4024
 224   2.0000      -0.344031        -9.3615
 225   2.0000      -0.342318        -9.3149
 226   2.0000      -0.341118        -9.2823
 227   2.0000      -0.335117        -9.1190
 228   2.0000      -0.334363        -9.0985
 229   2.0000      -0.328139        -8.9291
 230   2.0000      -0.325497        -8.8572
 231   2.0000      -0.317013        -8.6264
 232   2.0000      -0.315507        -8.5854
 233   2.0000      -0.296546        -8.0694
 234   2.0000      -0.289244        -7.8707
 235   2.0000      -0.242201        -6.5906
 236   0.0000      -0.118424        -3.2225
 237   0.0000      -0.098785        -2.6881
 238   0.0000      -0.077215        -2.1011
 239   0.0000      -0.055411        -1.5078
 240   0.0000      -0.051744        -1.4080

MULLIKEN ATOMIC CHARGES
-----------------------
   0 C :    0.029174
   1 C :   -0.131784
   2 S :    0.185559
   3 C :   -0.171654
   4 Cl:   -0.002572
   5 C :    0.079263
   6 C :    0.170634
   7 O :   -0.168090
   8 C :   -0.111186
   9 C :    0.308789
  10 C :   -0.334927
  11 C :   -0.194299
  12 N :    0.154705
  13 C :   -0.185797
  14 N :    0.154346
  15 C :   -0.008348
  16 C :   -0.050765
  17 S :    0.205504
  18 C :   -0.081992
  19 C :    0.028745
  20 C :   -0.012602
  21 C :    0.140671
  22 O :   -0.174316
  23 C :    0.048125
  24 C :   -0.032903
  25 C :    0.100437
  26 N :   -0.265660
  27 C :    0.097437
  28 C :   -0.001102
  29 C :    0.160587
  30 O :   -0.215441
  31 C :   -0.063213
  32 C :   -0.038393
  33 C :    0.151833
  34 O :   -0.179849
  35 N :   -0.264310
  36 C :    0.096697
  37 C :   -0.000455
  38 C :    0.147117
  39 C :   -0.026891
  40 C :    0.089889
  41 C :   -0.079789
  42 C :    0.027644
  43 C :    0.075667
  44 C :   -0.112671
  45 S :    0.186479
  46 C :    0.060056
  47 C :   -0.146591
  48 C :    0.136111
  49 O :   -0.130034
  50 C :    0.088919
  51 C :   -0.170936
  52 S :    0.184196
  53 C :   -0.128114
  54 C :    0.018659
  55 C :    0.249025
  56 C :   -0.304150
  57 C :   -0.181771
  58 N :    0.155682
  59 C :   -0.205424
  60 N :    0.176717
  61 Cl:   -0.001371
  62 H :    0.055480
  63 H :    0.015562
  64 H :    0.022498
  65 H :   -0.001122
  66 H :   -0.010585
  67 H :    0.016103
  68 H :    0.029369
  69 H :    0.046495
  70 H :    0.021526
  71 H :    0.026315
  72 H :    0.027310
  73 H :    0.048354
  74 H :    0.022814
  75 H :    0.032550
  76 H :    0.027504
  77 H :    0.019456
  78 H :   -0.026027
  79 H :    0.014926
  80 H :   -0.006236
  81 H :   -0.000661
  82 H :    0.033666
  83 H :    0.053437
Sum of atomic charges:   -0.0000000

LOEWDIN ATOMIC CHARGES
----------------------
   0 C :   -0.057924
   1 C :   -0.147749
   2 S :    0.473796
   3 C :   -0.272550
   4 Cl:    0.190278
   5 C :   -0.116436
   6 C :    0.083075
   7 O :   -0.160311
   8 C :   -0.104659
   9 C :    0.075460
  10 C :   -0.140014
  11 C :   -0.015108
  12 N :   -0.053442
  13 C :   -0.024431
  14 N :   -0.045447
  15 C :    0.062237
  16 C :   -0.189106
  17 S :    0.519772
  18 C :   -0.135823
  19 C :   -0.120195
  20 C :    0.024169
  21 C :    0.104277
  22 O :   -0.126237
  23 C :   -0.042556
  24 C :   -0.010097
  25 C :    0.058337
  26 N :   -0.001645
  27 C :    0.034780
  28 C :   -0.062820
  29 C :    0.080420
  30 O :   -0.204049
  31 C :   -0.127352
  32 C :   -0.098810
  33 C :    0.081251
  34 O :   -0.182739
  35 N :   -0.003280
  36 C :    0.036024
  37 C :   -0.060649
  38 C :    0.088567
  39 C :   -0.041497
  40 C :    0.020211
  41 C :   -0.151291
  42 C :   -0.038353
  43 C :   -0.009731
  44 C :   -0.179660
  45 S :    0.497055
  46 C :    0.052239
  47 C :   -0.091884
  48 C :    0.080567
  49 O :   -0.134803
  50 C :   -0.117935
  51 C :   -0.272250
  52 S :    0.472837
  53 C :   -0.151798
  54 C :   -0.056305
  55 C :    0.060050
  56 C :   -0.137401
  57 C :   -0.017033
  58 N :   -0.048680
  59 C :   -0.035688
  60 N :   -0.044654
  61 Cl:    0.191296
  62 H :    0.038171
  63 H :    0.053556
  64 H :    0.045639
  65 H :    0.001318
  66 H :    0.029686
  67 H :    0.046595
  68 H :    0.022166
  69 H :    0.038621
  70 H :    0.021891
  71 H :    0.032268
  72 H :    0.032515
  73 H :    0.039788
  74 H :    0.022461
  75 H :    0.033777
  76 H :    0.032224
  77 H :    0.023014
  78 H :    0.029368
  79 H :    0.038913
  80 H :    0.033406
  81 H :    0.038787
  82 H :    0.053574
  83 H :    0.037959

  Mayer bond orders larger than 0.100000
B(  0-C ,  1-C ) :   1.5509 B(  0-C ,  5-C ) :   1.2237 B(  0-C ,  9-C ) :   0.9918
B(  1-C ,  2-S ) :   1.1583 B(  1-C , 62-H ) :   0.9537 B(  2-S ,  3-C ) :   1.1490
B(  3-C ,  4-Cl) :   1.1261 B(  3-C ,  5-C ) :   1.4765 B(  5-C ,  6-C ) :   0.9680
B(  6-C ,  7-O ) :   2.1447 B(  6-C ,  8-C ) :   0.9678 B(  8-C ,  9-C ) :   1.0828
B(  8-C , 15-C ) :   1.5282 B(  9-C , 10-C ) :   1.6415 B( 10-C , 11-C ) :   1.1497
B( 10-C , 13-C ) :   1.1386 B( 11-C , 12-N ) :   2.9880 B( 13-C , 14-N ) :   2.9617
B( 15-C , 16-C ) :   1.2415 B( 15-C , 63-H ) :   0.9431 B( 16-C , 17-S ) :   1.0818
B( 16-C , 20-C ) :   1.3657 B( 17-S , 18-C ) :   1.1556 B( 18-C , 19-C ) :   1.3265
B( 18-C , 23-C ) :   1.1539 B( 19-C , 20-C ) :   1.3101 B( 19-C , 21-C ) :   0.9593
B( 20-C , 64-H ) :   1.0080 B( 21-C , 22-O ) :   2.1872 B( 21-C , 65-H ) :   0.9590
B( 23-C , 24-C ) :   1.5702 B( 23-C , 66-H ) :   0.9491 B( 24-C , 25-C ) :   1.2112
B( 24-C , 67-H ) :   0.9427 B( 25-C , 26-N ) :   1.1528 B( 25-C , 32-C ) :   1.3476
B( 26-N , 27-C ) :   0.9405 B( 26-N , 29-C ) :   1.0683 B( 27-C , 28-C ) :   1.1147
B( 27-C , 68-H ) :   0.9515 B( 27-C , 69-H ) :   0.9233 B( 28-C , 70-H ) :   0.9689
B( 28-C , 71-H ) :   0.9685 B( 28-C , 72-H ) :   0.9620 B( 29-C , 30-O ) :   2.0121
B( 29-C , 31-C ) :   0.9944 B( 30-O , 79-H ) :   0.1158 B( 31-C , 32-C ) :   1.2608
B( 31-C , 38-C ) :   1.3081 B( 32-C , 33-C ) :   0.9684 B( 33-C , 34-O ) :   2.1375
B( 33-C , 35-N ) :   1.0323 B( 35-N , 36-C ) :   0.9426 B( 35-N , 38-C ) :   1.1694
B( 36-C , 37-C ) :   1.1184 B( 36-C , 73-H ) :   0.9281 B( 36-C , 74-H ) :   0.9501
B( 37-C , 75-H ) :   0.9644 B( 37-C , 76-H ) :   0.9681 B( 37-C , 77-H ) :   0.9689
B( 38-C , 39-C ) :   1.1810 B( 39-C , 40-C ) :   1.6025 B( 39-C , 78-H ) :   0.9631
B( 40-C , 41-C ) :   1.1390 B( 40-C , 79-H ) :   0.9349 B( 41-C , 42-C ) :   1.4274
B( 41-C , 45-S ) :   1.1547 B( 42-C , 43-C ) :   1.3269 B( 42-C , 80-H ) :   0.9920
B( 43-C , 44-C ) :   1.4106 B( 43-C , 81-H ) :   0.9991 B( 44-C , 45-S ) :   1.1310
B( 44-C , 46-C ) :   1.1249 B( 46-C , 47-C ) :   1.6666 B( 46-C , 82-H ) :   0.9453
B( 47-C , 48-C ) :   0.9387 B( 47-C , 55-C ) :   1.0349 B( 48-C , 49-O ) :   2.2790
B( 48-C , 50-C ) :   0.9246 B( 50-C , 51-C ) :   1.4855 B( 50-C , 54-C ) :   1.2224
B( 51-C , 52-S ) :   1.1514 B( 51-C , 61-Cl) :   1.1278 B( 52-S , 53-C ) :   1.1567
B( 53-C , 54-C ) :   1.5545 B( 53-C , 83-H ) :   0.9578 B( 54-C , 55-C ) :   1.0110
B( 55-C , 56-C ) :   1.6713 B( 56-C , 57-C ) :   1.1358 B( 56-C , 59-C ) :   1.1483
B( 57-C , 58-N ) :   3.0018 B( 59-C , 60-N ) :   3.0266

-----------------------------------------------------------------------------
         ABSORPTION SPECTRUM VIA TRANSITION ELECTRIC DIPOLE MOMENTS
-----------------------------------------------------------------------------
State   Energy  Wavelength   fosc         T2         TX        TY        TZ
        (cm-1)    (nm)                  (au**2)     (au)      (au)      (au)
-----------------------------------------------------------------------------
   0   12584.2    794.6   1.204851747  31.51985  -4.06001   3.79657  -0.78881
   1   18226.2    548.7   0.342977845   6.19505   0.19035  -2.37869  -0.70755
   2   22304.6    448.3   0.255077104   3.76490   1.43903   0.44146   1.22442
   3   22652.9    441.4   0.117239528   1.70383   0.82916   0.90221   0.44982
   4   24222.0    412.8   0.509694222   6.92747  -1.62945   1.99741  -0.53172
   5   25854.9    386.8   0.002011747   0.02562  -0.09432   0.08402  -0.09828
   6   27006.4    370.3   0.048915949   0.59629   0.44564  -0.02136   0.63027
   7   27353.4    365.6   0.001552639   0.01869  -0.10375  -0.08901   0.00013
   8   27830.9    359.3   0.058127867   0.68759  -0.55395   0.25972  -0.55971
   9   27878.6    358.7   0.029661068   0.35026  -0.31986   0.19201  -0.45944
  10   28087.5    356.0   0.026014017   0.30491  -0.12950   0.25283  -0.47351
  11   28762.7    347.7   0.005050089   0.05780   0.02724   0.23606   0.03657
  12   29011.0    344.7   0.043615078   0.49494  -0.28310   0.61962  -0.17567
  13   29411.6    340.0   0.087896268   0.98385   0.41641  -0.19375   0.87916
  14   29548.3    338.4   0.004864898   0.05420  -0.02033   0.16771  -0.16019
  15   30160.1    331.6   0.157953133   1.72413  -0.58586  -0.52517  -1.05124
  16   30280.0    330.3   0.213371261   2.31983   0.65069  -1.32093   0.38934
  17   31342.8    319.1   0.000417521   0.00439   0.00752  -0.03826  -0.05352
  18   31895.3    313.5   0.120673974   1.24555   0.53929  -0.11056   0.97082
  19   32046.6    312.0   0.008176058   0.08399  -0.11235  -0.04678  -0.26302
  20   32310.8    309.5   0.062402584   0.63582   0.12648   0.76597   0.18195
  21   33705.7    296.7   0.024141162   0.23579  -0.05098   0.45191   0.17021
  22   33851.2    295.4   0.003788241   0.03684  -0.08848  -0.11051  -0.12962
  23   34368.8    291.0   0.002629706   0.02519  -0.11876   0.09630   0.04257
  24   34759.1    287.7   0.064311551   0.60911   0.17753   0.54647   0.52817
  25   34907.6    286.5   0.036509194   0.34432  -0.28975  -0.17094  -0.48077
  26   35157.3    284.4   0.165767312   1.55224   0.69674  -0.65047   0.80230
  27   35454.3    282.1   0.090623244   0.84149  -0.43080  -0.38818  -0.71078
  28   35932.2    278.3   0.056918312   0.52149  -0.07737  -0.18482  -0.69379
  29   36333.7    275.2   0.072609391   0.65790   0.06127  -0.23885   0.77272
  30   36395.4    274.8   0.336359813   3.04252  -0.89839   0.56927  -1.38251
  31   36688.8    272.6   0.593727748   5.32757  -1.28896  -0.74371  -1.76438
  32   37135.2    269.3   0.092178946   0.81719   0.22013  -0.37610   0.79201
  33   37598.4    266.0   0.137207228   1.20139   0.22057   0.47474   0.96299
  34   37903.1    263.8   0.128668461   1.11757   0.73164   0.27723   0.71092
  35   38144.3    262.2   0.009191321   0.07933  -0.06139   0.27011   0.05097
  36   38295.2    261.1   0.131679244   1.13201   0.02520   0.93115   0.51413
  37   38672.8    258.6   0.104892359   0.89292   0.30784  -0.01446   0.89328
  38   38792.3    257.8   0.083827657   0.71141   0.63661  -0.33058   0.44369
  39   38896.1    257.1   0.070492590   0.59664   0.37384   0.19721   0.64652
  40   39110.2    255.7   0.007427059   0.06252   0.23206   0.00180   0.09306
  41   39348.0    254.1   0.015506286   0.12974   0.12195   0.12924   0.31331
  42   39672.7    252.1   0.000347232   0.00288  -0.00583   0.01326   0.05169
  43   40214.2    248.7   0.113814077   0.93173  -0.33219   0.16440  -0.89127
  44   40250.9    248.4   0.001768816   0.01447   0.09140  -0.04343   0.06502

FINAL SINGLE POINT ENERGY     -4941.893140200666

DIPOLE MOMENT
-------------
                                X             Y             Z
Electronic contribution:     20.07666      38.26193      41.90015
Nuclear contribution   :    -18.67097     -39.57602     -39.30575
                        -----------------------------------------
Total Dipole Moment    :      1.40568      -1.31409       2.59440
                        -----------------------------------------
Magnitude (a.u.)       :      3.23013
Magnitude (Debye)      :      8.21033

Rotational constants in cm-1:     0.001740     0.000286     0.000252
Rotational constants in MHz :    52.156658     8.571554     7.558108

                             ****ORCA TERMINATED NORMALLY****
TOTAL RUN TIME: 0 days 0 hours 7 minutes 59 seconds 465 msec
