                         Program Version 4.2.0 -  RELEASE  -
|  1> # ORCA input file
|  2> # SCF done       -181.732122246845          0.000639839809
|  3> ! CAM-B3LYP def2-SVP def2/J RIJCOSX Grid4 TightSCF
|  4> %maxcore 5000
|  5> %tddft
|  6>     Mode sTDDFT
|  7>     Ethresh 5.0
|  8>     maxcore 5000
|  9> end
| 10>
| 11> %pal
| 12>   nprocs 6
| 13>   end
| 14> * xyz 0 1
| 15>    C        3.47147         2.81599         1.16114
| 16>    C        3.19205         4.10157         1.51017
| 17>    S        2.43165         4.94795         0.21379
| 18>    C        2.48599         3.53982        -0.82323
| 19>   Cl        1.87670         3.58262        -2.40212
| 20>    C        3.07031         2.49404        -0.17490
| 21>    C        3.39020         1.09074        -0.47742
| 22>    O        3.10747         0.47381        -1.47223
| 23>    C        4.04259         0.58160         0.77611
| 24>    C        4.07879         1.64812         1.76552
| 25>    C        4.62773         1.62055         3.02094
| 26>    C        4.60611         2.75902         3.85470
| 27>    N        4.59670         3.67238         4.54884
| 28>    C        5.27057         0.52093         3.62323
| 29>    N        5.81219        -0.32968         4.17218
| 30>    C        4.42791        -0.70485         1.00467
| 31>    C        4.55576        -1.73617         0.04754
| 32>    N        4.67378        -1.61683        -1.23854
| 33>    C        4.81443        -2.78958        -1.83308
| 34>    C        4.81273        -3.92457        -0.97791
| 35>    S        4.64131        -3.43217         0.64930
| 36>    N        4.94657        -5.10249        -1.56937
| 37>    C        5.06593        -4.95823        -2.86575
| 38>    S        5.01310        -3.28058        -3.46473
| 39>    C        5.23498        -6.01033        -3.79630
| 40>    N        5.29131        -7.35074        -3.50658
| 41>    C        5.12559        -7.96627        -2.21133
| 42>    C        3.65441        -8.06480        -1.82141
| 43>    C        5.47968        -8.12236        -4.66691
| 44>    O        5.56054        -9.33553        -4.66004
| 45>    C        5.55375        -7.15516        -5.74157
| 46>    C        5.39783        -5.87037        -5.16847
| 47>    C        5.47656        -4.88697        -6.22122
| 48>    O        5.39577        -3.67643        -6.20185
| 49>    N        5.67440        -5.65016        -7.38707
| 50>    C        5.85071        -5.01419        -8.67106
| 51>    C        7.32360        -4.92428        -9.06243
| 52>    C        5.72718        -6.99723        -7.11691
| 53>    C        5.91595        -7.99545        -8.11192
| 54>    C        5.94298        -9.31194        -7.80308
| 55>    C        6.12129       -10.39966        -8.72986
| 56>    C        6.45227       -10.22569       -10.07265
| 57>    C        6.61005       -11.30988       -10.92158
| 58>    N        6.93525       -10.99899       -12.28838
| 59>    O        7.39507        -9.90031       -12.51393
| 60>    O        6.73786       -11.83908       -13.14556
| 61>    C        6.43431       -12.63288       -10.46882
| 62>    C        6.11490       -12.79147        -9.11323
| 63>    C        5.96439       -11.71755        -8.26954
| 64>    C        6.59824       -13.78385       -11.32839
| 65>    C        5.93398       -14.94293       -11.17178
| 66>    C        6.10728       -16.07431       -12.03387
| 67>    C        6.30424       -16.09284       -13.37133
| 68>    C        6.82436       -17.35071       -14.00653
| 69>    O        6.89071       -18.43698       -13.48506
| 70>    C        7.26518       -16.92933       -15.33840
| 71>    C        7.91306       -17.48498       -16.40218
| 72>    S        8.10231       -16.31309       -17.68338
| 73>    C        7.29428       -15.08915       -16.77231
| 74>    C        6.90996       -15.55655       -15.55526
| 75>    C        6.19169       -15.05969       -14.39549
| 76>    C        5.39736       -13.94927       -14.40185
| 77>    C        5.31742       -13.11234       -15.53679
| 78>    N        5.23052       -12.43361       -16.45663
| 79>    C        4.54279       -13.54933       -13.35632
| 80>    N        3.80224       -13.19751       -12.55331
| 81>   Cl        8.49272       -19.06880       -16.56060
| 82>    H        3.37391         4.61124         2.43542
| 83>    H        4.66796        -1.00579         2.01658
| 84>    H        5.67223        -7.38200        -1.46957
| 85>    H        5.55841        -8.96686        -2.29308
| 86>    H        3.22253        -7.07215        -1.72711
| 87>    H        3.56375        -8.57530        -0.86729
| 88>    H        3.10197        -8.62461        -2.57238
| 89>    H        5.43805        -4.00681        -8.56746
| 90>    H        5.27618        -5.55278        -9.42945
| 91>    H        7.86858        -4.34228        -8.32334
| 92>    H        7.41737        -4.43459       -10.02753
| 93>    H        7.77445        -5.91226        -9.12594
| 94>    H        6.02509        -7.66136        -9.13282
| 95>    H        5.81017        -9.60216        -6.76892
| 96>    H        6.59627        -9.24057       -10.48902
| 97>    H        6.01279       -13.79069        -8.72035
| 98>    H        5.72006       -11.87880        -7.23028
| 99>    H        7.28648       -13.69306       -12.15750
|100>    H        5.25434       -15.07814       -10.34097
|101>    H        6.12516       -17.04781       -11.55138
|102>    H        7.17069       -14.11174       -17.19433
|103> *
|104>
|105>                          ****END OF INPUT****

CARTESIAN COORDINATES (ANGSTROEM)
---------------------------------
  C      3.471470    2.815990    1.161140
  C      3.192050    4.101570    1.510170
  S      2.431650    4.947950    0.213790
  C      2.485990    3.539820   -0.823230
  Cl     1.876700    3.582620   -2.402120
  C      3.070310    2.494040   -0.174900
  C      3.390200    1.090740   -0.477420
  O      3.107470    0.473810   -1.472230
  C      4.042590    0.581600    0.776110
  C      4.078790    1.648120    1.765520
  C      4.627730    1.620550    3.020940
  C      4.606110    2.759020    3.854700
  N      4.596700    3.672380    4.548840
  C      5.270570    0.520930    3.623230
  N      5.812190   -0.329680    4.172180
  C      4.427910   -0.704850    1.004670
  C      4.555760   -1.736170    0.047540
  N      4.673780   -1.616830   -1.238540
  C      4.814430   -2.789580   -1.833080
  C      4.812730   -3.924570   -0.977910
  S      4.641310   -3.432170    0.649300
  N      4.946570   -5.102490   -1.569370
  C      5.065930   -4.958230   -2.865750
  S      5.013100   -3.280580   -3.464730
  C      5.234980   -6.010330   -3.796300
  N      5.291310   -7.350740   -3.506580
  C      5.125590   -7.966270   -2.211330
  C      3.654410   -8.064800   -1.821410
  C      5.479680   -8.122360   -4.666910
  O      5.560540   -9.335530   -4.660040
  C      5.553750   -7.155160   -5.741570
  C      5.397830   -5.870370   -5.168470
  C      5.476560   -4.886970   -6.221220
  O      5.395770   -3.676430   -6.201850
  N      5.674400   -5.650160   -7.387070
  C      5.850710   -5.014190   -8.671060
  C      7.323600   -4.924280   -9.062430
  C      5.727180   -6.997230   -7.116910
  C      5.915950   -7.995450   -8.111920
  C      5.942980   -9.311940   -7.803080
  C      6.121290  -10.399660   -8.729860
  C      6.452270  -10.225690  -10.072650
  C      6.610050  -11.309880  -10.921580
  N      6.935250  -10.998990  -12.288380
  O      7.395070   -9.900310  -12.513930
  O      6.737860  -11.839080  -13.145560
  C      6.434310  -12.632880  -10.468820
  C      6.114900  -12.791470   -9.113230
  C      5.964390  -11.717550   -8.269540
  C      6.598240  -13.783850  -11.328390
  C      5.933980  -14.942930  -11.171780
  C      6.107280  -16.074310  -12.033870
  C      6.304240  -16.092840  -13.371330
  C      6.824360  -17.350710  -14.006530
  O      6.890710  -18.436980  -13.485060
  C      7.265180  -16.929330  -15.338400
  C      7.913060  -17.484980  -16.402180
  S      8.102310  -16.313090  -17.683380
  C      7.294280  -15.089150  -16.772310
  C      6.909960  -15.556550  -15.555260
  C      6.191690  -15.059690  -14.395490
  C      5.397360  -13.949270  -14.401850
  C      5.317420  -13.112340  -15.536790
  N      5.230520  -12.433610  -16.456630
  C      4.542790  -13.549330  -13.356320
  N      3.802240  -13.197510  -12.553310
  Cl     8.492720  -19.068800  -16.560600
  H      3.373910    4.611240    2.435420
  H      4.667960   -1.005790    2.016580
  H      5.672230   -7.382000   -1.469570
  H      5.558410   -8.966860   -2.293080
  H      3.222530   -7.072150   -1.727110
  H      3.563750   -8.575300   -0.867290
  H      3.101970   -8.624610   -2.572380
  H      5.438050   -4.006810   -8.567460
  H      5.276180   -5.552780   -9.429450
  H      7.868580   -4.342280   -8.323340
  H      7.417370   -4.434590  -10.027530
  H      7.774450   -5.912260   -9.125940
  H      6.025090   -7.661360   -9.132820
  H      5.810170   -9.602160   -6.768920
  H      6.596270   -9.240570  -10.489020
  H      6.012790  -13.790690   -8.720350
  H      5.720060  -11.878800   -7.230280
  H      7.286480  -13.693060  -12.157500
  H      5.254340  -15.078140  -10.340970
  H      6.125160  -17.047810  -11.551380
  H      7.170690  -14.111740  -17.194330

 Total Charge           Charge          ....    0
 Multiplicity           Mult            ....    1
 Number of Electrons    NEL             ....  506
 Basis Dimension        Dim             .... 1067

ORBITAL ENERGIES
----------------

  NO   OCC          E(Eh)            E(eV)
   0   2.0000    -101.617432     -2765.1509
   1   2.0000    -101.614890     -2765.0817
   2   2.0000     -88.992869     -2421.6191
   3   2.0000     -88.992474     -2421.6083
   4   2.0000     -88.981433     -2421.3079
   5   2.0000     -88.979284     -2421.2494
   6   2.0000     -19.261382      -524.1289
   7   2.0000     -19.259750      -524.0845
   8   2.0000     -19.220813      -523.0249
   9   2.0000     -19.214809      -522.8615
  10   2.0000     -19.207443      -522.6611
  11   2.0000     -19.198483      -522.4173
  12   2.0000     -14.666277      -399.0897
  13   2.0000     -14.467228      -393.6733
  14   2.0000     -14.463036      -393.5592
  15   2.0000     -14.439957      -392.9312
  16   2.0000     -14.435710      -392.8156
  17   2.0000     -14.423678      -392.4882
  18   2.0000     -14.421080      -392.4175
  19   2.0000     -14.416865      -392.3028
  20   2.0000     -14.416549      -392.2942
  21   2.0000     -10.388820      -282.6942
  22   2.0000     -10.382939      -282.5341
  23   2.0000     -10.376873      -282.3691
  24   2.0000     -10.376176      -282.3501
  25   2.0000     -10.374065      -282.2927
  26   2.0000     -10.373617      -282.2805
  27   2.0000     -10.366822      -282.0956
  28   2.0000     -10.358054      -281.8570
  29   2.0000     -10.356135      -281.8047
  30   2.0000     -10.352126      -281.6957
  31   2.0000     -10.350642      -281.6553
  32   2.0000     -10.349871      -281.6343
  33   2.0000     -10.348729      -281.6032
  34   2.0000     -10.347952      -281.5821
  35   2.0000     -10.347653      -281.5739
  36   2.0000     -10.346418      -281.5403
  37   2.0000     -10.341413      -281.4042
  38   2.0000     -10.328989      -281.0661
  39   2.0000     -10.328415      -281.0504
  40   2.0000     -10.328323      -281.0479
  41   2.0000     -10.327268      -281.0192
  42   2.0000     -10.325783      -280.9788
  43   2.0000     -10.323138      -280.9069
  44   2.0000     -10.320734      -280.8415
  45   2.0000     -10.319610      -280.8109
  46   2.0000     -10.318856      -280.7903
  47   2.0000     -10.318204      -280.7726
  48   2.0000     -10.313956      -280.6570
  49   2.0000     -10.313463      -280.6436
  50   2.0000     -10.312576      -280.6195
  51   2.0000     -10.312107      -280.6067
  52   2.0000     -10.311912      -280.6014
  53   2.0000     -10.308365      -280.5049
  54   2.0000     -10.307942      -280.4934
  55   2.0000     -10.307856      -280.4910
  56   2.0000     -10.306378      -280.4508
  57   2.0000     -10.305499      -280.4269
  58   2.0000     -10.304634      -280.4033
  59   2.0000     -10.304227      -280.3923
  60   2.0000     -10.301022      -280.3051
  61   2.0000     -10.300169      -280.2818
  62   2.0000     -10.297713      -280.2150
  63   2.0000     -10.278293      -279.6866
  64   2.0000     -10.272705      -279.5345
  65   2.0000     -10.272299      -279.5235
  66   2.0000     -10.256525      -279.0942
  67   2.0000      -9.572224      -260.4735
  68   2.0000      -9.569674      -260.4041
  69   2.0000      -8.088518      -220.0998
  70   2.0000      -8.088145      -220.0896
  71   2.0000      -8.077422      -219.7978
  72   2.0000      -8.074079      -219.7069
  73   2.0000      -7.342867      -199.8096
  74   2.0000      -7.340330      -199.7405
  75   2.0000      -7.332262      -199.5210
  76   2.0000      -7.331715      -199.5061
  77   2.0000      -7.329701      -199.4513
  78   2.0000      -7.329160      -199.4366
  79   2.0000      -6.057895      -164.8437
  80   2.0000      -6.057526      -164.8337
  81   2.0000      -6.053297      -164.7186
  82   2.0000      -6.052905      -164.7079
  83   2.0000      -6.050795      -164.6505
  84   2.0000      -6.050426      -164.6405
  85   2.0000      -6.046316      -164.5286
  86   2.0000      -6.043213      -164.4442
  87   2.0000      -6.042822      -164.4336
  88   2.0000      -6.039450      -164.3418
  89   2.0000      -6.039345      -164.3389
  90   2.0000      -6.035902      -164.2452
  91   2.0000      -1.341195       -36.4958
  92   2.0000      -1.159103       -31.5408
  93   2.0000      -1.147486       -31.2247
  94   2.0000      -1.137816       -30.9615
  95   2.0000      -1.137347       -30.9488
  96   2.0000      -1.134037       -30.8587
  97   2.0000      -1.109447       -30.1896
  98   2.0000      -1.078168       -29.3384
  99   2.0000      -1.073142       -29.2017
 100   2.0000      -1.058496       -28.8032
 101   2.0000      -1.037553       -28.2333
 102   2.0000      -1.037135       -28.2219
 103   2.0000      -1.019103       -27.7312
 104   2.0000      -1.014986       -27.6192
 105   2.0000      -1.005910       -27.3722
 106   2.0000      -1.000887       -27.2355
 107   2.0000      -0.995296       -27.0834
 108   2.0000      -0.988058       -26.8864
 109   2.0000      -0.987385       -26.8681
 110   2.0000      -0.956132       -26.0177
 111   2.0000      -0.954925       -25.9848
 112   2.0000      -0.944596       -25.7038
 113   2.0000      -0.939396       -25.5623
 114   2.0000      -0.931121       -25.3371
 115   2.0000      -0.925973       -25.1970
 116   2.0000      -0.913240       -24.8505
 117   2.0000      -0.909214       -24.7410
 118   2.0000      -0.903787       -24.5933
 119   2.0000      -0.899667       -24.4812
 120   2.0000      -0.890156       -24.2224
 121   2.0000      -0.885117       -24.0852
 122   2.0000      -0.876914       -23.8620
 123   2.0000      -0.860505       -23.4155
 124   2.0000      -0.845635       -23.0109
 125   2.0000      -0.831800       -22.6344
 126   2.0000      -0.831697       -22.6316
 127   2.0000      -0.825741       -22.4695
 128   2.0000      -0.817195       -22.2370
 129   2.0000      -0.808051       -21.9882
 130   2.0000      -0.805584       -21.9210
 131   2.0000      -0.778690       -21.1892
 132   2.0000      -0.766788       -20.8654
 133   2.0000      -0.766185       -20.8490
 134   2.0000      -0.755082       -20.5468
 135   2.0000      -0.753376       -20.5004
 136   2.0000      -0.743196       -20.2234
 137   2.0000      -0.728684       -19.8285
 138   2.0000      -0.715170       -19.4608
 139   2.0000      -0.706975       -19.2378
 140   2.0000      -0.703525       -19.1439
 141   2.0000      -0.698675       -19.0119
 142   2.0000      -0.689997       -18.7758
 143   2.0000      -0.685594       -18.6559
 144   2.0000      -0.684393       -18.6233
 145   2.0000      -0.677338       -18.4313
 146   2.0000      -0.675895       -18.3920
 147   2.0000      -0.675152       -18.3718
 148   2.0000      -0.667738       -18.1701
 149   2.0000      -0.659262       -17.9394
 150   2.0000      -0.653075       -17.7711
 151   2.0000      -0.647560       -17.6210
 152   2.0000      -0.639064       -17.3898
 153   2.0000      -0.629897       -17.1404
 154   2.0000      -0.623183       -16.9577
 155   2.0000      -0.619898       -16.8683
 156   2.0000      -0.615937       -16.7605
 157   2.0000      -0.611753       -16.6467
 158   2.0000      -0.609745       -16.5920
 159   2.0000      -0.606236       -16.4965
 160   2.0000      -0.604166       -16.4402
 161   2.0000      -0.598133       -16.2760
 162   2.0000      -0.587499       -15.9866
 163   2.0000      -0.582638       -15.8544
 164   2.0000      -0.578821       -15.7505
 165   2.0000      -0.574729       -15.6392
 166   2.0000      -0.571376       -15.5479
 167   2.0000      -0.568306       -15.4644
 168   2.0000      -0.557442       -15.1688
 169   2.0000      -0.553073       -15.0499
 170   2.0000      -0.549747       -14.9594
 171   2.0000      -0.547658       -14.9025
 172   2.0000      -0.545829       -14.8528
 173   2.0000      -0.544880       -14.8269
 174   2.0000      -0.542761       -14.7693
 175   2.0000      -0.538653       -14.6575
 176   2.0000      -0.537779       -14.6337
 177   2.0000      -0.534474       -14.5438
 178   2.0000      -0.531931       -14.4746
 179   2.0000      -0.529685       -14.4135
 180   2.0000      -0.527095       -14.3430
 181   2.0000      -0.524965       -14.2850
 182   2.0000      -0.522939       -14.2299
 183   2.0000      -0.519678       -14.1412
 184   2.0000      -0.518244       -14.1021
 185   2.0000      -0.514396       -13.9974
 186   2.0000      -0.511698       -13.9240
 187   2.0000      -0.506974       -13.7955
 188   2.0000      -0.505554       -13.7568
 189   2.0000      -0.503338       -13.6965
 190   2.0000      -0.503262       -13.6945
 191   2.0000      -0.499694       -13.5974
 192   2.0000      -0.497410       -13.5352
 193   2.0000      -0.494120       -13.4457
 194   2.0000      -0.491917       -13.3857
 195   2.0000      -0.489321       -13.3151
 196   2.0000      -0.486045       -13.2260
 197   2.0000      -0.482314       -13.1244
 198   2.0000      -0.479931       -13.0596
 199   2.0000      -0.475924       -12.9505
 200   2.0000      -0.469777       -12.7833
 201   2.0000      -0.469400       -12.7730
 202   2.0000      -0.466785       -12.7019
 203   2.0000      -0.461954       -12.5704
 204   2.0000      -0.459121       -12.4933
 205   2.0000      -0.455793       -12.4028
 206   2.0000      -0.455157       -12.3855
 207   2.0000      -0.454037       -12.3550
 208   2.0000      -0.452795       -12.3212
 209   2.0000      -0.451418       -12.2837
 210   2.0000      -0.449119       -12.2211
 211   2.0000      -0.448530       -12.2051
 212   2.0000      -0.444741       -12.1020
 213   2.0000      -0.444092       -12.0844
 214   2.0000      -0.443964       -12.0809
 215   2.0000      -0.439568       -11.9613
 216   2.0000      -0.435616       -11.8537
 217   2.0000      -0.434720       -11.8293
 218   2.0000      -0.433659       -11.8005
 219   2.0000      -0.432768       -11.7762
 220   2.0000      -0.431495       -11.7416
 221   2.0000      -0.427137       -11.6230
 222   2.0000      -0.422967       -11.5095
 223   2.0000      -0.422085       -11.4855
 224   2.0000      -0.419011       -11.4019
 225   2.0000      -0.412381       -11.2215
 226   2.0000      -0.411324       -11.1927
 227   2.0000      -0.407542       -11.0898
 228   2.0000      -0.403663       -10.9842
 229   2.0000      -0.402800       -10.9607
 230   2.0000      -0.401441       -10.9238
 231   2.0000      -0.400850       -10.9077
 232   2.0000      -0.395884       -10.7726
 233   2.0000      -0.389060       -10.5869
 234   2.0000      -0.383982       -10.4487
 235   2.0000      -0.377916       -10.2836
 236   2.0000      -0.367829       -10.0091
 237   2.0000      -0.361867        -9.8469
 238   2.0000      -0.361287        -9.8311
 239   2.0000      -0.356617        -9.7040
 240   2.0000      -0.344824        -9.3831
 241   2.0000      -0.344537        -9.3753
 242   2.0000      -0.342602        -9.3227
 243   2.0000      -0.339339        -9.2339
 244   2.0000      -0.335176        -9.1206
 245   2.0000      -0.332539        -9.0488
 246   2.0000      -0.326362        -8.8808
 247   2.0000      -0.324125        -8.8199
 248   2.0000      -0.315891        -8.5958
 249   2.0000      -0.314668        -8.5625
 250   2.0000      -0.301360        -8.2004
 251   2.0000      -0.297121        -8.0851
 252   2.0000      -0.249511        -6.7895
 253   0.0000      -0.116178        -3.1614
 254   0.0000      -0.096879        -2.6362
 255   0.0000      -0.081929        -2.2294
 256   0.0000      -0.063094        -1.7169
 257   0.0000      -0.052770        -1.4359

MULLIKEN ATOMIC CHARGES
-----------------------
   0 C :    0.030024
   1 C :   -0.128367
   2 S :    0.185949
   3 C :   -0.173830
   4 Cl:   -0.000800
   5 C :    0.075137
   6 C :    0.146409
   7 O :   -0.094697
   8 C :   -0.084546
   9 C :    0.293479
  10 C :   -0.335289
  11 C :   -0.192174
  12 N :    0.155695
  13 C :   -0.185414
  14 N :    0.162436
  15 C :    0.034128
  16 C :   -0.146547
  17 N :    0.045662
  18 C :   -0.043989
  19 C :   -0.053441
  20 S :    0.140644
  21 N :   -0.038864
  22 C :   -0.207992
  23 S :    0.206696
  24 C :    0.204865
  25 N :   -0.254195
  26 C :    0.130085
  27 C :    0.001895
  28 C :    0.168870
  29 O :   -0.215406
  30 C :   -0.066794
  31 C :   -0.092880
  32 C :    0.161351
  33 O :   -0.189511
  34 N :   -0.262217
  35 C :    0.097559
  36 C :    0.003487
  37 C :    0.135180
  38 C :    0.006944
  39 C :    0.007871
  40 C :    0.109674
  41 C :   -0.064062
  42 C :    0.158285
  43 N :    0.266049
  44 O :   -0.220841
  45 O :   -0.245106
  46 C :    0.055229
  47 C :   -0.027252
  48 C :    0.022534
  49 C :    0.015833
  50 C :   -0.001060
  51 C :    0.029015
  52 C :   -0.129426
  53 C :    0.129565
  54 O :   -0.129114
  55 C :    0.092583
  56 C :   -0.172458
  57 S :    0.184731
  58 C :   -0.126437
  59 C :    0.010368
  60 C :    0.266231
  61 C :   -0.298718
  62 C :   -0.183855
  63 N :    0.160632
  64 C :   -0.186556
  65 N :    0.165869
  66 Cl:   -0.001082
  67 H :    0.053356
  68 H :    0.022669
  69 H :    0.031466
  70 H :    0.032881
  71 H :    0.019687
  72 H :    0.018984
  73 H :    0.019806
  74 H :    0.047011
  75 H :    0.028829
  76 H :    0.032263
  77 H :    0.029055
  78 H :    0.016815
  79 H :   -0.025686
  80 H :    0.011698
  81 H :    0.003088
  82 H :   -0.009279
  83 H :    0.012199
  84 H :    0.034236
  85 H :    0.022978
  86 H :    0.034744
  87 H :    0.055157
Sum of atomic charges:   -0.0000000

LOEWDIN ATOMIC CHARGES
----------------------
   0 C :   -0.061411
   1 C :   -0.149422
   2 S :    0.475347
   3 C :   -0.273977
   4 Cl:    0.191940
   5 C :   -0.115085
   6 C :    0.072977
   7 O :   -0.103877
   8 C :   -0.063110
   9 C :    0.072641
  10 C :   -0.134644
  11 C :   -0.014964
  12 N :   -0.049947
  13 C :   -0.024136
  14 N :   -0.044906
  15 C :    0.028147
  16 C :   -0.126906
  17 N :   -0.043743
  18 C :   -0.208158
  19 C :   -0.199906
  20 S :    0.424581
  21 N :   -0.092960
  22 C :   -0.119763
  23 S :    0.495105
  24 C :    0.036254
  25 N :    0.013316
  26 C :    0.037137
  27 C :   -0.060185
  28 C :    0.080477
  29 O :   -0.204507
  30 C :   -0.126601
  31 C :   -0.112562
  32 C :    0.075207
  33 O :   -0.188064
  34 N :    0.000365
  35 C :    0.037081
  36 C :   -0.060142
  37 C :    0.090367
  38 C :   -0.045193
  39 C :    0.043695
  40 C :   -0.029093
  41 C :    0.022565
  42 C :   -0.022993
  43 N :    0.293368
  44 O :   -0.188561
  45 O :   -0.189082
  46 C :    0.006332
  47 C :   -0.001411
  48 C :    0.026227
  49 C :    0.014210
  50 C :   -0.015724
  51 C :    0.062259
  52 C :   -0.075103
  53 C :    0.081152
  54 O :   -0.131891
  55 C :   -0.120583
  56 C :   -0.272569
  57 S :    0.474983
  58 C :   -0.151734
  59 C :   -0.055884
  60 C :    0.058844
  61 C :   -0.117146
  62 C :   -0.012625
  63 N :   -0.046990
  64 C :   -0.016268
  65 N :   -0.051840
  66 Cl:    0.191174
  67 H :    0.037355
  68 H :    0.045559
  69 H :    0.026051
  70 H :    0.031718
  71 H :    0.021303
  72 H :    0.030214
  73 H :    0.026378
  74 H :    0.039837
  75 H :    0.025093
  76 H :    0.033255
  77 H :    0.033455
  78 H :    0.022232
  79 H :    0.028978
  80 H :    0.039527
  81 H :    0.037682
  82 H :    0.036349
  83 H :    0.043974
  84 H :    0.033212
  85 H :    0.038356
  86 H :    0.048942
  87 H :    0.038447

  Mayer bond orders larger than 0.100000
B(  0-C ,  1-C ) :   1.5379 B(  0-C ,  5-C ) :   1.2264 B(  0-C ,  9-C ) :   0.9985
B(  1-C ,  2-S ) :   1.1667 B(  1-C , 67-H ) :   0.9539 B(  2-S ,  3-C ) :   1.1485
B(  3-C ,  4-Cl) :   1.1278 B(  3-C ,  5-C ) :   1.4828 B(  5-C ,  6-C ) :   0.9398
B(  6-C ,  7-O ) :   2.2932 B(  6-C ,  8-C ) :   0.9097 B(  8-C ,  9-C ) :   1.0788
B(  8-C , 15-C ) :   1.6649 B(  9-C , 10-C ) :   1.6474 B( 10-C , 11-C ) :   1.1485
B( 10-C , 13-C ) :   1.1373 B( 11-C , 12-N ) :   2.9899 B( 13-C , 14-N ) :   2.9759
B( 15-C , 16-C ) :   1.1527 B( 15-C , 68-H ) :   0.9180 B( 16-C , 17-N ) :   1.6588
B( 16-C , 20-S ) :   1.0489 B( 17-N , 18-C ) :   1.4502 B( 17-N , 20-S ) :   0.1183
B( 18-C , 19-C ) :   1.2043 B( 18-C , 23-S ) :   1.0809 B( 19-C , 20-S ) :   1.1355
B( 19-C , 21-N ) :   1.4197 B( 21-N , 22-C ) :   1.5997 B( 21-N , 23-S ) :   0.1058
B( 22-C , 23-S ) :   1.1279 B( 22-C , 24-C ) :   1.1462 B( 24-C , 25-N ) :   1.2004
B( 24-C , 31-C ) :   1.3634 B( 25-N , 26-C ) :   0.9355 B( 25-N , 28-C ) :   1.0640
B( 26-C , 27-C ) :   1.1228 B( 26-C , 69-H ) :   0.9381 B( 26-C , 70-H ) :   0.9290
B( 27-C , 71-H ) :   0.9664 B( 27-C , 72-H ) :   0.9684 B( 27-C , 73-H ) :   0.9663
B( 28-C , 29-O ) :   2.0141 B( 28-C , 30-C ) :   0.9867 B( 29-O , 80-H ) :   0.1206
B( 30-C , 31-C ) :   1.2590 B( 30-C , 37-C ) :   1.3350 B( 31-C , 32-C ) :   0.9622
B( 32-C , 33-O ) :   2.1075 B( 32-C , 34-N ) :   1.0449 B( 34-N , 35-C ) :   0.9414
B( 34-N , 37-C ) :   1.1722 B( 35-C , 36-C ) :   1.1196 B( 35-C , 74-H ) :   0.9277
B( 35-C , 75-H ) :   0.9502 B( 36-C , 76-H ) :   0.9638 B( 36-C , 77-H ) :   0.9684
B( 36-C , 78-H ) :   0.9684 B( 37-C , 38-C ) :   1.1456 B( 38-C , 39-C ) :   1.6145
B( 38-C , 79-H ) :   0.9596 B( 39-C , 40-C ) :   1.0724 B( 39-C , 80-H ) :   0.9631
B( 40-C , 41-C ) :   1.2914 B( 40-C , 48-C ) :   1.3087 B( 41-C , 42-C ) :   1.3841
B( 41-C , 81-H ) :   0.9847 B( 42-C , 43-N ) :   0.8869 B( 42-C , 46-C ) :   1.3409
B( 43-N , 44-O ) :   1.5654 B( 43-N , 45-O ) :   1.4867 B( 44-O , 45-O ) :   0.2577
B( 46-C , 47-C ) :   1.3466 B( 46-C , 49-C ) :   1.0770 B( 47-C , 48-C ) :   1.3876
B( 47-C , 82-H ) :   0.9918 B( 48-C , 83-H ) :   1.0014 B( 49-C , 50-C ) :   1.7641
B( 49-C , 84-H ) :   0.9461 B( 50-C , 51-C ) :   1.0748 B( 50-C , 85-H ) :   0.9465
B( 51-C , 52-C ) :   1.7675 B( 51-C , 86-H ) :   0.9252 B( 52-C , 53-C ) :   0.9305
B( 52-C , 60-C ) :   1.0108 B( 53-C , 54-O ) :   2.2792 B( 53-C , 55-C ) :   0.9271
B( 55-C , 56-C ) :   1.4738 B( 55-C , 59-C ) :   1.2237 B( 56-C , 57-S ) :   1.1567
B( 56-C , 66-Cl) :   1.1283 B( 57-S , 58-C ) :   1.1560 B( 58-C , 59-C ) :   1.5555
B( 58-C , 87-H ) :   0.9555 B( 59-C , 60-C ) :   1.0054 B( 60-C , 61-C ) :   1.7111
B( 61-C , 62-C ) :   1.1302 B( 61-C , 64-C ) :   1.1545 B( 62-C , 63-N ) :   3.0048
B( 64-C , 65-N ) :   2.9888

-----------------------------------------------------------------------------
         ABSORPTION SPECTRUM VIA TRANSITION ELECTRIC DIPOLE MOMENTS
-----------------------------------------------------------------------------
State   Energy  Wavelength   fosc         T2         TX        TY        TZ
        (cm-1)    (nm)                  (au**2)     (au)      (au)      (au)
-----------------------------------------------------------------------------
   0   14591.3    685.3   1.361281167  30.71346   0.70293  -3.58098  -4.17084
   1   20732.1    482.3   0.032982452   0.52374   0.04915  -0.24722   0.67839
   2   22142.7    451.6   0.050555929   0.75165  -0.15330  -0.65550  -0.54633
   3   23367.4    427.9   0.107422498   1.51343   0.20263   1.20913   0.10181
   4   25094.6    398.5   0.280244338   3.67649   0.19740  -1.70127  -0.86209
   5   26118.0    382.9   0.241136848   3.03949   0.17432   1.15237   1.29659
   6   26546.7    376.7   0.149499191   1.85397  -0.20739  -0.88361  -1.01498
   7   27118.3    368.8   0.099271195   1.20514  -0.30365   0.92585   0.50570
   8   27225.2    367.3   0.109111378   1.31940  -0.20860   1.12921  -0.02784
   9   28508.4    350.8   0.019646110   0.22687   0.26179  -0.34571  -0.19704
  10   28695.4    348.5   0.101343165   1.16268   0.38298  -0.79664  -0.61755
  11   29609.6    337.7   0.020488235   0.22780  -0.15043  -0.24218  -0.38277
  12   29869.9    334.8   0.187454255   2.06603   0.30821  -1.31675  -0.48703
  13   30155.2    331.6   0.020547259   0.22432   0.00149   0.15210  -0.44853
  14   30717.8    325.5   0.067278287   0.72104   0.41934  -0.53567   0.50818
  15   30833.1    324.3   0.089530058   0.95593   0.07923  -0.57251  -0.78860
  16   31154.9    321.0   0.101692869   1.07458  -0.15412   0.70435  -0.74479
  17   31579.0    316.7   0.154878663   1.61461   0.57292  -1.13373  -0.03233
  18   31764.3    314.8   0.006086665   0.06308   0.11449  -0.21251  -0.06939
  19   32331.1    309.3   0.017564945   0.17886  -0.13039   0.27147   0.29691
  20   32360.3    309.0   0.040903680   0.41613   0.16460  -0.53088   0.32741
  21   33126.5    301.9   0.000910605   0.00905  -0.06434  -0.06876   0.01348
  22   33373.9    299.6   0.063579675   0.62717   0.35036  -0.70748  -0.06245
  23   34165.7    292.7   0.191759487   1.84775   0.16430  -1.26082  -0.48071
  24   35318.9    283.1   0.031807698   0.29648  -0.33850   0.29511   0.30792
  25   35827.5    279.1   0.124197862   1.14123  -0.20129   0.65191   0.82203
  26   35936.0    278.3   0.012670539   0.11608  -0.03152  -0.30177   0.15497
  27   36127.2    276.8   0.022881806   0.20851  -0.14969   0.40545   0.14737
  28   36218.7    276.1   0.036573282   0.33243  -0.23397   0.45243  -0.27019
  29   36352.4    275.1   0.066015541   0.59784   0.30483  -0.68412  -0.19210
  30   36641.8    272.9   0.079971401   0.71851  -0.36097   0.68557   0.34381
  31   37285.9    268.2   0.032842067   0.28998   0.20487   0.02879  -0.49717
  32   37370.4    267.6   0.467252404   4.11623  -0.83530   1.57380  -0.97039
  33   37792.0    264.6   0.068723429   0.59866   0.57281  -0.44818   0.26399
  34   37967.2    263.4   0.257719246   2.23467   0.07664   1.36696   0.60018
  35   38013.3    263.1   0.017551344   0.15200   0.19283  -0.07190  -0.33114
  36   38264.1    261.3   0.044081473   0.37926   0.07827   0.05218   0.60862
  37   38560.0    259.3   0.299367623   2.55590  -0.80464   0.67978   1.20264
  38   38819.4    257.6   0.147439932   1.25038   0.76443  -0.81550  -0.03158
  39   39101.3    255.7   0.042614473   0.35879   0.22967   0.03507  -0.55210
  40   39441.2    253.5   0.028165166   0.23509   0.26451  -0.13187   0.38437
  41   39745.2    251.6   0.000278812   0.00231   0.02883   0.01925  -0.03328
  42   40103.6    249.4   0.007211291   0.05920   0.22794  -0.08073   0.02689
  43   40200.0    248.8   0.065551736   0.53683   0.23447  -0.29829   0.62679
  44   40318.3    248.0   0.032955491   0.26909  -0.20156  -0.08417  -0.47051

FINAL SINGLE POINT ENERGY     -5218.472911844903

DIPOLE MOMENT
-------------
                                X             Y             Z
Electronic contribution:     -5.86554      21.39723      -3.79295
Nuclear contribution   :      6.33963     -22.30162       2.83312
                        -----------------------------------------
Total Dipole Moment    :      0.47409      -0.90440      -0.95984
                        -----------------------------------------
Magnitude (a.u.)       :      1.40142
Magnitude (Debye)      :      3.56213

Rotational constants in cm-1:     0.003368     0.000187     0.000180
Rotational constants in MHz :   100.974983     5.606191     5.397883

                             ****ORCA TERMINATED NORMALLY****
TOTAL RUN TIME: 0 days 0 hours 8 minutes 7 seconds 498 msec
