                         Program Version 4.2.0 -  RELEASE  -
|  1> # ORCA input file
|  2> # SCF done       -148.021931220602          0.000846559534
|  3> ! CAM-B3LYP def2-SVP def2/J RIJCOSX Grid4 TightSCF
|  4> %maxcore 5000
|  5> %tddft
|  6>     Mode sTDDFT
|  7>     Ethresh 5.0
|  8>     maxcore 5000
|  9> end
| 10>
| 11> %pal
| 12>   nprocs 6
| 13>   end
| 14> * xyz 0 1
| 15>    C       -1.39140        -1.32052        -0.67044
| 16>    C       -2.45541        -0.82604         0.10226
| 17>    C       -2.27485         0.34301         0.82151
| 18>    C       -1.05852         1.03096         0.78140
| 19>    C        0.00056         0.51714         0.00303
| 20>    C       -0.18444        -0.66671        -0.71735
| 21>    N        1.18555         1.19088        -0.02835
| 22>    C        1.48204         2.36794         0.63870
| 23>    O        2.57680         2.87203         0.53128
| 24>    C        0.36305         2.88438         1.43937
| 25>    C       -0.83302         2.24154         1.49732
| 26>    C        0.56901         4.08503         2.15561
| 27>    N        0.70736         5.05746         2.74534
| 28>    C       -3.73104        -1.53574         0.14730
| 29>    C       -4.50377        -1.62726         1.31451
| 30>    N       -5.65754        -2.24473         1.35191
| 31>    C       -6.10225        -2.81182         0.22937
| 32>    N       -5.43712        -2.80816        -0.92845
| 33>    C       -4.28137        -2.18042        -0.96399
| 34>    C       -7.39117        -3.45522         0.32845
| 35>    N       -7.95648        -4.27328        -0.61484
| 36>    C       -7.43350        -4.62110        -1.91417
| 37>    C       -7.73858        -3.54076        -2.94685
| 38>    C       -9.20735        -4.75676        -0.19409
| 39>    O       -9.89535        -5.50917        -0.85952
| 40>    C       -9.39969        -4.17286         1.11178
| 41>    C       -8.26054        -3.37489         1.40483
| 42>    C       -8.45986        -2.76939         2.70897
| 43>    O       -7.81314        -2.00178         3.37914
| 44>    N       -9.71985        -3.27028         3.12251
| 45>    C      -10.25910        -2.93091         4.41623
| 46>    C      -10.02171        -4.03890         5.43997
| 47>    C      -10.28059        -4.10378         2.18765
| 48>    C      -11.53736        -4.74334         2.35654
| 49>    C      -12.08282        -5.53954         1.40383
| 50>    C      -13.33085        -6.20926         1.53408
| 51>    S      -13.98296        -7.07047         0.17958
| 52>    C      -15.37443        -7.55840         1.09303
| 53>    C      -16.43325        -8.26635         0.41304
| 54>    O      -17.48405        -8.61710         0.89676
| 55>    C      -15.31768        -7.07775         2.40042
| 56>    C      -14.17008        -6.30984         2.62955
| 57>    C      -16.31650        -7.33278         3.43993
| 58>    C      -16.80429        -8.62901         3.66742
| 59>    C      -17.72296        -8.87265         4.65805
| 60>    C      -18.18670        -7.82546         5.45993
| 61>    C      -17.69655        -6.51892         5.25238
| 62>    C      -16.75879        -6.29525         4.23816
| 63>    C      -18.18194        -5.48275         6.09792
| 64>    C      -19.08553        -5.73706         7.08197
| 65>    C      -19.61271        -7.08792         7.31700
| 66>    O      -20.41464        -7.40377         8.16726
| 67>    N      -19.09898        -8.03811         6.45118
| 68>    C      -19.54455        -4.69530         7.91811
| 69>    N      -19.89218        -3.82860         8.58267
| 70>    H       -1.51870        -2.24201        -1.21786
| 71>    H       -3.08397         0.75170         1.40796
| 72>    H        0.62927        -1.06113        -1.30774
| 73>    H        1.94176         0.81409        -0.58926
| 74>    H       -1.63679         2.64796         2.09595
| 75>    H       -4.16589        -1.20532         2.25219
| 76>    H       -3.78491        -2.17279        -1.92679
| 77>    H       -7.92509        -5.55575        -2.19880
| 78>    H       -6.35626        -4.77331        -1.83629
| 79>    H       -8.81102        -3.37197        -3.00694
| 80>    H       -7.37895        -3.85500        -3.92233
| 81>    H       -7.24424        -2.61290        -2.67211
| 82>    H      -11.32512        -2.70472         4.32317
| 83>    H       -9.73403        -2.02508         4.73242
| 84>    H      -10.49055        -4.96953         5.12705
| 85>    H      -10.43082        -3.74555         6.40285
| 86>    H       -8.95473        -4.21216         5.55403
| 87>    H      -12.06374        -4.57053         3.28356
| 88>    H      -11.55338        -5.68715         0.47145
| 89>    H      -16.19904        -8.45967        -0.65212
| 90>    H      -13.94757        -5.86981         3.58508
| 91>    H      -16.44417        -9.44367         3.06056
| 92>    H      -18.09428        -9.87267         4.82423
| 93>    H      -16.40048        -5.28966         4.07315
| 94>    H      -17.81634        -4.47558         5.94939
| 95>    H      -19.45261        -8.97877         6.58732
| 96> *
| 97>
| 98>                          ****END OF INPUT****

CARTESIAN COORDINATES (ANGSTROEM)
---------------------------------
  C     -1.391400   -1.320520   -0.670440
  C     -2.455410   -0.826040    0.102260
  C     -2.274850    0.343010    0.821510
  C     -1.058520    1.030960    0.781400
  C      0.000560    0.517140    0.003030
  C     -0.184440   -0.666710   -0.717350
  N      1.185550    1.190880   -0.028350
  C      1.482040    2.367940    0.638700
  O      2.576800    2.872030    0.531280
  C      0.363050    2.884380    1.439370
  C     -0.833020    2.241540    1.497320
  C      0.569010    4.085030    2.155610
  N      0.707360    5.057460    2.745340
  C     -3.731040   -1.535740    0.147300
  C     -4.503770   -1.627260    1.314510
  N     -5.657540   -2.244730    1.351910
  C     -6.102250   -2.811820    0.229370
  N     -5.437120   -2.808160   -0.928450
  C     -4.281370   -2.180420   -0.963990
  C     -7.391170   -3.455220    0.328450
  N     -7.956480   -4.273280   -0.614840
  C     -7.433500   -4.621100   -1.914170
  C     -7.738580   -3.540760   -2.946850
  C     -9.207350   -4.756760   -0.194090
  O     -9.895350   -5.509170   -0.859520
  C     -9.399690   -4.172860    1.111780
  C     -8.260540   -3.374890    1.404830
  C     -8.459860   -2.769390    2.708970
  O     -7.813140   -2.001780    3.379140
  N     -9.719850   -3.270280    3.122510
  C    -10.259100   -2.930910    4.416230
  C    -10.021710   -4.038900    5.439970
  C    -10.280590   -4.103780    2.187650
  C    -11.537360   -4.743340    2.356540
  C    -12.082820   -5.539540    1.403830
  C    -13.330850   -6.209260    1.534080
  S    -13.982960   -7.070470    0.179580
  C    -15.374430   -7.558400    1.093030
  C    -16.433250   -8.266350    0.413040
  O    -17.484050   -8.617100    0.896760
  C    -15.317680   -7.077750    2.400420
  C    -14.170080   -6.309840    2.629550
  C    -16.316500   -7.332780    3.439930
  C    -16.804290   -8.629010    3.667420
  C    -17.722960   -8.872650    4.658050
  C    -18.186700   -7.825460    5.459930
  C    -17.696550   -6.518920    5.252380
  C    -16.758790   -6.295250    4.238160
  C    -18.181940   -5.482750    6.097920
  C    -19.085530   -5.737060    7.081970
  C    -19.612710   -7.087920    7.317000
  O    -20.414640   -7.403770    8.167260
  N    -19.098980   -8.038110    6.451180
  C    -19.544550   -4.695300    7.918110
  N    -19.892180   -3.828600    8.582670
  H     -1.518700   -2.242010   -1.217860
  H     -3.083970    0.751700    1.407960
  H      0.629270   -1.061130   -1.307740
  H      1.941760    0.814090   -0.589260
  H     -1.636790    2.647960    2.095950
  H     -4.165890   -1.205320    2.252190
  H     -3.784910   -2.172790   -1.926790
  H     -7.925090   -5.555750   -2.198800
  H     -6.356260   -4.773310   -1.836290
  H     -8.811020   -3.371970   -3.006940
  H     -7.378950   -3.855000   -3.922330
  H     -7.244240   -2.612900   -2.672110
  H    -11.325120   -2.704720    4.323170
  H     -9.734030   -2.025080    4.732420
  H    -10.490550   -4.969530    5.127050
  H    -10.430820   -3.745550    6.402850
  H     -8.954730   -4.212160    5.554030
  H    -12.063740   -4.570530    3.283560
  H    -11.553380   -5.687150    0.471450
  H    -16.199040   -8.459670   -0.652120
  H    -13.947570   -5.869810    3.585080
  H    -16.444170   -9.443670    3.060560
  H    -18.094280   -9.872670    4.824230
  H    -16.400480   -5.289660    4.073150
  H    -17.816340   -4.475580    5.949390
  H    -19.452610   -8.978770    6.587320

 Total Charge           Charge          ....    0
 Multiplicity           Mult            ....    1
 Number of Electrons    NEL             ....  384
 Basis Dimension        Dim             ....  904

ORBITAL ENERGIES
----------------

  NO   OCC          E(Eh)            E(eV)
   0   2.0000     -88.982151     -2421.3274
   1   2.0000     -19.219165      -522.9801
   2   2.0000     -19.199069      -522.4332
   3   2.0000     -19.192914      -522.2657
   4   2.0000     -19.192214      -522.2467
   5   2.0000     -19.189424      -522.1708
   6   2.0000     -14.483005      -394.1026
   7   2.0000     -14.473218      -393.8363
   8   2.0000     -14.457540      -393.4097
   9   2.0000     -14.455384      -393.3510
  10   2.0000     -14.432545      -392.7295
  11   2.0000     -14.424953      -392.5229
  12   2.0000     -14.407062      -392.0361
  13   2.0000     -14.399582      -391.8326
  14   2.0000     -10.400329      -283.0073
  15   2.0000     -10.390911      -282.7511
  16   2.0000     -10.377948      -282.3983
  17   2.0000     -10.374675      -282.3092
  18   2.0000     -10.370131      -282.1856
  19   2.0000     -10.364091      -282.0212
  20   2.0000     -10.359823      -281.9051
  21   2.0000     -10.350312      -281.6463
  22   2.0000     -10.348589      -281.5994
  23   2.0000     -10.340731      -281.3856
  24   2.0000     -10.337282      -281.2917
  25   2.0000     -10.336305      -281.2652
  26   2.0000     -10.333350      -281.1848
  27   2.0000     -10.331499      -281.1344
  28   2.0000     -10.330279      -281.1012
  29   2.0000     -10.324729      -280.9502
  30   2.0000     -10.320114      -280.8246
  31   2.0000     -10.315472      -280.6983
  32   2.0000     -10.315067      -280.6872
  33   2.0000     -10.314661      -280.6762
  34   2.0000     -10.313639      -280.6484
  35   2.0000     -10.313237      -280.6374
  36   2.0000     -10.312997      -280.6309
  37   2.0000     -10.312949      -280.6296
  38   2.0000     -10.311717      -280.5961
  39   2.0000     -10.309366      -280.5321
  40   2.0000     -10.308670      -280.5132
  41   2.0000     -10.307111      -280.4707
  42   2.0000     -10.305002      -280.4134
  43   2.0000     -10.303339      -280.3681
  44   2.0000     -10.302383      -280.3421
  45   2.0000     -10.300195      -280.2826
  46   2.0000     -10.299782      -280.2713
  47   2.0000     -10.299382      -280.2604
  48   2.0000     -10.298997      -280.2500
  49   2.0000     -10.297301      -280.2038
  50   2.0000     -10.293558      -280.1020
  51   2.0000     -10.271013      -279.4885
  52   2.0000     -10.269760      -279.4544
  53   2.0000     -10.264798      -279.3194
  54   2.0000     -10.252917      -278.9961
  55   2.0000      -8.077793      -219.8079
  56   2.0000      -6.046739      -164.5401
  57   2.0000      -6.042733      -164.4311
  58   2.0000      -6.040407      -164.3678
  59   2.0000      -1.148072       -31.2406
  60   2.0000      -1.138314       -30.9751
  61   2.0000      -1.136782       -30.9334
  62   2.0000      -1.132656       -30.8211
  63   2.0000      -1.129348       -30.7311
  64   2.0000      -1.104287       -30.0492
  65   2.0000      -1.070493       -29.1296
  66   2.0000      -1.066769       -29.0283
  67   2.0000      -1.060245       -28.8507
  68   2.0000      -1.055962       -28.7342
  69   2.0000      -1.011771       -27.5317
  70   2.0000      -0.997229       -27.1360
  71   2.0000      -0.993498       -27.0344
  72   2.0000      -0.986110       -26.8334
  73   2.0000      -0.985765       -26.8240
  74   2.0000      -0.970464       -26.4077
  75   2.0000      -0.945334       -25.7238
  76   2.0000      -0.934807       -25.4374
  77   2.0000      -0.931935       -25.3592
  78   2.0000      -0.923967       -25.1424
  79   2.0000      -0.920181       -25.0394
  80   2.0000      -0.888157       -24.1680
  81   2.0000      -0.878150       -23.8957
  82   2.0000      -0.874694       -23.8016
  83   2.0000      -0.865091       -23.5403
  84   2.0000      -0.863740       -23.5036
  85   2.0000      -0.858681       -23.3659
  86   2.0000      -0.834122       -22.6976
  87   2.0000      -0.820949       -22.3392
  88   2.0000      -0.817463       -22.2443
  89   2.0000      -0.794004       -21.6059
  90   2.0000      -0.783400       -21.3174
  91   2.0000      -0.768720       -20.9179
  92   2.0000      -0.766217       -20.8498
  93   2.0000      -0.761361       -20.7177
  94   2.0000      -0.758529       -20.6406
  95   2.0000      -0.754507       -20.5312
  96   2.0000      -0.752640       -20.4804
  97   2.0000      -0.747009       -20.3271
  98   2.0000      -0.726536       -19.7700
  99   2.0000      -0.720884       -19.6163
 100   2.0000      -0.708696       -19.2846
 101   2.0000      -0.705919       -19.2090
 102   2.0000      -0.686775       -18.6881
 103   2.0000      -0.682548       -18.5731
 104   2.0000      -0.678772       -18.4703
 105   2.0000      -0.666947       -18.1485
 106   2.0000      -0.655339       -17.8327
 107   2.0000      -0.655004       -17.8236
 108   2.0000      -0.642992       -17.4967
 109   2.0000      -0.641383       -17.4529
 110   2.0000      -0.631740       -17.1905
 111   2.0000      -0.617580       -16.8052
 112   2.0000      -0.615926       -16.7602
 113   2.0000      -0.612682       -16.6719
 114   2.0000      -0.602063       -16.3830
 115   2.0000      -0.601354       -16.3637
 116   2.0000      -0.596255       -16.2249
 117   2.0000      -0.594023       -16.1642
 118   2.0000      -0.588784       -16.0216
 119   2.0000      -0.586746       -15.9662
 120   2.0000      -0.575184       -15.6515
 121   2.0000      -0.571361       -15.5475
 122   2.0000      -0.563445       -15.3321
 123   2.0000      -0.561904       -15.2902
 124   2.0000      -0.556472       -15.1424
 125   2.0000      -0.552800       -15.0425
 126   2.0000      -0.551562       -15.0088
 127   2.0000      -0.550667       -14.9844
 128   2.0000      -0.543798       -14.7975
 129   2.0000      -0.538438       -14.6516
 130   2.0000      -0.537542       -14.6273
 131   2.0000      -0.535933       -14.5835
 132   2.0000      -0.533346       -14.5131
 133   2.0000      -0.530068       -14.4239
 134   2.0000      -0.527429       -14.3521
 135   2.0000      -0.525333       -14.2950
 136   2.0000      -0.522071       -14.2063
 137   2.0000      -0.517565       -14.0836
 138   2.0000      -0.514193       -13.9919
 139   2.0000      -0.513268       -13.9667
 140   2.0000      -0.511654       -13.9228
 141   2.0000      -0.507846       -13.8192
 142   2.0000      -0.506732       -13.7889
 143   2.0000      -0.502152       -13.6642
 144   2.0000      -0.498140       -13.5551
 145   2.0000      -0.494094       -13.4450
 146   2.0000      -0.490096       -13.3362
 147   2.0000      -0.488060       -13.2808
 148   2.0000      -0.485335       -13.2066
 149   2.0000      -0.477600       -12.9962
 150   2.0000      -0.475115       -12.9285
 151   2.0000      -0.473112       -12.8740
 152   2.0000      -0.465312       -12.6618
 153   2.0000      -0.463075       -12.6009
 154   2.0000      -0.462079       -12.5738
 155   2.0000      -0.461816       -12.5667
 156   2.0000      -0.460246       -12.5239
 157   2.0000      -0.454841       -12.3768
 158   2.0000      -0.453176       -12.3315
 159   2.0000      -0.449795       -12.2396
 160   2.0000      -0.445984       -12.1359
 161   2.0000      -0.441685       -12.0189
 162   2.0000      -0.439529       -11.9602
 163   2.0000      -0.435506       -11.8507
 164   2.0000      -0.434050       -11.8111
 165   2.0000      -0.430062       -11.7026
 166   2.0000      -0.428553       -11.6615
 167   2.0000      -0.423907       -11.5351
 168   2.0000      -0.413092       -11.2408
 169   2.0000      -0.412604       -11.2275
 170   2.0000      -0.409062       -11.1311
 171   2.0000      -0.405932       -11.0460
 172   2.0000      -0.405625       -11.0376
 173   2.0000      -0.403096       -10.9688
 174   2.0000      -0.395977       -10.7751
 175   2.0000      -0.393934       -10.7195
 176   2.0000      -0.381382       -10.3779
 177   2.0000      -0.365251        -9.9390
 178   2.0000      -0.355512        -9.6740
 179   2.0000      -0.351188        -9.5563
 180   2.0000      -0.350648        -9.5416
 181   2.0000      -0.346238        -9.4216
 182   2.0000      -0.341479        -9.2921
 183   2.0000      -0.338846        -9.2205
 184   2.0000      -0.334174        -9.0933
 185   2.0000      -0.326806        -8.8929
 186   2.0000      -0.323801        -8.8111
 187   2.0000      -0.318219        -8.6592
 188   2.0000      -0.311353        -8.4723
 189   2.0000      -0.301274        -8.1981
 190   2.0000      -0.287990        -7.8366
 191   2.0000      -0.247711        -6.7405
 192   0.0000      -0.097356        -2.6492
 193   0.0000      -0.064000        -1.7415
 194   0.0000      -0.053992        -1.4692
 195   0.0000      -0.051843        -1.4107
 196   0.0000      -0.025680        -0.6988

MULLIKEN ATOMIC CHARGES
-----------------------
   0 C :   -0.000317
   1 C :    0.109404
   2 C :   -0.076284
   3 C :    0.032521
   4 C :    0.099997
   5 C :   -0.019129
   6 N :   -0.031836
   7 C :    0.131409
   8 O :   -0.161972
   9 C :   -0.229358
  10 C :    0.093753
  11 C :   -0.137249
  12 N :    0.128547
  13 C :    0.002449
  14 C :    0.036420
  15 N :    0.005070
  16 C :   -0.189030
  17 N :   -0.059486
  18 C :    0.038340
  19 C :    0.194355
  20 N :   -0.256124
  21 C :    0.143029
  22 C :    0.007451
  23 C :    0.160823
  24 O :   -0.220440
  25 C :   -0.072375
  26 C :   -0.050635
  27 C :    0.146914
  28 O :   -0.157980
  29 N :   -0.270615
  30 C :    0.099752
  31 C :    0.005378
  32 C :    0.143486
  33 C :   -0.024885
  34 C :    0.088608
  35 C :   -0.081603
  36 S :    0.185151
  37 C :   -0.211537
  38 C :    0.181421
  39 O :   -0.185504
  40 C :    0.120975
  41 C :   -0.026824
  42 C :    0.049938
  43 C :    0.072273
  44 C :   -0.031933
  45 C :    0.101959
  46 C :    0.030590
  47 C :   -0.069359
  48 C :    0.092472
  49 C :   -0.233814
  50 C :    0.131724
  51 O :   -0.168737
  52 N :   -0.031394
  53 C :   -0.137984
  54 N :    0.120289
  55 H :   -0.006105
  56 H :   -0.012301
  57 H :   -0.024636
  58 H :    0.136162
  59 H :    0.012316
  60 H :    0.012602
  61 H :    0.004626
  62 H :    0.029647
  63 H :    0.020440
  64 H :    0.018579
  65 H :    0.011697
  66 H :    0.013295
  67 H :    0.021163
  68 H :    0.044181
  69 H :    0.010377
  70 H :    0.023919
  71 H :    0.032650
  72 H :   -0.029356
  73 H :    0.012136
  74 H :   -0.016189
  75 H :   -0.013286
  76 H :   -0.008475
  77 H :   -0.028013
  78 H :   -0.024727
  79 H :    0.005743
  80 H :    0.135461
Sum of atomic charges:   -0.0000000

LOEWDIN ATOMIC CHARGES
----------------------
   0 C :    0.012982
   1 C :   -0.039912
   2 C :    0.014654
   3 C :   -0.059706
   4 C :    0.054655
   5 C :   -0.043600
   6 N :    0.047928
   7 C :    0.071764
   8 O :   -0.186748
   9 C :   -0.108496
  10 C :    0.067859
  11 C :   -0.024969
  12 N :   -0.038550
  13 C :   -0.060099
  14 C :    0.055349
  15 N :   -0.040246
  16 C :    0.015907
  17 N :   -0.068632
  18 C :    0.046824
  19 C :    0.048787
  20 N :    0.012565
  21 C :    0.036686
  22 C :   -0.061132
  23 C :    0.076661
  24 O :   -0.208789
  25 C :   -0.128260
  26 C :   -0.096884
  27 C :    0.084994
  28 O :   -0.165864
  29 N :   -0.007656
  30 C :    0.034875
  31 C :   -0.061097
  32 C :    0.086610
  33 C :   -0.041022
  34 C :    0.015390
  35 C :   -0.157230
  36 S :    0.488910
  37 C :   -0.239809
  38 C :    0.080532
  39 O :   -0.139439
  40 C :   -0.012214
  41 C :   -0.044769
  42 C :   -0.038828
  43 C :    0.038415
  44 C :   -0.046443
  45 C :    0.057197
  46 C :   -0.065991
  47 C :    0.012136
  48 C :    0.067224
  49 C :   -0.114688
  50 C :    0.071113
  51 O :   -0.192375
  52 N :    0.048699
  53 C :   -0.024529
  54 N :   -0.046102
  55 H :    0.035484
  56 H :    0.035703
  57 H :    0.033867
  58 H :    0.100680
  59 H :    0.048788
  60 H :    0.029079
  61 H :    0.025432
  62 H :    0.029818
  63 H :    0.022237
  64 H :    0.025862
  65 H :    0.026912
  66 H :    0.018479
  67 H :    0.021474
  68 H :    0.038179
  69 H :    0.019829
  70 H :    0.030807
  71 H :    0.033612
  72 H :    0.027874
  73 H :    0.038155
  74 H :   -0.004459
  75 H :    0.029797
  76 H :    0.036705
  77 H :    0.033019
  78 H :    0.031744
  79 H :    0.046001
  80 H :    0.100285

  Mayer bond orders larger than 0.100000
B(  0-C ,  1-C ) :   1.3116 B(  0-C ,  5-C ) :   1.4295 B(  0-C , 55-H ) :   0.9889
B(  1-C ,  2-C ) :   1.3977 B(  1-C , 13-C ) :   0.9629 B(  2-C ,  3-C ) :   1.2776
B(  2-C , 56-H ) :   1.0035 B(  3-C ,  4-C ) :   1.2979 B(  3-C , 10-C ) :   1.1255
B(  4-C ,  5-C ) :   1.2917 B(  4-C ,  6-N ) :   1.2038 B(  5-C , 57-H ) :   0.9943
B(  6-N ,  7-C ) :   1.0826 B(  6-N , 58-H ) :   0.9018 B(  7-C ,  8-O ) :   2.2478
B(  7-C ,  9-C ) :   0.9480 B(  9-C , 10-C ) :   1.6495 B(  9-C , 11-C ) :   1.1111
B( 10-C , 59-H ) :   0.9863 B( 11-C , 12-N ) :   3.0433 B( 13-C , 14-C ) :   1.3165
B( 13-C , 18-C ) :   1.3491 B( 14-C , 15-N ) :   1.5855 B( 14-C , 60-H ) :   0.9871
B( 15-N , 16-C ) :   1.6413 B( 15-N , 19-C ) :  -0.1264 B( 16-C , 17-N ) :   1.5017
B( 16-C , 19-C ) :   0.9779 B( 17-N , 18-C ) :   1.5414 B( 18-C , 61-H ) :   0.9849
B( 19-C , 20-N ) :   1.1997 B( 19-C , 26-C ) :   1.4032 B( 20-N , 21-C ) :   0.9378
B( 20-N , 23-C ) :   1.0684 B( 21-C , 22-C ) :   1.1242 B( 21-C , 62-H ) :   0.9280
B( 21-C , 63-H ) :   0.9372 B( 22-C , 64-H ) :   0.9653 B( 22-C , 65-H ) :   0.9679
B( 22-C , 66-H ) :   0.9642 B( 23-C , 24-O ) :   2.0045 B( 23-C , 25-C ) :   0.9942
B( 24-O , 73-H ) :   0.1229 B( 25-C , 26-C ) :   1.2405 B( 25-C , 32-C ) :   1.3268
B( 26-C , 27-C ) :   0.9443 B( 27-C , 28-O ) :   2.1851 B( 27-C , 29-N ) :   1.0087
B( 29-N , 30-C ) :   0.9471 B( 29-N , 32-C ) :   1.1774 B( 30-C , 31-C ) :   1.1201
B( 30-C , 67-H ) :   0.9502 B( 30-C , 68-H ) :   0.9256 B( 31-C , 69-H ) :   0.9685
B( 31-C , 70-H ) :   0.9682 B( 31-C , 71-H ) :   0.9635 B( 32-C , 33-C ) :   1.1553
B( 33-C , 34-C ) :   1.6370 B( 33-C , 72-H ) :   0.9623 B( 34-C , 35-C ) :   1.1080
B( 34-C , 73-H ) :   0.9352 B( 35-C , 36-S ) :   1.1775 B( 35-C , 41-C ) :   1.4323
B( 36-S , 37-C ) :   1.1091 B( 37-C , 38-C ) :   1.0188 B( 37-C , 40-C ) :   1.4523
B( 38-C , 39-O ) :   2.1362 B( 38-C , 74-H ) :   0.9506 B( 40-C , 41-C ) :   1.3326
B( 40-C , 42-C ) :   0.9668 B( 41-C , 75-H ) :   0.9962 B( 42-C , 43-C ) :   1.3150
B( 42-C , 47-C ) :   1.4163 B( 43-C , 44-C ) :   1.4405 B( 43-C , 76-H ) :   0.9815
B( 44-C , 45-C ) :   1.2866 B( 44-C , 77-H ) :   0.9954 B( 45-C , 46-C ) :   1.3009
B( 45-C , 52-N ) :   1.2017 B( 46-C , 47-C ) :   1.2595 B( 46-C , 48-C ) :   1.1334
B( 47-C , 78-H ) :   1.0044 B( 48-C , 49-C ) :   1.6406 B( 48-C , 79-H ) :   0.9856
B( 49-C , 50-C ) :   0.9515 B( 49-C , 53-C ) :   1.1105 B( 50-C , 51-O ) :   2.2421
B( 50-C , 52-N ) :   1.0843 B( 52-N , 80-H ) :   0.9020 B( 53-C , 54-N ) :   3.0424

-----------------------------------------------------------------------------
         ABSORPTION SPECTRUM VIA TRANSITION ELECTRIC DIPOLE MOMENTS
-----------------------------------------------------------------------------
State   Energy  Wavelength   fosc         T2         TX        TY        TZ
        (cm-1)    (nm)                  (au**2)     (au)      (au)      (au)
-----------------------------------------------------------------------------
   0   16546.3    604.4   0.739172439  14.70689   3.38770   1.19849  -1.33941
   1   25457.8    392.8   0.083109166   1.07474  -0.91562  -0.41834   0.24774
   2   26771.6    373.5   0.034126046   0.41965  -0.05809  -0.27072  -0.58565
   3   27114.2    368.8   0.032771062   0.39790   0.47830   0.29266  -0.28892
   4   27259.3    366.8   0.059797582   0.72218   0.30395  -0.14682  -0.77989
   5   28282.0    353.6   0.063100190   0.73451  -0.04738  -0.68417  -0.51397
   6   29487.8    339.1   0.080844518   0.90258   0.85041   0.42252   0.02906
   7   29822.1    335.3   0.554820424   6.12477  -2.19410  -1.13482  -0.15122
   8   30673.3    326.0   0.038354639   0.41165   0.23729   0.36610   0.47044
   9   31020.8    322.4   0.161695744   1.71601   0.08190   1.04543   0.78510
  10   31465.2    317.8   0.359612331   3.76252   1.72358   0.87248  -0.17481
  11   31807.6    314.4   0.098142235   1.01578  -0.38207  -0.85937  -0.36233
  12   32269.7    309.9   0.138292418   1.41085   0.00521   1.00335   0.63570
  13   32405.5    308.6   0.097191901   0.98739  -0.19112  -0.84568  -0.48547
  14   33082.3    302.3   0.124566811   1.23960  -0.12989   0.64380   0.89903
  15   33431.5    299.1   0.226501901   2.23045   1.24635   0.70337   0.42702
  16   35256.3    283.6   0.063554393   0.59345   0.30411  -0.29279  -0.64439
  17   36810.0    271.7   0.181027793   1.61903   0.91283   0.48167  -0.74415
  18   37497.0    266.7   0.001094234   0.00961  -0.03873   0.04726  -0.07664
  19   38926.0    256.9   0.256273879   2.16740  -1.12337  -0.81773  -0.48657
  20   40090.3    249.4   0.138084145   1.13392   0.64794   0.20083  -0.82083
  21   40164.2    249.0   0.152701534   1.25164   0.65363   0.85701   0.29992

FINAL SINGLE POINT ENERGY     -2787.322439800701

DIPOLE MOMENT
-------------
                                X             Y             Z
Electronic contribution:     -5.94678       4.71402       6.85860
Nuclear contribution   :      7.98420      -7.42051      -9.81637
                        -----------------------------------------
Total Dipole Moment    :      2.03742      -2.70649      -2.95777
                        -----------------------------------------
Magnitude (a.u.)       :      4.49718
Magnitude (Debye)      :     11.43091

Rotational constants in cm-1:     0.003542     0.000372     0.000341
Rotational constants in MHz :   106.199596    11.162354    10.232001

                             ****ORCA TERMINATED NORMALLY****
TOTAL RUN TIME: 0 days 0 hours 5 minutes 23 seconds 368 msec
