                         Program Version 4.2.0 -  RELEASE  -
|  1> # ORCA input file
|  2> # SCF done       -195.622559531695          0.000556904164
|  3> ! CAM-B3LYP def2-SVP def2/J RIJCOSX Grid4 TightSCF
|  4> %maxcore 5000
|  5> %tddft
|  6>     Mode sTDDFT
|  7>     Ethresh 5.0
|  8>     maxcore 5000
|  9> end
| 10>
| 11> %pal
| 12>   nprocs 6
| 13>   end
| 14> * xyz 0 1
| 15>    C       -4.28948         0.56847         5.30635
| 16>    N       -5.40795         1.30305         5.56039
| 17>    C       -6.52339         0.88479         6.37040
| 18>    C       -7.40673        -0.12031         5.63547
| 19>    C       -5.38465         2.53157         4.86923
| 20>    O       -6.28272         3.35797         4.94950
| 21>    C       -4.13808         2.51017         4.15613
| 22>    C       -3.48487         1.27231         4.45598
| 23>    C       -2.22461         1.24680         3.74086
| 24>    O       -1.33862         0.42313         3.67593
| 25>    N       -2.20005         2.47057         3.04744
| 26>    C       -1.06547         2.84791         2.24168
| 27>    C       -0.14341         3.81964         2.97497
| 28>    C       -3.32478         3.23400         3.28614
| 29>    C       -3.55366         4.50112         2.71176
| 30>    C       -4.68365         5.21692         2.98907
| 31>    C       -4.99273         6.48141         2.47703
| 32>    S       -3.95528         7.34227         1.37951
| 33>    C       -5.01637         8.71236         1.29721
| 34>    C       -6.15479         8.50436         2.09844
| 35>    C       -6.14564         7.24385         2.75869
| 36>    C       -7.22019         6.88774         3.58190
| 37>    C       -8.30115         7.73173         3.73484
| 38>    C       -9.39960         7.24359         4.57115
| 39>    C      -10.69690         7.37834         4.33304
| 40>    C       -8.29757         9.00923         3.10368
| 41>    C       -9.40558         9.99579         3.31711
| 42>    C       -7.23917         9.37213         2.30849
| 43>    C       -4.71124         9.84556         0.51366
| 44>    C       -3.64339         9.93779        -0.31730
| 45>    C       -3.29034        11.06816        -1.12376
| 46>    C       -2.28573        10.93447        -2.08480
| 47>    C       -1.92115        11.97150        -2.92720
| 48>    N       -0.91275        11.60874        -3.88641
| 49>    O        0.02568        10.95527        -3.47825
| 50>    O       -1.07112        11.91905        -5.05142
| 51>    C       -2.49151        13.25904        -2.80054
| 52>    C       -3.47491        13.38007        -1.79280
| 53>    C       -3.88471        12.33767        -1.00731
| 54>    C       -2.12955        14.47374        -3.46967
| 55>    C       -1.46836        14.67692        -4.63876
| 56>    C       -1.14093        15.95023        -5.14424
| 57>    S       -1.40677        17.41535        -4.26394
| 58>    C       -0.77962        18.41987        -5.53796
| 59>    C       -0.32993        17.62282        -6.61399
| 60>    C       -0.54634        16.23134        -6.39297
| 61>    C       -0.16640        15.30683        -7.37326
| 62>    C        0.41172        15.71974        -8.55602
| 63>    C        0.72393        14.68037        -9.53838
| 64>    C        0.58104        14.76542       -10.85378
| 65>    C        0.70455        17.09889        -8.74505
| 66>    C        1.45461        17.58817        -9.94676
| 67>    C        0.33983        18.01170        -7.78485
| 68>    C       -0.81490        19.80692        -5.31455
| 69>    C       -0.63181        20.80628        -6.22855
| 70>    C       -0.65910        22.16680        -5.85958
| 71>    N       -0.50540        23.20435        -6.75832
| 72>    C       -0.37766        23.09160        -8.18940
| 73>    C       -1.71821        22.80589        -8.86311
| 74>    C       -0.53861        24.46337        -6.13064
| 75>    O       -0.42141        25.51414        -6.72739
| 76>    C       -0.72160        24.15199        -4.73198
| 77>    C       -0.79729        22.74146        -4.59502
| 78>    C       -0.98340        22.45639        -3.19795
| 79>    O       -1.12481        21.41219        -2.58360
| 80>    N       -1.00124        23.72112        -2.57170
| 81>    C       -1.12405        23.79723        -1.13776
| 82>    C        0.23324        23.98223        -0.46175
| 83>    C       -0.83945        24.74076        -3.48190
| 84>    C       -0.80919        26.16238        -3.28453
| 85>    C       -0.86328        26.88188        -2.16210
| 86>    H       -4.14693        -0.39617         5.75641
| 87>    H       -7.09643         1.78777         6.59824
| 88>    H       -6.14813         0.45182         7.30270
| 89>    H       -7.79323         0.32249         4.72073
| 90>    H       -8.24409        -0.40804         6.26521
| 91>    H       -6.83985        -1.01218         5.37741
| 92>    H       -1.41268         3.27870         1.29803
| 93>    H       -0.52517         1.92093         2.02906
| 94>    H       -0.67064         4.73418         3.23774
| 95>    H        0.70379         4.07229         2.34328
| 96>    H        0.22747         3.35946         3.88752
| 97>    H       -2.81547         4.91091         2.03646
| 98>    H       -5.40897         4.78845         3.66718
| 99>    H       -7.21544         5.93130         4.08249
|100>    H       -9.07906         6.65769         5.42415
|101>    H      -11.08032         7.89080         3.46830
|102>    H      -11.43165         6.94340         4.98939
|103>    H       -9.85399         9.87460         4.29976
|104>    H      -10.18536         9.86286         2.56716
|105>    H       -9.02705        11.01159         3.22247
|106>    H       -7.23981        10.34472         1.83859
|107>    H       -5.40751        10.66824         0.59337
|108>    H       -2.99415         9.07566        -0.40806
|109>    H       -1.78508         9.98377        -2.20134
|110>    H       -3.92740        14.35085        -1.65180
|111>    H       -4.65227        12.50559        -0.26833
|112>    H       -2.47453        15.36515        -2.95533
|113>    H       -1.18286        13.84536        -5.26377
|114>    H       -0.34068        14.25417        -7.20933
|115>    H        1.03942        13.73936        -9.10394
|116>    H        0.21209        15.64914       -11.34382
|117>    H        0.80013        13.92671       -11.49276
|118>    H        0.76435        17.84869       -10.74932
|119>    H        2.13683        16.82807       -10.31853
|120>    H        2.02253        18.48217        -9.69654
|121>    H        0.60974        19.04539        -7.92738
|122>    H       -1.04555        20.10073        -4.29730
|123>    H       -0.48351        20.57596        -7.27083
|124>    H        0.35464        22.31636        -8.43511
|125>    H        0.00555        24.05696        -8.53283
|126>    H       -2.14178        21.86823        -8.50952
|127>    H       -1.58561        22.74778        -9.94015
|128>    H       -2.41946        23.60655        -8.64159
|129>    H       -1.55366        22.84010        -0.82502
|130>    H       -1.81925        24.59611        -0.87014
|131>    H        0.86647        23.12402        -0.67294
|132>    H        0.10405        24.06236         0.61438
|133>    H        0.73367        24.87664        -0.82603
|134>    H       -0.72321        26.68440        -4.23020
|135>    H       -0.93221        26.46283        -1.17535
|136>    H       -0.83079        27.95700        -2.21159
|137> *
|138>
|139>                          ****END OF INPUT****

CARTESIAN COORDINATES (ANGSTROEM)
---------------------------------
  C     -4.289480    0.568470    5.306350
  N     -5.407950    1.303050    5.560390
  C     -6.523390    0.884790    6.370400
  C     -7.406730   -0.120310    5.635470
  C     -5.384650    2.531570    4.869230
  O     -6.282720    3.357970    4.949500
  C     -4.138080    2.510170    4.156130
  C     -3.484870    1.272310    4.455980
  C     -2.224610    1.246800    3.740860
  O     -1.338620    0.423130    3.675930
  N     -2.200050    2.470570    3.047440
  C     -1.065470    2.847910    2.241680
  C     -0.143410    3.819640    2.974970
  C     -3.324780    3.234000    3.286140
  C     -3.553660    4.501120    2.711760
  C     -4.683650    5.216920    2.989070
  C     -4.992730    6.481410    2.477030
  S     -3.955280    7.342270    1.379510
  C     -5.016370    8.712360    1.297210
  C     -6.154790    8.504360    2.098440
  C     -6.145640    7.243850    2.758690
  C     -7.220190    6.887740    3.581900
  C     -8.301150    7.731730    3.734840
  C     -9.399600    7.243590    4.571150
  C    -10.696900    7.378340    4.333040
  C     -8.297570    9.009230    3.103680
  C     -9.405580    9.995790    3.317110
  C     -7.239170    9.372130    2.308490
  C     -4.711240    9.845560    0.513660
  C     -3.643390    9.937790   -0.317300
  C     -3.290340   11.068160   -1.123760
  C     -2.285730   10.934470   -2.084800
  C     -1.921150   11.971500   -2.927200
  N     -0.912750   11.608740   -3.886410
  O      0.025680   10.955270   -3.478250
  O     -1.071120   11.919050   -5.051420
  C     -2.491510   13.259040   -2.800540
  C     -3.474910   13.380070   -1.792800
  C     -3.884710   12.337670   -1.007310
  C     -2.129550   14.473740   -3.469670
  C     -1.468360   14.676920   -4.638760
  C     -1.140930   15.950230   -5.144240
  S     -1.406770   17.415350   -4.263940
  C     -0.779620   18.419870   -5.537960
  C     -0.329930   17.622820   -6.613990
  C     -0.546340   16.231340   -6.392970
  C     -0.166400   15.306830   -7.373260
  C      0.411720   15.719740   -8.556020
  C      0.723930   14.680370   -9.538380
  C      0.581040   14.765420  -10.853780
  C      0.704550   17.098890   -8.745050
  C      1.454610   17.588170   -9.946760
  C      0.339830   18.011700   -7.784850
  C     -0.814900   19.806920   -5.314550
  C     -0.631810   20.806280   -6.228550
  C     -0.659100   22.166800   -5.859580
  N     -0.505400   23.204350   -6.758320
  C     -0.377660   23.091600   -8.189400
  C     -1.718210   22.805890   -8.863110
  C     -0.538610   24.463370   -6.130640
  O     -0.421410   25.514140   -6.727390
  C     -0.721600   24.151990   -4.731980
  C     -0.797290   22.741460   -4.595020
  C     -0.983400   22.456390   -3.197950
  O     -1.124810   21.412190   -2.583600
  N     -1.001240   23.721120   -2.571700
  C     -1.124050   23.797230   -1.137760
  C      0.233240   23.982230   -0.461750
  C     -0.839450   24.740760   -3.481900
  C     -0.809190   26.162380   -3.284530
  C     -0.863280   26.881880   -2.162100
  H     -4.146930   -0.396170    5.756410
  H     -7.096430    1.787770    6.598240
  H     -6.148130    0.451820    7.302700
  H     -7.793230    0.322490    4.720730
  H     -8.244090   -0.408040    6.265210
  H     -6.839850   -1.012180    5.377410
  H     -1.412680    3.278700    1.298030
  H     -0.525170    1.920930    2.029060
  H     -0.670640    4.734180    3.237740
  H      0.703790    4.072290    2.343280
  H      0.227470    3.359460    3.887520
  H     -2.815470    4.910910    2.036460
  H     -5.408970    4.788450    3.667180
  H     -7.215440    5.931300    4.082490
  H     -9.079060    6.657690    5.424150
  H    -11.080320    7.890800    3.468300
  H    -11.431650    6.943400    4.989390
  H     -9.853990    9.874600    4.299760
  H    -10.185360    9.862860    2.567160
  H     -9.027050   11.011590    3.222470
  H     -7.239810   10.344720    1.838590
  H     -5.407510   10.668240    0.593370
  H     -2.994150    9.075660   -0.408060
  H     -1.785080    9.983770   -2.201340
  H     -3.927400   14.350850   -1.651800
  H     -4.652270   12.505590   -0.268330
  H     -2.474530   15.365150   -2.955330
  H     -1.182860   13.845360   -5.263770
  H     -0.340680   14.254170   -7.209330
  H      1.039420   13.739360   -9.103940
  H      0.212090   15.649140  -11.343820
  H      0.800130   13.926710  -11.492760
  H      0.764350   17.848690  -10.749320
  H      2.136830   16.828070  -10.318530
  H      2.022530   18.482170   -9.696540
  H      0.609740   19.045390   -7.927380
  H     -1.045550   20.100730   -4.297300
  H     -0.483510   20.575960   -7.270830
  H      0.354640   22.316360   -8.435110
  H      0.005550   24.056960   -8.532830
  H     -2.141780   21.868230   -8.509520
  H     -1.585610   22.747780   -9.940150
  H     -2.419460   23.606550   -8.641590
  H     -1.553660   22.840100   -0.825020
  H     -1.819250   24.596110   -0.870140
  H      0.866470   23.124020   -0.672940
  H      0.104050   24.062360    0.614380
  H      0.733670   24.876640   -0.826030
  H     -0.723210   26.684400   -4.230200
  H     -0.932210   26.462830   -1.175350
  H     -0.830790   27.957000   -2.211590

 Total Charge           Charge          ....    0
 Multiplicity           Mult            ....    1
 Number of Electrons    NEL             ....  514
 Basis Dimension        Dim             .... 1257

ORBITAL ENERGIES
----------------

  NO   OCC          E(Eh)            E(eV)
   0   2.0000     -88.968988     -2420.9692
   1   2.0000     -88.966568     -2420.9034
   2   2.0000     -19.250708      -523.8384
   3   2.0000     -19.248725      -523.7844
   4   2.0000     -19.178411      -521.8711
   5   2.0000     -19.177466      -521.8454
   6   2.0000     -19.176950      -521.8313
   7   2.0000     -19.176336      -521.8146
   8   2.0000     -14.652331      -398.7102
   9   2.0000     -14.442666      -393.0049
  10   2.0000     -14.441528      -392.9739
  11   2.0000     -14.441036      -392.9606
  12   2.0000     -14.440771      -392.9534
  13   2.0000     -10.362922      -281.9895
  14   2.0000     -10.362601      -281.9807
  15   2.0000     -10.359217      -281.8886
  16   2.0000     -10.358749      -281.8759
  17   2.0000     -10.334380      -281.2128
  18   2.0000     -10.331728      -281.1406
  19   2.0000     -10.330354      -281.1032
  20   2.0000     -10.320855      -280.8447
  21   2.0000     -10.314723      -280.6779
  22   2.0000     -10.314646      -280.6758
  23   2.0000     -10.312493      -280.6172
  24   2.0000     -10.309264      -280.5293
  25   2.0000     -10.306209      -280.4462
  26   2.0000     -10.305580      -280.4291
  27   2.0000     -10.301628      -280.3215
  28   2.0000     -10.301277      -280.3120
  29   2.0000     -10.300033      -280.2781
  30   2.0000     -10.298965      -280.2491
  31   2.0000     -10.297230      -280.2019
  32   2.0000     -10.296640      -280.1858
  33   2.0000     -10.295123      -280.1445
  34   2.0000     -10.292497      -280.0731
  35   2.0000     -10.291293      -280.0403
  36   2.0000     -10.289592      -279.9940
  37   2.0000     -10.289349      -279.9874
  38   2.0000     -10.288844      -279.9737
  39   2.0000     -10.286887      -279.9204
  40   2.0000     -10.286207      -279.9019
  41   2.0000     -10.285748      -279.8894
  42   2.0000     -10.285568      -279.8845
  43   2.0000     -10.285137      -279.8728
  44   2.0000     -10.284316      -279.8505
  45   2.0000     -10.284236      -279.8483
  46   2.0000     -10.283444      -279.8267
  47   2.0000     -10.281113      -279.7633
  48   2.0000     -10.281087      -279.7626
  49   2.0000     -10.279354      -279.7154
  50   2.0000     -10.278804      -279.7005
  51   2.0000     -10.278308      -279.6870
  52   2.0000     -10.276166      -279.6287
  53   2.0000     -10.274090      -279.5722
  54   2.0000     -10.273474      -279.5555
  55   2.0000     -10.272274      -279.5228
  56   2.0000     -10.271978      -279.5147
  57   2.0000     -10.271804      -279.5100
  58   2.0000     -10.271307      -279.4965
  59   2.0000     -10.264819      -279.3199
  60   2.0000     -10.263849      -279.2935
  61   2.0000     -10.263452      -279.2827
  62   2.0000     -10.263232      -279.2767
  63   2.0000     -10.259016      -279.1620
  64   2.0000     -10.258195      -279.1397
  65   2.0000     -10.256962      -279.1061
  66   2.0000     -10.254235      -279.0319
  67   2.0000     -10.248170      -278.8669
  68   2.0000     -10.247615      -278.8518
  69   2.0000     -10.245274      -278.7881
  70   2.0000     -10.244738      -278.7735
  71   2.0000      -8.063768      -219.4263
  72   2.0000      -8.061669      -219.3692
  73   2.0000      -6.032626      -164.1561
  74   2.0000      -6.030476      -164.0976
  75   2.0000      -6.028807      -164.0522
  76   2.0000      -6.026630      -163.9929
  77   2.0000      -6.026482      -163.9889
  78   2.0000      -6.024656      -163.9392
  79   2.0000      -1.328138       -36.1405
  80   2.0000      -1.146047       -31.1855
  81   2.0000      -1.120140       -30.4806
  82   2.0000      -1.119953       -30.4755
  83   2.0000      -1.112852       -30.2822
  84   2.0000      -1.112672       -30.2774
  85   2.0000      -1.050433       -28.5837
  86   2.0000      -1.049999       -28.5719
  87   2.0000      -1.042132       -28.3579
  88   2.0000      -1.040713       -28.3192
  89   2.0000      -1.001047       -27.2399
  90   2.0000      -0.999026       -27.1849
  91   2.0000      -0.989346       -26.9215
  92   2.0000      -0.946203       -25.7475
  93   2.0000      -0.945517       -25.7288
  94   2.0000      -0.929004       -25.2795
  95   2.0000      -0.918994       -25.0071
  96   2.0000      -0.917079       -24.9550
  97   2.0000      -0.913124       -24.8474
  98   2.0000      -0.906399       -24.6644
  99   2.0000      -0.897330       -24.4176
 100   2.0000      -0.885416       -24.0934
 101   2.0000      -0.878769       -23.9125
 102   2.0000      -0.875985       -23.8368
 103   2.0000      -0.874232       -23.7891
 104   2.0000      -0.866429       -23.5767
 105   2.0000      -0.863122       -23.4867
 106   2.0000      -0.861731       -23.4489
 107   2.0000      -0.859007       -23.3748
 108   2.0000      -0.850063       -23.1314
 109   2.0000      -0.833559       -22.6823
 110   2.0000      -0.820855       -22.3366
 111   2.0000      -0.811775       -22.0895
 112   2.0000      -0.811471       -22.0812
 113   2.0000      -0.810667       -22.0594
 114   2.0000      -0.807638       -21.9770
 115   2.0000      -0.794554       -21.6209
 116   2.0000      -0.789989       -21.4967
 117   2.0000      -0.783103       -21.3093
 118   2.0000      -0.773260       -21.0415
 119   2.0000      -0.772560       -21.0224
 120   2.0000      -0.767310       -20.8796
 121   2.0000      -0.752631       -20.4801
 122   2.0000      -0.751509       -20.4496
 123   2.0000      -0.743761       -20.2388
 124   2.0000      -0.726469       -19.7682
 125   2.0000      -0.711753       -19.3678
 126   2.0000      -0.710533       -19.3346
 127   2.0000      -0.709171       -19.2975
 128   2.0000      -0.703537       -19.1442
 129   2.0000      -0.701180       -19.0801
 130   2.0000      -0.700648       -19.0656
 131   2.0000      -0.691628       -18.8202
 132   2.0000      -0.686954       -18.6930
 133   2.0000      -0.678237       -18.4558
 134   2.0000      -0.674212       -18.3462
 135   2.0000      -0.670775       -18.2527
 136   2.0000      -0.666851       -18.1459
 137   2.0000      -0.655238       -17.8299
 138   2.0000      -0.650157       -17.6917
 139   2.0000      -0.644679       -17.5426
 140   2.0000      -0.640322       -17.4240
 141   2.0000      -0.639946       -17.4138
 142   2.0000      -0.634728       -17.2718
 143   2.0000      -0.630468       -17.1559
 144   2.0000      -0.623036       -16.9537
 145   2.0000      -0.614341       -16.7171
 146   2.0000      -0.604763       -16.4564
 147   2.0000      -0.602866       -16.4048
 148   2.0000      -0.596748       -16.2383
 149   2.0000      -0.592518       -16.1232
 150   2.0000      -0.590578       -16.0704
 151   2.0000      -0.587561       -15.9884
 152   2.0000      -0.579974       -15.7819
 153   2.0000      -0.579103       -15.7582
 154   2.0000      -0.576776       -15.6949
 155   2.0000      -0.575252       -15.6534
 156   2.0000      -0.571045       -15.5389
 157   2.0000      -0.565116       -15.3776
 158   2.0000      -0.564432       -15.3590
 159   2.0000      -0.561409       -15.2767
 160   2.0000      -0.559768       -15.2321
 161   2.0000      -0.557798       -15.1785
 162   2.0000      -0.554040       -15.0762
 163   2.0000      -0.552516       -15.0347
 164   2.0000      -0.549202       -14.9446
 165   2.0000      -0.546074       -14.8594
 166   2.0000      -0.534539       -14.5455
 167   2.0000      -0.531698       -14.4682
 168   2.0000      -0.527435       -14.3522
 169   2.0000      -0.523725       -14.2513
 170   2.0000      -0.522093       -14.2069
 171   2.0000      -0.521680       -14.1956
 172   2.0000      -0.521282       -14.1848
 173   2.0000      -0.519394       -14.1334
 174   2.0000      -0.518255       -14.1024
 175   2.0000      -0.517777       -14.0894
 176   2.0000      -0.516936       -14.0665
 177   2.0000      -0.512217       -13.9381
 178   2.0000      -0.509608       -13.8671
 179   2.0000      -0.507246       -13.8029
 180   2.0000      -0.506837       -13.7917
 181   2.0000      -0.503708       -13.7066
 182   2.0000      -0.503401       -13.6982
 183   2.0000      -0.503176       -13.6921
 184   2.0000      -0.499433       -13.5903
 185   2.0000      -0.498977       -13.5778
 186   2.0000      -0.497848       -13.5471
 187   2.0000      -0.494176       -13.4472
 188   2.0000      -0.493093       -13.4178
 189   2.0000      -0.492033       -13.3889
 190   2.0000      -0.491167       -13.3653
 191   2.0000      -0.488766       -13.3000
 192   2.0000      -0.487102       -13.2547
 193   2.0000      -0.484199       -13.1757
 194   2.0000      -0.478530       -13.0215
 195   2.0000      -0.475468       -12.9382
 196   2.0000      -0.471265       -12.8238
 197   2.0000      -0.466402       -12.6914
 198   2.0000      -0.465070       -12.6552
 199   2.0000      -0.464009       -12.6263
 200   2.0000      -0.462214       -12.5775
 201   2.0000      -0.458810       -12.4849
 202   2.0000      -0.457764       -12.4564
 203   2.0000      -0.457191       -12.4408
 204   2.0000      -0.455643       -12.3987
 205   2.0000      -0.450253       -12.2520
 206   2.0000      -0.448117       -12.1939
 207   2.0000      -0.447443       -12.1755
 208   2.0000      -0.446039       -12.1373
 209   2.0000      -0.445479       -12.1221
 210   2.0000      -0.443176       -12.0594
 211   2.0000      -0.439957       -11.9718
 212   2.0000      -0.438161       -11.9230
 213   2.0000      -0.437672       -11.9097
 214   2.0000      -0.436832       -11.8868
 215   2.0000      -0.435891       -11.8612
 216   2.0000      -0.432369       -11.7654
 217   2.0000      -0.428417       -11.6578
 218   2.0000      -0.425135       -11.5685
 219   2.0000      -0.425023       -11.5655
 220   2.0000      -0.424357       -11.5474
 221   2.0000      -0.423119       -11.5136
 222   2.0000      -0.421244       -11.4626
 223   2.0000      -0.420078       -11.4309
 224   2.0000      -0.417997       -11.3743
 225   2.0000      -0.414959       -11.2916
 226   2.0000      -0.414201       -11.2710
 227   2.0000      -0.409795       -11.1511
 228   2.0000      -0.408205       -11.1078
 229   2.0000      -0.406542       -11.0626
 230   2.0000      -0.402696       -10.9579
 231   2.0000      -0.397955       -10.8289
 232   2.0000      -0.393325       -10.7029
 233   2.0000      -0.390947       -10.6382
 234   2.0000      -0.386822       -10.5260
 235   2.0000      -0.382457       -10.4072
 236   2.0000      -0.376260       -10.2386
 237   2.0000      -0.360703        -9.8152
 238   2.0000      -0.359675        -9.7873
 239   2.0000      -0.343405        -9.3445
 240   2.0000      -0.341493        -9.2925
 241   2.0000      -0.339361        -9.2345
 242   2.0000      -0.335590        -9.1319
 243   2.0000      -0.335220        -9.1218
 244   2.0000      -0.328326        -8.9342
 245   2.0000      -0.325351        -8.8533
 246   2.0000      -0.319143        -8.6843
 247   2.0000      -0.319136        -8.6841
 248   2.0000      -0.307842        -8.3768
 249   2.0000      -0.303050        -8.2464
 250   2.0000      -0.302427        -8.2294
 251   2.0000      -0.299745        -8.1565
 252   2.0000      -0.296952        -8.0805
 253   2.0000      -0.261508        -7.1160
 254   2.0000      -0.251610        -6.8466
 255   2.0000      -0.225228        -6.1288
 256   2.0000      -0.214488        -5.8365
 257   0.0000      -0.096906        -2.6369
 258   0.0000      -0.078920        -2.1475
 259   0.0000      -0.048369        -1.3162
 260   0.0000      -0.033411        -0.9091
 261   0.0000      -0.025995        -0.7074

MULLIKEN ATOMIC CHARGES
-----------------------
   0 C :    0.024176
   1 N :   -0.253482
   2 C :    0.116122
   3 C :   -0.000214
   4 C :    0.166067
   5 O :   -0.240383
   6 C :   -0.107705
   7 C :    0.012067
   8 C :    0.159401
   9 O :   -0.189583
  10 N :   -0.270137
  11 C :    0.103692
  12 C :    0.003495
  13 C :    0.166854
  14 C :   -0.051861
  15 C :    0.003125
  16 C :   -0.082145
  17 S :    0.131349
  18 C :   -0.082238
  19 C :    0.135609
  20 C :    0.134667
  21 C :   -0.102176
  22 C :    0.070928
  23 C :   -0.046694
  24 C :   -0.014492
  25 C :   -0.063554
  26 C :    0.079171
  27 C :   -0.092911
  28 C :    0.008044
  29 C :   -0.011242
  30 C :    0.108590
  31 C :   -0.044265
  32 C :    0.098561
  33 N :    0.248623
  34 O :   -0.225506
  35 O :   -0.235392
  36 C :    0.128926
  37 C :   -0.035255
  38 C :    0.015696
  39 C :   -0.057772
  40 C :   -0.001203
  41 C :   -0.095081
  42 S :    0.174505
  43 C :   -0.128821
  44 C :    0.154877
  45 C :    0.119539
  46 C :   -0.104808
  47 C :    0.073011
  48 C :   -0.047336
  49 C :   -0.014800
  50 C :   -0.059524
  51 C :    0.080051
  52 C :   -0.107793
  53 C :    0.063586
  54 C :   -0.056965
  55 C :    0.148068
  56 N :   -0.271743
  57 C :    0.103651
  58 C :    0.001877
  59 C :    0.148226
  60 O :   -0.198971
  61 C :   -0.036379
  62 C :   -0.068227
  63 C :    0.156970
  64 O :   -0.230537
  65 N :   -0.261465
  66 C :    0.103314
  67 C :    0.001985
  68 C :    0.065459
  69 C :   -0.013731
  70 C :   -0.019918
  71 H :    0.008187
  72 H :    0.036902
  73 H :    0.015159
  74 H :    0.028544
  75 H :    0.020166
  76 H :    0.014185
  77 H :    0.018741
  78 H :    0.041043
  79 H :    0.014427
  80 H :    0.020877
  81 H :    0.028278
  82 H :   -0.030492
  83 H :    0.021112
  84 H :   -0.006731
  85 H :    0.015533
  86 H :    0.016110
  87 H :    0.025224
  88 H :    0.032452
  89 H :    0.035224
  90 H :    0.011387
  91 H :   -0.048483
  92 H :   -0.010809
  93 H :   -0.009710
  94 H :   -0.005348
  95 H :   -0.013913
  96 H :   -0.019281
  97 H :   -0.007726
  98 H :    0.015730
  99 H :   -0.019223
 100 H :    0.010689
 101 H :    0.016265
 102 H :    0.026125
 103 H :    0.033344
 104 H :    0.034012
 105 H :    0.014497
 106 H :   -0.047972
 107 H :    0.007309
 108 H :   -0.032204
 109 H :    0.016403
 110 H :    0.040719
 111 H :    0.017022
 112 H :    0.020577
 113 H :    0.029038
 114 H :    0.036444
 115 H :    0.020328
 116 H :    0.026666
 117 H :    0.017842
 118 H :    0.019280
 119 H :    0.012226
 120 H :    0.017242
 121 H :    0.030614
Sum of atomic charges:   -0.0000000

LOEWDIN ATOMIC CHARGES
----------------------
   0 C :    0.075010
   1 N :    0.001988
   2 C :    0.038156
   3 C :   -0.060907
   4 C :    0.072884
   5 O :   -0.230893
   6 C :   -0.142607
   7 C :   -0.124905
   8 C :    0.082484
   9 O :   -0.193887
  10 N :   -0.010812
  11 C :    0.035935
  12 C :   -0.061787
  13 C :    0.088920
  14 C :   -0.074443
  15 C :    0.021089
  16 C :   -0.179659
  17 S :    0.469950
  18 C :   -0.160650
  19 C :   -0.041596
  20 C :   -0.029901
  21 C :   -0.001270
  22 C :   -0.019744
  23 C :   -0.018266
  24 C :   -0.039146
  25 C :   -0.010272
  26 C :   -0.046766
  27 C :   -0.026766
  28 C :   -0.032477
  29 C :   -0.023847
  30 C :   -0.025981
  31 C :    0.005066
  32 C :   -0.022434
  33 N :    0.289016
  34 O :   -0.191933
  35 O :   -0.196745
  36 C :   -0.009385
  37 C :   -0.005809
  38 C :    0.001330
  39 C :   -0.040811
  40 C :   -0.023432
  41 C :   -0.167527
  42 S :    0.500142
  43 C :   -0.177749
  44 C :   -0.032579
  45 C :   -0.040407
  46 C :   -0.002195
  47 C :   -0.024604
  48 C :   -0.019826
  49 C :   -0.039159
  50 C :   -0.005502
  51 C :   -0.046421
  52 C :   -0.028692
  53 C :    0.011216
  54 C :   -0.069835
  55 C :    0.085977
  56 N :   -0.008706
  57 C :    0.035033
  58 C :   -0.062295
  59 C :    0.080434
  60 O :   -0.201370
  61 C :   -0.114069
  62 C :   -0.136690
  63 C :    0.076644
  64 O :   -0.218875
  65 N :   -0.000216
  66 C :    0.035075
  67 C :   -0.063497
  68 C :    0.059712
  69 C :   -0.028011
  70 C :   -0.033289
  71 H :    0.029660
  72 H :    0.034187
  73 H :    0.023365
  74 H :    0.031003
  75 H :    0.028629
  76 H :    0.022216
  77 H :    0.021298
  78 H :    0.036765
  79 H :    0.021315
  80 H :    0.029329
  81 H :    0.031769
  82 H :    0.019501
  83 H :    0.043199
  84 H :    0.038201
  85 H :    0.035660
  86 H :    0.021025
  87 H :    0.026525
  88 H :    0.034081
  89 H :    0.035824
  90 H :    0.029615
  91 H :    0.022519
  92 H :    0.032074
  93 H :    0.023448
  94 H :    0.037640
  95 H :    0.034269
  96 H :    0.030806
  97 H :    0.024322
  98 H :    0.028981
  99 H :    0.032880
 100 H :    0.033562
 101 H :    0.021321
 102 H :    0.026892
 103 H :    0.035647
 104 H :    0.034599
 105 H :    0.030705
 106 H :    0.023493
 107 H :    0.036720
 108 H :    0.023859
 109 H :    0.019817
 110 H :    0.036757
 111 H :    0.021973
 112 H :    0.028961
 113 H :    0.032200
 114 H :    0.034686
 115 H :    0.020839
 116 H :    0.031658
 117 H :    0.028167
 118 H :    0.022355
 119 H :    0.047422
 120 H :    0.020313
 121 H :    0.030532

  Mayer bond orders larger than 0.100000
B(  0-C ,  1-N ) :   1.1788 B(  0-C ,  7-C ) :   1.4581 B(  0-C , 71-H ) :   0.9922
B(  1-N ,  2-C ) :   0.9483 B(  1-N ,  4-C ) :   1.0689 B(  2-C ,  3-C ) :   1.1187
B(  2-C , 72-H ) :   0.9341 B(  2-C , 73-H ) :   0.9534 B(  3-C , 74-H ) :   0.9673
B(  3-C , 75-H ) :   0.9687 B(  3-C , 76-H ) :   0.9692 B(  4-C ,  5-O ) :   1.9734
B(  4-C ,  6-C ) :   1.0347 B(  5-O , 83-H ) :   0.1053 B(  6-C ,  7-C ) :   1.2049
B(  6-C , 13-C ) :   1.3323 B(  7-C ,  8-C ) :   0.9467 B(  8-C ,  9-O ) :   2.1746
B(  8-C , 10-N ) :   1.0209 B( 10-N , 11-C ) :   0.9513 B( 10-N , 13-C ) :   1.1487
B( 11-C , 12-C ) :   1.1202 B( 11-C , 77-H ) :   0.9496 B( 11-C , 78-H ) :   0.9281
B( 12-C , 79-H ) :   0.9683 B( 12-C , 80-H ) :   0.9679 B( 12-C , 81-H ) :   0.9642
B( 13-C , 14-C ) :   1.1990 B( 14-C , 15-C ) :   1.5150 B( 14-C , 82-H ) :   0.9658
B( 15-C , 16-C ) :   1.2391 B( 15-C , 83-H ) :   0.9481 B( 16-C , 17-S ) :   1.1078
B( 16-C , 18-C ) :   0.1003 B( 16-C , 20-C ) :   1.2743 B( 17-S , 18-C ) :   1.1431
B( 18-C , 19-C ) :   1.2934 B( 18-C , 28-C ) :   1.1978 B( 19-C , 20-C ) :   1.2113
B( 19-C , 27-C ) :   1.1933 B( 20-C , 21-C ) :   1.2167 B( 21-C , 22-C ) :   1.4777
B( 21-C , 84-H ) :   0.9969 B( 22-C , 23-C ) :   1.0288 B( 22-C , 25-C ) :   1.2239
B( 23-C , 24-C ) :   1.9645 B( 23-C , 85-H ) :   0.9627 B( 24-C , 86-H ) :   0.9625
B( 24-C , 87-H ) :   0.9497 B( 25-C , 26-C ) :   1.0702 B( 25-C , 27-C ) :   1.5459
B( 26-C , 88-H ) :   0.9471 B( 26-C , 89-H ) :   0.9479 B( 26-C , 90-H ) :   0.9538
B( 27-C , 91-H ) :   0.9893 B( 28-C , 29-C ) :   1.6329 B( 28-C , 92-H ) :   0.9632
B( 29-C , 30-C ) :   1.1002 B( 29-C , 93-H ) :   0.9808 B( 30-C , 31-C ) :   1.2991
B( 30-C , 38-C ) :   1.2921 B( 31-C , 32-C ) :   1.3906 B( 31-C , 94-H ) :   0.9973
B( 32-C , 33-N ) :   0.8640 B( 32-C , 36-C ) :   1.3338 B( 33-N , 34-O ) :   1.5576
B( 33-N , 35-O ) :   1.4950 B( 34-O , 35-O ) :   0.2643 B( 36-C , 37-C ) :   1.2809
B( 36-C , 39-C ) :   1.1255 B( 37-C , 38-C ) :   1.4434 B( 37-C , 95-H ) :   0.9903
B( 38-C , 96-H ) :   0.9911 B( 39-C , 40-C ) :   1.6258 B( 39-C , 97-H ) :   0.9659
B( 40-C , 41-C ) :   1.2015 B( 40-C , 98-H ) :   0.9495 B( 41-C , 42-S ) :   1.1532
B( 41-C , 45-C ) :   1.2653 B( 42-S , 43-C ) :   1.1509 B( 43-C , 44-C ) :   1.2715
B( 43-C , 53-C ) :   1.2066 B( 44-C , 45-C ) :   1.2285 B( 44-C , 52-C ) :   1.2035
B( 45-C , 46-C ) :   1.2107 B( 46-C , 47-C ) :   1.4802 B( 46-C , 99-H ) :   1.0000
B( 47-C , 48-C ) :   1.0284 B( 47-C , 50-C ) :   1.2326 B( 48-C , 49-C ) :   1.9635
B( 48-C ,100-H ) :   0.9636 B( 49-C ,101-H ) :   0.9626 B( 49-C ,102-H ) :   0.9495
B( 50-C , 51-C ) :   1.0723 B( 50-C , 52-C ) :   1.5231 B( 51-C ,103-H ) :   0.9468
B( 51-C ,104-H ) :   0.9468 B( 51-C ,105-H ) :   0.9532 B( 52-C ,106-H ) :   0.9914
B( 53-C , 54-C ) :   1.5413 B( 53-C ,107-H ) :   0.9206 B( 54-C , 55-C ) :   1.2047
B( 54-C ,108-H ) :   0.9568 B( 55-C , 56-N ) :   1.1473 B( 55-C , 62-C ) :   1.3101
B( 56-N , 57-C ) :   0.9513 B( 56-N , 59-C ) :   1.0364 B( 57-C , 58-C ) :   1.1199
B( 57-C ,109-H ) :   0.9493 B( 57-C ,110-H ) :   0.9273 B( 58-C ,111-H ) :   0.9687
B( 58-C ,112-H ) :   0.9677 B( 58-C ,113-H ) :   0.9635 B( 59-C , 60-O ) :   2.1299
B( 59-C , 61-C ) :   0.9734 B( 61-C , 62-C ) :   1.2339 B( 61-C , 68-C ) :   1.3879
B( 62-C , 63-C ) :   1.0107 B( 63-C , 64-O ) :   1.9903 B( 63-C , 65-N ) :   1.0648
B( 64-O ,107-H ) :   0.1215 B( 65-N , 66-C ) :   0.9484 B( 65-N , 68-C ) :   1.1601
B( 66-C , 67-C ) :   1.1155 B( 66-C ,114-H ) :   0.9253 B( 66-C ,115-H ) :   0.9525
B( 67-C ,116-H ) :   0.9624 B( 67-C ,117-H ) :   0.9684 B( 67-C ,118-H ) :   0.9683
B( 68-C , 69-C ) :   1.1560 B( 69-C , 70-C ) :   1.8686 B( 69-C ,119-H ) :   0.9355
B( 70-C ,120-H ) :   0.9608 B( 70-C ,121-H ) :   0.9409

-----------------------------------------------------------------------------
         ABSORPTION SPECTRUM VIA TRANSITION ELECTRIC DIPOLE MOMENTS
-----------------------------------------------------------------------------
State   Energy  Wavelength   fosc         T2         TX        TY        TZ
        (cm-1)    (nm)                  (au**2)     (au)      (au)      (au)
-----------------------------------------------------------------------------
   0   12560.5    796.1   1.793155133  46.99879  -1.02290  -6.47236   2.01519
   1   15170.8    659.2   0.270167021   5.86272   0.02328   0.63912  -2.33532
   2   18918.4    528.6   0.023275531   0.40503  -0.24201  -0.46445  -0.36159
   3   19613.9    509.8   0.328362280   5.51143   0.73795   0.92602  -2.02715
   4   21254.6    470.5   0.218849344   3.38975   0.71443  -1.28787  -1.10487
   5   21526.1    464.6   0.021239454   0.32483   0.23808   0.51721   0.02524
   6   22679.1    440.9   0.040400396   0.58645  -0.68106   0.32258   0.13619
   7   25210.5    396.7   0.298598168   3.89925  -0.67678  -0.19127   1.84517
   8   26560.8    376.5   0.007407854   0.09182  -0.08245   0.21093  -0.20132
   9   27367.4    365.4   0.072799508   0.87573  -0.72439   0.21873   0.55059
  10   27489.1    363.8   0.013270948   0.15893   0.36251  -0.08216  -0.14412
  11   27687.5    361.2   0.004920969   0.05851  -0.18605   0.08118   0.13155
  12   27805.1    359.6   0.000579794   0.00686  -0.07212   0.03856   0.01328
  13   28332.4    353.0   0.056322069   0.65444  -0.60278  -0.03721   0.53825
  14   29268.6    341.7   0.061212681   0.68852   0.69385  -0.26165  -0.37232
  15   29285.1    341.5   0.045852608   0.51546  -0.39693   0.29154   0.52241
  16   29514.7    338.8   0.151080717   1.68518  -0.28747   0.68097   1.06716
  17   29852.9    335.0   0.000703459   0.00776  -0.01980   0.05014   0.06965
  18   30402.7    328.9   0.476410473   5.15875   1.89077  -0.04586  -1.25764
  19   31209.1    320.4   0.009717452   0.10251  -0.21220   0.17915   0.15932
  20   31564.8    316.8   0.349449100   3.64465   0.74482   1.38923  -1.07701
  21   32507.9    307.6   0.032219471   0.32629  -0.05176   0.00723   0.56882
  22   32959.8    303.4   0.031009292   0.30973   0.27918   0.25873  -0.40601
  23   32986.9    303.2   0.023058362   0.23012   0.22609  -0.42076  -0.04440
  24   33838.0    295.5   0.008215302   0.07993  -0.18404  -0.12783   0.17238
  25   33921.5    294.8   0.037340630   0.36239   0.39929   0.26276  -0.36595
  26   34379.3    290.9   0.187239869   1.79299   1.09061  -0.64553  -0.43225
  27   34824.3    287.2   0.126545407   1.19630  -1.06531   0.24783  -0.00082
  28   35220.1    283.9   0.171786941   1.60574   0.75354  -1.01855   0.02192
  29   35460.6    282.0   0.028426672   0.26391   0.39634  -0.08969  -0.31429
  30   36007.8    277.7   0.051865458   0.47420   0.41373   0.33691  -0.43533
  31   36169.0    276.5   0.000249059   0.00227  -0.04687  -0.00832  -0.00094
  32   36212.9    276.1   0.022795826   0.20724  -0.10673  -0.44191   0.02367
  33   36568.9    273.5   0.084545834   0.76113   0.57828  -0.43335  -0.48880
  34   36749.6    272.1   0.092636853   0.82986  -0.68805   0.16205   0.57463
  35   37421.8    267.2   0.026776213   0.23556  -0.29342  -0.09084   0.37578
  36   37693.3    265.3   0.043655540   0.38129  -0.38585   0.17316   0.44991
  37   37814.6    264.4   0.007311095   0.06365   0.08153   0.09912  -0.21720
  38   38359.6    260.7   0.043645444   0.37458   0.47477  -0.38389   0.04235
  39   38539.7    259.5   0.003308845   0.02826   0.03872   0.08172  -0.14173
  40   38637.1    258.8   0.035251250   0.30036   0.45202  -0.30961  -0.01341
  41   38971.9    256.6   0.192923237   1.62970   1.07747  -0.42490  -0.53686
  42   39402.2    253.8   0.006642686   0.05550  -0.20499  -0.07855   0.08551
  43   39970.9    250.2   0.022064773   0.18173  -0.22150  -0.03456   0.36259
  44   40195.7    248.8   0.015196155   0.12446  -0.04251  -0.26907  -0.22418

FINAL SINGLE POINT ENERGY     -3758.262164470800

DIPOLE MOMENT
-------------
                                X             Y             Z
Electronic contribution:     11.38739     -14.51184      -2.53928
Nuclear contribution   :    -13.09664      14.74480       2.80587
                        -----------------------------------------
Total Dipole Moment    :     -1.70925       0.23297       0.26660
                        -----------------------------------------
Magnitude (a.u.)       :      1.74553
Magnitude (Debye)      :      4.43678

Rotational constants in cm-1:     0.001549     0.000207     0.000192
Rotational constants in MHz :    46.436611     6.203039     5.762441

                             ****ORCA TERMINATED NORMALLY****
TOTAL RUN TIME: 0 days 0 hours 13 minutes 17 seconds 276 msec
