                         Program Version 4.2.0 -  RELEASE  -
|  1> # ORCA input file
|  2> # SCF done       -209.434563780953          0.000753383756
|  3> ! CAM-B3LYP def2-SVP def2/J RIJCOSX Grid4 TightSCF
|  4> %maxcore 5000
|  5> %tddft
|  6>     Mode sTDDFT
|  7>     Ethresh 5.0
|  8>     maxcore 5000
|  9> end
| 10>
| 11> %pal
| 12>   nprocs 6
| 13>   end
| 14> * xyz 0 1
| 15>    C        0.31835         4.56522         0.97230
| 16>    C       -0.54685         4.50409         2.03104
| 17>    C       -0.41372         3.49568         2.99674
| 18>    C        0.58263         2.56355         2.89127
| 19>    C        1.49043         2.59676         1.81375
| 20>    C        2.51844         1.63198         1.69720
| 21>    C        3.38282         1.69568         0.63866
| 22>    C        3.25091         2.73252        -0.33022
| 23>    C        2.26394         3.67081        -0.24783
| 24>    C        1.35490         3.62165         0.83378
| 25>    C        4.32518         2.59866        -1.33116
| 26>    O        4.50416         3.26252        -2.32757
| 27>    C        5.19602         1.50093        -0.82730
| 28>    C        4.50365         0.84164         0.25221
| 29>    C        4.69158        -0.45001         0.68118
| 30>    C        5.61944        -1.33987         0.10766
| 31>    N        6.34349        -2.10900        -0.34328
| 32>    C        3.92893        -1.05969         1.69606
| 33>    N        3.36314        -1.59589         2.53949
| 34>    C        6.44692         1.36720        -1.36369
| 35>    C        7.58998         0.73799        -0.84275
| 36>    C        7.86839         0.31725         0.45969
| 37>    C        9.13784        -0.20265         0.58706
| 38>    C        9.85936        -0.18802        -0.61866
| 39>    S        8.96812         0.49252        -1.90668
| 40>    C       11.13754        -0.73489        -0.40023
| 41>    C       11.23964        -1.11211         0.94826
| 42>    C        9.95782        -0.82259         1.69249
| 43>    C        9.30204        -2.11520         2.18915
| 44>    C       10.18923         0.15102         2.85041
| 45>    C       12.47754        -1.63134         1.26194
| 46>    C       13.33910        -1.65313         0.16321
| 47>    S       12.57951        -1.02970        -1.28509
| 48>    C       14.69177        -2.07633         0.16083
| 49>    C       15.48839        -2.02617        -1.00826
| 50>    C       16.88110        -2.38086        -1.03539
| 51>    N       17.54890        -2.28902        -2.20402
| 52>    C       16.93389        -1.88737        -3.26841
| 53>    C       15.56333        -1.53368        -3.24202
| 54>    N       14.88962        -1.60932        -2.14045
| 55>    F       14.93197        -1.11730        -4.33561
| 56>    F       17.64321        -1.81830        -4.39567
| 57>    C       17.56153        -2.80913         0.13135
| 58>    C       16.75447        -2.90119         1.29046
| 59>    C       15.35664        -2.54830         1.31852
| 60>    N       14.83707        -2.71852         2.53516
| 61>    S       15.97134        -3.26328         3.53227
| 62>    N       17.18461        -3.30963         2.48270
| 63>    C       18.94884        -3.10422         0.19858
| 64>    C       19.89983        -3.05244        -0.82100
| 65>    C       21.16962        -3.35390        -0.37405
| 66>    C       21.20784        -3.64400         0.99860
| 67>    S       19.66200        -3.55431         1.73786
| 68>    C       22.53989        -3.89890         1.37215
| 69>    C       23.36744        -3.77571         0.24037
| 70>    C       22.55032        -3.42798        -0.98128
| 71>    C       22.97601        -2.07984        -1.56913
| 72>    C       22.63753        -4.52995        -2.04111
| 73>    C       24.70131        -3.97558         0.51805
| 74>    C       24.93073        -4.25389         1.86695
| 75>    S       23.41810        -4.27223         2.78671
| 76>    C       26.09825        -4.47545         2.61234
| 77>    C       27.42503        -4.51014         2.25804
| 78>    C       28.49993        -4.69577         3.21917
| 79>    C       28.39535        -4.80643         4.58388
| 80>    C       29.49681        -4.98094         5.44819
| 81>    N       30.33908        -5.12463         6.21572
| 82>    C       27.21462        -4.75415         5.35358
| 83>    N       26.31935        -4.71921         6.07398
| 84>    C       29.76170        -4.71558         2.48555
| 85>    C       29.48005        -4.53372         1.10382
| 86>    C       30.46540        -4.49832         0.16031
| 87>    C       31.81107        -4.64293         0.56521
| 88>    C       32.87307        -4.60809        -0.35937
| 89>    C       34.16897        -4.74552         0.05872
| 90>    C       34.45875        -4.92514         1.41940
| 91>    C       33.44956        -4.96543         2.34266
| 92>    C       32.10383        -4.82580         1.94699
| 93>    C       31.05920        -4.86185         2.89959
| 94>    C       28.02688        -4.39599         0.91054
| 95>    O       27.47574        -4.23125        -0.16130
| 96>    H        0.22093         5.33966         0.22553
| 97>    H       -1.33786         5.23239         2.13002
| 98>    H       -1.10536         3.46035         3.82514
| 99>    H        0.68715         1.78308         3.63074
|100>    H        2.60250         0.87164         2.45811
|101>    H        2.17682         4.44331        -0.99734
|102>    H        6.58852         1.90176        -2.29882
|103>    H        7.17450         0.44206         1.27119
|104>    H        9.10178        -2.78136         1.35370
|105>    H        8.35935        -1.89077         2.68179
|106>    H        9.95849        -2.61904         2.89386
|107>    H       10.65072         1.06752         2.48948
|108>    H       10.84456        -0.30183         3.58984
|109>    H        9.24325         0.39928         3.32513
|110>    H       12.78878        -1.98241         2.22779
|111>    H       19.63548        -2.79524        -1.82815
|112>    H       22.90997        -1.29941        -0.81438
|113>    H       22.32891        -1.81615        -2.40158
|114>    H       24.00206        -2.13736        -1.92281
|115>    H       22.32818        -5.48467        -1.62190
|116>    H       23.66022        -4.62026        -2.39777
|117>    H       21.98955        -4.29047        -2.88021
|118>    H       25.50482        -3.92819        -0.19372
|119>    H       25.89383        -4.63307         3.66467
|120>    H       30.22067        -4.35847        -0.88230
|121>    H       32.64354        -4.46984        -1.40596
|122>    H       34.97749        -4.71670        -0.65649
|123>    H       35.48658        -5.03091         1.73290
|124>    H       33.66764        -5.10287         3.39166
|125>    H       31.31859        -5.00423         3.93612
|126> *
|127>
|128>                          ****END OF INPUT****

CARTESIAN COORDINATES (ANGSTROEM)
---------------------------------
  C      0.318350    4.565220    0.972300
  C     -0.546850    4.504090    2.031040
  C     -0.413720    3.495680    2.996740
  C      0.582630    2.563550    2.891270
  C      1.490430    2.596760    1.813750
  C      2.518440    1.631980    1.697200
  C      3.382820    1.695680    0.638660
  C      3.250910    2.732520   -0.330220
  C      2.263940    3.670810   -0.247830
  C      1.354900    3.621650    0.833780
  C      4.325180    2.598660   -1.331160
  O      4.504160    3.262520   -2.327570
  C      5.196020    1.500930   -0.827300
  C      4.503650    0.841640    0.252210
  C      4.691580   -0.450010    0.681180
  C      5.619440   -1.339870    0.107660
  N      6.343490   -2.109000   -0.343280
  C      3.928930   -1.059690    1.696060
  N      3.363140   -1.595890    2.539490
  C      6.446920    1.367200   -1.363690
  C      7.589980    0.737990   -0.842750
  C      7.868390    0.317250    0.459690
  C      9.137840   -0.202650    0.587060
  C      9.859360   -0.188020   -0.618660
  S      8.968120    0.492520   -1.906680
  C     11.137540   -0.734890   -0.400230
  C     11.239640   -1.112110    0.948260
  C      9.957820   -0.822590    1.692490
  C      9.302040   -2.115200    2.189150
  C     10.189230    0.151020    2.850410
  C     12.477540   -1.631340    1.261940
  C     13.339100   -1.653130    0.163210
  S     12.579510   -1.029700   -1.285090
  C     14.691770   -2.076330    0.160830
  C     15.488390   -2.026170   -1.008260
  C     16.881100   -2.380860   -1.035390
  N     17.548900   -2.289020   -2.204020
  C     16.933890   -1.887370   -3.268410
  C     15.563330   -1.533680   -3.242020
  N     14.889620   -1.609320   -2.140450
  F     14.931970   -1.117300   -4.335610
  F     17.643210   -1.818300   -4.395670
  C     17.561530   -2.809130    0.131350
  C     16.754470   -2.901190    1.290460
  C     15.356640   -2.548300    1.318520
  N     14.837070   -2.718520    2.535160
  S     15.971340   -3.263280    3.532270
  N     17.184610   -3.309630    2.482700
  C     18.948840   -3.104220    0.198580
  C     19.899830   -3.052440   -0.821000
  C     21.169620   -3.353900   -0.374050
  C     21.207840   -3.644000    0.998600
  S     19.662000   -3.554310    1.737860
  C     22.539890   -3.898900    1.372150
  C     23.367440   -3.775710    0.240370
  C     22.550320   -3.427980   -0.981280
  C     22.976010   -2.079840   -1.569130
  C     22.637530   -4.529950   -2.041110
  C     24.701310   -3.975580    0.518050
  C     24.930730   -4.253890    1.866950
  S     23.418100   -4.272230    2.786710
  C     26.098250   -4.475450    2.612340
  C     27.425030   -4.510140    2.258040
  C     28.499930   -4.695770    3.219170
  C     28.395350   -4.806430    4.583880
  C     29.496810   -4.980940    5.448190
  N     30.339080   -5.124630    6.215720
  C     27.214620   -4.754150    5.353580
  N     26.319350   -4.719210    6.073980
  C     29.761700   -4.715580    2.485550
  C     29.480050   -4.533720    1.103820
  C     30.465400   -4.498320    0.160310
  C     31.811070   -4.642930    0.565210
  C     32.873070   -4.608090   -0.359370
  C     34.168970   -4.745520    0.058720
  C     34.458750   -4.925140    1.419400
  C     33.449560   -4.965430    2.342660
  C     32.103830   -4.825800    1.946990
  C     31.059200   -4.861850    2.899590
  C     28.026880   -4.395990    0.910540
  O     27.475740   -4.231250   -0.161300
  H      0.220930    5.339660    0.225530
  H     -1.337860    5.232390    2.130020
  H     -1.105360    3.460350    3.825140
  H      0.687150    1.783080    3.630740
  H      2.602500    0.871640    2.458110
  H      2.176820    4.443310   -0.997340
  H      6.588520    1.901760   -2.298820
  H      7.174500    0.442060    1.271190
  H      9.101780   -2.781360    1.353700
  H      8.359350   -1.890770    2.681790
  H      9.958490   -2.619040    2.893860
  H     10.650720    1.067520    2.489480
  H     10.844560   -0.301830    3.589840
  H      9.243250    0.399280    3.325130
  H     12.788780   -1.982410    2.227790
  H     19.635480   -2.795240   -1.828150
  H     22.909970   -1.299410   -0.814380
  H     22.328910   -1.816150   -2.401580
  H     24.002060   -2.137360   -1.922810
  H     22.328180   -5.484670   -1.621900
  H     23.660220   -4.620260   -2.397770
  H     21.989550   -4.290470   -2.880210
  H     25.504820   -3.928190   -0.193720
  H     25.893830   -4.633070    3.664670
  H     30.220670   -4.358470   -0.882300
  H     32.643540   -4.469840   -1.405960
  H     34.977490   -4.716700   -0.656490
  H     35.486580   -5.030910    1.732900
  H     33.667640   -5.102870    3.391660
  H     31.318590   -5.004230    3.936120

 Total Charge           Charge          ....    0
 Multiplicity           Mult            ....    1
 Number of Electrons    NEL             ....  584
 Basis Dimension        Dim             .... 1304

ORBITAL ENERGIES
----------------

  NO   OCC          E(Eh)            E(eV)
   0   2.0000     -89.048671     -2423.1375
   1   2.0000     -88.973199     -2421.0838
   2   2.0000     -88.971140     -2421.0278
   3   2.0000     -88.966874     -2420.9117
   4   2.0000     -88.966829     -2420.9105
   5   2.0000     -24.822920      -675.4660
   6   2.0000     -24.820987      -675.4134
   7   2.0000     -19.208923      -522.7014
   8   2.0000     -19.205372      -522.6047
   9   2.0000     -14.463592      -393.5743
  10   2.0000     -14.460679      -393.4951
  11   2.0000     -14.458377      -393.4324
  12   2.0000     -14.457686      -393.4136
  13   2.0000     -14.410153      -392.1202
  14   2.0000     -14.409413      -392.1001
  15   2.0000     -14.407483      -392.0475
  16   2.0000     -14.403340      -391.9348
  17   2.0000     -10.438857      -284.0557
  18   2.0000     -10.437022      -284.0058
  19   2.0000     -10.360147      -281.9139
  20   2.0000     -10.357013      -281.8287
  21   2.0000     -10.352550      -281.7072
  22   2.0000     -10.350384      -281.6483
  23   2.0000     -10.346565      -281.5444
  24   2.0000     -10.344645      -281.4921
  25   2.0000     -10.335172      -281.2343
  26   2.0000     -10.334108      -281.2054
  27   2.0000     -10.331049      -281.1221
  28   2.0000     -10.329048      -281.0677
  29   2.0000     -10.321541      -280.8634
  30   2.0000     -10.320836      -280.8442
  31   2.0000     -10.320200      -280.8269
  32   2.0000     -10.319420      -280.8057
  33   2.0000     -10.318761      -280.7878
  34   2.0000     -10.316857      -280.7360
  35   2.0000     -10.315291      -280.6933
  36   2.0000     -10.314882      -280.6822
  37   2.0000     -10.313891      -280.6552
  38   2.0000     -10.312932      -280.6292
  39   2.0000     -10.312054      -280.6052
  40   2.0000     -10.311663      -280.5946
  41   2.0000     -10.311131      -280.5801
  42   2.0000     -10.307488      -280.4810
  43   2.0000     -10.306041      -280.4416
  44   2.0000     -10.305367      -280.4233
  45   2.0000     -10.299495      -280.2635
  46   2.0000     -10.299171      -280.2547
  47   2.0000     -10.297367      -280.2056
  48   2.0000     -10.295959      -280.1673
  49   2.0000     -10.293768      -280.1077
  50   2.0000     -10.292637      -280.0769
  51   2.0000     -10.292258      -280.0666
  52   2.0000     -10.291162      -280.0368
  53   2.0000     -10.291016      -280.0328
  54   2.0000     -10.290371      -280.0152
  55   2.0000     -10.289914      -280.0028
  56   2.0000     -10.288700      -279.9698
  57   2.0000     -10.288468      -279.9634
  58   2.0000     -10.288043      -279.9519
  59   2.0000     -10.287984      -279.9503
  60   2.0000     -10.284828      -279.8644
  61   2.0000     -10.284119      -279.8451
  62   2.0000     -10.282907      -279.8121
  63   2.0000     -10.282662      -279.8054
  64   2.0000     -10.282404      -279.7984
  65   2.0000     -10.282170      -279.7921
  66   2.0000     -10.281989      -279.7871
  67   2.0000     -10.281749      -279.7806
  68   2.0000     -10.281526      -279.7745
  69   2.0000     -10.281491      -279.7736
  70   2.0000     -10.281040      -279.7613
  71   2.0000     -10.280639      -279.7504
  72   2.0000     -10.280309      -279.7414
  73   2.0000     -10.280014      -279.7334
  74   2.0000     -10.279586      -279.7218
  75   2.0000     -10.279475      -279.7187
  76   2.0000     -10.278943      -279.7043
  77   2.0000     -10.270055      -279.4624
  78   2.0000     -10.267676      -279.3977
  79   2.0000     -10.267549      -279.3942
  80   2.0000     -10.264105      -279.3005
  81   2.0000      -8.139742      -221.4936
  82   2.0000      -8.068322      -219.5502
  83   2.0000      -8.066234      -219.4934
  84   2.0000      -8.060450      -219.3360
  85   2.0000      -8.060087      -219.3261
  86   2.0000      -6.110887      -166.2857
  87   2.0000      -6.103122      -166.0744
  88   2.0000      -6.102411      -166.0550
  89   2.0000      -6.037517      -164.2892
  90   2.0000      -6.035387      -164.2312
  91   2.0000      -6.033524      -164.1805
  92   2.0000      -6.031431      -164.1236
  93   2.0000      -6.030505      -164.0984
  94   2.0000      -6.029985      -164.0842
  95   2.0000      -6.029656      -164.0753
  96   2.0000      -6.028440      -164.0422
  97   2.0000      -6.025502      -163.9623
  98   2.0000      -6.025081      -163.9508
  99   2.0000      -6.022476      -163.8799
 100   2.0000      -6.022185      -163.8720
 101   2.0000      -1.349697       -36.7271
 102   2.0000      -1.335583       -36.3431
 103   2.0000      -1.146432       -31.1960
 104   2.0000      -1.123160       -30.5627
 105   2.0000      -1.121473       -30.5168
 106   2.0000      -1.120697       -30.4957
 107   2.0000      -1.047122       -28.4937
 108   2.0000      -1.021744       -27.8031
 109   2.0000      -1.020962       -27.7818
 110   2.0000      -1.011884       -27.5348
 111   2.0000      -1.009011       -27.4566
 112   2.0000      -1.003763       -27.3138
 113   2.0000      -0.992471       -27.0065
 114   2.0000      -0.991792       -26.9880
 115   2.0000      -0.990308       -26.9476
 116   2.0000      -0.987960       -26.8838
 117   2.0000      -0.983874       -26.7726
 118   2.0000      -0.979538       -26.6546
 119   2.0000      -0.969880       -26.3918
 120   2.0000      -0.964921       -26.2568
 121   2.0000      -0.962621       -26.1943
 122   2.0000      -0.936085       -25.4722
 123   2.0000      -0.929774       -25.3004
 124   2.0000      -0.917617       -24.9696
 125   2.0000      -0.915385       -24.9089
 126   2.0000      -0.896881       -24.4054
 127   2.0000      -0.894899       -24.3514
 128   2.0000      -0.892322       -24.2813
 129   2.0000      -0.891764       -24.2661
 130   2.0000      -0.878240       -23.8981
 131   2.0000      -0.876079       -23.8393
 132   2.0000      -0.874118       -23.7860
 133   2.0000      -0.871785       -23.7225
 134   2.0000      -0.856057       -23.2945
 135   2.0000      -0.845355       -23.0033
 136   2.0000      -0.839837       -22.8531
 137   2.0000      -0.836765       -22.7695
 138   2.0000      -0.829564       -22.5736
 139   2.0000      -0.828256       -22.5380
 140   2.0000      -0.823119       -22.3982
 141   2.0000      -0.822328       -22.3767
 142   2.0000      -0.820769       -22.3343
 143   2.0000      -0.809983       -22.0407
 144   2.0000      -0.802907       -21.8482
 145   2.0000      -0.785652       -21.3787
 146   2.0000      -0.779509       -21.2115
 147   2.0000      -0.779085       -21.2000
 148   2.0000      -0.777873       -21.1670
 149   2.0000      -0.757568       -20.6145
 150   2.0000      -0.753841       -20.5131
 151   2.0000      -0.752491       -20.4763
 152   2.0000      -0.750430       -20.4202
 153   2.0000      -0.733623       -19.9629
 154   2.0000      -0.720213       -19.5980
 155   2.0000      -0.709135       -19.2966
 156   2.0000      -0.707403       -19.2494
 157   2.0000      -0.704230       -19.1631
 158   2.0000      -0.697280       -18.9739
 159   2.0000      -0.696581       -18.9549
 160   2.0000      -0.691574       -18.8187
 161   2.0000      -0.689428       -18.7603
 162   2.0000      -0.686073       -18.6690
 163   2.0000      -0.682186       -18.5632
 164   2.0000      -0.671920       -18.2839
 165   2.0000      -0.669382       -18.2148
 166   2.0000      -0.668928       -18.2025
 167   2.0000      -0.661560       -18.0020
 168   2.0000      -0.649181       -17.6651
 169   2.0000      -0.644259       -17.5312
 170   2.0000      -0.636988       -17.3333
 171   2.0000      -0.635047       -17.2805
 172   2.0000      -0.633788       -17.2463
 173   2.0000      -0.631485       -17.1836
 174   2.0000      -0.628665       -17.1069
 175   2.0000      -0.627077       -17.0636
 176   2.0000      -0.625297       -17.0152
 177   2.0000      -0.624510       -16.9938
 178   2.0000      -0.619545       -16.8587
 179   2.0000      -0.608088       -16.5469
 180   2.0000      -0.601978       -16.3807
 181   2.0000      -0.599160       -16.3040
 182   2.0000      -0.593766       -16.1572
 183   2.0000      -0.590748       -16.0751
 184   2.0000      -0.585159       -15.9230
 185   2.0000      -0.577063       -15.7027
 186   2.0000      -0.573662       -15.6101
 187   2.0000      -0.572473       -15.5778
 188   2.0000      -0.567343       -15.4382
 189   2.0000      -0.563682       -15.3386
 190   2.0000      -0.559511       -15.2251
 191   2.0000      -0.557215       -15.1626
 192   2.0000      -0.550870       -14.9899
 193   2.0000      -0.544462       -14.8156
 194   2.0000      -0.542178       -14.7534
 195   2.0000      -0.540983       -14.7209
 196   2.0000      -0.540207       -14.6998
 197   2.0000      -0.539569       -14.6824
 198   2.0000      -0.536307       -14.5937
 199   2.0000      -0.534462       -14.5434
 200   2.0000      -0.534129       -14.5344
 201   2.0000      -0.530023       -14.4226
 202   2.0000      -0.528327       -14.3765
 203   2.0000      -0.527387       -14.3509
 204   2.0000      -0.526378       -14.3235
 205   2.0000      -0.525466       -14.2987
 206   2.0000      -0.523345       -14.2410
 207   2.0000      -0.519183       -14.1277
 208   2.0000      -0.515156       -14.0181
 209   2.0000      -0.514377       -13.9969
 210   2.0000      -0.514197       -13.9920
 211   2.0000      -0.511997       -13.9321
 212   2.0000      -0.510446       -13.8899
 213   2.0000      -0.506562       -13.7843
 214   2.0000      -0.506432       -13.7807
 215   2.0000      -0.505889       -13.7659
 216   2.0000      -0.499893       -13.6028
 217   2.0000      -0.496523       -13.5111
 218   2.0000      -0.495748       -13.4900
 219   2.0000      -0.492676       -13.4064
 220   2.0000      -0.491746       -13.3811
 221   2.0000      -0.489841       -13.3293
 222   2.0000      -0.488137       -13.2829
 223   2.0000      -0.487005       -13.2521
 224   2.0000      -0.484045       -13.1715
 225   2.0000      -0.483554       -13.1582
 226   2.0000      -0.481345       -13.0981
 227   2.0000      -0.478328       -13.0160
 228   2.0000      -0.477890       -13.0041
 229   2.0000      -0.475690       -12.9442
 230   2.0000      -0.472641       -12.8612
 231   2.0000      -0.469399       -12.7730
 232   2.0000      -0.465550       -12.6683
 233   2.0000      -0.463623       -12.6158
 234   2.0000      -0.460904       -12.5418
 235   2.0000      -0.459533       -12.5045
 236   2.0000      -0.458484       -12.4760
 237   2.0000      -0.457420       -12.4470
 238   2.0000      -0.448284       -12.1984
 239   2.0000      -0.447634       -12.1807
 240   2.0000      -0.444925       -12.1070
 241   2.0000      -0.442153       -12.0316
 242   2.0000      -0.441217       -12.0061
 243   2.0000      -0.439948       -11.9716
 244   2.0000      -0.438905       -11.9432
 245   2.0000      -0.435730       -11.8568
 246   2.0000      -0.434360       -11.8195
 247   2.0000      -0.433967       -11.8088
 248   2.0000      -0.432421       -11.7668
 249   2.0000      -0.430701       -11.7200
 250   2.0000      -0.428310       -11.6549
 251   2.0000      -0.425748       -11.5852
 252   2.0000      -0.425395       -11.5756
 253   2.0000      -0.425079       -11.5670
 254   2.0000      -0.424997       -11.5648
 255   2.0000      -0.424900       -11.5621
 256   2.0000      -0.422999       -11.5104
 257   2.0000      -0.421213       -11.4618
 258   2.0000      -0.418795       -11.3960
 259   2.0000      -0.417246       -11.3539
 260   2.0000      -0.414595       -11.2817
 261   2.0000      -0.411011       -11.1842
 262   2.0000      -0.410356       -11.1663
 263   2.0000      -0.408730       -11.1221
 264   2.0000      -0.407184       -11.0800
 265   2.0000      -0.404974       -11.0199
 266   2.0000      -0.403162       -10.9706
 267   2.0000      -0.397683       -10.8215
 268   2.0000      -0.395195       -10.7538
 269   2.0000      -0.393918       -10.7190
 270   2.0000      -0.378031       -10.2867
 271   2.0000      -0.375305       -10.2126
 272   2.0000      -0.369471       -10.0538
 273   2.0000      -0.367468        -9.9993
 274   2.0000      -0.364624        -9.9219
 275   2.0000      -0.363363        -9.8876
 276   2.0000      -0.349882        -9.5208
 277   2.0000      -0.345908        -9.4126
 278   2.0000      -0.332529        -9.0486
 279   2.0000      -0.332325        -9.0430
 280   2.0000      -0.331030        -9.0078
 281   2.0000      -0.330107        -8.9827
 282   2.0000      -0.326638        -8.8883
 283   2.0000      -0.325044        -8.8449
 284   2.0000      -0.322611        -8.7787
 285   2.0000      -0.311367        -8.4727
 286   2.0000      -0.309362        -8.4182
 287   2.0000      -0.296468        -8.0673
 288   2.0000      -0.289819        -7.8864
 289   2.0000      -0.285193        -7.7605
 290   2.0000      -0.260560        -7.0902
 291   2.0000      -0.228760        -6.2249
 292   0.0000      -0.125234        -3.4078
 293   0.0000      -0.086883        -2.3642
 294   0.0000      -0.082769        -2.2523
 295   0.0000      -0.051128        -1.3913
 296   0.0000      -0.050896        -1.3850

MULLIKEN ATOMIC CHARGES
-----------------------
   0 C :   -0.016970
   1 C :    0.032797
   2 C :    0.034166
   3 C :   -0.019840
   4 C :    0.094307
   5 C :   -0.086748
   6 C :    0.034716
   7 C :    0.015369
   8 C :   -0.084619
   9 C :    0.094890
  10 C :    0.136863
  11 O :   -0.149573
  12 C :   -0.155475
  13 C :    0.273946
  14 C :   -0.351432
  15 C :   -0.205024
  16 N :    0.166104
  17 C :   -0.175682
  18 N :    0.146311
  19 C :    0.085434
  20 C :   -0.114782
  21 C :    0.006946
  22 C :   -0.002397
  23 C :   -0.066701
  24 S :    0.179546
  25 C :   -0.052379
  26 C :    0.041660
  27 C :   -0.111050
  28 C :    0.111082
  29 C :    0.105054
  30 C :   -0.063853
  31 C :   -0.179089
  32 S :    0.176069
  33 C :    0.175790
  34 C :   -0.059828
  35 C :   -0.076458
  36 N :    0.003870
  37 C :    0.140888
  38 C :    0.154025
  39 N :   -0.045332
  40 F :   -0.135889
  41 F :   -0.144079
  42 C :    0.202799
  43 C :   -0.029790
  44 C :   -0.001693
  45 N :   -0.293722
  46 S :    0.554402
  47 N :   -0.326599
  48 C :   -0.183367
  49 C :   -0.067522
  50 C :    0.050715
  51 C :   -0.059177
  52 S :    0.176451
  53 C :   -0.066710
  54 C :    0.000316
  55 C :   -0.106449
  56 C :    0.100758
  57 C :    0.107136
  58 C :   -0.016807
  59 C :   -0.113277
  60 S :    0.170271
  61 C :    0.039314
  62 C :   -0.099216
  63 C :    0.327119
  64 C :   -0.371472
  65 C :   -0.184875
  66 N :    0.140250
  67 C :   -0.184773
  68 N :    0.141334
  69 C :    0.046284
  70 C :    0.001238
  71 C :   -0.085162
  72 C :    0.098375
  73 C :   -0.017778
  74 C :    0.033313
  75 C :    0.034227
  76 C :   -0.018317
  77 C :    0.093123
  78 C :   -0.082919
  79 C :    0.156029
  80 O :   -0.168222
  81 H :   -0.017876
  82 H :   -0.006292
  83 H :   -0.006074
  84 H :   -0.010993
  85 H :   -0.007746
  86 H :   -0.012721
  87 H :    0.018778
  88 H :   -0.002311
  89 H :    0.034858
  90 H :    0.014665
  91 H :    0.011324
  92 H :    0.019276
  93 H :    0.013709
  94 H :    0.012454
  95 H :   -0.007486
  96 H :   -0.004550
  97 H :    0.021218
  98 H :    0.014554
  99 H :    0.020412
 100 H :    0.019521
 101 H :    0.020423
 102 H :    0.013785
 103 H :    0.007834
 104 H :   -0.002769
 105 H :   -0.017802
 106 H :   -0.020450
 107 H :   -0.006622
 108 H :   -0.007461
 109 H :   -0.009265
 110 H :   -0.010638
Sum of atomic charges:   -0.0000000

LOEWDIN ATOMIC CHARGES
----------------------
   0 C :   -0.010234
   1 C :   -0.015278
   2 C :   -0.015349
   3 C :   -0.007742
   4 C :   -0.006743
   5 C :    0.012389
   6 C :   -0.022498
   7 C :   -0.055437
   8 C :    0.029608
   9 C :   -0.010058
  10 C :    0.081206
  11 O :   -0.151032
  12 C :   -0.106106
  13 C :    0.067212
  14 C :   -0.153621
  15 C :   -0.017731
  16 N :   -0.050439
  17 C :   -0.021085
  18 N :   -0.061399
  19 C :    0.045983
  20 C :   -0.179648
  21 C :   -0.007712
  22 C :   -0.029519
  23 C :   -0.166860
  24 S :    0.466369
  25 C :   -0.197571
  26 C :   -0.026836
  27 C :   -0.036058
  28 C :   -0.021271
  29 C :   -0.024645
  30 C :   -0.036664
  31 C :   -0.159344
  32 S :    0.479040
  33 C :   -0.042905
  34 C :   -0.016196
  35 C :   -0.007354
  36 N :   -0.029701
  37 C :    0.058898
  38 C :    0.061655
  39 N :   -0.052600
  40 F :   -0.025414
  41 F :   -0.032618
  42 C :   -0.049899
  43 C :   -0.046610
  44 C :   -0.038021
  45 N :   -0.277367
  46 S :    0.673608
  47 N :   -0.298860
  48 C :   -0.153238
  49 C :   -0.041250
  50 C :   -0.024471
  51 C :   -0.202794
  52 S :    0.480216
  53 C :   -0.165474
  54 C :   -0.039413
  55 C :   -0.036127
  56 C :   -0.023878
  57 C :   -0.022909
  58 C :   -0.004943
  59 C :   -0.175365
  60 S :    0.461203
  61 C :    0.043151
  62 C :   -0.109347
  63 C :    0.078115
  64 C :   -0.151765
  65 C :   -0.016678
  66 N :   -0.063894
  67 C :   -0.024254
  68 N :   -0.060565
  69 C :   -0.025291
  70 C :   -0.053509
  71 C :    0.027427
  72 C :   -0.009409
  73 C :   -0.011560
  74 C :   -0.014952
  75 C :   -0.016336
  76 C :   -0.005818
  77 C :   -0.007545
  78 C :    0.017538
  79 C :    0.087014
  80 O :   -0.155938
  81 H :    0.031367
  82 H :    0.032012
  83 H :    0.032338
  84 H :    0.033708
  85 H :    0.037714
  86 H :    0.038658
  87 H :    0.044609
  88 H :    0.035518
  89 H :    0.035419
  90 H :    0.025677
  91 H :    0.024206
  92 H :    0.029046
  93 H :    0.025705
  94 H :    0.024535
  95 H :    0.029304
  96 H :    0.029237
  97 H :    0.029733
  98 H :    0.025225
  99 H :    0.027763
 100 H :    0.029635
 101 H :    0.027878
 102 H :    0.025182
 103 H :    0.034555
 104 H :    0.041553
 105 H :    0.036711
 106 H :    0.030577
 107 H :    0.031752
 108 H :    0.032052
 109 H :    0.034428
 110 H :    0.038417

  Mayer bond orders larger than 0.100000
B(  0-C ,  1-C ) :   1.4879 B(  0-C ,  9-C ) :   1.2474 B(  0-C , 81-H ) :   0.9973
B(  1-C ,  2-C ) :   1.2629 B(  1-C , 82-H ) :   0.9887 B(  2-C ,  3-C ) :   1.4877
B(  2-C , 83-H ) :   0.9884 B(  3-C ,  4-C ) :   1.2439 B(  3-C , 84-H ) :   0.9971
B(  4-C ,  5-C ) :   1.1999 B(  4-C ,  9-C ) :   1.2600 B(  5-C ,  6-C ) :   1.4632
B(  5-C , 85-H ) :   0.9933 B(  6-C ,  7-C ) :   1.2151 B(  6-C , 13-C ) :   0.9960
B(  7-C ,  8-C ) :   1.4813 B(  7-C , 10-C ) :   0.9190 B(  8-C ,  9-C ) :   1.1799
B(  8-C , 86-H ) :   1.0156 B( 10-C , 11-O ) :   2.2604 B( 10-C , 12-C ) :   0.9521
B( 12-C , 13-C ) :   1.0660 B( 12-C , 19-C ) :   1.6010 B( 13-C , 14-C ) :   1.6154
B( 14-C , 15-C ) :   1.1735 B( 14-C , 17-C ) :   1.1335 B( 15-C , 16-N ) :   2.9842
B( 17-C , 18-N ) :   2.9829 B( 19-C , 20-C ) :   1.1899 B( 19-C , 87-H ) :   0.9264
B( 20-C , 21-C ) :   1.3499 B( 20-C , 24-S ) :   1.0858 B( 21-C , 22-C ) :   1.4147
B( 21-C , 88-H ) :   0.9879 B( 22-C , 23-C ) :   1.4583 B( 22-C , 27-C ) :   0.9359
B( 23-C , 24-S ) :   1.1189 B( 23-C , 25-C ) :   1.2040 B( 25-C , 26-C ) :   1.4695
B( 25-C , 32-S ) :   1.0451 B( 26-C , 27-C ) :   0.9331 B( 26-C , 30-C ) :   1.3197
B( 27-C , 28-C ) :   1.0372 B( 27-C , 29-C ) :   1.0395 B( 28-C , 89-H ) :   0.9613
B( 28-C , 90-H ) :   0.9632 B( 28-C , 91-H ) :   0.9634 B( 29-C , 92-H ) :   0.9641
B( 29-C , 93-H ) :   0.9642 B( 29-C , 94-H ) :   0.9645 B( 30-C , 31-C ) :   1.3998
B( 30-C , 95-H ) :   0.9916 B( 31-C , 32-S ) :   1.0996 B( 31-C , 33-C ) :   1.2099
B( 33-C , 34-C ) :   1.2795 B( 33-C , 42-C ) :   0.1225 B( 33-C , 44-C ) :   1.1946
B( 34-C , 35-C ) :   1.1139 B( 34-C , 39-N ) :   1.3899 B( 35-C , 36-N ) :   1.4348
B( 35-C , 42-C ) :   1.2891 B( 36-N , 37-C ) :   1.6620 B( 37-C , 38-C ) :   1.1121
B( 37-C , 41-F ) :   1.1707 B( 38-C , 39-N ) :   1.6485 B( 38-C , 40-F ) :   1.1868
B( 42-C , 43-C ) :   1.1816 B( 42-C , 48-C ) :   1.1935 B( 43-C , 44-C ) :   1.1114
B( 43-C , 47-N ) :   1.4812 B( 44-C , 45-N ) :   1.5092 B( 45-N , 46-S ) :   1.2765
B( 45-N , 47-N ) :   0.1511 B( 46-S , 47-N ) :   1.2695 B( 48-C , 49-C ) :   1.3956
B( 48-C , 52-S ) :   1.1134 B( 49-C , 50-C ) :   1.3113 B( 49-C , 96-H ) :   0.9976
B( 50-C , 51-C ) :   1.4650 B( 50-C , 55-C ) :   0.9398 B( 51-C , 52-S ) :   1.0512
B( 51-C , 53-C ) :   1.2005 B( 53-C , 54-C ) :   1.4341 B( 53-C , 60-S ) :   1.1275
B( 54-C , 55-C ) :   0.9334 B( 54-C , 58-C ) :   1.3557 B( 55-C , 56-C ) :   1.0382
B( 55-C , 57-C ) :   1.0359 B( 56-C , 97-H ) :   0.9641 B( 56-C , 98-H ) :   0.9643
B( 56-C , 99-H ) :   0.9647 B( 57-C ,100-H ) :   0.9632 B( 57-C ,101-H ) :   0.9649
B( 57-C ,102-H ) :   0.9645 B( 58-C , 59-C ) :   1.3569 B( 58-C ,103-H ) :   0.9823
B( 59-C , 60-S ) :   1.0718 B( 59-C , 61-C ) :   1.2700 B( 61-C , 62-C ) :   1.5353
B( 61-C ,104-H ) :   0.9033 B( 62-C , 63-C ) :   1.1038 B( 62-C , 79-C ) :   0.9483
B( 63-C , 64-C ) :   1.5937 B( 63-C , 69-C ) :   0.9771 B( 64-C , 65-C ) :   1.1561
B( 64-C , 67-C ) :   1.1415 B( 65-C , 66-N ) :   2.9565 B( 67-C , 68-N ) :   2.9546
B( 69-C , 70-C ) :   1.2175 B( 69-C , 78-C ) :   1.4531 B( 70-C , 71-C ) :   1.4715
B( 70-C , 79-C ) :   0.9566 B( 71-C , 72-C ) :   1.1753 B( 71-C ,105-H ) :   1.0163
B( 72-C , 73-C ) :   1.2436 B( 72-C , 77-C ) :   1.2599 B( 73-C , 74-C ) :   1.4881
B( 73-C ,106-H ) :   0.9976 B( 74-C , 75-C ) :   1.2612 B( 74-C ,107-H ) :   0.9889
B( 75-C , 76-C ) :   1.4861 B( 75-C ,108-H ) :   0.9890 B( 76-C , 77-C ) :   1.2426
B( 76-C ,109-H ) :   0.9974 B( 77-C , 78-C ) :   1.2023 B( 78-C ,110-H ) :   0.9891
B( 79-C , 80-O ) :   2.1474 B( 80-O ,103-H ) :   0.1023

-----------------------------------------------------------------------------
         ABSORPTION SPECTRUM VIA TRANSITION ELECTRIC DIPOLE MOMENTS
-----------------------------------------------------------------------------
State   Energy  Wavelength   fosc         T2         TX        TY        TZ
        (cm-1)    (nm)                  (au**2)     (au)      (au)      (au)
-----------------------------------------------------------------------------
   0    8385.4   1192.5   1.286605948  50.51215   6.87279  -1.71016   0.59349
   1   16365.3    611.0   0.038660148   0.77770   0.32693  -0.31438  -0.75630
   2   17706.9    564.8   0.914035252  16.99401  -4.05100   0.74317  -0.17628
   3   18675.5    535.5   0.672118131  11.84813   3.15002  -0.53780   1.27916
   4   23504.5    425.5   0.083390695   1.16800   1.06570  -0.07666   0.16250
   5   25085.7    398.6   0.004938545   0.06481  -0.04890   0.02451  -0.24863
   6   25135.6    397.8   0.079765790   1.04473  -0.86625   0.51378  -0.17428
   7   25369.4    394.2   0.014068100   0.18256  -0.07242   0.41219   0.08611
   8   25996.5    384.7   0.208655300   2.64235   1.25173  -1.02958   0.12440
   9   26229.8    381.2   0.147511210   1.85142  -1.08233   0.00502   0.82460
  10   26410.4    378.6   0.009748507   0.12152  -0.18666   0.11913   0.26923
  11   26560.3    376.5   0.002718631   0.03370  -0.00642  -0.14758   0.10898
  12   27096.3    369.1   0.111791599   1.35823   1.13410  -0.25835  -0.07281
  13   27284.8    366.5   0.035161043   0.42424   0.63398   0.02147   0.14782
  14   28271.5    353.7   0.049880447   0.58084   0.51899  -0.52365   0.19309
  15   28804.5    347.2   0.034858302   0.39840   0.52032  -0.35720  -0.00867
  16   28965.6    345.2   0.000822937   0.00935   0.01359  -0.09510   0.01112
  17   29489.1    339.1   0.020100557   0.22440   0.13925  -0.27183   0.36210
  18   29673.6    337.0   0.058479189   0.64879  -0.26543  -0.24793   0.71894
  19   30323.8    329.8   0.250615545   2.72082  -1.57313   0.49051   0.07401
  20   30399.4    329.0   0.005731800   0.06207  -0.22248   0.10969  -0.02332
  21   30688.3    325.9   0.026002253   0.27894  -0.35267  -0.27225  -0.28363
  22   31015.2    322.4   0.194966266   2.06947   1.19877  -0.30416  -0.73479
  23   31193.9    320.6   0.008946860   0.09442   0.11992  -0.27864  -0.04899
  24   31210.7    320.4   0.062259581   0.65672  -0.35445   0.69686   0.21324
  25   31414.3    318.3   0.012481618   0.13080   0.30685  -0.10360   0.16098
  26   31781.1    314.7   0.027363681   0.28345  -0.07640  -0.12840   0.51101
  27   32316.5    309.4   0.159617330   1.62604   0.15366  -0.33238   1.22145
  28   32461.7    308.1   0.222707458   2.25860   1.19315  -0.46424  -0.78707
  29   33065.8    302.4   0.048635775   0.48423   0.03896   0.60231  -0.34631
  30   33676.3    296.9   0.150204719   1.46837  -0.04601  -0.82102   0.89005
  31   34124.3    293.0   0.045710551   0.44099   0.61232  -0.25548  -0.02801
  32   34200.9    292.4   0.087408954   0.84138   0.54573  -0.43541  -0.59496
  33   34518.3    289.7   0.171597427   1.63658  -1.02850   0.42131   0.63344
  34   34736.6    287.9   0.093997073   0.89085   0.71540  -0.10343  -0.60692
  35   34947.0    286.1   0.057150829   0.53838  -0.16987  -0.08087   0.70921
  36   35206.7    284.0   0.040643404   0.38005   0.38489  -0.47966   0.04292
  37   35486.8    281.8   0.026730577   0.24798  -0.46200  -0.08173   0.16690
  38   35723.1    279.9   0.422433529   3.89301   1.02238  -1.25125   1.13231
  39   35850.0    278.9   0.091238843   0.83785  -0.35789   0.36772   0.75799
  40   35940.9    278.2   0.357340040   3.27317   0.99092   0.20356  -1.49994
  41   36048.4    277.4   0.037487195   0.34235   0.03300  -0.49872  -0.30420
  42   36652.6    272.8   0.167924381   1.50829   0.79138  -0.67365  -0.65437
  43   36930.2    270.8   0.236890349   2.11175  -0.90767   0.29044   1.09705
  44   37014.1    270.2   0.040979598   0.36448   0.32064  -0.07242  -0.50638
  45   37207.6    268.8   0.007928136   0.07015  -0.07826   0.18319  -0.17455
  46   37322.8    267.9   0.041717270   0.36797  -0.31419   0.51811  -0.02864
  47   37429.7    267.2   0.002206370   0.01941  -0.12575  -0.04299   0.04176
  48   38128.3    262.3   0.014281328   0.12331   0.03752   0.04767  -0.34587
  49   38670.5    258.6   0.007881123   0.06709  -0.03294   0.08620  -0.24203
  50   38861.3    257.3   0.019952517   0.16903   0.15922  -0.25042   0.28454
  51   39262.8    254.7   0.019307641   0.16189  -0.18528  -0.24019   0.26433
  52   39317.7    254.3   0.191803860   1.60600   0.17195  -0.34735   1.20656
  53   39398.8    253.8   0.121935567   1.01888  -0.02891   0.13065  -1.00049
  54   39785.5    251.3   0.013818512   0.11434  -0.15341  -0.15460  -0.25866
  55   40058.7    249.6   0.033016142   0.27133  -0.30157  -0.01880  -0.42431
  56   40087.5    249.5   0.004192761   0.03443  -0.04356   0.08099  -0.16117

FINAL SINGLE POINT ENERGY     -5231.229153855810

DIPOLE MOMENT
-------------
                                X             Y             Z
Electronic contribution:     -4.23884      -8.82443     -13.71388
Nuclear contribution   :      3.99447      10.44535      12.47183
                        -----------------------------------------
Total Dipole Moment    :     -0.24437       1.62093      -1.24205
                        -----------------------------------------
Magnitude (a.u.)       :      2.05665
Magnitude (Debye)      :      5.22759

Rotational constants in cm-1:     0.002625     0.000143     0.000138
Rotational constants in MHz :    78.697347     4.282004     4.137426

                             ****ORCA TERMINATED NORMALLY****
TOTAL RUN TIME: 0 days 0 hours 11 minutes 41 seconds 609 msec
