                         Program Version 4.2.0 -  RELEASE  -
|  1> # ORCA input file
|  2> # SCF done       -204.258432268166          0.000807235919
|  3> ! CAM-B3LYP def2-SVP def2/J RIJCOSX Grid4 TightSCF
|  4> %maxcore 5000
|  5> %tddft
|  6>     Mode sTDDFT
|  7>     Ethresh 5.0
|  8>     maxcore 5000
|  9> end
| 10>
| 11> %pal
| 12>   nprocs 6
| 13>   end
| 14> * xyz 0 1
| 15>    C       -0.67823         1.90818         6.66774
| 16>    C       -0.58587         2.45232         7.92250
| 17>    C        0.53935         2.31466         8.76207
| 18>    N        1.42662         2.24462         9.48693
| 19>    C       -1.60898         3.18255         8.56314
| 20>    N       -2.40445         3.76483         9.15214
| 21>    C        0.31681         1.05774         6.03151
| 22>    C       -0.22255         0.55916         4.81903
| 23>    C        0.47781        -0.28131         3.98729
| 24>    C        1.77172        -0.64718         4.36918
| 25>    C        2.30435        -0.14072         5.57998
| 26>    C        1.59607         0.70862         6.42164
| 27>    S        3.91873        -0.71804         5.84588
| 28>    C        3.86763        -1.61507         4.36810
| 29>    C        2.69992        -1.49311         3.69972
| 30>    C       -1.58435         1.08484         4.62587
| 31>    O       -2.31029         0.86883         3.67978
| 32>    C       -1.82440         1.99404         5.77864
| 33>    C       -2.82533         2.91573         5.88490
| 34>    C       -4.02045         3.00295         5.13623
| 35>    C       -4.72726         2.03826         4.43240
| 36>    C       -5.89405         2.54789         3.87540
| 37>    C       -6.08075         3.91995         4.14483
| 38>    S       -4.84524         4.56427         5.11915
| 39>    C       -7.26712         4.34600         3.50139
| 40>    C       -7.84467         3.24444         2.83966
| 41>    C       -6.99849         2.07868         3.05196
| 42>    C       -7.18676         0.81651         2.57573
| 43>    C       -6.31471        -0.25002         2.89069
| 44>    N       -5.63779        -1.13873         3.14653
| 45>    C       -8.26287         0.45935         1.73246
| 46>    N       -9.10756         0.13747         1.02818
| 47>    C       -9.03289         3.56450         2.18728
| 48>    C       -9.34884         4.90602         2.33259
| 49>    S       -8.17012         5.77780         3.30057
| 50>    C      -10.46387         5.59031         1.78792
| 51>    C      -11.56554         5.09586         1.12502
| 52>    C      -12.11275         3.79304         0.71661
| 53>    O      -11.67815         2.67808         0.86464
| 54>    N      -13.31375         4.09302         0.07746
| 55>    C      -14.17650         3.08153        -0.48156
| 56>    C      -13.59935         5.44824         0.02705
| 57>    O      -14.58004         5.93993        -0.48285
| 58>    C      -12.47498         6.09454         0.70630
| 59>    C      -12.10598         7.38085         1.02032
| 60>    S      -10.57795         7.34209         1.88238
| 61>    C      -12.76226         8.59989         0.72942
| 62>    C      -12.29859         9.87345         1.02145
| 63>    C      -13.17620        10.85481         0.57517
| 64>    C      -14.31785        10.31538        -0.05125
| 65>    S      -14.31015         8.61053        -0.10244
| 66>    C      -15.14553        11.39051        -0.46840
| 67>    C      -14.51917        12.60193        -0.11489
| 68>    C      -13.26834        12.30523         0.56113
| 69>    C      -12.38936        13.20506         1.08844
| 70>    C      -11.19985        12.80320         1.73129
| 71>    N      -10.23330        12.46593         2.24745
| 72>    C      -12.62409        14.59415         1.00960
| 73>    N      -12.82567        15.72013         0.92968
| 74>    C      -15.26411        13.72070        -0.46505
| 75>    C      -16.46347        13.38096        -1.07326
| 76>    S      -16.63940        11.63826        -1.24194
| 77>    C      -17.47288        14.22778        -1.58544
| 78>    C      -17.70059        15.54368        -1.32820
| 79>    C      -17.21651        16.46725        -0.32171
| 80>    C      -16.85968        16.16630         0.96724
| 81>    C      -16.53407        17.13607         1.93922
| 82>    N      -16.26745        17.88264         2.76854
| 83>    C      -16.87136        14.86465         1.50391
| 84>    N      -16.89045        13.82398         1.98905
| 85>    C      -17.44329        17.81503        -0.83096
| 86>    C      -18.26658        17.73531        -1.98456
| 87>    C      -18.53683        16.32144        -2.29156
| 88>    O      -19.23957        15.86302        -3.16238
| 89>    C      -18.68776        18.85233        -2.66575
| 90>    C      -18.26707        20.10047        -2.19682
| 91>    C      -17.42873        20.16675        -1.05683
| 92>    C      -17.00966        19.03882        -0.36067
| 93>    S      -17.02170        21.80771        -0.67063
| 94>    C      -17.96162        22.38078        -2.00445
| 95>    C      -18.55404        21.39523        -2.71361
| 96>    H        0.03729        -0.64553         3.07223
| 97>    H        2.04680         1.07306         7.32967
| 98>    H        4.73005        -2.18749         4.08657
| 99>    H        2.48766        -1.97798         2.76416
|100>    H       -2.69447         3.71368         6.60695
|101>    H       -4.39921         1.01981         4.34692
|102>    H       -9.65247         2.87862         1.63609
|103>    H      -13.64418         2.13274        -0.44457
|104>    H      -14.42321         3.33820        -1.51165
|105>    H      -15.09969         3.01013         0.09567
|106>    H      -11.36668        10.05100         1.52848
|107>    H      -14.94132        14.73673        -0.32995
|108>    H      -18.12307        13.79404        -2.33954
|109>    H      -19.32173        18.76484        -3.53435
|110>    H      -16.36339        19.13451         0.49624
|111>    H      -18.01268        23.43802        -2.17859
|112>    H      -19.17498        21.56240        -3.57497
|113> *
|114>
|115>                          ****END OF INPUT****

CARTESIAN COORDINATES (ANGSTROEM)
---------------------------------
  C     -0.678230    1.908180    6.667740
  C     -0.585870    2.452320    7.922500
  C      0.539350    2.314660    8.762070
  N      1.426620    2.244620    9.486930
  C     -1.608980    3.182550    8.563140
  N     -2.404450    3.764830    9.152140
  C      0.316810    1.057740    6.031510
  C     -0.222550    0.559160    4.819030
  C      0.477810   -0.281310    3.987290
  C      1.771720   -0.647180    4.369180
  C      2.304350   -0.140720    5.579980
  C      1.596070    0.708620    6.421640
  S      3.918730   -0.718040    5.845880
  C      3.867630   -1.615070    4.368100
  C      2.699920   -1.493110    3.699720
  C     -1.584350    1.084840    4.625870
  O     -2.310290    0.868830    3.679780
  C     -1.824400    1.994040    5.778640
  C     -2.825330    2.915730    5.884900
  C     -4.020450    3.002950    5.136230
  C     -4.727260    2.038260    4.432400
  C     -5.894050    2.547890    3.875400
  C     -6.080750    3.919950    4.144830
  S     -4.845240    4.564270    5.119150
  C     -7.267120    4.346000    3.501390
  C     -7.844670    3.244440    2.839660
  C     -6.998490    2.078680    3.051960
  C     -7.186760    0.816510    2.575730
  C     -6.314710   -0.250020    2.890690
  N     -5.637790   -1.138730    3.146530
  C     -8.262870    0.459350    1.732460
  N     -9.107560    0.137470    1.028180
  C     -9.032890    3.564500    2.187280
  C     -9.348840    4.906020    2.332590
  S     -8.170120    5.777800    3.300570
  C    -10.463870    5.590310    1.787920
  C    -11.565540    5.095860    1.125020
  C    -12.112750    3.793040    0.716610
  O    -11.678150    2.678080    0.864640
  N    -13.313750    4.093020    0.077460
  C    -14.176500    3.081530   -0.481560
  C    -13.599350    5.448240    0.027050
  O    -14.580040    5.939930   -0.482850
  C    -12.474980    6.094540    0.706300
  C    -12.105980    7.380850    1.020320
  S    -10.577950    7.342090    1.882380
  C    -12.762260    8.599890    0.729420
  C    -12.298590    9.873450    1.021450
  C    -13.176200   10.854810    0.575170
  C    -14.317850   10.315380   -0.051250
  S    -14.310150    8.610530   -0.102440
  C    -15.145530   11.390510   -0.468400
  C    -14.519170   12.601930   -0.114890
  C    -13.268340   12.305230    0.561130
  C    -12.389360   13.205060    1.088440
  C    -11.199850   12.803200    1.731290
  N    -10.233300   12.465930    2.247450
  C    -12.624090   14.594150    1.009600
  N    -12.825670   15.720130    0.929680
  C    -15.264110   13.720700   -0.465050
  C    -16.463470   13.380960   -1.073260
  S    -16.639400   11.638260   -1.241940
  C    -17.472880   14.227780   -1.585440
  C    -17.700590   15.543680   -1.328200
  C    -17.216510   16.467250   -0.321710
  C    -16.859680   16.166300    0.967240
  C    -16.534070   17.136070    1.939220
  N    -16.267450   17.882640    2.768540
  C    -16.871360   14.864650    1.503910
  N    -16.890450   13.823980    1.989050
  C    -17.443290   17.815030   -0.830960
  C    -18.266580   17.735310   -1.984560
  C    -18.536830   16.321440   -2.291560
  O    -19.239570   15.863020   -3.162380
  C    -18.687760   18.852330   -2.665750
  C    -18.267070   20.100470   -2.196820
  C    -17.428730   20.166750   -1.056830
  C    -17.009660   19.038820   -0.360670
  S    -17.021700   21.807710   -0.670630
  C    -17.961620   22.380780   -2.004450
  C    -18.554040   21.395230   -2.713610
  H      0.037290   -0.645530    3.072230
  H      2.046800    1.073060    7.329670
  H      4.730050   -2.187490    4.086570
  H      2.487660   -1.977980    2.764160
  H     -2.694470    3.713680    6.606950
  H     -4.399210    1.019810    4.346920
  H     -9.652470    2.878620    1.636090
  H    -13.644180    2.132740   -0.444570
  H    -14.423210    3.338200   -1.511650
  H    -15.099690    3.010130    0.095670
  H    -11.366680   10.051000    1.528480
  H    -14.941320   14.736730   -0.329950
  H    -18.123070   13.794040   -2.339540
  H    -19.321730   18.764840   -3.534350
  H    -16.363390   19.134510    0.496240
  H    -18.012680   23.438020   -2.178590
  H    -19.174980   21.562400   -3.574970

 Total Charge           Charge          ....    0
 Multiplicity           Mult            ....    1
 Number of Electrons    NEL             ....  590
 Basis Dimension        Dim             .... 1247

ORBITAL ENERGIES
----------------

  NO   OCC          E(Eh)            E(eV)
   0   2.0000     -89.003125     -2421.8982
   1   2.0000     -88.998737     -2421.7787
   2   2.0000     -88.998690     -2421.7775
   3   2.0000     -88.997099     -2421.7342
   4   2.0000     -88.995867     -2421.7006
   5   2.0000     -88.967767     -2420.9360
   6   2.0000     -88.967735     -2420.9351
   7   2.0000     -19.226379      -523.1764
   8   2.0000     -19.225579      -523.1546
   9   2.0000     -19.219364      -522.9855
  10   2.0000     -19.217166      -522.9257
  11   2.0000     -14.470390      -393.7593
  12   2.0000     -14.436281      -392.8312
  13   2.0000     -14.435960      -392.8224
  14   2.0000     -14.431697      -392.7064
  15   2.0000     -14.430830      -392.6828
  16   2.0000     -14.419591      -392.3770
  17   2.0000     -14.417055      -392.3080
  18   2.0000     -14.415757      -392.2727
  19   2.0000     -14.415074      -392.2541
  20   2.0000     -10.408870      -283.2398
  21   2.0000     -10.408332      -283.2251
  22   2.0000     -10.371347      -282.2187
  23   2.0000     -10.370836      -282.2048
  24   2.0000     -10.370731      -282.2019
  25   2.0000     -10.368336      -282.1368
  26   2.0000     -10.358501      -281.8691
  27   2.0000     -10.356372      -281.8112
  28   2.0000     -10.355252      -281.7807
  29   2.0000     -10.354192      -281.7519
  30   2.0000     -10.347637      -281.5735
  31   2.0000     -10.345850      -281.5249
  32   2.0000     -10.345277      -281.5093
  33   2.0000     -10.345011      -281.5021
  34   2.0000     -10.344526      -281.4889
  35   2.0000     -10.343726      -281.4671
  36   2.0000     -10.342716      -281.4396
  37   2.0000     -10.342325      -281.4290
  38   2.0000     -10.340430      -281.3774
  39   2.0000     -10.338390      -281.3219
  40   2.0000     -10.336573      -281.2724
  41   2.0000     -10.336189      -281.2620
  42   2.0000     -10.331004      -281.1209
  43   2.0000     -10.330909      -281.1183
  44   2.0000     -10.330868      -281.1172
  45   2.0000     -10.329557      -281.0815
  46   2.0000     -10.329422      -281.0779
  47   2.0000     -10.326568      -281.0002
  48   2.0000     -10.322165      -280.8804
  49   2.0000     -10.321853      -280.8719
  50   2.0000     -10.320868      -280.8451
  51   2.0000     -10.320002      -280.8215
  52   2.0000     -10.318505      -280.7808
  53   2.0000     -10.317411      -280.7510
  54   2.0000     -10.315879      -280.7093
  55   2.0000     -10.315268      -280.6927
  56   2.0000     -10.315086      -280.6878
  57   2.0000     -10.315002      -280.6855
  58   2.0000     -10.314835      -280.6809
  59   2.0000     -10.313424      -280.6425
  60   2.0000     -10.312466      -280.6165
  61   2.0000     -10.312035      -280.6047
  62   2.0000     -10.311193      -280.5818
  63   2.0000     -10.310982      -280.5761
  64   2.0000     -10.310382      -280.5598
  65   2.0000     -10.309484      -280.5353
  66   2.0000     -10.308601      -280.5113
  67   2.0000     -10.308214      -280.5008
  68   2.0000     -10.307722      -280.4874
  69   2.0000     -10.304637      -280.4034
  70   2.0000     -10.304588      -280.4021
  71   2.0000     -10.303986      -280.3857
  72   2.0000     -10.303041      -280.3600
  73   2.0000     -10.302987      -280.3585
  74   2.0000     -10.302904      -280.3563
  75   2.0000     -10.300988      -280.3041
  76   2.0000     -10.299994      -280.2771
  77   2.0000     -10.292887      -280.0837
  78   2.0000     -10.291964      -280.0586
  79   2.0000     -10.290008      -280.0053
  80   2.0000     -10.289993      -280.0049
  81   2.0000      -8.097905      -220.3552
  82   2.0000      -8.093580      -220.2375
  83   2.0000      -8.093478      -220.2347
  84   2.0000      -8.090981      -220.1668
  85   2.0000      -8.090609      -220.1567
  86   2.0000      -8.064019      -219.4331
  87   2.0000      -8.063992      -219.4324
  88   2.0000      -6.067168      -165.0960
  89   2.0000      -6.062970      -164.9818
  90   2.0000      -6.062707      -164.9747
  91   2.0000      -6.062620      -164.9723
  92   2.0000      -6.060608      -164.9175
  93   2.0000      -6.060210      -164.9067
  94   2.0000      -6.059948      -164.8996
  95   2.0000      -6.058573      -164.8621
  96   2.0000      -6.058422      -164.8581
  97   2.0000      -6.056236      -164.7986
  98   2.0000      -6.056056      -164.7937
  99   2.0000      -6.056019      -164.7926
 100   2.0000      -6.055470      -164.7777
 101   2.0000      -6.052951      -164.7092
 102   2.0000      -6.052601      -164.6997
 103   2.0000      -6.033508      -164.1801
 104   2.0000      -6.033488      -164.1796
 105   2.0000      -6.029232      -164.0638
 106   2.0000      -6.029202      -164.0629
 107   2.0000      -6.025696      -163.9675
 108   2.0000      -6.025685      -163.9672
 109   2.0000      -1.172578       -31.9075
 110   2.0000      -1.149297       -31.2740
 111   2.0000      -1.135203       -30.8904
 112   2.0000      -1.132705       -30.8225
 113   2.0000      -1.064591       -28.9690
 114   2.0000      -1.054683       -28.6994
 115   2.0000      -1.053608       -28.6701
 116   2.0000      -1.029253       -28.0074
 117   2.0000      -1.026689       -27.9376
 118   2.0000      -1.023740       -27.8574
 119   2.0000      -1.022310       -27.8185
 120   2.0000      -1.021464       -27.7955
 121   2.0000      -1.013896       -27.5895
 122   2.0000      -1.010608       -27.5001
 123   2.0000      -1.009524       -27.4706
 124   2.0000      -1.008939       -27.4546
 125   2.0000      -1.007380       -27.4122
 126   2.0000      -1.000210       -27.2171
 127   2.0000      -0.995125       -27.0787
 128   2.0000      -0.995011       -27.0756
 129   2.0000      -0.986995       -26.8575
 130   2.0000      -0.986591       -26.8465
 131   2.0000      -0.968694       -26.3595
 132   2.0000      -0.964274       -26.2392
 133   2.0000      -0.935586       -25.4586
 134   2.0000      -0.934713       -25.4348
 135   2.0000      -0.927141       -25.2288
 136   2.0000      -0.922445       -25.1010
 137   2.0000      -0.908327       -24.7168
 138   2.0000      -0.905719       -24.6459
 139   2.0000      -0.899465       -24.4757
 140   2.0000      -0.888714       -24.1831
 141   2.0000      -0.882937       -24.0259
 142   2.0000      -0.882740       -24.0206
 143   2.0000      -0.880513       -23.9600
 144   2.0000      -0.879625       -23.9358
 145   2.0000      -0.867973       -23.6187
 146   2.0000      -0.865450       -23.5501
 147   2.0000      -0.864678       -23.5291
 148   2.0000      -0.856328       -23.3019
 149   2.0000      -0.824638       -22.4395
 150   2.0000      -0.824389       -22.4328
 151   2.0000      -0.819182       -22.2911
 152   2.0000      -0.812980       -22.1223
 153   2.0000      -0.806867       -21.9560
 154   2.0000      -0.794426       -21.6174
 155   2.0000      -0.786803       -21.4100
 156   2.0000      -0.780817       -21.2471
 157   2.0000      -0.778458       -21.1829
 158   2.0000      -0.762656       -20.7529
 159   2.0000      -0.759496       -20.6669
 160   2.0000      -0.753714       -20.5096
 161   2.0000      -0.742120       -20.1941
 162   2.0000      -0.727118       -19.7859
 163   2.0000      -0.717679       -19.5290
 164   2.0000      -0.712432       -19.3863
 165   2.0000      -0.705250       -19.1908
 166   2.0000      -0.701108       -19.0781
 167   2.0000      -0.696239       -18.9456
 168   2.0000      -0.692992       -18.8573
 169   2.0000      -0.691101       -18.8058
 170   2.0000      -0.688587       -18.7374
 171   2.0000      -0.686745       -18.6873
 172   2.0000      -0.682146       -18.5621
 173   2.0000      -0.679351       -18.4861
 174   2.0000      -0.664233       -18.0747
 175   2.0000      -0.663409       -18.0523
 176   2.0000      -0.659371       -17.9424
 177   2.0000      -0.650426       -17.6990
 178   2.0000      -0.642939       -17.4953
 179   2.0000      -0.638172       -17.3655
 180   2.0000      -0.635826       -17.3017
 181   2.0000      -0.627479       -17.0746
 182   2.0000      -0.624378       -16.9902
 183   2.0000      -0.621730       -16.9181
 184   2.0000      -0.620422       -16.8825
 185   2.0000      -0.616503       -16.7759
 186   2.0000      -0.606425       -16.5017
 187   2.0000      -0.602476       -16.3942
 188   2.0000      -0.600282       -16.3345
 189   2.0000      -0.595768       -16.2117
 190   2.0000      -0.592589       -16.1252
 191   2.0000      -0.587663       -15.9911
 192   2.0000      -0.581720       -15.8294
 193   2.0000      -0.576050       -15.6751
 194   2.0000      -0.571858       -15.5610
 195   2.0000      -0.560021       -15.2389
 196   2.0000      -0.556934       -15.1549
 197   2.0000      -0.556299       -15.1377
 198   2.0000      -0.555675       -15.1207
 199   2.0000      -0.554614       -15.0918
 200   2.0000      -0.548807       -14.9338
 201   2.0000      -0.544910       -14.8278
 202   2.0000      -0.544266       -14.8102
 203   2.0000      -0.541659       -14.7393
 204   2.0000      -0.540529       -14.7085
 205   2.0000      -0.536867       -14.6089
 206   2.0000      -0.535293       -14.5661
 207   2.0000      -0.533375       -14.5139
 208   2.0000      -0.529599       -14.4111
 209   2.0000      -0.528133       -14.3712
 210   2.0000      -0.525885       -14.3101
 211   2.0000      -0.521137       -14.1808
 212   2.0000      -0.520302       -14.1581
 213   2.0000      -0.515749       -14.0342
 214   2.0000      -0.514071       -13.9886
 215   2.0000      -0.511969       -13.9314
 216   2.0000      -0.510220       -13.8838
 217   2.0000      -0.509179       -13.8555
 218   2.0000      -0.506814       -13.7911
 219   2.0000      -0.504901       -13.7391
 220   2.0000      -0.502285       -13.6679
 221   2.0000      -0.499766       -13.5993
 222   2.0000      -0.499405       -13.5895
 223   2.0000      -0.497338       -13.5332
 224   2.0000      -0.495537       -13.4842
 225   2.0000      -0.494116       -13.4456
 226   2.0000      -0.493652       -13.4330
 227   2.0000      -0.492126       -13.3914
 228   2.0000      -0.490420       -13.3450
 229   2.0000      -0.488492       -13.2925
 230   2.0000      -0.487897       -13.2764
 231   2.0000      -0.485716       -13.2170
 232   2.0000      -0.484066       -13.1721
 233   2.0000      -0.478489       -13.0204
 234   2.0000      -0.474885       -12.9223
 235   2.0000      -0.473635       -12.8883
 236   2.0000      -0.471056       -12.8181
 237   2.0000      -0.468869       -12.7586
 238   2.0000      -0.466923       -12.7056
 239   2.0000      -0.463576       -12.6145
 240   2.0000      -0.461070       -12.5463
 241   2.0000      -0.458640       -12.4802
 242   2.0000      -0.456078       -12.4105
 243   2.0000      -0.455191       -12.3864
 244   2.0000      -0.454096       -12.3566
 245   2.0000      -0.452183       -12.3045
 246   2.0000      -0.451509       -12.2862
 247   2.0000      -0.449605       -12.2344
 248   2.0000      -0.448861       -12.2141
 249   2.0000      -0.446241       -12.1428
 250   2.0000      -0.444838       -12.1047
 251   2.0000      -0.444616       -12.0986
 252   2.0000      -0.443970       -12.0810
 253   2.0000      -0.441392       -12.0109
 254   2.0000      -0.440507       -11.9868
 255   2.0000      -0.439699       -11.9648
 256   2.0000      -0.439458       -11.9583
 257   2.0000      -0.436052       -11.8656
 258   2.0000      -0.435512       -11.8509
 259   2.0000      -0.433962       -11.8087
 260   2.0000      -0.433335       -11.7916
 261   2.0000      -0.431569       -11.7436
 262   2.0000      -0.428910       -11.6712
 263   2.0000      -0.428056       -11.6480
 264   2.0000      -0.426836       -11.6148
 265   2.0000      -0.425774       -11.5859
 266   2.0000      -0.423542       -11.5252
 267   2.0000      -0.421881       -11.4800
 268   2.0000      -0.412591       -11.2272
 269   2.0000      -0.411495       -11.1974
 270   2.0000      -0.406429       -11.0595
 271   2.0000      -0.405633       -11.0378
 272   2.0000      -0.398987       -10.8570
 273   2.0000      -0.385192       -10.4816
 274   2.0000      -0.379790       -10.3346
 275   2.0000      -0.376836       -10.2542
 276   2.0000      -0.373940       -10.1754
 277   2.0000      -0.368576       -10.0295
 278   2.0000      -0.364361        -9.9148
 279   2.0000      -0.360332        -9.8051
 280   2.0000      -0.358629        -9.7588
 281   2.0000      -0.355315        -9.6686
 282   2.0000      -0.348320        -9.4783
 283   2.0000      -0.345471        -9.4008
 284   2.0000      -0.341025        -9.2798
 285   2.0000      -0.335854        -9.1390
 286   2.0000      -0.328428        -8.9370
 287   2.0000      -0.327078        -8.9002
 288   2.0000      -0.316600        -8.6151
 289   2.0000      -0.315183        -8.5766
 290   2.0000      -0.313312        -8.5257
 291   2.0000      -0.296997        -8.0817
 292   2.0000      -0.295886        -8.0515
 293   2.0000      -0.279807        -7.6139
 294   2.0000      -0.257116        -6.9965
 295   0.0000      -0.119898        -3.2626
 296   0.0000      -0.113077        -3.0770
 297   0.0000      -0.090813        -2.4711
 298   0.0000      -0.089442        -2.4338
 299   0.0000      -0.068602        -1.8668

MULLIKEN ATOMIC CHARGES
-----------------------
   0 C :    0.292152
   1 C :   -0.343170
   2 C :   -0.184033
   3 N :    0.151890
   4 C :   -0.204169
   5 N :    0.158843
   6 C :    0.017498
   7 C :   -0.020712
   8 C :   -0.062343
   9 C :    0.112974
  10 C :   -0.094251
  11 C :   -0.021293
  12 S :    0.143227
  13 C :   -0.048823
  14 C :    0.026761
  15 C :    0.150478
  16 O :   -0.150082
  17 C :   -0.090494
  18 C :    0.023541
  19 C :   -0.111548
  20 C :    0.041950
  21 C :   -0.021631
  22 C :   -0.083621
  23 S :    0.209522
  24 C :   -0.097847
  25 C :    0.017634
  26 C :    0.311751
  27 C :   -0.292958
  28 C :   -0.188391
  29 N :    0.184050
  30 C :   -0.198360
  31 N :    0.196917
  32 C :   -0.052308
  33 C :   -0.069031
  34 S :    0.199702
  35 C :   -0.100588
  36 C :   -0.009819
  37 C :    0.200424
  38 O :   -0.156094
  39 N :   -0.306876
  40 C :    0.137531
  41 C :    0.185708
  42 O :   -0.179116
  43 C :   -0.028589
  44 C :   -0.085445
  45 S :    0.164705
  46 C :   -0.077178
  47 C :   -0.072706
  48 C :    0.031323
  49 C :   -0.094249
  50 S :    0.250546
  51 C :   -0.073458
  52 C :   -0.002685
  53 C :    0.306432
  54 C :   -0.285920
  55 C :   -0.187569
  56 N :    0.174349
  57 C :   -0.184172
  58 N :    0.168930
  59 C :   -0.005705
  60 C :   -0.109214
  61 S :    0.221024
  62 C :    0.078084
  63 C :   -0.129083
  64 C :    0.266014
  65 C :   -0.329891
  66 C :   -0.171164
  67 N :    0.160966
  68 C :   -0.200857
  69 N :    0.164760
  70 C :   -0.003779
  71 C :    0.004862
  72 C :    0.129406
  73 O :   -0.144925
  74 C :   -0.065262
  75 C :    0.106402
  76 C :   -0.093282
  77 C :   -0.016800
  78 S :    0.143860
  79 C :   -0.051917
  80 C :    0.028857
  81 H :   -0.009358
  82 H :   -0.005761
  83 H :    0.039449
  84 H :   -0.005682
  85 H :    0.026188
  86 H :    0.030302
  87 H :    0.030511
  88 H :    0.060703
  89 H :    0.042261
  90 H :    0.041870
  91 H :    0.014213
  92 H :    0.025183
  93 H :    0.022341
  94 H :   -0.010175
  95 H :    0.002212
  96 H :    0.040174
  97 H :   -0.006096
Sum of atomic charges:   -0.0000000

LOEWDIN ATOMIC CHARGES
----------------------
   0 C :    0.075256
   1 C :   -0.141008
   2 C :   -0.018643
   3 N :   -0.051697
   4 C :   -0.025271
   5 N :   -0.052218
   6 C :   -0.023063
   7 C :   -0.053303
   8 C :    0.025966
   9 C :   -0.034238
  10 C :   -0.145052
  11 C :   -0.008044
  12 S :    0.431255
  13 C :   -0.148353
  14 C :   -0.056811
  15 C :    0.084560
  16 O :   -0.137679
  17 C :   -0.090496
  18 C :    0.041331
  19 C :   -0.175414
  20 C :    0.022832
  21 C :   -0.069160
  22 C :   -0.165904
  23 S :    0.494621
  24 C :   -0.180259
  25 C :   -0.056941
  26 C :    0.072653
  27 C :   -0.086761
  28 C :   -0.017979
  29 N :   -0.019338
  30 C :   -0.023527
  31 N :   -0.013010
  32 C :   -0.005498
  33 C :   -0.185155
  34 S :    0.477823
  35 C :   -0.144437
  36 C :   -0.092447
  37 C :    0.094084
  38 O :   -0.148567
  39 N :   -0.033548
  40 C :    0.038511
  41 C :    0.083644
  42 O :   -0.175319
  43 C :   -0.103722
  44 C :   -0.142536
  45 S :    0.449356
  46 C :   -0.186173
  47 C :   -0.025265
  48 C :   -0.062521
  49 C :   -0.181045
  50 S :    0.541842
  51 C :   -0.161855
  52 C :   -0.063976
  53 C :    0.082695
  54 C :   -0.099027
  55 C :   -0.016032
  56 N :   -0.031849
  57 C :   -0.013486
  58 N :   -0.031326
  59 C :    0.007376
  60 C :   -0.178998
  61 S :    0.504936
  62 C :    0.039395
  63 C :   -0.087009
  64 C :    0.065902
  65 C :   -0.136852
  66 C :   -0.019368
  67 N :   -0.044897
  68 C :   -0.015827
  69 N :   -0.046982
  70 C :   -0.019310
  71 C :   -0.056365
  72 C :    0.083791
  73 O :   -0.143921
  74 C :    0.024699
  75 C :   -0.035594
  76 C :   -0.144035
  77 C :   -0.008204
  78 S :    0.432937
  79 C :   -0.149179
  80 C :   -0.057559
  81 H :    0.041588
  82 H :    0.040923
  83 H :    0.029848
  84 H :    0.035924
  85 H :    0.044446
  86 H :    0.045496
  87 H :    0.043999
  88 H :    0.041219
  89 H :    0.035004
  90 H :    0.033487
  91 H :    0.037223
  92 H :    0.042538
  93 H :    0.046085
  94 H :    0.040970
  95 H :    0.042503
  96 H :    0.029852
  97 H :    0.035490

  Mayer bond orders larger than 0.100000
B(  0-C ,  1-C ) :   1.6400 B(  0-C ,  6-C ) :   1.0073 B(  0-C , 17-C ) :   1.0664
B(  1-C ,  2-C ) :   1.1405 B(  1-C ,  4-C ) :   1.1393 B(  2-C ,  3-N ) :   2.9750
B(  4-C ,  5-N ) :   2.9946 B(  6-C ,  7-C ) :   1.2666 B(  6-C , 11-C ) :   1.4087
B(  7-C ,  8-C ) :   1.4244 B(  7-C , 15-C ) :   0.9497 B(  8-C ,  9-C ) :   1.2446
B(  8-C , 81-H ) :   1.0174 B(  9-C , 10-C ) :   1.3008 B(  9-C , 14-C ) :   1.1723
B( 10-C , 11-C ) :   1.3233 B( 10-C , 12-S ) :   1.1004 B( 11-C , 82-H ) :   0.9840
B( 12-S , 13-C ) :   1.1270 B( 13-C , 14-C ) :   1.6276 B( 13-C , 83-H ) :   0.9685
B( 14-C , 84-H ) :   0.9997 B( 15-C , 16-O ) :   2.2016 B( 15-C , 17-C ) :   0.9392
B( 17-C , 18-C ) :   1.6183 B( 18-C , 19-C ) :   1.1764 B( 18-C , 85-H ) :   0.9295
B( 19-C , 20-C ) :   1.4169 B( 19-C , 23-S ) :   1.0805 B( 20-C , 21-C ) :   1.3351
B( 20-C , 86-H ) :   0.9760 B( 21-C , 22-C ) :   1.3934 B( 21-C , 26-C ) :   0.9937
B( 22-C , 23-S ) :   1.1581 B( 22-C , 24-C ) :   1.2015 B( 24-C , 25-C ) :   1.4222
B( 24-C , 34-S ) :   1.1277 B( 25-C , 26-C ) :   0.9908 B( 25-C , 32-C ) :   1.2864
B( 26-C , 27-C ) :   1.7216 B( 27-C , 28-C ) :   1.1357 B( 27-C , 30-C ) :   1.1358
B( 28-C , 29-N ) :   2.9902 B( 30-C , 31-N ) :   3.0004 B( 32-C , 33-C ) :   1.4686
B( 32-C , 87-H ) :   0.9755 B( 33-C , 34-S ) :   1.0917 B( 33-C , 35-C ) :   1.1472
B( 35-C , 36-C ) :   1.5702 B( 35-C , 45-S ) :   1.1082 B( 36-C , 37-C ) :   0.8987
B( 36-C , 43-C ) :   1.2408 B( 37-C , 38-O ) :   2.1251 B( 37-C , 39-N ) :   1.0781
B( 39-N , 40-C ) :   0.9364 B( 39-N , 41-C ) :   1.0924 B( 40-C , 88-H ) :   0.9606
B( 40-C , 89-H ) :   0.9723 B( 40-C , 90-H ) :   0.9783 B( 41-C , 42-O ) :   2.1478
B( 41-C , 43-C ) :   0.9026 B( 43-C , 44-C ) :   1.5242 B( 44-C , 45-S ) :   1.1201
B( 44-C , 46-C ) :   1.1882 B( 46-C , 47-C ) :   1.4160 B( 46-C , 50-S ) :   1.1220
B( 47-C , 48-C ) :   1.3229 B( 47-C , 91-H ) :   0.9899 B( 48-C , 49-C ) :   1.4145
B( 48-C , 53-C ) :   0.9922 B( 49-C , 50-S ) :   1.1115 B( 49-C , 51-C ) :   1.1878
B( 51-C , 52-C ) :   1.4166 B( 51-C , 61-S ) :   1.1551 B( 52-C , 53-C ) :   0.9980
B( 52-C , 59-C ) :   1.3511 B( 53-C , 54-C ) :   1.7182 B( 54-C , 55-C ) :   1.1324
B( 54-C , 57-C ) :   1.1317 B( 55-C , 56-N ) :   2.9923 B( 57-C , 58-N ) :   2.9825
B( 59-C , 60-C ) :   1.4026 B( 59-C , 92-H ) :   0.9801 B( 60-C , 61-S ) :   1.0944
B( 60-C , 62-C ) :   1.1252 B( 62-C , 63-C ) :   1.6858 B( 62-C , 93-H ) :   0.9280
B( 63-C , 64-C ) :   1.0297 B( 63-C , 72-C ) :   0.9385 B( 64-C , 65-C ) :   1.6510
B( 64-C , 70-C ) :   1.0120 B( 65-C , 66-C ) :   1.1244 B( 65-C , 68-C ) :   1.1715
B( 66-C , 67-N ) :   2.9946 B( 68-C , 69-N ) :   2.9947 B( 70-C , 71-C ) :   1.2689
B( 70-C , 77-C ) :   1.4184 B( 71-C , 72-C ) :   0.9269 B( 71-C , 74-C ) :   1.4254
B( 72-C , 73-O ) :   2.2626 B( 74-C , 75-C ) :   1.2532 B( 74-C , 94-H ) :   1.0161
B( 75-C , 76-C ) :   1.3011 B( 75-C , 80-C ) :   1.1741 B( 76-C , 77-C ) :   1.3206
B( 76-C , 78-S ) :   1.0994 B( 77-C , 95-H ) :   0.9860 B( 78-S , 79-C ) :   1.1280
B( 79-C , 80-C ) :   1.6266 B( 79-C , 96-H ) :   0.9689 B( 80-C , 97-H ) :   0.9997

-----------------------------------------------------------------------------
         ABSORPTION SPECTRUM VIA TRANSITION ELECTRIC DIPOLE MOMENTS
-----------------------------------------------------------------------------
State   Energy  Wavelength   fosc         T2         TX        TY        TZ
        (cm-1)    (nm)                  (au**2)     (au)      (au)      (au)
-----------------------------------------------------------------------------
   0   13555.4    737.7   0.670181299  16.27633  -2.78610   2.68249  -1.14813
   1   14493.2    690.0   0.140635275   3.19452   1.56810  -0.23760   0.82408
   2   19993.6    500.2   1.589942706  26.17977   3.35704  -3.70595   1.08444
   3   21689.7    461.0   0.395685438   6.00581  -1.95205  -0.42931  -1.41810
   4   22184.6    450.8   0.160004909   2.37441   1.28191   0.13680   0.84404
   5   23488.1    425.7   0.062695082   0.87874   0.87602  -0.25270   0.21791
   6   25458.8    392.8   0.009286436   0.12008  -0.09756  -0.31743  -0.09901
   7   25652.0    389.8   0.040281141   0.51696   0.53219  -0.02870  -0.48261
   8   26341.2    379.6   0.512320339   6.40296   0.95957  -2.30559   0.40798
   9   27195.5    367.7   0.034559071   0.41835   0.00340  -0.59476   0.25416
  10   27874.2    358.8   0.054630034   0.64522  -0.64539  -0.37211   0.30038
  11   28035.7    356.7   0.009549086   0.11213   0.17813   0.07122   0.27446
  12   28192.0    354.7   0.026560277   0.31016  -0.05064   0.54758   0.08806
  13   28739.4    348.0   0.005643536   0.06465   0.03153  -0.16112   0.19415
  14   28819.2    347.0   0.012642981   0.14443   0.18545   0.14067  -0.30041
  15   29510.5    338.9   0.036962971   0.41235   0.51690   0.33209  -0.18676
  16   29807.1    335.5   0.008029101   0.08868  -0.01000   0.24310  -0.17170
  17   30162.6    331.5   0.130332488   1.42252   0.97349   0.65035   0.22778
  18   30311.6    329.9   0.344012763   3.73630   0.53523   1.85488   0.09616
  19   30610.5    326.7   0.130472850   1.40322   0.47565  -0.73166   0.80103
  20   30792.4    324.8   0.296869960   3.17394  -0.68718   1.13998   1.18413
  21   30925.9    323.4   0.429903025   4.57640  -1.85536   0.91085  -0.55173
  22   31145.4    321.1   0.258315911   2.73044  -0.06534   1.53970   0.59623
  23   31348.7    319.0   0.162757102   1.70921  -1.03799  -0.60173  -0.51934
  24   32276.2    309.8   0.170516673   1.73924   0.04657  -1.30904   0.15323
  25   32417.4    308.5   0.159673077   1.62155  -0.96930   0.75171  -0.34194
  26   32723.6    305.6   0.153074705   1.53999   1.06084  -0.64161   0.05432
  27   32890.4    304.0   0.066786125   0.66849  -0.76784   0.09476  -0.26444
  28   33411.4    299.3   0.097491597   0.96061   0.18591  -0.76837   0.57936
  29   33528.2    298.3   0.050676366   0.49759   0.57645   0.01904   0.40612
  30   33727.1    296.5   0.070358870   0.68678  -0.11542   0.74394  -0.34643
  31   33801.0    295.8   0.028842056   0.28091   0.11853  -0.33776   0.39088
  32   33997.5    294.1   0.034081683   0.33003   0.38040  -0.43049   0.00098
  33   34371.7    290.9   0.130704111   1.25188   0.58042   0.89462   0.33859
  34   34542.1    289.5   0.484104128   4.61388  -0.18185  -1.52611  -1.50060
  35   34610.6    288.9   0.227219725   2.16129  -1.25762   0.40334   0.64576
  36   34752.3    287.8   0.270618738   2.56360   0.27802  -1.30789   0.88076
  37   34783.3    287.5   0.154436142   1.46168  -0.37934   0.78103  -0.84130
  38   35190.1    284.2   0.036694321   0.34328  -0.20085   0.55033   0.00864
  39   35278.1    283.5   0.013160709   0.12281   0.13775  -0.29153  -0.13728
  40   35603.0    280.9   0.105193955   0.97270  -0.65336  -0.39027  -0.62731
  41   35803.6    279.3   0.032672501   0.30042   0.16269   0.37914   0.36085
  42   35913.6    278.4   0.030605064   0.28055   0.19052   0.43463   0.23526
  43   36126.5    276.8   0.135252023   1.23252   0.24570   1.06901   0.17140
  44   36309.1    275.4   0.005150243   0.04670  -0.09091   0.13375   0.14333
  45   36674.6    272.7   0.002490213   0.02235  -0.12295   0.07275  -0.04408
  46   36821.5    271.6   0.020922996   0.18707   0.25175  -0.35146   0.01290
  47   37017.4    270.1   0.008450112   0.07515   0.13582  -0.23805  -0.00590
  48   37378.0    267.5   0.026868996   0.23665  -0.13897  -0.14837  -0.44196
  49   37420.8    267.2   0.002058547   0.01811  -0.02606   0.04479  -0.12420
  50   37617.6    265.8   0.046573302   0.40759  -0.35188   0.51916  -0.11936
  51   37762.1    264.8   0.018461674   0.16095   0.39730  -0.04070   0.03799
  52   38099.0    262.5   0.007157983   0.06185   0.03844  -0.09252   0.22763
  53   38497.5    259.8   0.089554949   0.76583  -0.19683  -0.68249  -0.51118
  54   38705.5    258.4   0.044792132   0.38098  -0.56369   0.11023  -0.22603
  55   38823.3    257.6   0.105236053   0.89238  -0.54245  -0.06943  -0.77026
  56   39167.2    255.3   0.041408633   0.34805  -0.43536  -0.13357  -0.37507
  57   39301.0    254.4   0.076611030   0.64175  -0.40328  -0.24751  -0.64642
  58   39656.8    252.2   0.072646786   0.60308  -0.31895   0.67977  -0.19816
  59   39894.5    250.7   0.092038502   0.75951   0.21691   0.62788   0.56412
  60   40157.7    249.0   0.047867391   0.39242  -0.12014  -0.60682  -0.09877
  61   40200.3    248.8   0.024647877   0.20185   0.28681   0.07378   0.33785

FINAL SINGLE POINT ENERGY     -5910.795581730940

DIPOLE MOMENT
-------------
                                X             Y             Z
Electronic contribution:      1.07194       2.95335      11.90993
Nuclear contribution   :     -1.16540      -2.32008     -15.52816
                        -----------------------------------------
Total Dipole Moment    :     -0.09346       0.63327      -3.61823
                        -----------------------------------------
Magnitude (a.u.)       :      3.67442
Magnitude (Debye)      :      9.33964

Rotational constants in cm-1:     0.001521     0.000154     0.000144
Rotational constants in MHz :    45.584757     4.625671     4.307752

                             ****ORCA TERMINATED NORMALLY****
TOTAL RUN TIME: 0 days 0 hours 10 minutes 26 seconds 254 msec
