                         Program Version 4.2.0 -  RELEASE  -
|  1> # ORCA input file
|  2> # SCF done       -176.936316422270          0.000580003598
|  3> ! CAM-B3LYP def2-SVP def2/J RIJCOSX Grid4 TightSCF
|  4> %maxcore 5000
|  5> %tddft
|  6>     Mode sTDDFT
|  7>     Ethresh 5.0
|  8>     maxcore 5000
|  9> end
| 10>
| 11> %pal
| 12>   nprocs 6
| 13>   end
| 14> * xyz 0 1
| 15>    C       -5.28446        -2.40342        -0.10744
| 16>    C       -4.68875        -2.97161        -1.20346
| 17>    C       -4.65403        -4.35956        -1.45254
| 18>    N       -4.59637        -5.47604        -1.71393
| 19>    C       -3.99067        -2.27094        -2.20995
| 20>    N       -3.38320        -1.78519        -3.05509
| 21>    C       -5.89969        -3.13241         0.99371
| 22>    C       -6.26314        -2.20166         1.99839
| 23>    C       -6.86119        -2.58119         3.17579
| 24>    C       -7.10979        -3.94313         3.37327
| 25>    C       -6.74644        -4.86433         2.36257
| 26>    C       -6.14308        -4.48063         1.17005
| 27>    S       -7.15268        -6.48922         2.81721
| 28>    C       -7.78924        -5.93364         4.32609
| 29>    C       -7.70651        -4.59500         4.48907
| 30>    C       -5.91517        -0.84000         1.56040
| 31>    O       -6.14117         0.18384         2.19122
| 32>    C       -5.32603        -0.98597         0.21370
| 33>    C       -5.04570         0.02169        -0.67263
| 34>    C       -5.02964         1.41856        -0.40427
| 35>    C       -5.49201         2.30546        -1.37975
| 36>    C       -5.77963         3.61993        -1.07279
| 37>    C       -5.65668         4.13900         0.22580
| 38>    C       -5.04667         3.31201         1.22526
| 39>    C       -4.72433         3.62806         2.54522
| 40>   Si       -4.30377         2.02186         3.29008
| 41>    C       -3.72945         1.33427         1.72092
| 42>    C       -4.60952         1.96781         0.83734
| 43>    C       -6.09945         5.47793         0.44496
| 44>    C       -6.90806         6.24511        -0.41952
| 45>    C       -7.10959         7.56516         0.07191
| 46>    N       -7.85721         8.44676        -0.63594
| 47>    C       -8.58290         8.03193        -1.72435
| 48>    C       -9.50840         8.80530        -2.38630
| 49>    O       -9.92627        10.09461        -1.95261
| 50>    C      -10.14574         8.31720        -3.54480
| 51>    C       -9.88629         7.08227        -4.04301
| 52>    C       -8.96011         6.16699        -3.41938
| 53>    O       -8.72221         5.04405        -3.84284
| 54>    C       -8.30266         6.67936        -2.18335
| 55>    N       -7.49497         5.86625        -1.56606
| 56>    C       -6.53013         7.84874         1.29139
| 57>    S       -5.67691         6.43752         1.83866
| 58>    C       -6.92251         9.03030         2.01278
| 59>    C       -6.81122         9.25322         3.39742
| 60>    C       -7.41063        10.35520         3.94619
| 61>    C       -8.20234        11.26656         3.20453
| 62>    C       -8.43259        10.96837         1.83833
| 63>    C       -9.47331        11.51540         0.97802
| 64>   Si       -9.33066        10.76203        -0.61159
| 65>    C       -7.76932         9.82803        -0.22536
| 66>    C       -7.66244         9.93860         1.27402
| 67>    C       -8.72067        12.39495         3.89747
| 68>    C       -9.13890        13.62334         3.46847
| 69>    C       -9.07268        14.31956         2.20947
| 70>    C       -8.18158        14.09542         1.18465
| 71>    C       -8.22250        14.75113        -0.05964
| 72>    N       -8.23242        15.20396        -1.11588
| 73>    C       -7.05691        13.25562         1.27534
| 74>    N       -6.08923        12.63669         1.29575
| 75>    C      -10.01965        15.42908         2.26735
| 76>    C      -10.50727        15.54233         3.59432
| 77>    C       -9.92608        14.46175         4.41359
| 78>    O      -10.08362        14.26393         5.59839
| 79>    C      -11.38860        16.52411         3.97497
| 80>    C      -11.82021        17.42950         2.99964
| 81>    C      -11.33658        17.30133         1.67665
| 82>    C      -10.43533        16.31453         1.29256
| 83>    S      -12.01030        18.52031         0.64035
| 84>    C      -12.91159        19.18018         1.96169
| 85>    C      -12.72341        18.52276         3.12638
| 86>    H       -7.12818        -1.84856         3.92171
| 87>    H       -5.89087        -5.21975         0.42823
| 88>    H       -8.19356        -6.65579         5.00849
| 89>    H       -8.05287        -4.07244         5.36240
| 90>    H       -4.94445        -0.24934        -1.71714
| 91>    H       -5.69636         1.94195        -2.37585
| 92>    H       -6.17105         4.25669        -1.84901
| 93>    H       -5.07865         4.52301         3.02537
| 94>    H       -3.38528         0.33610         1.49848
| 95>    H      -10.85666         8.97362        -4.02416
| 96>    H      -10.37594         6.73585        -4.93910
| 97>    H       -6.25344         8.55946         4.00704
| 98>    H       -7.27535        10.55628         4.99880
| 99>    H      -10.19887        12.20660         1.36605
|100>    H       -6.84142        10.25174        -0.64839
|101>    H       -8.81452        12.27030         4.97365
|102>    H      -11.73509        16.59237         4.99450
|103>    H      -10.09545        16.25670         0.27179
|104>    H      -13.53641        20.03287         1.77960
|105>    H      -13.20035        18.78963         4.05211
|106> *
|107>
|108>                          ****END OF INPUT****

CARTESIAN COORDINATES (ANGSTROEM)
---------------------------------
  C     -5.284460   -2.403420   -0.107440
  C     -4.688750   -2.971610   -1.203460
  C     -4.654030   -4.359560   -1.452540
  N     -4.596370   -5.476040   -1.713930
  C     -3.990670   -2.270940   -2.209950
  N     -3.383200   -1.785190   -3.055090
  C     -5.899690   -3.132410    0.993710
  C     -6.263140   -2.201660    1.998390
  C     -6.861190   -2.581190    3.175790
  C     -7.109790   -3.943130    3.373270
  C     -6.746440   -4.864330    2.362570
  C     -6.143080   -4.480630    1.170050
  S     -7.152680   -6.489220    2.817210
  C     -7.789240   -5.933640    4.326090
  C     -7.706510   -4.595000    4.489070
  C     -5.915170   -0.840000    1.560400
  O     -6.141170    0.183840    2.191220
  C     -5.326030   -0.985970    0.213700
  C     -5.045700    0.021690   -0.672630
  C     -5.029640    1.418560   -0.404270
  C     -5.492010    2.305460   -1.379750
  C     -5.779630    3.619930   -1.072790
  C     -5.656680    4.139000    0.225800
  C     -5.046670    3.312010    1.225260
  C     -4.724330    3.628060    2.545220
  Si    -4.303770    2.021860    3.290080
  C     -3.729450    1.334270    1.720920
  C     -4.609520    1.967810    0.837340
  C     -6.099450    5.477930    0.444960
  C     -6.908060    6.245110   -0.419520
  C     -7.109590    7.565160    0.071910
  N     -7.857210    8.446760   -0.635940
  C     -8.582900    8.031930   -1.724350
  C     -9.508400    8.805300   -2.386300
  O     -9.926270   10.094610   -1.952610
  C    -10.145740    8.317200   -3.544800
  C     -9.886290    7.082270   -4.043010
  C     -8.960110    6.166990   -3.419380
  O     -8.722210    5.044050   -3.842840
  C     -8.302660    6.679360   -2.183350
  N     -7.494970    5.866250   -1.566060
  C     -6.530130    7.848740    1.291390
  S     -5.676910    6.437520    1.838660
  C     -6.922510    9.030300    2.012780
  C     -6.811220    9.253220    3.397420
  C     -7.410630   10.355200    3.946190
  C     -8.202340   11.266560    3.204530
  C     -8.432590   10.968370    1.838330
  C     -9.473310   11.515400    0.978020
  Si    -9.330660   10.762030   -0.611590
  C     -7.769320    9.828030   -0.225360
  C     -7.662440    9.938600    1.274020
  C     -8.720670   12.394950    3.897470
  C     -9.138900   13.623340    3.468470
  C     -9.072680   14.319560    2.209470
  C     -8.181580   14.095420    1.184650
  C     -8.222500   14.751130   -0.059640
  N     -8.232420   15.203960   -1.115880
  C     -7.056910   13.255620    1.275340
  N     -6.089230   12.636690    1.295750
  C    -10.019650   15.429080    2.267350
  C    -10.507270   15.542330    3.594320
  C     -9.926080   14.461750    4.413590
  O    -10.083620   14.263930    5.598390
  C    -11.388600   16.524110    3.974970
  C    -11.820210   17.429500    2.999640
  C    -11.336580   17.301330    1.676650
  C    -10.435330   16.314530    1.292560
  S    -12.010300   18.520310    0.640350
  C    -12.911590   19.180180    1.961690
  C    -12.723410   18.522760    3.126380
  H     -7.128180   -1.848560    3.921710
  H     -5.890870   -5.219750    0.428230
  H     -8.193560   -6.655790    5.008490
  H     -8.052870   -4.072440    5.362400
  H     -4.944450   -0.249340   -1.717140
  H     -5.696360    1.941950   -2.375850
  H     -6.171050    4.256690   -1.849010
  H     -5.078650    4.523010    3.025370
  H     -3.385280    0.336100    1.498480
  H    -10.856660    8.973620   -4.024160
  H    -10.375940    6.735850   -4.939100
  H     -6.253440    8.559460    4.007040
  H     -7.275350   10.556280    4.998800
  H    -10.198870   12.206600    1.366050
  H     -6.841420   10.251740   -0.648390
  H     -8.814520   12.270300    4.973650
  H    -11.735090   16.592370    4.994500
  H    -10.095450   16.256700    0.271790
  H    -13.536410   20.032870    1.779600
  H    -13.200350   18.789630    4.052110

 Total Charge           Charge          ....    0
 Multiplicity           Mult            ....    1
 Number of Electrons    NEL             ....  506
 Basis Dimension        Dim             .... 1114

ORBITAL ENERGIES
----------------

  NO   OCC          E(Eh)            E(eV)
   0   2.0000     -88.988412     -2421.4978
   1   2.0000     -88.966102     -2420.8907
   2   2.0000     -88.965596     -2420.8769
   3   2.0000     -66.276813     -1803.4838
   4   2.0000     -66.192461     -1801.1884
   5   2.0000     -19.292143      -524.9659
   6   2.0000     -19.218386      -522.9589
   7   2.0000     -19.211297      -522.7660
   8   2.0000     -19.191792      -522.2352
   9   2.0000     -14.499649      -394.5555
  10   2.0000     -14.448838      -393.1729
  11   2.0000     -14.416467      -392.2920
  12   2.0000     -14.413886      -392.2218
  13   2.0000     -14.413653      -392.2154
  14   2.0000     -14.413515      -392.2117
  15   2.0000     -10.367909      -282.1252
  16   2.0000     -10.361166      -281.9417
  17   2.0000     -10.357870      -281.8520
  18   2.0000     -10.356984      -281.8279
  19   2.0000     -10.349028      -281.6114
  20   2.0000     -10.343304      -281.4556
  21   2.0000     -10.341908      -281.4176
  22   2.0000     -10.341360      -281.4027
  23   2.0000     -10.339546      -281.3533
  24   2.0000     -10.339451      -281.3508
  25   2.0000     -10.338862      -281.3347
  26   2.0000     -10.335180      -281.2345
  27   2.0000     -10.333938      -281.2007
  28   2.0000     -10.324599      -280.9466
  29   2.0000     -10.320105      -280.8243
  30   2.0000     -10.319564      -280.8096
  31   2.0000     -10.319331      -280.8033
  32   2.0000     -10.318338      -280.7762
  33   2.0000     -10.318122      -280.7704
  34   2.0000     -10.316549      -280.7276
  35   2.0000     -10.316395      -280.7234
  36   2.0000     -10.316046      -280.7139
  37   2.0000     -10.315192      -280.6906
  38   2.0000     -10.313823      -280.6534
  39   2.0000     -10.313413      -280.6422
  40   2.0000     -10.312867      -280.6274
  41   2.0000     -10.310829      -280.5719
  42   2.0000     -10.308069      -280.4968
  43   2.0000     -10.304797      -280.4078
  44   2.0000     -10.304755      -280.4066
  45   2.0000     -10.304483      -280.3992
  46   2.0000     -10.302565      -280.3471
  47   2.0000     -10.302064      -280.3334
  48   2.0000     -10.301151      -280.3086
  49   2.0000     -10.301110      -280.3075
  50   2.0000     -10.300924      -280.3024
  51   2.0000     -10.300739      -280.2974
  52   2.0000     -10.300149      -280.2813
  53   2.0000     -10.299616      -280.2668
  54   2.0000     -10.297510      -280.2095
  55   2.0000     -10.297478      -280.2086
  56   2.0000     -10.296257      -280.1754
  57   2.0000     -10.293780      -280.1080
  58   2.0000     -10.291605      -280.0488
  59   2.0000     -10.291324      -280.0412
  60   2.0000     -10.290983      -280.0319
  61   2.0000     -10.289430      -279.9896
  62   2.0000     -10.288741      -279.9709
  63   2.0000     -10.288715      -279.9702
  64   2.0000     -10.288416      -279.9620
  65   2.0000     -10.288196      -279.9560
  66   2.0000     -10.287864      -279.9470
  67   2.0000     -10.282909      -279.8122
  68   2.0000     -10.271512      -279.5021
  69   2.0000     -10.257911      -279.1320
  70   2.0000     -10.249822      -278.9118
  71   2.0000      -8.082152      -219.9265
  72   2.0000      -8.062222      -219.3842
  73   2.0000      -8.061873      -219.3747
  74   2.0000      -6.051451      -164.6683
  75   2.0000      -6.047191      -164.5524
  76   2.0000      -6.044564      -164.4809
  77   2.0000      -6.031756      -164.1324
  78   2.0000      -6.031394      -164.1226
  79   2.0000      -6.027414      -164.0143
  80   2.0000      -6.027092      -164.0055
  81   2.0000      -6.023945      -163.9199
  82   2.0000      -6.023528      -163.9085
  83   2.0000      -5.442929      -148.1096
  84   2.0000      -5.362511      -145.9214
  85   2.0000      -3.808019      -103.6215
  86   2.0000      -3.805491      -103.5527
  87   2.0000      -3.800932      -103.4286
  88   2.0000      -3.729655      -101.4891
  89   2.0000      -3.721370      -101.2636
  90   2.0000      -3.720265      -101.2336
  91   2.0000      -1.168095       -31.7855
  92   2.0000      -1.129205       -30.7272
  93   2.0000      -1.128772       -30.7155
  94   2.0000      -1.125527       -30.6272
  95   2.0000      -1.105701       -30.0876
  96   2.0000      -1.054134       -28.6844
  97   2.0000      -1.019235       -27.7348
  98   2.0000      -1.019095       -27.7310
  99   2.0000      -1.009516       -27.4703
 100   2.0000      -1.007378       -27.4121
 101   2.0000      -1.007119       -27.4051
 102   2.0000      -0.995046       -27.0766
 103   2.0000      -0.992218       -26.9996
 104   2.0000      -0.987088       -26.8600
 105   2.0000      -0.983799       -26.7705
 106   2.0000      -0.981645       -26.7119
 107   2.0000      -0.976195       -26.5636
 108   2.0000      -0.949055       -25.8251
 109   2.0000      -0.932630       -25.3782
 110   2.0000      -0.929406       -25.2904
 111   2.0000      -0.918525       -24.9943
 112   2.0000      -0.910721       -24.7820
 113   2.0000      -0.904235       -24.6055
 114   2.0000      -0.896265       -24.3886
 115   2.0000      -0.891327       -24.2543
 116   2.0000      -0.886270       -24.1166
 117   2.0000      -0.879944       -23.9445
 118   2.0000      -0.879652       -23.9365
 119   2.0000      -0.874076       -23.7848
 120   2.0000      -0.858731       -23.3673
 121   2.0000      -0.848948       -23.1010
 122   2.0000      -0.833377       -22.6773
 123   2.0000      -0.830534       -22.6000
 124   2.0000      -0.822030       -22.3686
 125   2.0000      -0.821350       -22.3501
 126   2.0000      -0.806979       -21.9590
 127   2.0000      -0.795336       -21.6422
 128   2.0000      -0.793132       -21.5822
 129   2.0000      -0.778618       -21.1873
 130   2.0000      -0.774041       -21.0627
 131   2.0000      -0.770285       -20.9605
 132   2.0000      -0.759446       -20.6656
 133   2.0000      -0.757083       -20.6013
 134   2.0000      -0.754947       -20.5431
 135   2.0000      -0.744525       -20.2596
 136   2.0000      -0.732111       -19.9218
 137   2.0000      -0.712407       -19.3856
 138   2.0000      -0.705921       -19.2091
 139   2.0000      -0.696679       -18.9576
 140   2.0000      -0.690048       -18.7772
 141   2.0000      -0.688058       -18.7230
 142   2.0000      -0.685184       -18.6448
 143   2.0000      -0.680947       -18.5295
 144   2.0000      -0.675324       -18.3765
 145   2.0000      -0.671417       -18.2702
 146   2.0000      -0.663261       -18.0483
 147   2.0000      -0.661714       -18.0062
 148   2.0000      -0.659803       -17.9541
 149   2.0000      -0.656718       -17.8702
 150   2.0000      -0.651118       -17.7178
 151   2.0000      -0.640787       -17.4367
 152   2.0000      -0.630559       -17.1584
 153   2.0000      -0.623678       -16.9711
 154   2.0000      -0.620100       -16.8738
 155   2.0000      -0.617659       -16.8074
 156   2.0000      -0.616674       -16.7805
 157   2.0000      -0.601332       -16.3631
 158   2.0000      -0.598999       -16.2996
 159   2.0000      -0.595006       -16.1909
 160   2.0000      -0.592296       -16.1172
 161   2.0000      -0.589323       -16.0363
 162   2.0000      -0.582705       -15.8562
 163   2.0000      -0.580777       -15.8038
 164   2.0000      -0.577281       -15.7086
 165   2.0000      -0.568983       -15.4828
 166   2.0000      -0.562176       -15.2976
 167   2.0000      -0.554186       -15.0802
 168   2.0000      -0.552849       -15.0438
 169   2.0000      -0.550677       -14.9847
 170   2.0000      -0.546169       -14.8620
 171   2.0000      -0.543235       -14.7822
 172   2.0000      -0.540201       -14.6996
 173   2.0000      -0.539167       -14.6715
 174   2.0000      -0.537764       -14.6333
 175   2.0000      -0.536983       -14.6120
 176   2.0000      -0.533908       -14.5284
 177   2.0000      -0.533221       -14.5097
 178   2.0000      -0.530468       -14.4348
 179   2.0000      -0.528176       -14.3724
 180   2.0000      -0.525302       -14.2942
 181   2.0000      -0.519116       -14.1259
 182   2.0000      -0.516571       -14.0566
 183   2.0000      -0.514623       -14.0036
 184   2.0000      -0.510908       -13.9025
 185   2.0000      -0.508830       -13.8460
 186   2.0000      -0.507600       -13.8125
 187   2.0000      -0.504245       -13.7212
 188   2.0000      -0.501622       -13.6498
 189   2.0000      -0.500146       -13.6097
 190   2.0000      -0.499503       -13.5922
 191   2.0000      -0.496914       -13.5217
 192   2.0000      -0.493235       -13.4216
 193   2.0000      -0.491140       -13.3646
 194   2.0000      -0.490595       -13.3498
 195   2.0000      -0.487771       -13.2729
 196   2.0000      -0.487280       -13.2596
 197   2.0000      -0.485668       -13.2157
 198   2.0000      -0.482672       -13.1342
 199   2.0000      -0.477613       -12.9965
 200   2.0000      -0.474586       -12.9141
 201   2.0000      -0.469857       -12.7854
 202   2.0000      -0.465105       -12.6561
 203   2.0000      -0.462190       -12.5768
 204   2.0000      -0.457341       -12.4449
 205   2.0000      -0.455907       -12.4059
 206   2.0000      -0.453181       -12.3317
 207   2.0000      -0.452843       -12.3225
 208   2.0000      -0.450318       -12.2538
 209   2.0000      -0.448780       -12.2119
 210   2.0000      -0.446713       -12.1557
 211   2.0000      -0.444289       -12.0897
 212   2.0000      -0.442017       -12.0279
 213   2.0000      -0.441518       -12.0143
 214   2.0000      -0.437841       -11.9143
 215   2.0000      -0.433928       -11.8078
 216   2.0000      -0.433296       -11.7906
 217   2.0000      -0.431950       -11.7539
 218   2.0000      -0.431427       -11.7397
 219   2.0000      -0.430011       -11.7012
 220   2.0000      -0.427793       -11.6408
 221   2.0000      -0.425436       -11.5767
 222   2.0000      -0.420467       -11.4415
 223   2.0000      -0.420055       -11.4303
 224   2.0000      -0.415746       -11.3130
 225   2.0000      -0.409911       -11.1543
 226   2.0000      -0.407417       -11.0864
 227   2.0000      -0.403065       -10.9680
 228   2.0000      -0.400555       -10.8997
 229   2.0000      -0.395999       -10.7757
 230   2.0000      -0.390375       -10.6226
 231   2.0000      -0.384637       -10.4665
 232   2.0000      -0.381914       -10.3924
 233   2.0000      -0.375459       -10.2168
 234   2.0000      -0.373590       -10.1659
 235   2.0000      -0.367423        -9.9981
 236   2.0000      -0.359567        -9.7843
 237   2.0000      -0.358415        -9.7530
 238   2.0000      -0.348782        -9.4908
 239   2.0000      -0.342689        -9.3251
 240   2.0000      -0.335509        -9.1297
 241   2.0000      -0.326379        -8.8812
 242   2.0000      -0.324211        -8.8222
 243   2.0000      -0.316625        -8.6158
 244   2.0000      -0.313080        -8.5193
 245   2.0000      -0.308678        -8.3996
 246   2.0000      -0.296015        -8.0550
 247   2.0000      -0.293151        -7.9771
 248   2.0000      -0.285035        -7.7562
 249   2.0000      -0.275084        -7.4854
 250   2.0000      -0.269256        -7.3268
 251   2.0000      -0.253624        -6.9015
 252   2.0000      -0.244197        -6.6449
 253   0.0000      -0.124597        -3.3905
 254   0.0000      -0.090320        -2.4577
 255   0.0000      -0.084595        -2.3020
 256   0.0000      -0.077653        -2.1131
 257   0.0000      -0.059192        -1.6107

MULLIKEN ATOMIC CHARGES
-----------------------
   0 C :    0.292704
   1 C :   -0.341628
   2 C :   -0.184719
   3 N :    0.149734
   4 C :   -0.206521
   5 N :    0.164053
   6 C :    0.018948
   7 C :   -0.008396
   8 C :   -0.067790
   9 C :    0.113418
  10 C :   -0.097636
  11 C :   -0.021861
  12 S :    0.141561
  13 C :   -0.047813
  14 C :    0.025305
  15 C :    0.163179
  16 O :   -0.175036
  17 C :   -0.078280
  18 C :   -0.045836
  19 C :    0.094557
  20 C :    0.011749
  21 C :   -0.016185
  22 C :    0.105626
  23 C :    0.009575
  24 C :   -0.206825
  25 Si:    0.361929
  26 C :   -0.165429
  27 C :   -0.032739
  28 C :   -0.162101
  29 C :    0.055318
  30 C :    0.111859
  31 N :   -0.149122
  32 C :    0.203744
  33 C :    0.052961
  34 O :   -0.394551
  35 C :    0.049597
  36 C :   -0.107784
  37 C :    0.176544
  38 O :   -0.153902
  39 C :   -0.206859
  40 N :    0.073628
  41 C :   -0.173738
  42 S :    0.169587
  43 C :    0.169249
  44 C :   -0.050840
  45 C :    0.025314
  46 C :    0.063266
  47 C :   -0.018410
  48 C :   -0.142148
  49 Si:    0.686748
  50 C :   -0.007010
  51 C :   -0.135068
  52 C :   -0.009167
  53 C :   -0.119435
  54 C :    0.263233
  55 C :   -0.338590
  56 C :   -0.195221
  57 N :    0.144894
  58 C :   -0.196280
  59 N :    0.167412
  60 C :    0.013034
  61 C :    0.001271
  62 C :    0.132630
  63 O :   -0.149353
  64 C :   -0.070568
  65 C :    0.108770
  66 C :   -0.091955
  67 C :   -0.035519
  68 S :    0.135097
  69 C :   -0.052439
  70 C :    0.027807
  71 H :   -0.010589
  72 H :   -0.007069
  73 H :    0.038657
  74 H :   -0.006426
  75 H :    0.032643
  76 H :    0.007568
  77 H :    0.019400
  78 H :    0.015018
  79 H :    0.011576
  80 H :   -0.000824
  81 H :   -0.005196
  82 H :   -0.023028
  83 H :   -0.013069
  84 H :    0.013064
  85 H :    0.075589
  86 H :    0.019030
  87 H :   -0.012724
  88 H :   -0.011301
  89 H :    0.037763
  90 H :   -0.007627
Sum of atomic charges:   -0.0000000

LOEWDIN ATOMIC CHARGES
----------------------
   0 C :    0.074875
   1 C :   -0.138293
   2 C :   -0.017476
   3 N :   -0.052430
   4 C :   -0.026090
   5 N :   -0.048601
   6 C :   -0.023246
   7 C :   -0.050774
   8 C :    0.023392
   9 C :   -0.035032
  10 C :   -0.145723
  11 C :   -0.008720
  12 S :    0.430330
  13 C :   -0.149596
  14 C :   -0.057619
  15 C :    0.091441
  16 O :   -0.151029
  17 C :   -0.089809
  18 C :    0.076802
  19 C :   -0.020738
  20 C :    0.029569
  21 C :    0.014065
  22 C :   -0.020802
  23 C :   -0.007994
  24 C :   -0.230390
  25 Si:    0.432775
  26 C :   -0.212146
  27 C :   -0.003861
  28 C :   -0.135325
  29 C :   -0.057631
  30 C :    0.004401
  31 N :    0.042429
  32 C :   -0.001086
  33 C :   -0.014432
  34 O :   -0.181742
  35 C :    0.012366
  36 C :   -0.076856
  37 C :    0.040575
  38 O :   -0.155258
  39 C :   -0.012109
  40 N :    0.018667
  41 C :   -0.217928
  42 S :    0.510457
  43 C :   -0.011306
  44 C :   -0.038209
  45 C :    0.016627
  46 C :   -0.056770
  47 C :    0.020105
  48 C :   -0.272638
  49 Si:    0.688394
  50 C :   -0.095142
  51 C :   -0.039045
  52 C :    0.072631
  53 C :   -0.104367
  54 C :    0.057361
  55 C :   -0.139601
  56 C :   -0.021546
  57 N :   -0.065925
  58 C :   -0.014817
  59 N :   -0.056913
  60 C :   -0.019484
  61 C :   -0.056778
  62 C :    0.084298
  63 O :   -0.147283
  64 C :    0.023782
  65 C :   -0.038488
  66 C :   -0.145260
  67 C :   -0.017734
  68 S :    0.424712
  69 C :   -0.151895
  70 C :   -0.057354
  71 H :    0.040785
  72 H :    0.040661
  73 H :    0.029450
  74 H :    0.035402
  75 H :    0.048214
  76 H :    0.042327
  77 H :    0.038187
  78 H :    0.000022
  79 H :    0.018459
  80 H :    0.044975
  81 H :    0.036879
  82 H :    0.027502
  83 H :    0.034590
  84 H :    0.028535
  85 H :    0.049516
  86 H :    0.045122
  87 H :    0.040190
  88 H :    0.038561
  89 H :    0.028875
  90 H :    0.034983

  Mayer bond orders larger than 0.100000
B(  0-C ,  1-C ) :   1.6385 B(  0-C ,  6-C ) :   1.0052 B(  0-C , 17-C ) :   1.0635
B(  1-C ,  2-C ) :   1.1429 B(  1-C ,  4-C ) :   1.1408 B(  2-C ,  3-N ) :   2.9715
B(  4-C ,  5-N ) :   2.9915 B(  6-C ,  7-C ) :   1.2625 B(  6-C , 11-C ) :   1.4129
B(  7-C ,  8-C ) :   1.4242 B(  7-C , 15-C ) :   0.9586 B(  8-C ,  9-C ) :   1.2412
B(  8-C , 71-H ) :   1.0163 B(  9-C , 10-C ) :   1.3034 B(  9-C , 14-C ) :   1.1736
B( 10-C , 11-C ) :   1.3199 B( 10-C , 12-S ) :   1.1000 B( 11-C , 72-H ) :   0.9828
B( 12-S , 13-C ) :   1.1266 B( 13-C , 14-C ) :   1.6289 B( 13-C , 73-H ) :   0.9680
B( 14-C , 74-H ) :   0.9986 B( 15-C , 16-O ) :   2.0993 B( 15-C , 17-C ) :   0.9641
B( 17-C , 18-C ) :   1.5717 B( 18-C , 19-C ) :   1.1520 B( 18-C , 75-H ) :   0.9472
B( 19-C , 20-C ) :   1.4238 B( 19-C , 27-C ) :   1.0856 B( 20-C , 21-C ) :   1.2316
B( 20-C , 76-H ) :   0.9924 B( 21-C , 22-C ) :   1.4641 B( 21-C , 77-H ) :   0.9631
B( 22-C , 23-C ) :   1.0951 B( 22-C , 28-C ) :   1.1585 B( 23-C , 24-C ) :   1.6550
B( 23-C , 25-Si) :   0.1131 B( 23-C , 27-C ) :   1.0296 B( 24-C , 25-Si) :   0.9990
B( 24-C , 78-H ) :   0.9222 B( 25-Si, 26-C ) :   1.0227 B( 25-Si, 27-C ) :   0.1392
B( 26-C , 27-C ) :   1.6443 B( 26-C , 79-H ) :   0.9440 B( 28-C , 29-C ) :   1.3349
B( 28-C , 41-C ) :   0.1019 B( 28-C , 42-S ) :   1.1884 B( 29-C , 30-C ) :   1.2333
B( 29-C , 40-N ) :   1.3413 B( 30-C , 31-N ) :   1.1634 B( 30-C , 41-C ) :   1.4607
B( 31-N , 32-C ) :   1.1318 B( 31-N , 50-C ) :   0.9262 B( 32-C , 33-C ) :   1.4513
B( 32-C , 39-C ) :   1.0388 B( 33-C , 34-O ) :   0.9641 B( 33-C , 35-C ) :   1.1767
B( 34-O , 49-Si) :   1.1704 B( 35-C , 36-C ) :   1.5319 B( 35-C , 80-H ) :   1.0100
B( 36-C , 37-C ) :   1.0870 B( 36-C , 81-H ) :   1.0067 B( 37-C , 38-O ) :   2.1761
B( 37-C , 39-C ) :   0.9061 B( 39-C , 40-N ) :   1.7873 B( 41-C , 42-S ) :   1.0605
B( 41-C , 43-C ) :   1.0678 B( 43-C , 44-C ) :   1.2506 B( 43-C , 51-C ) :   1.4750
B( 44-C , 45-C ) :   1.4715 B( 44-C , 82-H ) :   0.9902 B( 45-C , 46-C ) :   1.2740
B( 45-C , 83-H ) :   0.9887 B( 46-C , 47-C ) :   1.2538 B( 46-C , 52-C ) :   1.1318
B( 47-C , 48-C ) :   1.2119 B( 47-C , 51-C ) :   1.3263 B( 48-C , 49-Si) :   1.5191
B( 48-C , 84-H ) :   0.9152 B( 49-Si, 50-C ) :   0.9017 B( 50-C , 51-C ) :   0.9709
B( 50-C , 85-H ) :   0.8749 B( 52-C , 53-C ) :   1.6103 B( 52-C , 86-H ) :   0.9385
B( 53-C , 54-C ) :   1.0598 B( 53-C , 62-C ) :   0.9377 B( 54-C , 55-C ) :   1.6048
B( 54-C , 60-C ) :   1.0181 B( 55-C , 56-C ) :   1.1368 B( 55-C , 58-C ) :   1.1841
B( 56-C , 57-N ) :   2.9754 B( 58-C , 59-N ) :   2.9704 B( 60-C , 61-C ) :   1.2669
B( 60-C , 67-C ) :   1.4175 B( 61-C , 62-C ) :   0.9238 B( 61-C , 64-C ) :   1.4306
B( 62-C , 63-O ) :   2.2524 B( 64-C , 65-C ) :   1.2460 B( 64-C , 87-H ) :   1.0164
B( 65-C , 66-C ) :   1.3092 B( 65-C , 70-C ) :   1.1690 B( 66-C , 67-C ) :   1.3159
B( 66-C , 68-S ) :   1.0966 B( 67-C , 88-H ) :   0.9855 B( 68-S , 69-C ) :   1.1240
B( 69-C , 70-C ) :   1.6312 B( 69-C , 89-H ) :   0.9691 B( 70-C , 90-H ) :   0.9995

-----------------------------------------------------------------------------
         ABSORPTION SPECTRUM VIA TRANSITION ELECTRIC DIPOLE MOMENTS
-----------------------------------------------------------------------------
State   Energy  Wavelength   fosc         T2         TX        TY        TZ
        (cm-1)    (nm)                  (au**2)     (au)      (au)      (au)
-----------------------------------------------------------------------------
   0    8354.3   1197.0   0.289591663  11.41174   0.81647  -3.27784   0.02903
   1   11982.1    834.6   0.084158037   2.31226  -0.18075  -1.27132  -0.81446
   2   14387.5    695.0   0.259259151   5.93231   1.22732  -1.43445   1.53895
   3   16038.3    623.5   0.118436898   2.43111  -0.49391   1.47820  -0.04566
   4   17152.3    583.0   0.234708270   4.50485  -0.29321   1.93575   0.81959
   5   17508.2    571.2   0.128145196   2.40956   0.60184  -1.40781   0.25573
   6   18372.7    544.3   0.041359664   0.74110  -0.38313   0.02784  -0.77041
   7   18961.6    527.4   0.037146364   0.64494   0.19034  -0.62343   0.46909
   8   19768.9    505.8   0.204144408   3.39962   0.44000   1.58052   0.84141
   9   20562.1    486.3   0.017965998   0.28765   0.02804   0.46239   0.27030
  10   20779.4    481.2   0.287902180   4.56130   0.36705  -2.00996  -0.62179
  11   22218.2    450.1   0.003394507   0.05030   0.06905  -0.03368   0.21070
  12   22361.2    447.2   0.003870845   0.05699   0.16331   0.00142   0.17412
  13   22532.6    443.8   0.023382207   0.34163   0.06697   0.13874   0.56382
  14   23005.1    434.7   0.042502513   0.60823  -0.14594  -0.76532  -0.03486
  15   23636.1    423.1   0.007818891   0.10890  -0.07402  -0.16968   0.27319
  16   23902.3    418.4   0.068553596   0.94420   0.45404   0.85206  -0.10976
  17   25215.4    396.6   0.017371970   0.22681   0.30896  -0.34665   0.10577
  18   25868.3    386.6   0.137595937   1.75111   0.33166  -1.17643   0.50707
  19   26016.6    384.4   0.045583250   0.57681   0.00493  -0.04438   0.75816
  20   26256.8    380.9   0.002476453   0.03105   0.09040  -0.14506   0.04284
  21   26380.3    379.1   0.004154382   0.05184   0.11200   0.16384   0.11162
  22   26647.5    375.3   0.025588562   0.31613  -0.49506   0.26607  -0.01579
  23   26767.4    373.6   0.019380720   0.23836  -0.22151   0.35439   0.25240
  24   27328.9    365.9   0.089938573   1.08343  -0.34918  -0.88805   0.41577
  25   27436.7    364.5   0.087469440   1.04954   0.35973  -0.83775  -0.46724
  26   27735.4    360.6   0.029647598   0.35191   0.29464   0.31567  -0.40675
  27   28032.2    356.7   0.014316207   0.16813   0.30178   0.24567   0.12926
  28   28332.9    352.9   0.102768721   1.19411  -0.18806   0.62798   0.87429
  29   28662.5    348.9   0.290831644   3.34044   0.58313  -1.71186  -0.26448
  30   28984.0    345.0   0.011930392   0.13551   0.27389   0.24290  -0.03865
  31   29250.4    341.9   0.057210041   0.64390  -0.09072  -0.75976   0.24171
  32   29540.4    338.5   0.131313869   1.46342   0.51594  -1.02161  -0.39186
  33   30169.2    331.5   0.095739165   1.04472  -0.30383   0.93950   0.26412
  34   30320.2    329.8   0.440912954   4.78737   0.77731   1.27173  -1.60183
  35   30554.1    327.3   0.023979122   0.25837  -0.41016   0.29981  -0.01571
  36   31123.9    321.3   0.018518369   0.19588  -0.05537  -0.41200   0.15189
  37   31155.7    321.0   0.110961082   1.17249   0.87493  -0.63302  -0.07919
  38   31342.4    319.1   0.016976245   0.17831  -0.11626  -0.27384   0.29968
  39   31441.6    318.1   0.050082745   0.52440   0.42860   0.24847  -0.52816
  40   31720.9    315.2   0.070323641   0.72985   0.73344  -0.40492  -0.16717
  41   31814.7    314.3   0.035783860   0.37028   0.32968   0.01504   0.51124
  42   32349.5    309.1   0.030106556   0.30639   0.18645   0.03681  -0.51987
  43   32649.2    306.3   0.092934865   0.93709  -0.12371   0.71029   0.64597
  44   32772.5    305.1   0.064750155   0.65044   0.52821  -0.48695   0.36649
  45   32919.5    303.8   0.024153665   0.24155   0.17798   0.29445   0.35096
  46   33078.9    302.3   0.011131202   0.11078  -0.12184   0.10624   0.29095
  47   33122.7    301.9   0.042755444   0.42495  -0.01676  -0.40363   0.51162
  48   33193.8    301.3   0.046105739   0.45727  -0.38164   0.50678   0.23409
  49   33530.4    298.2   0.058725407   0.57658  -0.37591   0.16315   0.63926
  50   33686.6    296.9   0.019979722   0.19526  -0.22187   0.17351   0.34048
  51   34177.0    292.6   0.051148651   0.49269   0.37871  -0.03054  -0.59020
  52   34282.8    291.7   0.024011509   0.23058   0.25881  -0.34274  -0.21477
  53   34534.1    289.6   0.031312124   0.29850  -0.37066   0.19684   0.34980
  54   34669.7    288.4   0.169372098   1.60830  -0.89619   0.69208   0.57112
  55   34996.7    285.7   0.158384155   1.48991   0.89290  -0.82307  -0.12322
  56   35078.9    285.1   0.086560601   0.81236   0.49848  -0.67418  -0.33072
  57   35392.3    282.5   0.092526196   0.86066   0.68324  -0.58732   0.22112
  58   35559.4    281.2   0.210755476   1.95119  -0.87760   0.42612   0.99972
  59   35699.4    280.1   0.116058498   1.07026  -0.40437   0.27141   0.91274
  60   36222.9    276.1   0.127797184   1.16149  -0.53969  -0.29755  -0.88413
  61   36469.3    274.2   0.022696060   0.20488  -0.29495  -0.32669  -0.10563
  62   36539.0    273.7   0.018632068   0.16787   0.09864   0.33595   0.21279
  63   36817.8    271.6   0.012122330   0.10839  -0.19322   0.03349   0.26446
  64   36887.8    271.1   0.154803434   1.38157  -0.17121   1.16134   0.05959
  65   37192.6    268.9   0.039980905   0.35389  -0.14868   0.35550  -0.45322
  66   37233.6    268.6   0.034869809   0.30831   0.13682  -0.06490  -0.53421
  67   37520.8    266.5   0.005846501   0.05130   0.07236  -0.21189  -0.03410
  68   37621.8    265.8   0.077307190   0.67648  -0.81715  -0.04852   0.07999
  69   37815.3    264.4   0.043676963   0.38024  -0.54478   0.18214   0.22424
  70   37889.4    263.9   0.012709113   0.11043   0.12661  -0.10623   0.28829
  71   37928.6    263.7   0.033328308   0.28928   0.01261  -0.30589   0.44221
  72   38027.0    263.0   0.010453854   0.09050   0.04379  -0.06019   0.29148
  73   38247.2    261.5   0.043230428   0.37210  -0.02988   0.25778  -0.55205
  74   38382.3    260.5   0.027994685   0.24012   0.10444  -0.15562   0.45276
  75   38390.7    260.5   0.004847576   0.04157   0.02872  -0.06282  -0.19183
  76   38598.3    259.1   0.017821186   0.15200   0.18899   0.30857   0.14515
  77   38650.9    258.7   0.054123454   0.46100  -0.37034   0.31009  -0.47717
  78   38995.5    256.4   0.036799863   0.31068  -0.27685  -0.14265   0.46226
  79   39066.0    256.0   0.018215116   0.15350  -0.29904  -0.23279   0.09939
  80   39252.7    254.8   0.137294792   1.15149   0.22382  -0.31312   1.00167
  81   39699.3    251.9   0.269403402   2.23406  -0.81329   0.27420  -1.22370
  82   39767.7    251.5   0.002195202   0.01817  -0.03219  -0.10161  -0.08254
  83   39912.5    250.5   0.046049524   0.37983  -0.28649  -0.04533   0.54378
  84   40152.7    249.0   0.125672830   1.03039  -0.11062   1.00666  -0.06914
  85   40272.8    248.3   0.052311875   0.42763  -0.03721  -0.62260   0.19651

FINAL SINGLE POINT ENERGY     -4544.684429113917

DIPOLE MOMENT
-------------
                                X             Y             Z
Electronic contribution:      8.20656      -2.96694      -8.16365
Nuclear contribution   :    -11.15826       4.77236      10.54618
                        -----------------------------------------
Total Dipole Moment    :     -2.95170       1.80542       2.38253
                        -----------------------------------------
Magnitude (a.u.)       :      4.20101
Magnitude (Debye)      :     10.67813

Rotational constants in cm-1:     0.002379     0.000283     0.000270
Rotational constants in MHz :    71.328400     8.489492     8.104007

                             ****ORCA TERMINATED NORMALLY****
TOTAL RUN TIME: 0 days 0 hours 11 minutes 26 seconds 510 msec
