                         Program Version 4.2.0 -  RELEASE  -
|  1> # ORCA input file
|  2> # SCF done       -201.799676993656          0.000930923715
|  3> ! CAM-B3LYP def2-SVP def2/J RIJCOSX Grid4 TightSCF
|  4> %maxcore 5000
|  5> %tddft
|  6>     Mode sTDDFT
|  7>     Ethresh 5.0
|  8>     maxcore 5000
|  9> end
| 10>
| 11> %pal
| 12>   nprocs 6
| 13>   end
| 14> * xyz 0 1
| 15>    C       -3.18990        -1.67580        -1.87610
| 16>    C       -2.96531        -2.64065        -0.92852
| 17>    C       -2.27521        -3.84559        -1.17803
| 18>    N       -1.72986        -4.84487        -1.32310
| 19>    C       -3.35555        -2.55497         0.42466
| 20>    N       -3.62390        -2.54600         1.54108
| 21>    C       -2.70288        -1.70523        -3.24908
| 22>    C       -3.01543        -0.46973        -3.86621
| 23>    C       -2.67911        -0.18120        -5.16657
| 24>    C       -1.99953        -1.16192        -5.89556
| 25>    C       -1.69563        -2.39752        -5.27372
| 26>    C       -2.03625        -2.68769        -3.95828
| 27>    S       -0.86063        -3.46824        -6.35707
| 28>    C       -0.92716        -2.25859        -7.61158
| 29>    C       -1.54346        -1.11087        -7.24072
| 30>   Br       -0.17988        -2.62577        -9.29124
| 31>    C       -3.73222         0.39610        -2.91275
| 32>    O       -4.17417         1.49991        -3.14689
| 33>    C       -3.87166        -0.40937        -1.67180
| 34>    C       -4.67488        -0.11461        -0.60570
| 35>    C       -5.27830         1.12121        -0.28897
| 36>    C       -4.94241         2.41584        -0.65993
| 37>    C       -5.80979         3.35548        -0.12041
| 38>    C       -6.82352         2.78340         0.67932
| 39>    S       -6.67529         1.09338         0.79427
| 40>    C       -7.68498         3.81863         1.11944
| 41>    C       -7.21822         5.04054         0.59883
| 42>    C       -6.00932         4.79349        -0.17247
| 43>    C       -5.22334         5.71896        -0.79120
| 44>    C       -4.03626         5.37651        -1.47541
| 45>    N       -3.05764         5.12205        -2.01464
| 46>    C       -5.53234         7.09633        -0.76193
| 47>    N       -5.78409         8.21418        -0.73430
| 48>    C       -8.02548         6.11959         0.94523
| 49>    C       -9.09813         5.72750         1.72875
| 50>    S       -9.10583         4.00338         2.04995
| 51>    C      -10.11980         6.57796         2.22470
| 52>    C      -11.16777         6.27888         3.07465
| 53>    F      -11.36004         5.05801         3.58530
| 54>    C      -12.00200         7.37089         3.34909
| 55>    F      -13.07307         7.29779         4.14643
| 56>    C      -11.62492         8.53558         2.70753
| 57>    S      -10.19291         8.25332         1.76092
| 58>    C      -12.24132         9.81313         2.73776
| 59>    C      -11.87400        10.91068         1.97650
| 60>    C      -12.68228        12.01263         2.23790
| 61>    C      -13.66411        11.75183         3.21162
| 62>    S      -13.60087        10.14779         3.79358
| 63>    C      -14.41424        12.93561         3.41919
| 64>    C      -13.91730        13.94034         2.56498
| 65>    C      -12.81678        13.39149         1.79149
| 66>    C      -12.07510        14.02443         0.83929
| 67>    C      -11.03388        13.37067         0.14534
| 68>    N      -10.19476        12.83532        -0.42321
| 69>    C      -12.31090        15.36666         0.47092
| 70>    N      -12.50555        16.45306         0.16197
| 71>    C      -14.59998        15.14470         2.69513
| 72>    C      -15.58165        15.08976         3.67218
| 73>    S      -15.69848        13.48417         4.39108
| 74>    C      -16.45705        16.14859         4.01146
| 75>    C      -17.20497        16.34038         5.12990
| 76>    C      -17.18108        15.73773         6.44675
| 77>    C      -16.07111        15.26736         7.09921
| 78>    C      -16.08548        14.78342         8.42304
| 79>    N      -16.05317        14.36286         9.49014
| 80>    C      -14.77344        15.31092         6.54980
| 81>    N      -13.70005        15.37526         6.14782
| 82>    C      -18.47183        16.00778         7.06923
| 83>    C      -19.16827        16.95584         6.27636
| 84>    C      -18.36974        17.26993         5.07571
| 85>    O      -18.61756        18.06652         4.20180
| 86>    C      -20.39683        17.45501         6.63556
| 87>    C      -20.96795        16.98973         7.82470
| 88>    C      -20.27112        16.03104         8.60029
| 89>    C      -19.02496        15.53149         8.24216
| 90>    S      -21.16357        15.58955        10.02300
| 91>    C      -22.44009        16.68748         9.56869
| 92>    C      -22.21292        17.34935         8.40898
| 93>   Br      -23.95090        16.85380        10.66607
| 94>    H       -2.93014         0.77217        -5.60427
| 95>    H       -1.78684        -3.64508        -3.53238
| 96>    H       -1.67241        -0.26239        -7.88755
| 97>    H       -4.92400        -0.92223         0.07267
| 98>    H       -4.10363         2.64777        -1.28785
| 99>    H       -7.86447         7.14172         0.65327
|100>    H      -11.05949        10.88284         1.27524
|101>    H      -14.38588        16.04145         2.14222
|102>    H      -16.60534        16.88935         3.23028
|103>    H      -20.90048        18.18428         6.02080
|104>    H      -18.53158        14.79895         8.85951
|105>    H      -22.89394        18.06256         7.98189
|106> *
|107>
|108>                          ****END OF INPUT****

CARTESIAN COORDINATES (ANGSTROEM)
---------------------------------
  C     -3.189900   -1.675800   -1.876100
  C     -2.965310   -2.640650   -0.928520
  C     -2.275210   -3.845590   -1.178030
  N     -1.729860   -4.844870   -1.323100
  C     -3.355550   -2.554970    0.424660
  N     -3.623900   -2.546000    1.541080
  C     -2.702880   -1.705230   -3.249080
  C     -3.015430   -0.469730   -3.866210
  C     -2.679110   -0.181200   -5.166570
  C     -1.999530   -1.161920   -5.895560
  C     -1.695630   -2.397520   -5.273720
  C     -2.036250   -2.687690   -3.958280
  S     -0.860630   -3.468240   -6.357070
  C     -0.927160   -2.258590   -7.611580
  C     -1.543460   -1.110870   -7.240720
  Br    -0.179880   -2.625770   -9.291240
  C     -3.732220    0.396100   -2.912750
  O     -4.174170    1.499910   -3.146890
  C     -3.871660   -0.409370   -1.671800
  C     -4.674880   -0.114610   -0.605700
  C     -5.278300    1.121210   -0.288970
  C     -4.942410    2.415840   -0.659930
  C     -5.809790    3.355480   -0.120410
  C     -6.823520    2.783400    0.679320
  S     -6.675290    1.093380    0.794270
  C     -7.684980    3.818630    1.119440
  C     -7.218220    5.040540    0.598830
  C     -6.009320    4.793490   -0.172470
  C     -5.223340    5.718960   -0.791200
  C     -4.036260    5.376510   -1.475410
  N     -3.057640    5.122050   -2.014640
  C     -5.532340    7.096330   -0.761930
  N     -5.784090    8.214180   -0.734300
  C     -8.025480    6.119590    0.945230
  C     -9.098130    5.727500    1.728750
  S     -9.105830    4.003380    2.049950
  C    -10.119800    6.577960    2.224700
  C    -11.167770    6.278880    3.074650
  F    -11.360040    5.058010    3.585300
  C    -12.002000    7.370890    3.349090
  F    -13.073070    7.297790    4.146430
  C    -11.624920    8.535580    2.707530
  S    -10.192910    8.253320    1.760920
  C    -12.241320    9.813130    2.737760
  C    -11.874000   10.910680    1.976500
  C    -12.682280   12.012630    2.237900
  C    -13.664110   11.751830    3.211620
  S    -13.600870   10.147790    3.793580
  C    -14.414240   12.935610    3.419190
  C    -13.917300   13.940340    2.564980
  C    -12.816780   13.391490    1.791490
  C    -12.075100   14.024430    0.839290
  C    -11.033880   13.370670    0.145340
  N    -10.194760   12.835320   -0.423210
  C    -12.310900   15.366660    0.470920
  N    -12.505550   16.453060    0.161970
  C    -14.599980   15.144700    2.695130
  C    -15.581650   15.089760    3.672180
  S    -15.698480   13.484170    4.391080
  C    -16.457050   16.148590    4.011460
  C    -17.204970   16.340380    5.129900
  C    -17.181080   15.737730    6.446750
  C    -16.071110   15.267360    7.099210
  C    -16.085480   14.783420    8.423040
  N    -16.053170   14.362860    9.490140
  C    -14.773440   15.310920    6.549800
  N    -13.700050   15.375260    6.147820
  C    -18.471830   16.007780    7.069230
  C    -19.168270   16.955840    6.276360
  C    -18.369740   17.269930    5.075710
  O    -18.617560   18.066520    4.201800
  C    -20.396830   17.455010    6.635560
  C    -20.967950   16.989730    7.824700
  C    -20.271120   16.031040    8.600290
  C    -19.024960   15.531490    8.242160
  S    -21.163570   15.589550   10.023000
  C    -22.440090   16.687480    9.568690
  C    -22.212920   17.349350    8.408980
  Br   -23.950900   16.853800   10.666070
  H     -2.930140    0.772170   -5.604270
  H     -1.786840   -3.645080   -3.532380
  H     -1.672410   -0.262390   -7.887550
  H     -4.924000   -0.922230    0.072670
  H     -4.103630    2.647770   -1.287850
  H     -7.864470    7.141720    0.653270
  H    -11.059490   10.882840    1.275240
  H    -14.385880   16.041450    2.142220
  H    -16.605340   16.889350    3.230280
  H    -20.900480   18.184280    6.020800
  H    -18.531580   14.798950    8.859510
  H    -22.893940   18.062560    7.981890

 Total Charge           Charge          ....    0
 Multiplicity           Mult            ....    1
 Number of Electrons    NEL             ....  632
 Basis Dimension        Dim             .... 1230

ORBITAL ENERGIES
----------------

  NO   OCC          E(Eh)            E(eV)
   0   2.0000    -482.890213    -13140.1107
   1   2.0000    -482.887235    -13140.0297
   2   2.0000     -89.004751     -2421.9424
   3   2.0000     -89.004645     -2421.9395
   4   2.0000     -89.001633     -2421.8576
   5   2.0000     -89.000901     -2421.8376
   6   2.0000     -88.997851     -2421.7546
   7   2.0000     -88.981093     -2421.2986
   8   2.0000     -88.978036     -2421.2155
   9   2.0000     -62.567904     -1702.5592
  10   2.0000     -62.564949     -1702.4788
  11   2.0000     -56.401861     -1534.7727
  12   2.0000     -56.399134     -1534.6985
  13   2.0000     -56.399105     -1534.6977
  14   2.0000     -56.398901     -1534.6921
  15   2.0000     -56.396180     -1534.6181
  16   2.0000     -56.396148     -1534.6172
  17   2.0000     -24.825384      -675.5331
  18   2.0000     -24.825115      -675.5257
  19   2.0000     -19.221538      -523.0446
  20   2.0000     -19.221343      -523.0393
  21   2.0000     -14.437971      -392.8772
  22   2.0000     -14.437525      -392.8650
  23   2.0000     -14.437408      -392.8618
  24   2.0000     -14.434793      -392.7907
  25   2.0000     -14.423073      -392.4718
  26   2.0000     -14.421599      -392.4317
  27   2.0000     -14.419147      -392.3649
  28   2.0000     -14.417590      -392.3226
  29   2.0000     -10.396162      -282.8939
  30   2.0000     -10.395717      -282.8818
  31   2.0000     -10.374528      -282.3053
  32   2.0000     -10.373863      -282.2872
  33   2.0000     -10.373456      -282.2761
  34   2.0000     -10.372836      -282.2592
  35   2.0000     -10.364133      -282.0224
  36   2.0000     -10.361243      -281.9438
  37   2.0000     -10.361146      -281.9411
  38   2.0000     -10.360005      -281.9101
  39   2.0000     -10.351377      -281.6753
  40   2.0000     -10.351069      -281.6669
  41   2.0000     -10.350606      -281.6543
  42   2.0000     -10.350577      -281.6535
  43   2.0000     -10.348985      -281.6102
  44   2.0000     -10.348435      -281.5952
  45   2.0000     -10.347644      -281.5737
  46   2.0000     -10.347515      -281.5702
  47   2.0000     -10.345550      -281.5167
  48   2.0000     -10.344860      -281.4980
  49   2.0000     -10.343289      -281.4552
  50   2.0000     -10.342805      -281.4420
  51   2.0000     -10.337806      -281.3060
  52   2.0000     -10.337232      -281.2904
  53   2.0000     -10.337161      -281.2884
  54   2.0000     -10.334113      -281.2055
  55   2.0000     -10.333942      -281.2009
  56   2.0000     -10.332145      -281.1520
  57   2.0000     -10.331661      -281.1388
  58   2.0000     -10.331294      -281.1288
  59   2.0000     -10.330419      -281.1050
  60   2.0000     -10.328263      -281.0463
  61   2.0000     -10.325430      -280.9692
  62   2.0000     -10.323643      -280.9206
  63   2.0000     -10.322084      -280.8782
  64   2.0000     -10.320416      -280.8328
  65   2.0000     -10.319654      -280.8121
  66   2.0000     -10.319085      -280.7966
  67   2.0000     -10.318562      -280.7823
  68   2.0000     -10.316152      -280.7168
  69   2.0000     -10.316082      -280.7148
  70   2.0000     -10.315932      -280.7108
  71   2.0000     -10.313795      -280.6526
  72   2.0000     -10.313572      -280.6466
  73   2.0000     -10.313359      -280.6408
  74   2.0000     -10.312763      -280.6246
  75   2.0000     -10.312641      -280.6212
  76   2.0000     -10.311143      -280.5805
  77   2.0000     -10.310113      -280.5525
  78   2.0000     -10.308449      -280.5072
  79   2.0000     -10.307627      -280.4848
  80   2.0000     -10.305556      -280.4284
  81   2.0000     -10.305243      -280.4199
  82   2.0000     -10.303486      -280.3721
  83   2.0000     -10.301735      -280.3245
  84   2.0000     -10.299684      -280.2687
  85   2.0000     -10.298606      -280.2393
  86   2.0000     -10.295144      -280.1451
  87   2.0000      -8.797320      -239.3872
  88   2.0000      -8.794385      -239.3074
  89   2.0000      -8.099076      -220.3871
  90   2.0000      -8.098926      -220.3830
  91   2.0000      -8.095918      -220.3011
  92   2.0000      -8.095668      -220.2943
  93   2.0000      -8.092694      -220.2134
  94   2.0000      -8.077156      -219.7906
  95   2.0000      -8.073896      -219.7019
  96   2.0000      -6.633642      -180.5106
  97   2.0000      -6.630694      -180.4304
  98   2.0000      -6.619059      -180.1138
  99   2.0000      -6.618821      -180.1073
 100   2.0000      -6.616118      -180.0337
 101   2.0000      -6.615912      -180.0281
 102   2.0000      -6.068442      -165.1307
 103   2.0000      -6.068275      -165.1262
 104   2.0000      -6.065186      -165.0421
 105   2.0000      -6.064814      -165.0320
 106   2.0000      -6.064117      -165.0130
 107   2.0000      -6.063952      -165.0085
 108   2.0000      -6.062268      -164.9627
 109   2.0000      -6.061291      -164.9361
 110   2.0000      -6.061176      -164.9330
 111   2.0000      -6.060943      -164.9266
 112   2.0000      -6.060670      -164.9192
 113   2.0000      -6.058429      -164.8582
 114   2.0000      -6.058291      -164.8545
 115   2.0000      -6.058158      -164.8509
 116   2.0000      -6.053892      -164.7348
 117   2.0000      -6.046835      -164.5428
 118   2.0000      -6.043590      -164.4545
 119   2.0000      -6.042568      -164.4266
 120   2.0000      -6.039303      -164.3378
 121   2.0000      -6.038367      -164.3123
 122   2.0000      -6.035170      -164.2253
 123   2.0000      -2.749520       -74.8182
 124   2.0000      -2.746575       -74.7381
 125   2.0000      -2.745389       -74.7058
 126   2.0000      -2.745277       -74.7028
 127   2.0000      -2.742481       -74.6267
 128   2.0000      -2.742303       -74.6219
 129   2.0000      -2.733652       -74.3864
 130   2.0000      -2.733642       -74.3862
 131   2.0000      -2.730725       -74.3068
 132   2.0000      -2.730719       -74.3066
 133   2.0000      -1.344166       -36.5766
 134   2.0000      -1.333087       -36.2751
 135   2.0000      -1.137705       -30.9585
 136   2.0000      -1.137224       -30.9454
 137   2.0000      -1.057867       -28.7860
 138   2.0000      -1.056876       -28.7591
 139   2.0000      -1.035173       -28.1685
 140   2.0000      -1.030973       -28.0542
 141   2.0000      -1.029277       -28.0080
 142   2.0000      -1.028075       -27.9753
 143   2.0000      -1.025934       -27.9171
 144   2.0000      -1.020251       -27.7624
 145   2.0000      -1.016402       -27.6577
 146   2.0000      -1.015398       -27.6304
 147   2.0000      -1.013605       -27.5816
 148   2.0000      -1.011579       -27.5265
 149   2.0000      -1.005417       -27.3588
 150   2.0000      -1.000119       -27.2146
 151   2.0000      -0.997269       -27.1371
 152   2.0000      -0.996435       -27.1144
 153   2.0000      -0.992797       -27.0154
 154   2.0000      -0.971929       -26.4475
 155   2.0000      -0.968112       -26.3437
 156   2.0000      -0.949246       -25.8303
 157   2.0000      -0.946378       -25.7523
 158   2.0000      -0.932642       -25.3785
 159   2.0000      -0.926872       -25.2215
 160   2.0000      -0.915038       -24.8995
 161   2.0000      -0.911211       -24.7953
 162   2.0000      -0.906612       -24.6702
 163   2.0000      -0.900544       -24.5050
 164   2.0000      -0.892420       -24.2840
 165   2.0000      -0.889919       -24.2159
 166   2.0000      -0.888528       -24.1781
 167   2.0000      -0.885311       -24.0905
 168   2.0000      -0.878240       -23.8981
 169   2.0000      -0.872713       -23.7477
 170   2.0000      -0.868320       -23.6282
 171   2.0000      -0.868135       -23.6231
 172   2.0000      -0.857446       -23.3323
 173   2.0000      -0.855447       -23.2779
 174   2.0000      -0.835467       -22.7342
 175   2.0000      -0.831930       -22.6380
 176   2.0000      -0.819952       -22.3120
 177   2.0000      -0.804451       -21.8902
 178   2.0000      -0.794818       -21.6281
 179   2.0000      -0.787420       -21.4268
 180   2.0000      -0.780616       -21.2416
 181   2.0000      -0.772560       -21.0224
 182   2.0000      -0.764856       -20.8128
 183   2.0000      -0.762401       -20.7460
 184   2.0000      -0.746425       -20.3113
 185   2.0000      -0.731970       -19.9179
 186   2.0000      -0.721376       -19.6296
 187   2.0000      -0.714028       -19.4297
 188   2.0000      -0.710607       -19.3366
 189   2.0000      -0.705082       -19.1862
 190   2.0000      -0.700775       -19.0691
 191   2.0000      -0.697531       -18.9808
 192   2.0000      -0.696288       -18.9470
 193   2.0000      -0.693131       -18.8610
 194   2.0000      -0.691002       -18.8031
 195   2.0000      -0.685063       -18.6415
 196   2.0000      -0.681679       -18.5494
 197   2.0000      -0.668795       -18.1988
 198   2.0000      -0.663869       -18.0648
 199   2.0000      -0.659895       -17.9567
 200   2.0000      -0.656379       -17.8610
 201   2.0000      -0.647396       -17.6166
 202   2.0000      -0.644873       -17.5479
 203   2.0000      -0.642035       -17.4707
 204   2.0000      -0.633406       -17.2359
 205   2.0000      -0.630421       -17.1546
 206   2.0000      -0.628377       -17.0990
 207   2.0000      -0.627852       -17.0847
 208   2.0000      -0.623436       -16.9645
 209   2.0000      -0.614105       -16.7106
 210   2.0000      -0.610298       -16.6071
 211   2.0000      -0.609669       -16.5899
 212   2.0000      -0.604681       -16.4542
 213   2.0000      -0.603700       -16.4275
 214   2.0000      -0.594914       -16.1884
 215   2.0000      -0.591444       -16.0940
 216   2.0000      -0.582889       -15.8612
 217   2.0000      -0.577641       -15.7184
 218   2.0000      -0.573882       -15.6161
 219   2.0000      -0.566502       -15.4153
 220   2.0000      -0.559014       -15.2115
 221   2.0000      -0.558476       -15.1969
 222   2.0000      -0.557965       -15.1830
 223   2.0000      -0.553621       -15.0648
 224   2.0000      -0.551438       -15.0054
 225   2.0000      -0.546595       -14.8736
 226   2.0000      -0.545557       -14.8454
 227   2.0000      -0.545094       -14.8328
 228   2.0000      -0.541369       -14.7314
 229   2.0000      -0.538336       -14.6489
 230   2.0000      -0.535199       -14.5635
 231   2.0000      -0.532704       -14.4956
 232   2.0000      -0.528573       -14.3832
 233   2.0000      -0.525665       -14.3041
 234   2.0000      -0.521484       -14.1903
 235   2.0000      -0.518455       -14.1079
 236   2.0000      -0.517331       -14.0773
 237   2.0000      -0.516275       -14.0486
 238   2.0000      -0.515833       -14.0365
 239   2.0000      -0.513830       -13.9820
 240   2.0000      -0.513645       -13.9770
 241   2.0000      -0.511425       -13.9166
 242   2.0000      -0.510018       -13.8783
 243   2.0000      -0.507193       -13.8014
 244   2.0000      -0.505509       -13.7556
 245   2.0000      -0.504429       -13.7262
 246   2.0000      -0.502157       -13.6644
 247   2.0000      -0.500049       -13.6070
 248   2.0000      -0.496736       -13.5169
 249   2.0000      -0.496348       -13.5063
 250   2.0000      -0.493863       -13.4387
 251   2.0000      -0.492423       -13.3995
 252   2.0000      -0.488038       -13.2802
 253   2.0000      -0.482871       -13.1396
 254   2.0000      -0.479219       -13.0402
 255   2.0000      -0.476838       -12.9754
 256   2.0000      -0.476664       -12.9707
 257   2.0000      -0.467912       -12.7325
 258   2.0000      -0.466722       -12.7001
 259   2.0000      -0.466612       -12.6972
 260   2.0000      -0.464727       -12.6459
 261   2.0000      -0.463897       -12.6233
 262   2.0000      -0.462584       -12.5875
 263   2.0000      -0.460353       -12.5268
 264   2.0000      -0.457781       -12.4568
 265   2.0000      -0.456227       -12.4146
 266   2.0000      -0.453902       -12.3513
 267   2.0000      -0.452397       -12.3103
 268   2.0000      -0.451825       -12.2948
 269   2.0000      -0.450919       -12.2701
 270   2.0000      -0.450567       -12.2605
 271   2.0000      -0.449439       -12.2299
 272   2.0000      -0.447833       -12.1862
 273   2.0000      -0.447509       -12.1773
 274   2.0000      -0.446835       -12.1590
 275   2.0000      -0.446154       -12.1405
 276   2.0000      -0.445896       -12.1334
 277   2.0000      -0.445406       -12.1201
 278   2.0000      -0.443162       -12.0590
 279   2.0000      -0.442057       -12.0290
 280   2.0000      -0.441468       -12.0129
 281   2.0000      -0.434994       -11.8368
 282   2.0000      -0.433584       -11.7984
 283   2.0000      -0.432981       -11.7820
 284   2.0000      -0.431359       -11.7379
 285   2.0000      -0.429702       -11.6928
 286   2.0000      -0.427865       -11.6428
 287   2.0000      -0.426463       -11.6047
 288   2.0000      -0.417094       -11.3497
 289   2.0000      -0.416660       -11.3379
 290   2.0000      -0.411586       -11.1998
 291   2.0000      -0.411199       -11.1893
 292   2.0000      -0.405973       -11.0471
 293   2.0000      -0.397899       -10.8274
 294   2.0000      -0.393227       -10.7002
 295   2.0000      -0.389639       -10.6026
 296   2.0000      -0.383286       -10.4297
 297   2.0000      -0.379521       -10.3273
 298   2.0000      -0.376526       -10.2458
 299   2.0000      -0.369672       -10.0593
 300   2.0000      -0.362677        -9.8689
 301   2.0000      -0.361145        -9.8273
 302   2.0000      -0.357774        -9.7355
 303   2.0000      -0.347825        -9.4648
 304   2.0000      -0.347072        -9.4443
 305   2.0000      -0.344409        -9.3718
 306   2.0000      -0.336145        -9.1470
 307   2.0000      -0.331717        -9.0265
 308   2.0000      -0.330376        -8.9900
 309   2.0000      -0.321340        -8.7441
 310   2.0000      -0.318246        -8.6599
 311   2.0000      -0.314240        -8.5509
 312   2.0000      -0.300089        -8.1658
 313   2.0000      -0.296448        -8.0668
 314   2.0000      -0.282248        -7.6804
 315   2.0000      -0.256527        -6.9804
 316   0.0000      -0.122913        -3.3446
 317   0.0000      -0.115747        -3.1496
 318   0.0000      -0.094459        -2.5704
 319   0.0000      -0.092386        -2.5140
 320   0.0000      -0.070004        -1.9049

MULLIKEN ATOMIC CHARGES
-----------------------
   0 C :    0.299536
   1 C :   -0.346219
   2 C :   -0.182388
   3 N :    0.150486
   4 C :   -0.202750
   5 N :    0.158372
   6 C :    0.021888
   7 C :   -0.019104
   8 C :   -0.069295
   9 C :    0.120037
  10 C :   -0.089863
  11 C :   -0.022952
  12 S :    0.188271
  13 C :   -0.123824
  14 C :    0.039360
  15 Br:    0.026650
  16 C :    0.147639
  17 O :   -0.150476
  18 C :   -0.095286
  19 C :    0.028453
  20 C :   -0.117422
  21 C :    0.051259
  22 C :   -0.030476
  23 C :   -0.083585
  24 S :    0.210396
  25 C :   -0.109353
  26 C :    0.030000
  27 C :    0.304925
  28 C :   -0.285553
  29 C :   -0.183397
  30 N :    0.186234
  31 C :   -0.193161
  32 N :    0.176965
  33 C :   -0.073635
  34 C :   -0.029627
  35 S :    0.227719
  36 C :   -0.136462
  37 C :    0.194521
  38 F :   -0.167613
  39 C :    0.193293
  40 F :   -0.168124
  41 C :   -0.136218
  42 S :    0.180255
  43 C :   -0.028281
  44 C :   -0.077383
  45 C :    0.029551
  46 C :   -0.106875
  47 S :    0.230364
  48 C :   -0.082909
  49 C :    0.022746
  50 C :    0.301009
  51 C :   -0.284560
  52 C :   -0.191674
  53 N :    0.180038
  54 C :   -0.189982
  55 N :    0.182814
  56 C :    0.008753
  57 C :   -0.095288
  58 S :    0.210533
  59 C :    0.039560
  60 C :   -0.132171
  61 C :    0.245876
  62 C :   -0.326098
  63 C :   -0.175469
  64 N :    0.158417
  65 C :   -0.208356
  66 N :    0.171676
  67 C :    0.006488
  68 C :    0.003584
  69 C :    0.137506
  70 O :   -0.139562
  71 C :   -0.070760
  72 C :    0.114923
  73 C :   -0.086668
  74 C :   -0.022973
  75 S :    0.187212
  76 C :   -0.123882
  77 C :    0.039500
  78 Br:    0.027547
  79 H :   -0.007527
  80 H :   -0.005566
  81 H :   -0.001046
  82 H :    0.023971
  83 H :    0.029398
  84 H :    0.018990
  85 H :    0.020079
  86 H :    0.019610
  87 H :    0.036434
  88 H :   -0.006256
  89 H :   -0.001440
  90 H :   -0.001328
Sum of atomic charges:   -0.0000000

LOEWDIN ATOMIC CHARGES
----------------------
   0 C :    0.075319
   1 C :   -0.141420
   2 C :   -0.018548
   3 N :   -0.051809
   4 C :   -0.024912
   5 N :   -0.052097
   6 C :   -0.021387
   7 C :   -0.050749
   8 C :    0.024640
   9 C :   -0.031663
  10 C :   -0.143328
  11 C :   -0.009316
  12 S :    0.434340
  13 C :   -0.270717
  14 C :   -0.069702
  15 Br:    0.139230
  16 C :    0.084303
  17 O :   -0.137940
  18 C :   -0.094816
  19 C :    0.043642
  20 C :   -0.179233
  21 C :    0.026418
  22 C :   -0.074402
  23 C :   -0.160113
  24 S :    0.494494
  25 C :   -0.190688
  26 C :   -0.052603
  27 C :    0.076250
  28 C :   -0.091395
  29 C :   -0.018659
  30 N :   -0.018131
  31 C :   -0.017052
  32 N :   -0.025870
  33 C :   -0.034217
  34 C :   -0.174435
  35 S :    0.498240
  36 C :   -0.212058
  37 C :    0.021840
  38 F :   -0.045323
  39 C :    0.021403
  40 F :   -0.045436
  41 C :   -0.211162
  42 S :    0.481903
  43 C :   -0.175477
  44 C :   -0.033119
  45 C :   -0.053091
  46 C :   -0.188584
  47 S :    0.500868
  48 C :   -0.152142
  49 C :   -0.071901
  50 C :    0.079135
  51 C :   -0.093491
  52 C :   -0.017388
  53 N :   -0.025186
  54 C :   -0.017341
  55 N :   -0.023916
  56 C :    0.014321
  57 C :   -0.178942
  58 S :    0.509858
  59 C :    0.050332
  60 C :   -0.099445
  61 C :    0.061592
  62 C :   -0.144421
  63 C :   -0.021210
  64 N :   -0.048360
  65 C :   -0.036756
  66 N :   -0.048027
  67 C :   -0.018605
  68 C :   -0.052739
  69 C :    0.083628
  70 O :   -0.139275
  71 C :    0.024297
  72 C :   -0.032332
  73 C :   -0.142675
  74 C :   -0.012197
  75 S :    0.434027
  76 C :   -0.270724
  77 C :   -0.069624
  78 Br:    0.140018
  79 H :    0.042309
  80 H :    0.041226
  81 H :    0.039714
  82 H :    0.044362
  83 H :    0.045406
  84 H :    0.037993
  85 H :    0.038118
  86 H :    0.047660
  87 H :    0.055857
  88 H :    0.042553
  89 H :    0.041169
  90 H :    0.039687

  Mayer bond orders larger than 0.100000
B(  0-C ,  1-C ) :   1.6341 B(  0-C ,  6-C ) :   1.0064 B(  0-C , 18-C ) :   1.0726
B(  1-C ,  2-C ) :   1.1423 B(  1-C ,  4-C ) :   1.1395 B(  2-C ,  3-N ) :   2.9707
B(  4-C ,  5-N ) :   2.9904 B(  6-C ,  7-C ) :   1.2714 B(  6-C , 11-C ) :   1.4067
B(  7-C ,  8-C ) :   1.4240 B(  7-C , 16-C ) :   0.9456 B(  8-C ,  9-C ) :   1.2442
B(  8-C , 79-H ) :   1.0173 B(  9-C , 10-C ) :   1.3028 B(  9-C , 14-C ) :   1.1643
B( 10-C , 11-C ) :   1.3312 B( 10-C , 12-S ) :   1.0876 B( 11-C , 80-H ) :   0.9807
B( 12-S , 13-C ) :   1.0867 B( 13-C , 14-C ) :   1.6177 B( 13-C , 15-Br) :   1.0206
B( 14-C , 81-H ) :   1.0002 B( 16-C , 17-O ) :   2.2010 B( 16-C , 18-C ) :   0.9427
B( 18-C , 19-C ) :   1.6038 B( 19-C , 20-C ) :   1.1877 B( 19-C , 82-H ) :   0.9280
B( 20-C , 21-C ) :   1.4117 B( 20-C , 24-S ) :   1.0749 B( 21-C , 22-C ) :   1.3459
B( 21-C , 83-H ) :   0.9739 B( 22-C , 23-C ) :   1.3871 B( 22-C , 27-C ) :   0.9977
B( 23-C , 24-S ) :   1.1643 B( 23-C , 25-C ) :   1.2065 B( 25-C , 26-C ) :   1.4325
B( 25-C , 35-S ) :   1.1020 B( 26-C , 27-C ) :   0.9934 B( 26-C , 33-C ) :   1.3131
B( 27-C , 28-C ) :   1.7217 B( 28-C , 29-C ) :   1.1315 B( 28-C , 31-C ) :   1.1339
B( 29-C , 30-N ) :   2.9925 B( 31-C , 32-N ) :   2.9901 B( 33-C , 34-C ) :   1.4388
B( 33-C , 84-H ) :   0.9891 B( 34-C , 35-S ) :   1.1192 B( 34-C , 36-C ) :   1.1697
B( 36-C , 37-C ) :   1.4553 B( 36-C , 41-C ) :   0.1265 B( 36-C , 42-S ) :   1.1085
B( 37-C , 38-F ) :   1.1560 B( 37-C , 39-C ) :   1.2115 B( 39-C , 40-F ) :   1.1544
B( 39-C , 41-C ) :   1.4557 B( 41-C , 42-S ) :   1.1090 B( 41-C , 43-C ) :   1.1692
B( 43-C , 44-C ) :   1.4366 B( 43-C , 47-S ) :   1.1195 B( 44-C , 45-C ) :   1.3142
B( 44-C , 85-H ) :   0.9898 B( 45-C , 46-C ) :   1.4316 B( 45-C , 50-C ) :   0.9930
B( 46-C , 47-S ) :   1.1035 B( 46-C , 48-C ) :   1.2135 B( 48-C , 49-C ) :   1.4043
B( 48-C , 58-S ) :   1.1572 B( 49-C , 50-C ) :   0.9936 B( 49-C , 56-C ) :   1.3045
B( 50-C , 51-C ) :   1.7224 B( 51-C , 52-C ) :   1.1332 B( 51-C , 54-C ) :   1.1314
B( 52-C , 53-N ) :   2.9914 B( 54-C , 55-N ) :   2.9946 B( 56-C , 57-C ) :   1.4021
B( 56-C , 86-H ) :   1.0006 B( 57-C , 58-S ) :   1.0861 B( 57-C , 59-C ) :   1.1360
B( 59-C , 60-C ) :   1.6513 B( 59-C , 87-H ) :   0.9437 B( 60-C , 61-C ) :   1.0337
B( 60-C , 69-C ) :   0.9368 B( 61-C , 62-C ) :   1.6515 B( 61-C , 67-C ) :   1.0164
B( 62-C , 63-C ) :   1.1298 B( 62-C , 65-C ) :   1.1571 B( 63-C , 64-N ) :   2.9925
B( 65-C , 66-N ) :   3.0181 B( 67-C , 68-C ) :   1.2748 B( 67-C , 74-C ) :   1.4127
B( 68-C , 69-C ) :   0.9225 B( 68-C , 71-C ) :   1.4254 B( 69-C , 70-O ) :   2.2709
B( 71-C , 72-C ) :   1.2528 B( 71-C , 88-H ) :   1.0167 B( 72-C , 73-C ) :   1.3038
B( 72-C , 77-C ) :   1.1631 B( 73-C , 74-C ) :   1.3284 B( 73-C , 75-S ) :   1.0855
B( 74-C , 89-H ) :   0.9842 B( 75-S , 76-C ) :   1.0865 B( 76-C , 77-C ) :   1.6181
B( 76-C , 78-Br) :   1.0214 B( 77-C , 90-H ) :   1.0010

-----------------------------------------------------------------------------
         ABSORPTION SPECTRUM VIA TRANSITION ELECTRIC DIPOLE MOMENTS
-----------------------------------------------------------------------------
State   Energy  Wavelength   fosc         T2         TX        TY        TZ
        (cm-1)    (nm)                  (au**2)     (au)      (au)      (au)
-----------------------------------------------------------------------------
   0   12802.2    781.1   0.752507709  19.35098   2.57747  -3.24634  -1.47273
   1   13856.8    721.7   0.043011096   1.02186   0.63920  -0.70404  -0.34296
   2   19691.0    507.8   1.728153525  28.89291  -3.16287   3.65212   2.35608
   3   21235.3    470.9   0.313724404   4.86368  -1.06454   1.93141  -0.00961
   4   21814.1    458.4   0.002782009   0.04199  -0.19269   0.06967  -0.00080
   5   23099.8    432.9   0.065318764   0.93091  -0.25262   0.63864   0.67767
   6   25376.8    394.1   0.067027421   0.86954   0.69428   0.36682  -0.50295
   7   25628.3    390.2   0.050794457   0.65249   0.34146  -0.27353   0.67902
   8   26553.8    376.6   0.547829162   6.79195  -1.92208   1.51874   0.88938
   9   27201.0    367.6   0.057097717   0.69105  -0.57034   0.34218  -0.49868
  10   27675.4    361.3   0.020039039   0.23837   0.01194   0.33852  -0.35162
  11   28243.0    354.1   0.059494740   0.69350  -0.17782  -0.59614   0.55362
  12   28713.9    348.3   0.017425660   0.19979  -0.30578   0.09603   0.31155
  13   28892.7    346.1   0.031871147   0.36315  -0.23121  -0.00263  -0.55649
  14   29002.9    344.8   0.011395803   0.12935   0.32128   0.04311  -0.15580
  15   29504.6    338.9   0.058479959   0.65252   0.65217  -0.06090  -0.47274
  16   29832.5    335.2   0.035459168   0.39130   0.28999  -0.32536   0.44872
  17   30098.8    332.2   0.171590189   1.87681  -0.85919  -0.20202   1.04775
  18   30423.1    328.7   0.324468977   3.51112   0.34054  -0.08890  -1.84045
  19   30556.6    327.3   0.224811351   2.42208  -1.31625  -0.26413   0.78727
  20   30927.5    323.3   0.209514182   2.23020   0.35869  -1.34193   0.54843
  21   31000.8    322.6   0.561651724   5.96443   1.82140  -0.48791  -1.55205
  22   31372.4    318.8   0.450407624   4.72643  -1.22961  -1.56772   0.86992
  23   32291.6    309.7   0.189972359   1.93677   0.44121   0.36364  -1.26881
  24   32719.8    305.6   0.155196960   1.56152  -0.52762   0.72117   0.87353
  25   32848.9    304.4   0.016150093   0.16186   0.25928  -0.28986   0.10301
  26   33138.1    301.8   0.291628613   2.89720  -1.47041   0.78346   0.34824
  27   33167.7    301.5   0.130001624   1.29036   0.83695   0.24144  -0.72909
  28   33373.5    299.6   0.003560327   0.03512   0.05763  -0.17345   0.04140
  29   33546.7    298.1   0.022417376   0.21999  -0.36753   0.13790   0.25671
  30   33668.9    297.0   0.119937588   1.17274   0.04079   1.06344  -0.20042
  31   33884.9    295.1   0.045792031   0.44490  -0.03005  -0.66573  -0.02824
  32   33917.1    294.8   0.037150892   0.36060  -0.34317  -0.34368   0.35316
  33   34281.4    291.7   0.398104212   3.82309  -0.22540  -1.02488   1.64982
  34   34515.1    289.7   0.012466309   0.11891   0.24525  -0.16875   0.17402
  35   34763.0    287.7   0.149606083   1.41680   0.93912   0.14072  -0.71767
  36   34889.8    286.6   0.132361841   1.24893  -0.79647  -0.02858   0.78342
  37   35338.2    283.0   0.200775168   1.87043   0.85927   0.90151  -0.56513
  38   35538.1    281.4   0.153134464   1.41858   0.77334  -0.79688   0.43070
  39   35908.1    278.5   0.050492241   0.46292   0.66880   0.10315   0.07060
  40   36103.1    277.0   0.083316407   0.75973   0.65131   0.13370  -0.56361
  41   36282.1    275.6   0.015779503   0.14318  -0.28288  -0.24849   0.03757
  42   36568.2    273.5   0.037291995   0.33573  -0.52728   0.24016  -0.00459
  43   36917.4    270.9   0.126337933   1.12662   0.65528  -0.48553  -0.67933
  44   37382.6    267.5   0.078663924   0.69276   0.60786  -0.56625  -0.05118
  45   37510.9    266.6   0.073856255   0.64820   0.43340   0.20119  -0.64798
  46   37661.1    265.5   0.010207791   0.08923   0.25182   0.13695   0.08405
  47   37800.8    264.5   0.010060263   0.08762   0.12091  -0.19544   0.18655
  48   38321.8    260.9   0.021967724   0.18872  -0.08864  -0.39635   0.15418
  49   38623.3    258.9   0.018562279   0.15822   0.03137   0.22658  -0.32541
  50   38950.3    256.7   0.020895448   0.17661  -0.23004  -0.26101   0.23572
  51   39094.3    255.8   0.064527986   0.54339   0.51777  -0.41432  -0.32194
  52   39473.0    253.3   0.023395956   0.19513   0.06101  -0.41243   0.14596
  53   39692.1    251.9   0.021068340   0.17474  -0.02764   0.18807   0.37230
  54   39817.9    251.1   0.088228232   0.72947  -0.22182   0.81186  -0.14544
  55   39981.5    250.1   0.007233332   0.05956  -0.15425   0.14040   0.12671
  56   40263.8    248.4   0.072317358   0.59129   0.20697  -0.63388   0.38296

FINAL SINGLE POINT ENERGY    -10935.996090326593

DIPOLE MOMENT
-------------
                                X             Y             Z
Electronic contribution:    -33.84363     -21.92472      -6.64284
Nuclear contribution   :     30.23839      21.52629       6.18552
                        -----------------------------------------
Total Dipole Moment    :     -3.60524      -0.39843      -0.45732
                        -----------------------------------------
Magnitude (a.u.)       :      3.65590
Magnitude (Debye)      :      9.29256

Rotational constants in cm-1:     0.001747     0.000104     0.000100
Rotational constants in MHz :    52.369189     3.112213     2.997934

                             ****ORCA TERMINATED NORMALLY****
TOTAL RUN TIME: 0 days 0 hours 9 minutes 46 seconds 68 msec
