                         Program Version 4.2.0 -  RELEASE  -
|  1> # ORCA input file
|  2> # SCF done       -171.199028882399          0.000852815725
|  3> ! CAM-B3LYP def2-SVP def2/J RIJCOSX Grid4 TightSCF
|  4> %maxcore 5000
|  5> %tddft
|  6>     Mode sTDDFT
|  7>     Ethresh 5.0
|  8>     maxcore 5000
|  9> end
| 10>
| 11> %pal
| 12>   nprocs 6
| 13>   end
| 14> * xyz 0 1
| 15>    C       -6.98584         4.98122         5.91610
| 16>    C       -6.61255         5.67076         7.03849
| 17>    C       -7.46215         5.89050         8.14211
| 18>    N       -8.11542         6.10067         9.06233
| 19>    C       -5.31591         6.18345         7.25812
| 20>    N       -4.27210         6.58861         7.51095
| 21>    C       -8.26126         4.31301         5.69974
| 22>    C       -8.15149         3.51010         4.52885
| 23>    C       -9.19876         2.76851         4.06381
| 24>    C      -10.43044         2.80750         4.75528
| 25>    C      -10.54962         3.61400         5.92399
| 26>    C       -9.44371         4.36295         6.38841
| 27>    C      -11.78747         3.65396         6.59718
| 28>    C      -12.85751         2.93440         6.13916
| 29>    C      -12.73890         2.14043         4.98879
| 30>    C      -11.55066         2.07694         4.31281
| 31>    C       -6.80047         3.64920         3.95428
| 32>    O       -6.36205         3.04721         2.99799
| 33>    C       -6.14025         4.70514         4.76691
| 34>    C       -5.09576         5.49260         4.37814
| 35>    C       -4.24306         5.32908         3.26192
| 36>    C       -3.83909         4.19063         2.58206
| 37>    C       -3.01262         4.44727         1.49444
| 38>    C       -2.45529         3.39373         0.60354
| 39>    C       -2.78564         5.81776         1.31897
| 40>    S       -3.54606         6.76739         2.55838
| 41>    C       -2.12361         6.48355         0.27350
| 42>    C       -2.07881         7.87828         0.13103
| 43>    C       -1.45242         8.31255        -1.08345
| 44>    N       -1.28745         9.61020        -1.34647
| 45>    C       -1.76829        10.46141        -0.46817
| 46>    C       -1.53716        11.90657        -0.72781
| 47>    O       -0.87024        12.31118        -1.65446
| 48>    C       -2.16480        12.82124         0.24454
| 49>    C       -2.85189        12.41266         1.31559
| 50>    C       -3.07366        10.99524         1.65102
| 51>    O       -3.71051        10.65014         2.62364
| 52>    C       -2.46574        10.02627         0.70564
| 53>    N       -2.59381         8.74934         0.99586
| 54>    C       -1.02002         7.25045        -1.88515
| 55>    S       -1.35397         5.73765        -1.09308
| 56>    C       -0.46935         7.35230        -3.17560
| 57>    C        0.18967         6.36321        -3.89999
| 58>    C        0.56782         6.77738        -5.16276
| 59>    C        1.31204         5.91507        -6.12496
| 60>    C        0.14894         8.09648        -5.44436
| 61>    S       -0.67712         8.81254        -4.08394
| 62>    C        0.39282         8.71203        -6.68097
| 63>    C       -0.04921         9.91221        -7.17606
| 64>    C        0.25761        10.44728        -8.48812
| 65>    C        1.18879         9.97323        -9.37833
| 66>    C        1.44356        10.55406       -10.63780
| 67>    N        1.69734        10.97363       -11.67599
| 68>    C        2.03010         8.86187        -9.16946
| 69>    N        2.74965         7.97069        -9.07390
| 70>    C       -0.58396        11.62249        -8.69255
| 71>    C       -1.34732        11.84309        -7.51039
| 72>    C       -1.01863        10.80439        -6.52233
| 73>    O       -1.48886        10.69195        -5.40529
| 74>    C       -2.23495        12.87342        -7.40198
| 75>    C       -2.41162        13.74612        -8.49937
| 76>    C       -1.65845        13.52967        -9.68900
| 77>    C       -0.73975        12.45676        -9.76726
| 78>    C       -1.85051        14.40000       -10.78089
| 79>    C       -2.74323        15.43452       -10.70360
| 80>    C       -3.48311        15.64729        -9.53124
| 81>    C       -3.31989        14.82143        -8.45199
| 82>    H       -9.09199         2.16560         3.17416
| 83>    H       -9.56430         4.97166         7.27077
| 84>    H      -11.87376         4.26594         7.48300
| 85>    H      -13.80208         2.97374         6.66071
| 86>    H      -13.59379         1.58047         4.64018
| 87>    H      -11.45336         1.46787         3.42590
| 88>    H       -4.93957         6.41657         4.92452
| 89>    H       -4.13380         3.20140         2.87681
| 90>    H       -1.36797         3.45612         0.56165
| 91>    H       -2.83259         3.51260        -0.41269
| 92>    H       -2.74124         2.41135         0.96785
| 93>    H       -2.02204        13.87323         0.03637
| 94>    H       -3.29029        13.11952         2.00728
| 95>    H        0.39366         5.38636        -3.49596
| 96>    H        1.56887         4.97033        -5.65386
| 97>    H        2.22939         6.39881        -6.45734
| 98>    H        0.70736         5.70743        -7.00721
| 99>    H        0.99926         8.11426        -7.34876
|100>    H       -2.79693        13.01876        -6.49143
|101>    H       -0.18775        12.31971       -10.68346
|102>    H       -1.27791        14.23303       -11.68145
|103>    H       -2.88391        16.09481       -11.54623
|104>    H       -4.18333        16.46811        -9.48737
|105>    H       -3.88678        14.97973        -7.54616
|106> *
|107>
|108>                          ****END OF INPUT****

CARTESIAN COORDINATES (ANGSTROEM)
---------------------------------
  C     -6.985840    4.981220    5.916100
  C     -6.612550    5.670760    7.038490
  C     -7.462150    5.890500    8.142110
  N     -8.115420    6.100670    9.062330
  C     -5.315910    6.183450    7.258120
  N     -4.272100    6.588610    7.510950
  C     -8.261260    4.313010    5.699740
  C     -8.151490    3.510100    4.528850
  C     -9.198760    2.768510    4.063810
  C    -10.430440    2.807500    4.755280
  C    -10.549620    3.614000    5.923990
  C     -9.443710    4.362950    6.388410
  C    -11.787470    3.653960    6.597180
  C    -12.857510    2.934400    6.139160
  C    -12.738900    2.140430    4.988790
  C    -11.550660    2.076940    4.312810
  C     -6.800470    3.649200    3.954280
  O     -6.362050    3.047210    2.997990
  C     -6.140250    4.705140    4.766910
  C     -5.095760    5.492600    4.378140
  C     -4.243060    5.329080    3.261920
  C     -3.839090    4.190630    2.582060
  C     -3.012620    4.447270    1.494440
  C     -2.455290    3.393730    0.603540
  C     -2.785640    5.817760    1.318970
  S     -3.546060    6.767390    2.558380
  C     -2.123610    6.483550    0.273500
  C     -2.078810    7.878280    0.131030
  C     -1.452420    8.312550   -1.083450
  N     -1.287450    9.610200   -1.346470
  C     -1.768290   10.461410   -0.468170
  C     -1.537160   11.906570   -0.727810
  O     -0.870240   12.311180   -1.654460
  C     -2.164800   12.821240    0.244540
  C     -2.851890   12.412660    1.315590
  C     -3.073660   10.995240    1.651020
  O     -3.710510   10.650140    2.623640
  C     -2.465740   10.026270    0.705640
  N     -2.593810    8.749340    0.995860
  C     -1.020020    7.250450   -1.885150
  S     -1.353970    5.737650   -1.093080
  C     -0.469350    7.352300   -3.175600
  C      0.189670    6.363210   -3.899990
  C      0.567820    6.777380   -5.162760
  C      1.312040    5.915070   -6.124960
  C      0.148940    8.096480   -5.444360
  S     -0.677120    8.812540   -4.083940
  C      0.392820    8.712030   -6.680970
  C     -0.049210    9.912210   -7.176060
  C      0.257610   10.447280   -8.488120
  C      1.188790    9.973230   -9.378330
  C      1.443560   10.554060  -10.637800
  N      1.697340   10.973630  -11.675990
  C      2.030100    8.861870   -9.169460
  N      2.749650    7.970690   -9.073900
  C     -0.583960   11.622490   -8.692550
  C     -1.347320   11.843090   -7.510390
  C     -1.018630   10.804390   -6.522330
  O     -1.488860   10.691950   -5.405290
  C     -2.234950   12.873420   -7.401980
  C     -2.411620   13.746120   -8.499370
  C     -1.658450   13.529670   -9.689000
  C     -0.739750   12.456760   -9.767260
  C     -1.850510   14.400000  -10.780890
  C     -2.743230   15.434520  -10.703600
  C     -3.483110   15.647290   -9.531240
  C     -3.319890   14.821430   -8.451990
  H     -9.091990    2.165600    3.174160
  H     -9.564300    4.971660    7.270770
  H    -11.873760    4.265940    7.483000
  H    -13.802080    2.973740    6.660710
  H    -13.593790    1.580470    4.640180
  H    -11.453360    1.467870    3.425900
  H     -4.939570    6.416570    4.924520
  H     -4.133800    3.201400    2.876810
  H     -1.367970    3.456120    0.561650
  H     -2.832590    3.512600   -0.412690
  H     -2.741240    2.411350    0.967850
  H     -2.022040   13.873230    0.036370
  H     -3.290290   13.119520    2.007280
  H      0.393660    5.386360   -3.495960
  H      1.568870    4.970330   -5.653860
  H      2.229390    6.398810   -6.457340
  H      0.707360    5.707430   -7.007210
  H      0.999260    8.114260   -7.348760
  H     -2.796930   13.018760   -6.491430
  H     -0.187750   12.319710  -10.683460
  H     -1.277910   14.233030  -11.681450
  H     -2.883910   16.094810  -11.546230
  H     -4.183330   16.468110   -9.487370
  H     -3.886780   14.979730   -7.546160

 Total Charge           Charge          ....    0
 Multiplicity           Mult            ....    1
 Number of Electrons    NEL             ....  470
 Basis Dimension        Dim             .... 1070

ORBITAL ENERGIES
----------------

  NO   OCC          E(Eh)            E(eV)
   0   2.0000     -89.006190     -2421.9815
   1   2.0000     -88.964793     -2420.8551
   2   2.0000     -88.962198     -2420.7845
   3   2.0000     -19.229240      -523.2542
   4   2.0000     -19.228198      -523.2259
   5   2.0000     -19.215748      -522.8871
   6   2.0000     -19.213824      -522.8347
   7   2.0000     -14.455323      -393.3493
   8   2.0000     -14.452118      -393.2621
   9   2.0000     -14.413452      -392.2100
  10   2.0000     -14.411635      -392.1605
  11   2.0000     -14.409739      -392.1089
  12   2.0000     -14.408269      -392.0689
  13   2.0000     -10.378831      -282.4224
  14   2.0000     -10.377550      -282.3875
  15   2.0000     -10.367574      -282.1160
  16   2.0000     -10.362318      -281.9730
  17   2.0000     -10.346542      -281.5437
  18   2.0000     -10.346047      -281.5303
  19   2.0000     -10.342600      -281.4365
  20   2.0000     -10.338574      -281.3269
  21   2.0000     -10.338486      -281.3245
  22   2.0000     -10.337638      -281.3014
  23   2.0000     -10.336469      -281.2696
  24   2.0000     -10.335569      -281.2451
  25   2.0000     -10.335461      -281.2422
  26   2.0000     -10.334392      -281.2131
  27   2.0000     -10.326100      -280.9875
  28   2.0000     -10.320939      -280.8470
  29   2.0000     -10.320502      -280.8351
  30   2.0000     -10.317019      -280.7404
  31   2.0000     -10.316960      -280.7387
  32   2.0000     -10.314316      -280.6668
  33   2.0000     -10.312483      -280.6169
  34   2.0000     -10.311936      -280.6020
  35   2.0000     -10.310857      -280.5727
  36   2.0000     -10.310100      -280.5521
  37   2.0000     -10.309423      -280.5337
  38   2.0000     -10.307040      -280.4688
  39   2.0000     -10.300874      -280.3010
  40   2.0000     -10.300498      -280.2908
  41   2.0000     -10.298512      -280.2368
  42   2.0000     -10.298337      -280.2320
  43   2.0000     -10.297777      -280.2168
  44   2.0000     -10.296574      -280.1840
  45   2.0000     -10.296300      -280.1766
  46   2.0000     -10.295389      -280.1518
  47   2.0000     -10.295199      -280.1466
  48   2.0000     -10.293587      -280.1028
  49   2.0000     -10.293288      -280.0946
  50   2.0000     -10.292138      -280.0633
  51   2.0000     -10.291964      -280.0586
  52   2.0000     -10.291219      -280.0383
  53   2.0000     -10.287490      -279.9368
  54   2.0000     -10.285778      -279.8902
  55   2.0000     -10.285274      -279.8765
  56   2.0000     -10.285230      -279.8753
  57   2.0000     -10.284898      -279.8663
  58   2.0000     -10.284721      -279.8615
  59   2.0000     -10.284392      -279.8525
  60   2.0000     -10.284383      -279.8523
  61   2.0000     -10.283652      -279.8324
  62   2.0000     -10.283381      -279.8250
  63   2.0000     -10.282737      -279.8075
  64   2.0000     -10.282371      -279.7975
  65   2.0000     -10.281866      -279.7838
  66   2.0000     -10.275607      -279.6135
  67   2.0000      -8.099784      -220.4063
  68   2.0000      -8.059235      -219.3029
  69   2.0000      -8.055123      -219.1910
  70   2.0000      -6.068877      -165.1425
  71   2.0000      -6.064611      -165.0264
  72   2.0000      -6.062682      -164.9740
  73   2.0000      -6.028623      -164.0472
  74   2.0000      -6.024588      -163.9374
  75   2.0000      -6.024287      -163.9292
  76   2.0000      -6.021231      -163.8460
  77   2.0000      -6.019877      -163.8092
  78   2.0000      -6.017270      -163.7382
  79   2.0000      -1.146535       -31.1988
  80   2.0000      -1.141676       -31.0666
  81   2.0000      -1.130877       -30.7727
  82   2.0000      -1.129985       -30.7485
  83   2.0000      -1.106419       -30.1072
  84   2.0000      -1.034697       -28.1555
  85   2.0000      -1.018517       -27.7152
  86   2.0000      -1.014665       -27.6104
  87   2.0000      -1.013724       -27.5848
  88   2.0000      -0.997899       -27.1542
  89   2.0000      -0.995538       -27.0900
  90   2.0000      -0.994681       -27.0667
  91   2.0000      -0.989428       -26.9237
  92   2.0000      -0.989048       -26.9134
  93   2.0000      -0.985986       -26.8301
  94   2.0000      -0.969508       -26.3817
  95   2.0000      -0.966819       -26.3085
  96   2.0000      -0.941772       -25.6269
  97   2.0000      -0.924991       -25.1703
  98   2.0000      -0.921288       -25.0695
  99   2.0000      -0.911828       -24.8121
 100   2.0000      -0.902676       -24.5631
 101   2.0000      -0.890940       -24.2437
 102   2.0000      -0.885364       -24.0920
 103   2.0000      -0.879950       -23.9447
 104   2.0000      -0.877455       -23.8768
 105   2.0000      -0.877142       -23.8682
 106   2.0000      -0.872220       -23.7343
 107   2.0000      -0.868258       -23.6265
 108   2.0000      -0.856238       -23.2994
 109   2.0000      -0.830764       -22.6062
 110   2.0000      -0.826799       -22.4983
 111   2.0000      -0.824165       -22.4267
 112   2.0000      -0.818900       -22.2834
 113   2.0000      -0.799997       -21.7690
 114   2.0000      -0.797527       -21.7018
 115   2.0000      -0.793711       -21.5980
 116   2.0000      -0.786685       -21.4068
 117   2.0000      -0.778062       -21.1721
 118   2.0000      -0.761454       -20.7202
 119   2.0000      -0.758750       -20.6466
 120   2.0000      -0.757626       -20.6160
 121   2.0000      -0.741584       -20.1795
 122   2.0000      -0.729730       -19.8570
 123   2.0000      -0.706835       -19.2340
 124   2.0000      -0.702293       -19.1104
 125   2.0000      -0.701498       -19.0887
 126   2.0000      -0.698213       -18.9994
 127   2.0000      -0.695286       -18.9197
 128   2.0000      -0.689788       -18.7701
 129   2.0000      -0.681181       -18.5359
 130   2.0000      -0.676125       -18.3983
 131   2.0000      -0.673253       -18.3201
 132   2.0000      -0.666753       -18.1433
 133   2.0000      -0.659713       -17.9517
 134   2.0000      -0.652284       -17.7496
 135   2.0000      -0.638824       -17.3833
 136   2.0000      -0.634692       -17.2709
 137   2.0000      -0.629998       -17.1431
 138   2.0000      -0.622907       -16.9502
 139   2.0000      -0.621326       -16.9071
 140   2.0000      -0.609082       -16.5740
 141   2.0000      -0.605471       -16.4757
 142   2.0000      -0.603927       -16.4337
 143   2.0000      -0.601677       -16.3725
 144   2.0000      -0.598402       -16.2833
 145   2.0000      -0.592931       -16.1345
 146   2.0000      -0.578053       -15.7296
 147   2.0000      -0.574009       -15.6196
 148   2.0000      -0.571243       -15.5443
 149   2.0000      -0.569315       -15.4919
 150   2.0000      -0.562315       -15.3014
 151   2.0000      -0.554811       -15.0972
 152   2.0000      -0.552837       -15.0435
 153   2.0000      -0.550856       -14.9896
 154   2.0000      -0.545279       -14.8378
 155   2.0000      -0.544133       -14.8066
 156   2.0000      -0.539468       -14.6797
 157   2.0000      -0.538068       -14.6416
 158   2.0000      -0.535367       -14.5681
 159   2.0000      -0.534564       -14.5462
 160   2.0000      -0.531918       -14.4742
 161   2.0000      -0.528804       -14.3895
 162   2.0000      -0.527243       -14.3470
 163   2.0000      -0.523234       -14.2379
 164   2.0000      -0.522839       -14.2272
 165   2.0000      -0.521224       -14.1832
 166   2.0000      -0.518539       -14.1102
 167   2.0000      -0.516376       -14.0513
 168   2.0000      -0.515362       -14.0237
 169   2.0000      -0.513368       -13.9694
 170   2.0000      -0.512624       -13.9492
 171   2.0000      -0.508927       -13.8486
 172   2.0000      -0.507687       -13.8149
 173   2.0000      -0.506864       -13.7925
 174   2.0000      -0.500808       -13.6277
 175   2.0000      -0.496250       -13.5036
 176   2.0000      -0.493304       -13.4235
 177   2.0000      -0.493108       -13.4181
 178   2.0000      -0.492389       -13.3986
 179   2.0000      -0.491114       -13.3639
 180   2.0000      -0.488183       -13.2841
 181   2.0000      -0.484662       -13.1883
 182   2.0000      -0.483805       -13.1650
 183   2.0000      -0.482000       -13.1159
 184   2.0000      -0.476691       -12.9714
 185   2.0000      -0.472382       -12.8542
 186   2.0000      -0.466289       -12.6884
 187   2.0000      -0.463717       -12.6184
 188   2.0000      -0.461905       -12.5691
 189   2.0000      -0.459310       -12.4985
 190   2.0000      -0.457736       -12.4556
 191   2.0000      -0.449822       -12.2403
 192   2.0000      -0.445764       -12.1298
 193   2.0000      -0.444560       -12.0971
 194   2.0000      -0.442194       -12.0327
 195   2.0000      -0.441194       -12.0055
 196   2.0000      -0.440721       -11.9926
 197   2.0000      -0.439791       -11.9673
 198   2.0000      -0.437689       -11.9101
 199   2.0000      -0.436679       -11.8826
 200   2.0000      -0.435944       -11.8626
 201   2.0000      -0.431491       -11.7415
 202   2.0000      -0.430667       -11.7190
 203   2.0000      -0.430123       -11.7042
 204   2.0000      -0.429438       -11.6856
 205   2.0000      -0.422669       -11.5014
 206   2.0000      -0.422353       -11.4928
 207   2.0000      -0.421038       -11.4570
 208   2.0000      -0.416717       -11.3394
 209   2.0000      -0.412419       -11.2225
 210   2.0000      -0.407657       -11.0929
 211   2.0000      -0.406524       -11.0621
 212   2.0000      -0.402283       -10.9467
 213   2.0000      -0.399861       -10.8808
 214   2.0000      -0.388719       -10.5776
 215   2.0000      -0.381031       -10.3684
 216   2.0000      -0.376346       -10.2409
 217   2.0000      -0.374784       -10.1984
 218   2.0000      -0.369807       -10.0630
 219   2.0000      -0.365803        -9.9540
 220   2.0000      -0.357768        -9.7354
 221   2.0000      -0.353318        -9.6143
 222   2.0000      -0.348825        -9.4920
 223   2.0000      -0.342738        -9.3264
 224   2.0000      -0.339947        -9.2504
 225   2.0000      -0.328173        -8.9300
 226   2.0000      -0.327145        -8.9021
 227   2.0000      -0.322403        -8.7730
 228   2.0000      -0.319312        -8.6889
 229   2.0000      -0.315068        -8.5734
 230   2.0000      -0.312959        -8.5161
 231   2.0000      -0.297192        -8.0870
 232   2.0000      -0.291474        -7.9314
 233   2.0000      -0.284209        -7.7337
 234   2.0000      -0.245324        -6.6756
 235   0.0000      -0.117088        -3.1861
 236   0.0000      -0.094826        -2.5803
 237   0.0000      -0.078249        -2.1293
 238   0.0000      -0.076198        -2.0734
 239   0.0000      -0.054074        -1.4714

MULLIKEN ATOMIC CHARGES
-----------------------
   0 C :    0.282080
   1 C :   -0.336909
   2 C :   -0.179477
   3 N :    0.145863
   4 C :   -0.210374
   5 N :    0.169197
   6 C :    0.053356
   7 C :   -0.004055
   8 C :   -0.084978
   9 C :    0.099848
  10 C :    0.097199
  11 C :   -0.084315
  12 C :   -0.019665
  13 C :    0.035840
  14 C :    0.037416
  15 C :   -0.018767
  16 C :    0.154869
  17 O :   -0.153883
  18 C :   -0.099895
  19 C :    0.042245
  20 C :   -0.097639
  21 C :    0.040453
  22 C :   -0.112480
  23 C :    0.118913
  24 C :   -0.103137
  25 S :    0.205154
  26 C :   -0.125120
  27 C :    0.029320
  28 C :    0.027664
  29 N :    0.068828
  30 C :   -0.117082
  31 C :    0.140917
  32 O :   -0.094679
  33 C :   -0.016856
  34 C :   -0.017857
  35 C :    0.140930
  36 O :   -0.103758
  37 C :   -0.114172
  38 N :    0.043149
  39 C :   -0.118368
  40 S :    0.189072
  41 C :   -0.048640
  42 C :   -0.055415
  43 C :   -0.053255
  44 C :    0.134801
  45 C :   -0.083244
  46 S :    0.251748
  47 C :   -0.048696
  48 C :   -0.094538
  49 C :    0.320249
  50 C :   -0.355424
  51 C :   -0.185092
  52 N :    0.146587
  53 C :   -0.190921
  54 N :    0.138979
  55 C :    0.043690
  56 C :   -0.001906
  57 C :    0.166898
  58 O :   -0.171241
  59 C :   -0.079848
  60 C :    0.097175
  61 C :    0.094052
  62 C :   -0.082816
  63 C :   -0.017692
  64 C :    0.034677
  65 C :    0.034305
  66 C :   -0.016955
  67 H :   -0.015380
  68 H :   -0.007060
  69 H :   -0.009680
  70 H :   -0.005399
  71 H :   -0.006224
  72 H :   -0.018671
  73 H :    0.033490
  74 H :   -0.001670
  75 H :    0.033019
  76 H :    0.035630
  77 H :    0.025857
  78 H :    0.019328
  79 H :    0.019634
  80 H :   -0.023551
  81 H :    0.011578
  82 H :    0.055128
  83 H :    0.040425
  84 H :   -0.007098
  85 H :   -0.014800
  86 H :   -0.009467
  87 H :   -0.010046
  88 H :   -0.005777
  89 H :   -0.005892
  90 H :   -0.019699
Sum of atomic charges:   -0.0000000

LOEWDIN ATOMIC CHARGES
----------------------
   0 C :    0.074408
   1 C :   -0.139152
   2 C :   -0.017377
   3 N :   -0.054581
   4 C :   -0.027778
   5 N :   -0.048589
   6 C :   -0.024923
   7 C :   -0.054334
   8 C :    0.029777
   9 C :   -0.008693
  10 C :   -0.006376
  11 C :    0.018562
  12 C :   -0.005701
  13 C :   -0.014089
  14 C :   -0.013243
  15 C :   -0.010371
  16 C :    0.084570
  17 O :   -0.141235
  18 C :   -0.088789
  19 C :    0.048699
  20 C :   -0.179687
  21 C :   -0.010658
  22 C :   -0.050817
  23 C :   -0.054731
  24 C :   -0.177670
  25 S :    0.504686
  26 C :   -0.182440
  27 C :   -0.051950
  28 C :   -0.044199
  29 N :    0.003263
  30 C :   -0.035531
  31 C :    0.055779
  32 O :   -0.090537
  33 C :   -0.011951
  34 C :   -0.013782
  35 C :    0.055551
  36 O :   -0.099666
  37 C :   -0.037655
  38 N :   -0.005794
  39 C :   -0.196522
  40 S :    0.530259
  41 C :   -0.173068
  42 C :   -0.072484
  43 C :   -0.012415
  44 C :   -0.046504
  45 C :   -0.196971
  46 S :    0.555481
  47 C :    0.053817
  48 C :   -0.108302
  49 C :    0.078765
  50 C :   -0.149652
  51 C :   -0.018003
  52 N :   -0.059825
  53 C :   -0.019530
  54 N :   -0.062835
  55 C :   -0.025025
  56 C :   -0.052997
  57 C :    0.082782
  58 O :   -0.160702
  59 C :    0.030660
  60 C :   -0.008799
  61 C :   -0.007149
  62 C :    0.018685
  63 C :   -0.005629
  64 C :   -0.015320
  65 C :   -0.013900
  66 C :   -0.010635
  67 H :    0.037826
  68 H :    0.039008
  69 H :    0.034571
  70 H :    0.032936
  71 H :    0.032394
  72 H :    0.031293
  73 H :    0.046899
  74 H :    0.033670
  75 H :    0.032162
  76 H :    0.032874
  77 H :    0.041716
  78 H :    0.045978
  79 H :    0.046278
  80 H :    0.023595
  81 H :    0.035475
  82 H :    0.047419
  83 H :    0.043965
  84 H :    0.047293
  85 H :    0.038526
  86 H :    0.038699
  87 H :    0.034429
  88 H :    0.032634
  89 H :    0.032151
  90 H :    0.031034

  Mayer bond orders larger than 0.100000
B(  0-C ,  1-C ) :   1.6540 B(  0-C ,  6-C ) :   0.9934 B(  0-C , 18-C ) :   1.0536
B(  1-C ,  2-C ) :   1.1390 B(  1-C ,  4-C ) :   1.1372 B(  2-C ,  3-N ) :   2.9741
B(  4-C ,  5-N ) :   3.0134 B(  6-C ,  7-C ) :   1.2128 B(  6-C , 11-C ) :   1.4536
B(  7-C ,  8-C ) :   1.4738 B(  7-C , 16-C ) :   0.9464 B(  8-C ,  9-C ) :   1.1785
B(  8-C , 67-H ) :   1.0165 B(  9-C , 10-C ) :   1.2573 B(  9-C , 15-C ) :   1.2444
B( 10-C , 11-C ) :   1.2025 B( 10-C , 12-C ) :   1.2402 B( 11-C , 68-H ) :   0.9929
B( 12-C , 13-C ) :   1.4891 B( 12-C , 69-H ) :   0.9977 B( 13-C , 14-C ) :   1.2596
B( 13-C , 70-H ) :   0.9886 B( 14-C , 15-C ) :   1.4885 B( 14-C , 71-H ) :   0.9889
B( 15-C , 72-H ) :   0.9980 B( 16-C , 17-O ) :   2.2015 B( 16-C , 18-C ) :   0.9416
B( 18-C , 19-C ) :   1.6182 B( 19-C , 20-C ) :   1.1737 B( 19-C , 73-H ) :   0.9374
B( 20-C , 21-C ) :   1.4240 B( 20-C , 25-S ) :   1.0785 B( 21-C , 22-C ) :   1.3347
B( 21-C , 74-H ) :   0.9872 B( 22-C , 23-C ) :   1.1094 B( 22-C , 24-C ) :   1.3868
B( 23-C , 75-H ) :   0.9406 B( 23-C , 76-H ) :   0.9335 B( 23-C , 77-H ) :   0.9406
B( 24-C , 25-S ) :   1.1666 B( 24-C , 26-C ) :   1.2312 B( 26-C , 27-C ) :   1.2948
B( 26-C , 39-C ) :   0.1209 B( 26-C , 40-S ) :   1.1689 B( 27-C , 28-C ) :   1.1956
B( 27-C , 38-N ) :   1.4214 B( 28-C , 29-N ) :   1.4378 B( 28-C , 39-C ) :   1.3126
B( 29-N , 30-C ) :   1.7093 B( 30-C , 31-C ) :   0.8893 B( 30-C , 37-C ) :   1.1089
B( 31-C , 32-O ) :   2.2574 B( 31-C , 33-C ) :   1.0187 B( 33-C , 34-C ) :   1.6811
B( 33-C , 78-H ) :   0.9973 B( 34-C , 35-C ) :   1.0223 B( 34-C , 79-H ) :   0.9973
B( 35-C , 36-O ) :   2.2490 B( 35-C , 37-C ) :   0.8946 B( 37-C , 38-N ) :   1.7010
B( 39-C , 40-S ) :   1.1421 B( 39-C , 41-C ) :   1.2114 B( 41-C , 42-C ) :   1.3361
B( 41-C , 46-S ) :   1.1566 B( 42-C , 43-C ) :   1.3838 B( 42-C , 80-H ) :   1.0010
B( 43-C , 44-C ) :   1.1081 B( 43-C , 45-C ) :   1.3333 B( 44-C , 81-H ) :   0.9472
B( 44-C , 82-H ) :   0.9296 B( 44-C , 83-H ) :   0.9331 B( 45-C , 46-S ) :   1.0812
B( 45-C , 47-C ) :   1.2854 B( 47-C , 48-C ) :   1.5039 B( 47-C , 84-H ) :   0.9310
B( 48-C , 49-C ) :   1.0872 B( 48-C , 57-C ) :   0.9693 B( 49-C , 50-C ) :   1.6120
B( 49-C , 55-C ) :   0.9834 B( 50-C , 51-C ) :   1.1488 B( 50-C , 53-C ) :   1.1504
B( 51-C , 52-N ) :   2.9633 B( 53-C , 54-N ) :   2.9621 B( 55-C , 56-C ) :   1.2153
B( 55-C , 62-C ) :   1.4580 B( 56-C , 57-C ) :   0.9556 B( 56-C , 59-C ) :   1.4759
B( 57-C , 58-O ) :   2.1420 B( 59-C , 60-C ) :   1.1743 B( 59-C , 85-H ) :   1.0160
B( 60-C , 61-C ) :   1.2596 B( 60-C , 66-C ) :   1.2455 B( 61-C , 62-C ) :   1.2002
B( 61-C , 63-C ) :   1.2433 B( 62-C , 86-H ) :   0.9891 B( 63-C , 64-C ) :   1.4867
B( 63-C , 87-H ) :   0.9965 B( 64-C , 65-C ) :   1.2628 B( 64-C , 88-H ) :   0.9880
B( 65-C , 66-C ) :   1.4871 B( 65-C , 89-H ) :   0.9887 B( 66-C , 90-H ) :   0.9970

-----------------------------------------------------------------------------
         ABSORPTION SPECTRUM VIA TRANSITION ELECTRIC DIPOLE MOMENTS
-----------------------------------------------------------------------------
State   Energy  Wavelength   fosc         T2         TX        TY        TZ
        (cm-1)    (nm)                  (au**2)     (au)      (au)      (au)
-----------------------------------------------------------------------------
   0   12347.3    809.9   1.157772980  30.86935  -2.31137  -2.08982   4.59995
   1   17384.4    575.2   0.076582502   1.45026   0.35272   0.73398   0.88720
   2   20691.4    483.3   0.749413330  11.92360   1.31283   1.43325  -2.85410
   3   22295.1    448.5   0.065819958   0.97190  -0.95108   0.21517  -0.14507
   4   22450.9    445.4   0.077214108   1.13224   0.81664  -0.60834  -0.30865
   5   23451.1    426.4   0.002154519   0.03025   0.11455   0.04956   0.12111
   6   24968.2    400.5   0.011522058   0.15192  -0.23324   0.27903  -0.14023
   7   25296.5    395.3   0.005484147   0.07137   0.07978   0.25102   0.04467
   8   25517.2    391.9   0.013389504   0.17275  -0.33998  -0.20056  -0.13014
   9   25749.1    388.4   0.016742195   0.21406  -0.40903  -0.03330  -0.21363
  10   26309.7    380.1   0.003280186   0.04104   0.12114  -0.15932   0.03140
  11   26632.6    375.5   0.010089396   0.12472  -0.24504   0.23850  -0.08826
  12   26696.4    374.6   0.067761960   0.83562   0.56948  -0.71479   0.01977
  13   27387.8    365.1   0.110069460   1.32308  -0.88088  -0.73699  -0.06312
  14   27800.2    359.7   0.041422700   0.49053  -0.05068   0.32147  -0.62017
  15   28505.8    350.8   0.042373483   0.48937   0.04656  -0.56482   0.41009
  16   28801.5    347.2   0.050342125   0.57543  -0.59600  -0.35066  -0.31186
  17   28972.5    345.2   0.056230680   0.63894   0.74843   0.11124  -0.25771
  18   29200.3    342.5   0.012937950   0.14587   0.25388  -0.06857  -0.27696
  19   30174.1    331.4   0.004947606   0.05398  -0.04923   0.17806  -0.14089
  20   30921.5    323.4   0.119330827   1.27048  -0.09943  -0.98860   0.53222
  21   31363.7    318.8   0.158145287   1.65998  -1.20544  -0.27501   0.36231
  22   31938.0    313.1   0.019314007   0.19909   0.41355   0.10107   0.13358
  23   32123.6    311.3   0.182995938   1.87540  -0.19134  -1.27326  -0.46648
  24   32332.3    309.3   0.257451421   2.62141   1.19840  -0.70392   0.83051
  25   32791.4    305.0   0.052733222   0.52942   0.56949  -0.42382   0.15964
  26   32913.1    303.8   0.211089194   2.11141   1.35565   0.18110  -0.49076
  27   33057.5    302.5   0.084029078   0.83683  -0.78865  -0.45577   0.08441
  28   33151.2    301.6   0.018362162   0.18235  -0.20601  -0.37110   0.04686
  29   33177.0    301.4   0.101918810   1.01133   0.26036   0.83206  -0.50122
  30   33373.9    299.6   0.130671645   1.28899  -0.19288   1.10422   0.18022
  31   33918.6    294.8   0.073140194   0.70989   0.05647   0.54342   0.64140
  32   33949.3    294.6   0.047555781   0.46116   0.16789   0.47749   0.45274
  33   34089.7    293.3   0.029519813   0.28508  -0.21416   0.20395   0.44454
  34   34196.2    292.4   0.106997181   1.03008  -0.78600   0.62983  -0.12488
  35   34255.7    291.9   0.017194759   0.16525   0.15506  -0.05904  -0.37111
  36   34527.3    289.6   0.000808175   0.00771   0.04479   0.07076  -0.02632
  37   34752.3    287.8   0.075286821   0.71320   0.71534  -0.36800  -0.25704
  38   34924.3    286.3   0.018424614   0.17368   0.26179  -0.18041   0.26944
  39   35366.0    282.8   0.108141230   1.00666  -0.45727   0.89024   0.07094
  40   35757.8    279.7   0.040235045   0.37043  -0.12536  -0.59186  -0.06647
  41   36193.0    276.3   0.251187202   2.28480   1.20809  -0.87820  -0.23254
  42   36501.6    274.0   0.012249100   0.11048   0.12645   0.26326   0.15869
  43   36815.7    271.6   0.603670805   5.39812  -0.88427   1.94119   0.92086
  44   37055.6    269.9   0.242769231   2.15683  -1.24868   0.06789  -0.77008
  45   37133.9    269.3   0.291544566   2.58470   1.30767   0.82403   0.44233
  46   37346.1    267.8   0.062983569   0.55521  -0.68713  -0.19427  -0.21289
  47   37522.8    266.5   0.041230762   0.36174   0.00028   0.58690   0.13151
  48   37766.0    264.8   0.069578028   0.60652   0.29062  -0.32057  -0.64753
  49   38079.1    262.6   0.017359765   0.15008   0.18347   0.31722  -0.12566
  50   38323.7    260.9   0.002618396   0.02249  -0.02221  -0.06964   0.13096
  51   38699.7    258.4   0.011353505   0.09658  -0.11741   0.16958   0.23246
  52   39063.2    256.0   0.046609570   0.39281   0.17808   0.06284  -0.59762
  53   39170.1    255.3   0.040169387   0.33761   0.05722   0.31106   0.48742
  54   39350.9    254.1   0.028496401   0.23840  -0.22040   0.38981   0.19463
  55   39647.1    252.2   0.060038391   0.49853   0.38260  -0.49350   0.32956
  56   39929.3    250.4   0.050573058   0.41697   0.33734   0.24476  -0.49321
  57   40220.7    248.6   0.023522454   0.19253  -0.02120  -0.36818  -0.23775

FINAL SINGLE POINT ENERGY     -3892.329279083518

DIPOLE MOMENT
-------------
                                X             Y             Z
Electronic contribution:     16.31818       9.14506      14.71933
Nuclear contribution   :    -18.92432      -9.80647     -15.53605
                        -----------------------------------------
Total Dipole Moment    :     -2.60614      -0.66141      -0.81672
                        -----------------------------------------
Magnitude (a.u.)       :      2.81006
Magnitude (Debye)      :      7.14261

Rotational constants in cm-1:     0.001937     0.000335     0.000327
Rotational constants in MHz :    58.057559    10.044436     9.817104

                             ****ORCA TERMINATED NORMALLY****
TOTAL RUN TIME: 0 days 0 hours 7 minutes 35 seconds 164 msec
