                         Program Version 4.2.0 -  RELEASE  -
|  1> # ORCA input file
|  2> # SCF done       -210.614059182243          0.000698347480
|  3> ! CAM-B3LYP def2-SVP def2/J RIJCOSX Grid4 TightSCF
|  4> %maxcore 5000
|  5> %tddft
|  6>     Mode sTDDFT
|  7>     Ethresh 5.0
|  8>     maxcore 5000
|  9> end
| 10>
| 11> %pal
| 12>   nprocs 6
| 13>   end
| 14> * xyz 0 1
| 15>    C       -1.12977         0.58060         1.11038
| 16>    C       -0.01113         1.32730         0.84251
| 17>    C        1.24907         1.08799         1.42916
| 18>    N        2.29681         0.92847         1.86908
| 19>    C        0.03150         2.35610        -0.11742
| 20>    N        0.10970         3.18931        -0.90381
| 21>    C       -1.15239        -0.62445         1.93308
| 22>    C       -2.30134        -1.39236         1.58257
| 23>    C       -2.56980        -2.59158         2.17699
| 24>    C       -1.69478        -3.07639         3.17549
| 25>    C       -0.55617        -2.30265         3.54412
| 26>    C       -0.29701        -1.06848         2.90427
| 27>    C        0.30019        -2.79150         4.55120
| 28>    C        0.04798        -3.98862         5.16428
| 29>    C       -1.07184        -4.75075         4.79958
| 30>    C       -1.92413        -4.30476         3.82604
| 31>    C       -3.07849        -0.66523         0.56462
| 32>    O       -4.07783        -1.02287        -0.01562
| 33>    C       -2.40853         0.66331         0.43797
| 34>    C       -3.09237         1.68460        -0.14983
| 35>    C       -2.87727         3.07368        -0.02808
| 36>    C       -2.15360         3.76001         0.93852
| 37>    C       -2.21931         5.13421         0.76733
| 38>    C       -3.00847         5.51693        -0.34052
| 39>    S       -3.67007         4.17443        -1.15124
| 40>    C       -3.02011         6.92820        -0.42001
| 41>    C       -2.23265         7.43830         0.63611
| 42>    C       -1.69441         6.32816         1.40423
| 43>    C       -0.86161         6.38348         2.48338
| 44>    C       -0.40979         7.60420         3.02704
| 45>    N       -0.04071         8.59003         3.48154
| 46>    C       -0.41218         5.20957         3.12422
| 47>    N       -0.06274         4.24698         3.64057
| 48>    C       -2.20428         8.82357         0.67019
| 49>    C       -2.96775         9.38726        -0.34654
| 50>    S       -3.71457         8.16699        -1.37024
| 51>    C       -3.22170        10.76277        -0.59007
| 52>    C       -2.71309        11.82254         0.20923
| 53>    C       -3.09198        13.18176        -0.03964
| 54>    N       -2.62015        14.16445         0.74816
| 55>    C       -1.81103        13.87104         1.72684
| 56>    C       -1.42642        12.53614         1.96226
| 57>    N       -1.87077        11.55632         1.22583
| 58>    C       -3.96851        13.56881        -1.08323
| 59>    C       -4.42737        12.52443        -1.91296
| 60>    C       -4.05712        11.15457        -1.65790
| 61>    N       -4.61201        10.32231        -2.54176
| 62>    S       -5.49518        11.16670        -3.58369
| 63>    N       -5.23281        12.62238        -2.97282
| 64>    C       -4.36722        14.92046        -1.22803
| 65>    C       -5.22986        15.43608        -2.19006
| 66>    C       -5.45617        16.79188        -2.00830
| 67>    C       -4.75795        17.31683        -0.89871
| 68>    S       -3.81095        16.13479        -0.09319
| 69>    C       -5.08691        18.68404        -0.77966
| 70>    C       -5.99625        19.03064        -1.80882
| 71>    C       -6.23386        17.85403        -2.62848
| 72>    C       -7.00306        17.76004        -3.75020
| 73>    C       -7.68073        18.86296        -4.31454
| 74>    N       -8.22371        19.74189        -4.81092
| 75>    C       -7.15783        16.54427        -4.45075
| 76>    N       -7.29520        15.56099        -5.02454
| 77>    C       -6.42824        20.34627        -1.73790
| 78>    C       -5.86202        21.02714        -0.66559
| 79>    S       -4.74579        19.99560         0.24508
| 80>    C       -5.98549        22.35340        -0.20826
| 81>    C       -6.89938        23.32181        -0.52440
| 82>    C       -6.84820        24.68183        -0.01440
| 83>    C       -5.78380        25.28875         0.60270
| 84>    C       -5.79566        26.62182         1.06421
| 85>    N       -5.73890        27.69398         1.47105
| 86>    C       -4.52284        24.70316         0.84038
| 87>    N       -3.46437        24.31049         1.05362
| 88>    C       -8.11162        25.33169        -0.34086
| 89>    C       -8.90152        24.42339        -1.09969
| 90>    C       -8.17572        23.15344        -1.26552
| 91>    O       -8.58441        22.17049        -1.84704
| 92>    C      -10.14221        24.75371        -1.56274
| 93>    C      -10.66263        26.03601        -1.27887
| 94>    C       -9.88315        26.94911        -0.51149
| 95>    C       -8.60016        26.57751        -0.04749
| 96>    C      -10.41494        28.22360        -0.22832
| 97>    C      -11.65523        28.58142        -0.68240
| 98>    C      -12.42080        27.68215        -1.43948
| 99>    C      -11.93493        26.43647        -1.73157
|100>    H       -3.44129        -3.16264         1.89315
|101>    H        0.56398        -0.49489         3.21027
|102>    H        1.16241        -2.20213         4.82632
|103>    H        0.71049        -4.35505         5.93404
|104>    H       -1.25649        -5.69255         5.29432
|105>    H       -2.78836        -4.88716         3.54171
|106>    H       -3.96556         1.38151        -0.71961
|107>    H       -1.65033         3.26980         1.75164
|108>    H       -1.67652         9.42913         1.38309
|109>    H       -1.45477        14.69111         2.33335
|110>    H       -0.74796        12.26913         2.76019
|111>    H       -5.65673        14.81959        -2.95965
|112>    H       -7.13000        20.80512        -2.40989
|113>    H       -5.24294        22.61785         0.53608
|114>    H      -10.71751        24.04481        -2.13949
|115>    H       -8.03857        27.29042         0.53485
|116>    H       -9.82124        28.91326         0.35363
|117>    H      -12.05324        29.56034        -0.46082
|118>    H      -13.39735        27.98121        -1.78990
|119>    H      -12.51941        25.73937        -2.31401
|120> *
|121>
|122>                          ****END OF INPUT****

CARTESIAN COORDINATES (ANGSTROEM)
---------------------------------
  C     -1.129770    0.580600    1.110380
  C     -0.011130    1.327300    0.842510
  C      1.249070    1.087990    1.429160
  N      2.296810    0.928470    1.869080
  C      0.031500    2.356100   -0.117420
  N      0.109700    3.189310   -0.903810
  C     -1.152390   -0.624450    1.933080
  C     -2.301340   -1.392360    1.582570
  C     -2.569800   -2.591580    2.176990
  C     -1.694780   -3.076390    3.175490
  C     -0.556170   -2.302650    3.544120
  C     -0.297010   -1.068480    2.904270
  C      0.300190   -2.791500    4.551200
  C      0.047980   -3.988620    5.164280
  C     -1.071840   -4.750750    4.799580
  C     -1.924130   -4.304760    3.826040
  C     -3.078490   -0.665230    0.564620
  O     -4.077830   -1.022870   -0.015620
  C     -2.408530    0.663310    0.437970
  C     -3.092370    1.684600   -0.149830
  C     -2.877270    3.073680   -0.028080
  C     -2.153600    3.760010    0.938520
  C     -2.219310    5.134210    0.767330
  C     -3.008470    5.516930   -0.340520
  S     -3.670070    4.174430   -1.151240
  C     -3.020110    6.928200   -0.420010
  C     -2.232650    7.438300    0.636110
  C     -1.694410    6.328160    1.404230
  C     -0.861610    6.383480    2.483380
  C     -0.409790    7.604200    3.027040
  N     -0.040710    8.590030    3.481540
  C     -0.412180    5.209570    3.124220
  N     -0.062740    4.246980    3.640570
  C     -2.204280    8.823570    0.670190
  C     -2.967750    9.387260   -0.346540
  S     -3.714570    8.166990   -1.370240
  C     -3.221700   10.762770   -0.590070
  C     -2.713090   11.822540    0.209230
  C     -3.091980   13.181760   -0.039640
  N     -2.620150   14.164450    0.748160
  C     -1.811030   13.871040    1.726840
  C     -1.426420   12.536140    1.962260
  N     -1.870770   11.556320    1.225830
  C     -3.968510   13.568810   -1.083230
  C     -4.427370   12.524430   -1.912960
  C     -4.057120   11.154570   -1.657900
  N     -4.612010   10.322310   -2.541760
  S     -5.495180   11.166700   -3.583690
  N     -5.232810   12.622380   -2.972820
  C     -4.367220   14.920460   -1.228030
  C     -5.229860   15.436080   -2.190060
  C     -5.456170   16.791880   -2.008300
  C     -4.757950   17.316830   -0.898710
  S     -3.810950   16.134790   -0.093190
  C     -5.086910   18.684040   -0.779660
  C     -5.996250   19.030640   -1.808820
  C     -6.233860   17.854030   -2.628480
  C     -7.003060   17.760040   -3.750200
  C     -7.680730   18.862960   -4.314540
  N     -8.223710   19.741890   -4.810920
  C     -7.157830   16.544270   -4.450750
  N     -7.295200   15.560990   -5.024540
  C     -6.428240   20.346270   -1.737900
  C     -5.862020   21.027140   -0.665590
  S     -4.745790   19.995600    0.245080
  C     -5.985490   22.353400   -0.208260
  C     -6.899380   23.321810   -0.524400
  C     -6.848200   24.681830   -0.014400
  C     -5.783800   25.288750    0.602700
  C     -5.795660   26.621820    1.064210
  N     -5.738900   27.693980    1.471050
  C     -4.522840   24.703160    0.840380
  N     -3.464370   24.310490    1.053620
  C     -8.111620   25.331690   -0.340860
  C     -8.901520   24.423390   -1.099690
  C     -8.175720   23.153440   -1.265520
  O     -8.584410   22.170490   -1.847040
  C    -10.142210   24.753710   -1.562740
  C    -10.662630   26.036010   -1.278870
  C     -9.883150   26.949110   -0.511490
  C     -8.600160   26.577510   -0.047490
  C    -10.414940   28.223600   -0.228320
  C    -11.655230   28.581420   -0.682400
  C    -12.420800   27.682150   -1.439480
  C    -11.934930   26.436470   -1.731570
  H     -3.441290   -3.162640    1.893150
  H      0.563980   -0.494890    3.210270
  H      1.162410   -2.202130    4.826320
  H      0.710490   -4.355050    5.934040
  H     -1.256490   -5.692550    5.294320
  H     -2.788360   -4.887160    3.541710
  H     -3.965560    1.381510   -0.719610
  H     -1.650330    3.269800    1.751640
  H     -1.676520    9.429130    1.383090
  H     -1.454770   14.691110    2.333350
  H     -0.747960   12.269130    2.760190
  H     -5.656730   14.819590   -2.959650
  H     -7.130000   20.805120   -2.409890
  H     -5.242940   22.617850    0.536080
  H    -10.717510   24.044810   -2.139490
  H     -8.038570   27.290420    0.534850
  H     -9.821240   28.913260    0.353630
  H    -12.053240   29.560340   -0.460820
  H    -13.397350   27.981210   -1.789900
  H    -12.519410   25.739370   -2.314010

 Total Charge           Charge          ....    0
 Multiplicity           Mult            ....    1
 Number of Electrons    NEL             ....  596
 Basis Dimension        Dim             .... 1310

ORBITAL ENERGIES
----------------

  NO   OCC          E(Eh)            E(eV)
   0   2.0000     -89.056088     -2423.3394
   1   2.0000     -88.996052     -2421.7057
   2   2.0000     -88.993083     -2421.6249
   3   2.0000     -88.989087     -2421.5162
   4   2.0000     -88.987023     -2421.4600
   5   2.0000     -19.214856      -522.8628
   6   2.0000     -19.213482      -522.8254
   7   2.0000     -14.464270      -393.5928
   8   2.0000     -14.463536      -393.5728
   9   2.0000     -14.457482      -393.4081
  10   2.0000     -14.451021      -393.2323
  11   2.0000     -14.432457      -392.7271
  12   2.0000     -14.432302      -392.7229
  13   2.0000     -14.429399      -392.6439
  14   2.0000     -14.426280      -392.5590
  15   2.0000     -14.416272      -392.2867
  16   2.0000     -14.414359      -392.2346
  17   2.0000     -14.411393      -392.1539
  18   2.0000     -14.411256      -392.1502
  19   2.0000     -10.366403      -282.0842
  20   2.0000     -10.366038      -282.0742
  21   2.0000     -10.365089      -282.0484
  22   2.0000     -10.363988      -282.0184
  23   2.0000     -10.353808      -281.7414
  24   2.0000     -10.351805      -281.6869
  25   2.0000     -10.351123      -281.6684
  26   2.0000     -10.350976      -281.6644
  27   2.0000     -10.350541      -281.6525
  28   2.0000     -10.349604      -281.6270
  29   2.0000     -10.347669      -281.5744
  30   2.0000     -10.346034      -281.5299
  31   2.0000     -10.343228      -281.4535
  32   2.0000     -10.342922      -281.4452
  33   2.0000     -10.341740      -281.4131
  34   2.0000     -10.340628      -281.3828
  35   2.0000     -10.338573      -281.3269
  36   2.0000     -10.338008      -281.3115
  37   2.0000     -10.332887      -281.1722
  38   2.0000     -10.332798      -281.1697
  39   2.0000     -10.330246      -281.1003
  40   2.0000     -10.330214      -281.0994
  41   2.0000     -10.329722      -281.0860
  42   2.0000     -10.328892      -281.0634
  43   2.0000     -10.328350      -281.0487
  44   2.0000     -10.326916      -281.0097
  45   2.0000     -10.326888      -281.0089
  46   2.0000     -10.325760      -280.9782
  47   2.0000     -10.325578      -280.9733
  48   2.0000     -10.325456      -280.9700
  49   2.0000     -10.324320      -280.9390
  50   2.0000     -10.323268      -280.9104
  51   2.0000     -10.317609      -280.7564
  52   2.0000     -10.317398      -280.7507
  53   2.0000     -10.314532      -280.6727
  54   2.0000     -10.313934      -280.6564
  55   2.0000     -10.312441      -280.6158
  56   2.0000     -10.308264      -280.5021
  57   2.0000     -10.306494      -280.4539
  58   2.0000     -10.305146      -280.4173
  59   2.0000     -10.305009      -280.4135
  60   2.0000     -10.304780      -280.4073
  61   2.0000     -10.301508      -280.3183
  62   2.0000     -10.299666      -280.2682
  63   2.0000     -10.299422      -280.2615
  64   2.0000     -10.299139      -280.2538
  65   2.0000     -10.298915      -280.2477
  66   2.0000     -10.297606      -280.2121
  67   2.0000     -10.296094      -280.1710
  68   2.0000     -10.295911      -280.1660
  69   2.0000     -10.295657      -280.1591
  70   2.0000     -10.294932      -280.1394
  71   2.0000     -10.294694      -280.1329
  72   2.0000     -10.294650      -280.1317
  73   2.0000     -10.293977      -280.1134
  74   2.0000     -10.293344      -280.0961
  75   2.0000     -10.287995      -279.9506
  76   2.0000     -10.285197      -279.8744
  77   2.0000     -10.284996      -279.8690
  78   2.0000     -10.284513      -279.8558
  79   2.0000     -10.284149      -279.8459
  80   2.0000     -10.284124      -279.8452
  81   2.0000     -10.283601      -279.8310
  82   2.0000     -10.283487      -279.8279
  83   2.0000     -10.283411      -279.8258
  84   2.0000     -10.282965      -279.8137
  85   2.0000      -8.146911      -221.6887
  86   2.0000      -8.090708      -220.1594
  87   2.0000      -8.087948      -220.0843
  88   2.0000      -8.082161      -219.9268
  89   2.0000      -8.079033      -219.8417
  90   2.0000      -6.117989      -166.4790
  91   2.0000      -6.110180      -166.2665
  92   2.0000      -6.109789      -166.2558
  93   2.0000      -6.059849      -164.8969
  94   2.0000      -6.057014      -164.8197
  95   2.0000      -6.055699      -164.7839
  96   2.0000      -6.053233      -164.7168
  97   2.0000      -6.052911      -164.7081
  98   2.0000      -6.051573      -164.6717
  99   2.0000      -6.050519      -164.6430
 100   2.0000      -6.048673      -164.5928
 101   2.0000      -6.046997      -164.5471
 102   2.0000      -6.044616      -164.4824
 103   2.0000      -6.043765      -164.4592
 104   2.0000      -6.041516      -164.3980
 105   2.0000      -1.152665       -31.3656
 106   2.0000      -1.130376       -30.7591
 107   2.0000      -1.128868       -30.7181
 108   2.0000      -1.112387       -30.2696
 109   2.0000      -1.048660       -28.5355
 110   2.0000      -1.045988       -28.4628
 111   2.0000      -1.037131       -28.2218
 112   2.0000      -1.024175       -27.8692
 113   2.0000      -1.020185       -27.7607
 114   2.0000      -1.017761       -27.6947
 115   2.0000      -1.016047       -27.6480
 116   2.0000      -1.011167       -27.5153
 117   2.0000      -1.009698       -27.4753
 118   2.0000      -1.005064       -27.3492
 119   2.0000      -1.002835       -27.2885
 120   2.0000      -0.997402       -27.1407
 121   2.0000      -0.996469       -27.1153
 122   2.0000      -0.995065       -27.0771
 123   2.0000      -0.991171       -26.9711
 124   2.0000      -0.990760       -26.9599
 125   2.0000      -0.980222       -26.6732
 126   2.0000      -0.970162       -26.3995
 127   2.0000      -0.968883       -26.3646
 128   2.0000      -0.960204       -26.1285
 129   2.0000      -0.955042       -25.9880
 130   2.0000      -0.927403       -25.2359
 131   2.0000      -0.925239       -25.1770
 132   2.0000      -0.919222       -25.0133
 133   2.0000      -0.915121       -24.9017
 134   2.0000      -0.901596       -24.5337
 135   2.0000      -0.895877       -24.3781
 136   2.0000      -0.895381       -24.3646
 137   2.0000      -0.886154       -24.1135
 138   2.0000      -0.879807       -23.9408
 139   2.0000      -0.878601       -23.9079
 140   2.0000      -0.876324       -23.8460
 141   2.0000      -0.873563       -23.7709
 142   2.0000      -0.865553       -23.5529
 143   2.0000      -0.858466       -23.3600
 144   2.0000      -0.855573       -23.2813
 145   2.0000      -0.853894       -23.2356
 146   2.0000      -0.826785       -22.4980
 147   2.0000      -0.826581       -22.4924
 148   2.0000      -0.825512       -22.4633
 149   2.0000      -0.812040       -22.0967
 150   2.0000      -0.811043       -22.0696
 151   2.0000      -0.796079       -21.6624
 152   2.0000      -0.782507       -21.2931
 153   2.0000      -0.778547       -21.1853
 154   2.0000      -0.774343       -21.0709
 155   2.0000      -0.764496       -20.8030
 156   2.0000      -0.759470       -20.6662
 157   2.0000      -0.758507       -20.6400
 158   2.0000      -0.746101       -20.3024
 159   2.0000      -0.727974       -19.8092
 160   2.0000      -0.726248       -19.7622
 161   2.0000      -0.715522       -19.4703
 162   2.0000      -0.706234       -19.2176
 163   2.0000      -0.705327       -19.1929
 164   2.0000      -0.701952       -19.1011
 165   2.0000      -0.699863       -19.0442
 166   2.0000      -0.697085       -18.9687
 167   2.0000      -0.690643       -18.7934
 168   2.0000      -0.689000       -18.7487
 169   2.0000      -0.685252       -18.6466
 170   2.0000      -0.679736       -18.4966
 171   2.0000      -0.675795       -18.3893
 172   2.0000      -0.674530       -18.3549
 173   2.0000      -0.663884       -18.0652
 174   2.0000      -0.660672       -17.9778
 175   2.0000      -0.658480       -17.9182
 176   2.0000      -0.648308       -17.6413
 177   2.0000      -0.643485       -17.5101
 178   2.0000      -0.635118       -17.2824
 179   2.0000      -0.632730       -17.2175
 180   2.0000      -0.629877       -17.1398
 181   2.0000      -0.626799       -17.0561
 182   2.0000      -0.623462       -16.9653
 183   2.0000      -0.618041       -16.8178
 184   2.0000      -0.614199       -16.7132
 185   2.0000      -0.606025       -16.4908
 186   2.0000      -0.604725       -16.4554
 187   2.0000      -0.602454       -16.3936
 188   2.0000      -0.599525       -16.3139
 189   2.0000      -0.595867       -16.2144
 190   2.0000      -0.587407       -15.9842
 191   2.0000      -0.582230       -15.8433
 192   2.0000      -0.580052       -15.7840
 193   2.0000      -0.576141       -15.6776
 194   2.0000      -0.573733       -15.6121
 195   2.0000      -0.562421       -15.3043
 196   2.0000      -0.555548       -15.1172
 197   2.0000      -0.553862       -15.0714
 198   2.0000      -0.551085       -14.9958
 199   2.0000      -0.550386       -14.9768
 200   2.0000      -0.548571       -14.9274
 201   2.0000      -0.546549       -14.8723
 202   2.0000      -0.544474       -14.8159
 203   2.0000      -0.544285       -14.8107
 204   2.0000      -0.542543       -14.7633
 205   2.0000      -0.536774       -14.6064
 206   2.0000      -0.534909       -14.5556
 207   2.0000      -0.532890       -14.5007
 208   2.0000      -0.529502       -14.4085
 209   2.0000      -0.527371       -14.3505
 210   2.0000      -0.522374       -14.2145
 211   2.0000      -0.518176       -14.1003
 212   2.0000      -0.517507       -14.0821
 213   2.0000      -0.516029       -14.0419
 214   2.0000      -0.512253       -13.9391
 215   2.0000      -0.510158       -13.8821
 216   2.0000      -0.508915       -13.8483
 217   2.0000      -0.507783       -13.8175
 218   2.0000      -0.506384       -13.7794
 219   2.0000      -0.505306       -13.7501
 220   2.0000      -0.504006       -13.7147
 221   2.0000      -0.502252       -13.6670
 222   2.0000      -0.500886       -13.6298
 223   2.0000      -0.498922       -13.5764
 224   2.0000      -0.495841       -13.4925
 225   2.0000      -0.493803       -13.4371
 226   2.0000      -0.492871       -13.4117
 227   2.0000      -0.490584       -13.3495
 228   2.0000      -0.488419       -13.2905
 229   2.0000      -0.487709       -13.2712
 230   2.0000      -0.484110       -13.1733
 231   2.0000      -0.482279       -13.1235
 232   2.0000      -0.478856       -13.0303
 233   2.0000      -0.473404       -12.8820
 234   2.0000      -0.470780       -12.8106
 235   2.0000      -0.466399       -12.6914
 236   2.0000      -0.463937       -12.6244
 237   2.0000      -0.463633       -12.6161
 238   2.0000      -0.462421       -12.5831
 239   2.0000      -0.461425       -12.5560
 240   2.0000      -0.460573       -12.5328
 241   2.0000      -0.459916       -12.5150
 242   2.0000      -0.456364       -12.4183
 243   2.0000      -0.453261       -12.3339
 244   2.0000      -0.452155       -12.3038
 245   2.0000      -0.449888       -12.2421
 246   2.0000      -0.448984       -12.2175
 247   2.0000      -0.447077       -12.1656
 248   2.0000      -0.446915       -12.1612
 249   2.0000      -0.442968       -12.0538
 250   2.0000      -0.442094       -12.0300
 251   2.0000      -0.441824       -12.0226
 252   2.0000      -0.440653       -11.9908
 253   2.0000      -0.438122       -11.9219
 254   2.0000      -0.437676       -11.9098
 255   2.0000      -0.437400       -11.9023
 256   2.0000      -0.436311       -11.8726
 257   2.0000      -0.434811       -11.8318
 258   2.0000      -0.431427       -11.7397
 259   2.0000      -0.431182       -11.7330
 260   2.0000      -0.430411       -11.7121
 261   2.0000      -0.430139       -11.7047
 262   2.0000      -0.429732       -11.6936
 263   2.0000      -0.424574       -11.5532
 264   2.0000      -0.424381       -11.5480
 265   2.0000      -0.424282       -11.5453
 266   2.0000      -0.421143       -11.4599
 267   2.0000      -0.418085       -11.3767
 268   2.0000      -0.416183       -11.3249
 269   2.0000      -0.414929       -11.2908
 270   2.0000      -0.414617       -11.2823
 271   2.0000      -0.407821       -11.0974
 272   2.0000      -0.404829       -11.0160
 273   2.0000      -0.401353       -10.9214
 274   2.0000      -0.401230       -10.9180
 275   2.0000      -0.391775       -10.6607
 276   2.0000      -0.383974       -10.4485
 277   2.0000      -0.381824       -10.3899
 278   2.0000      -0.380633       -10.3575
 279   2.0000      -0.373081       -10.1520
 280   2.0000      -0.369627       -10.0581
 281   2.0000      -0.359930        -9.7942
 282   2.0000      -0.355406        -9.6711
 283   2.0000      -0.349243        -9.5034
 284   2.0000      -0.348497        -9.4831
 285   2.0000      -0.342741        -9.3264
 286   2.0000      -0.341341        -9.2884
 287   2.0000      -0.335805        -9.1377
 288   2.0000      -0.332853        -9.0574
 289   2.0000      -0.323454        -8.8016
 290   2.0000      -0.321101        -8.7376
 291   2.0000      -0.316157        -8.6031
 292   2.0000      -0.314711        -8.5637
 293   2.0000      -0.305329        -8.3084
 294   2.0000      -0.293808        -7.9949
 295   2.0000      -0.291210        -7.9242
 296   2.0000      -0.275276        -7.4906
 297   2.0000      -0.242698        -6.6041
 298   0.0000      -0.134632        -3.6635
 299   0.0000      -0.107477        -2.9246
 300   0.0000      -0.099236        -2.7004
 301   0.0000      -0.087972        -2.3938
 302   0.0000      -0.086762        -2.3609

MULLIKEN ATOMIC CHARGES
-----------------------
   0 C :    0.267913
   1 C :   -0.331560
   2 C :   -0.173098
   3 N :    0.160873
   4 C :   -0.202150
   5 N :    0.166737
   6 C :    0.029850
   7 C :    0.015239
   8 C :   -0.082667
   9 C :    0.094120
  10 C :    0.091650
  11 C :   -0.076165
  12 C :   -0.015212
  13 C :    0.034188
  14 C :    0.037339
  15 C :   -0.015270
  16 C :    0.137202
  17 O :   -0.144913
  18 C :   -0.142639
  19 C :    0.085553
  20 C :   -0.111238
  21 C :   -0.000008
  22 C :   -0.005815
  23 C :   -0.075262
  24 S :    0.214807
  25 C :   -0.077751
  26 C :    0.050427
  27 C :    0.313145
  28 C :   -0.297032
  29 C :   -0.185333
  30 N :    0.172391
  31 C :   -0.189270
  32 N :    0.171253
  33 C :   -0.064316
  34 C :   -0.182092
  35 S :    0.213869
  36 C :    0.199199
  37 C :   -0.067601
  38 C :   -0.043612
  39 N :   -0.096011
  40 C :    0.058178
  41 C :    0.037899
  42 N :   -0.020303
  43 C :    0.167089
  44 C :    0.001496
  45 C :   -0.026694
  46 N :   -0.339677
  47 S :    0.575358
  48 N :   -0.279409
  49 C :   -0.162372
  50 C :   -0.072248
  51 C :    0.045673
  52 C :   -0.068376
  53 S :    0.207503
  54 C :   -0.089340
  55 C :   -0.015146
  56 C :    0.313516
  57 C :   -0.301611
  58 C :   -0.192247
  59 N :    0.191111
  60 C :   -0.189258
  61 N :    0.167643
  62 C :    0.010222
  63 C :   -0.111629
  64 S :    0.203083
  65 C :    0.027087
  66 C :   -0.093437
  67 C :    0.316243
  68 C :   -0.359439
  69 C :   -0.182611
  70 N :    0.146515
  71 C :   -0.199853
  72 N :    0.154277
  73 C :    0.051623
  74 C :   -0.005431
  75 C :    0.155344
  76 O :   -0.150964
  77 C :   -0.084036
  78 C :    0.100058
  79 C :    0.099424
  80 C :   -0.088493
  81 C :   -0.022641
  82 C :    0.038224
  83 C :    0.037817
  84 C :   -0.019272
  85 H :   -0.013033
  86 H :   -0.000501
  87 H :   -0.009875
  88 H :   -0.004644
  89 H :   -0.006322
  90 H :   -0.018360
  91 H :    0.020155
  92 H :    0.025536
  93 H :    0.021058
  94 H :    0.025260
  95 H :    0.036819
  96 H :    0.020054
  97 H :    0.037286
  98 H :    0.014720
  99 H :   -0.010310
 100 H :   -0.008179
 101 H :   -0.008808
 102 H :   -0.006088
 103 H :   -0.006225
 104 H :   -0.016175
Sum of atomic charges:   -0.0000000

LOEWDIN ATOMIC CHARGES
----------------------
   0 C :    0.065300
   1 C :   -0.137820
   2 C :   -0.018596
   3 N :   -0.047601
   4 C :   -0.016314
   5 N :   -0.047848
   6 C :   -0.022794
   7 C :   -0.057671
   8 C :    0.032233
   9 C :   -0.009348
  10 C :   -0.005238
  11 C :    0.018959
  12 C :   -0.005101
  13 C :   -0.013107
  14 C :   -0.013206
  15 C :   -0.009667
  16 C :    0.083235
  17 O :   -0.145899
  18 C :   -0.089819
  19 C :    0.040940
  20 C :   -0.179190
  21 C :    0.009131
  22 C :   -0.064053
  23 C :   -0.157720
  24 S :    0.498932
  25 C :   -0.186265
  26 C :   -0.064418
  27 C :    0.083238
  28 C :   -0.101454
  29 C :   -0.013976
  30 N :   -0.036171
  31 C :   -0.013831
  32 N :   -0.034097
  33 C :   -0.011403
  34 C :   -0.156361
  35 S :    0.515740
  36 C :   -0.042139
  37 C :   -0.005951
  38 C :   -0.013479
  39 N :   -0.051072
  40 C :    0.027761
  41 C :    0.023486
  42 N :   -0.016920
  43 C :   -0.042990
  44 C :   -0.038675
  45 C :   -0.047957
  46 N :   -0.306625
  47 S :    0.694298
  48 N :   -0.270890
  49 C :   -0.155146
  50 C :   -0.015350
  51 C :   -0.060428
  52 C :   -0.195164
  53 S :    0.512060
  54 C :   -0.157132
  55 C :   -0.072761
  56 C :    0.076944
  57 C :   -0.097869
  58 C :   -0.021954
  59 N :   -0.020634
  60 C :   -0.014950
  61 N :   -0.034631
  62 C :    0.020047
  63 C :   -0.175762
  64 S :    0.492287
  65 C :    0.041183
  66 C :   -0.096077
  67 C :    0.076920
  68 C :   -0.145245
  69 C :   -0.017285
  70 N :   -0.056728
  71 C :   -0.024932
  72 N :   -0.056656
  73 C :   -0.026355
  74 C :   -0.054895
  75 C :    0.085209
  76 O :   -0.139374
  77 C :    0.032670
  78 C :   -0.008278
  79 C :   -0.006541
  80 C :    0.018801
  81 C :   -0.005861
  82 C :   -0.013943
  83 C :   -0.012591
  84 C :   -0.009523
  85 H :    0.038944
  86 H :    0.040496
  87 H :    0.034871
  88 H :    0.033130
  89 H :    0.032406
  90 H :    0.031477
  91 H :    0.045515
  92 H :    0.042724
  93 H :    0.036903
  94 H :    0.033056
  95 H :    0.036807
  96 H :    0.038170
  97 H :    0.044337
  98 H :    0.042933
  99 H :    0.039858
 100 H :    0.038786
 101 H :    0.034578
 102 H :    0.032772
 103 H :    0.032452
 104 H :    0.032147

  Mayer bond orders larger than 0.100000
B(  0-C ,  1-C ) :   1.6492 B(  0-C ,  6-C ) :   0.9950 B(  0-C , 18-C ) :   1.0401
B(  1-C ,  2-C ) :   1.1310 B(  1-C ,  4-C ) :   1.1693 B(  2-C ,  3-N ) :   2.9937
B(  4-C ,  5-N ) :   2.9981 B(  6-C ,  7-C ) :   1.2145 B(  6-C , 11-C ) :   1.4619
B(  7-C ,  8-C ) :   1.4719 B(  7-C , 16-C ) :   0.9214 B(  8-C ,  9-C ) :   1.1849
B(  8-C , 85-H ) :   1.0165 B(  9-C , 10-C ) :   1.2584 B(  9-C , 15-C ) :   1.2431
B( 10-C , 11-C ) :   1.2014 B( 10-C , 12-C ) :   1.2435 B( 11-C , 86-H ) :   0.9950
B( 12-C , 13-C ) :   1.4871 B( 12-C , 87-H ) :   0.9980 B( 13-C , 14-C ) :   1.2608
B( 13-C , 88-H ) :   0.9894 B( 14-C , 15-C ) :   1.4888 B( 14-C , 89-H ) :   0.9888
B( 15-C , 90-H ) :   0.9980 B( 16-C , 17-O ) :   2.2665 B( 16-C , 18-C ) :   0.9401
B( 18-C , 19-C ) :   1.6622 B( 19-C , 20-C ) :   1.1447 B( 19-C , 91-H ) :   0.9290
B( 20-C , 21-C ) :   1.3891 B( 20-C , 24-S ) :   1.0876 B( 21-C , 22-C ) :   1.3672
B( 21-C , 92-H ) :   0.9775 B( 22-C , 23-C ) :   1.3956 B( 22-C , 27-C ) :   0.9970
B( 23-C , 24-S ) :   1.1525 B( 23-C , 25-C ) :   1.2088 B( 25-C , 26-C ) :   1.3937
B( 25-C , 35-S ) :   1.0951 B( 26-C , 27-C ) :   0.9919 B( 26-C , 33-C ) :   1.2692
B( 27-C , 28-C ) :   1.7130 B( 28-C , 29-C ) :   1.1401 B( 28-C , 31-C ) :   1.1347
B( 29-C , 30-N ) :   2.9896 B( 31-C , 32-N ) :   2.9834 B( 33-C , 34-C ) :   1.4059
B( 33-C , 93-H ) :   0.9800 B( 34-C , 35-S ) :   1.1043 B( 34-C , 36-C ) :   1.1944
B( 36-C , 37-C ) :   1.2683 B( 36-C , 43-C ) :   0.1313 B( 36-C , 45-C ) :   1.1986
B( 37-C , 38-C ) :   1.1301 B( 37-C , 42-N ) :   1.4688 B( 38-C , 39-N ) :   1.3881
B( 38-C , 43-C ) :   1.2682 B( 39-N , 40-C ) :   1.6493 B( 40-C , 41-C ) :   1.1932
B( 40-C , 94-H ) :   0.9731 B( 41-C , 42-N ) :   1.6677 B( 41-C , 95-H ) :   0.9755
B( 43-C , 44-C ) :   1.2108 B( 43-C , 49-C ) :   1.2005 B( 44-C , 45-C ) :   1.1099
B( 44-C , 48-N ) :   1.5042 B( 45-C , 46-N ) :   1.4615 B( 46-N , 47-S ) :   1.2748
B( 46-N , 48-N ) :   0.1532 B( 47-S , 48-N ) :   1.2924 B( 49-C , 50-C ) :   1.4104
B( 49-C , 53-S ) :   1.0989 B( 50-C , 51-C ) :   1.2831 B( 50-C , 96-H ) :   0.9837
B( 51-C , 52-C ) :   1.3970 B( 51-C , 56-C ) :   0.9901 B( 52-C , 53-S ) :   1.0616
B( 52-C , 54-C ) :   1.2174 B( 54-C , 55-C ) :   1.3679 B( 54-C , 64-S ) :   1.1625
B( 55-C , 56-C ) :   0.9930 B( 55-C , 62-C ) :   1.3284 B( 56-C , 57-C ) :   1.7122
B( 57-C , 58-C ) :   1.1325 B( 57-C , 60-C ) :   1.1429 B( 58-C , 59-N ) :   2.9986
B( 60-C , 61-N ) :   2.9830 B( 62-C , 63-C ) :   1.3936 B( 62-C , 97-H ) :   0.9726
B( 63-C , 64-S ) :   1.0740 B( 63-C , 65-C ) :   1.2146 B( 65-C , 66-C ) :   1.5815
B( 65-C , 98-H ) :   0.9190 B( 66-C , 67-C ) :   1.0813 B( 66-C , 75-C ) :   0.9414
B( 67-C , 68-C ) :   1.6184 B( 67-C , 73-C ) :   0.9842 B( 68-C , 69-C ) :   1.1516
B( 68-C , 71-C ) :   1.1408 B( 69-C , 70-N ) :   2.9636 B( 71-C , 72-N ) :   2.9823
B( 73-C , 74-C ) :   1.2140 B( 73-C , 80-C ) :   1.4506 B( 74-C , 75-C ) :   0.9497
B( 74-C , 77-C ) :   1.4731 B( 75-C , 76-O ) :   2.1837 B( 77-C , 78-C ) :   1.1756
B( 77-C , 99-H ) :   1.0167 B( 78-C , 79-C ) :   1.2545 B( 78-C , 84-C ) :   1.2462
B( 79-C , 80-C ) :   1.2058 B( 79-C , 81-C ) :   1.2408 B( 80-C ,100-H ) :   0.9894
B( 81-C , 82-C ) :   1.4889 B( 81-C ,101-H ) :   0.9970 B( 82-C , 83-C ) :   1.2597
B( 82-C ,102-H ) :   0.9886 B( 83-C , 84-C ) :   1.4884 B( 83-C ,103-H ) :   0.9887
B( 84-C ,104-H ) :   0.9973

-----------------------------------------------------------------------------
         ABSORPTION SPECTRUM VIA TRANSITION ELECTRIC DIPOLE MOMENTS
-----------------------------------------------------------------------------
State   Energy  Wavelength   fosc         T2         TX        TY        TZ
        (cm-1)    (nm)                  (au**2)     (au)      (au)      (au)
-----------------------------------------------------------------------------
   0    9021.3   1108.5   1.217808636  44.44134  -1.62343   6.43020  -0.67700
   1   13187.9    758.3   0.005364235   0.13391  -0.23630   0.22081   0.17121
   2   14406.5    694.1   0.004296867   0.09819   0.05375  -0.13738   0.27646
   3   17446.4    573.2   0.008377375   0.15808  -0.15714   0.09041   0.35385
   4   19594.3    510.4   0.674332403  11.32974  -0.88547   3.23648  -0.26627
   5   20537.9    486.9   0.653346083  10.47280   0.72327  -3.09629  -0.60220
   6   22212.6    450.2   0.092631500   1.37289  -0.29901   1.07599   0.35459
   7   23289.7    429.4   0.002028774   0.02868   0.08060  -0.01500  -0.14818
   8   24025.5    416.2   0.024491597   0.33560  -0.40310  -0.41575  -0.01610
   9   24200.0    413.2   0.003535890   0.04810  -0.19160  -0.08955   0.05806
  10   24575.5    406.9   0.013532663   0.18128  -0.11673   0.31742   0.25865
  11   25112.3    398.2   0.109983067   1.44183  -0.54563   0.97724  -0.43488
  12   25709.0    389.0   0.003550525   0.04547   0.05902   0.16472   0.12186
  13   26047.1    383.9   0.047594432   0.60155  -0.50197  -0.07661  -0.58627
  14   27009.2    370.2   0.004043286   0.04928  -0.09507  -0.00821  -0.20044
  15   27336.1    365.8   0.013520116   0.16282  -0.29864   0.22110  -0.15734
  16   27473.3    364.0   0.005255797   0.06298   0.20485   0.07512   0.12398
  17   27852.3    359.0   0.104501214   1.23519   0.56540  -0.83997   0.45821
  18   28176.5    354.9   0.105829930   1.23651   0.57326   0.92688  -0.22084
  19   28278.1    353.6   0.071707323   0.83481  -0.40770   0.65597  -0.48815
  20   28290.4    353.5   0.026496438   0.30834   0.29748  -0.31177  -0.35020
  21   28980.6    345.1   0.065410123   0.74304  -0.69016  -0.21851  -0.46795
  22   29150.5    343.0   0.007332682   0.08281  -0.08798   0.27309   0.02217
  23   29578.1    338.1   0.054475122   0.60632   0.15095  -0.74706  -0.15948
  24   29870.3    334.8   0.301405973   3.32190   0.27230  -1.47842   1.03056
  25   29918.5    334.2   0.086805711   0.95518  -0.70415  -0.55818   0.38443
  26   30095.1    332.3   0.237155703   2.59426   0.21252  -1.58559  -0.18710
  27   30217.7    330.9   0.162769692   1.77332  -0.80580  -0.61060  -0.86670
  28   30612.2    326.7   0.276261270   2.97099  -0.83156   1.44471   0.43854
  29   30957.6    323.0   0.005251142   0.05584   0.08369  -0.20330   0.08664
  30   31067.2    321.9   0.150103750   1.59061   0.82283  -0.34692   0.89062
  31   31327.7    319.2   0.023625091   0.24827  -0.23933   0.40522  -0.16366
  32   31427.8    318.2   0.245105128   2.56752  -0.81910   1.08248  -0.85137
  33   31632.4    316.1   0.304170144   3.16563   0.95297  -0.92553   1.18358
  34   31830.6    314.2   0.329794132   3.41093   0.68250  -1.52376   0.78948
  35   31988.9    312.6   0.004453481   0.04583  -0.02576  -0.21249  -0.00397
  36   32350.7    309.1   0.075940838   0.77280  -0.72501   0.14410  -0.47582
  37   32478.2    307.9   0.060938238   0.61770   0.55164  -0.54106  -0.14368
  38   33000.4    303.0   0.208644414   2.08144   0.63240   1.06174   0.74445
  39   33435.9    299.1   0.011563414   0.11385  -0.29291  -0.06291   0.15524
  40   33830.7    295.6   0.003857561   0.03754   0.07067  -0.14957   0.10086
  41   34006.3    294.1   0.025643199   0.24825  -0.34595   0.25320   0.25388
  42   34091.2    293.3   0.128844947   1.24423   0.09312   0.87128  -0.69024
  43   34241.9    292.0   0.067416255   0.64816  -0.64786  -0.33452   0.34138
  44   34515.8    289.7   0.173835201   1.65804  -0.35873  -1.07518   0.61102
  45   34543.5    289.5   0.009762010   0.09304   0.19772   0.11694   0.20067
  46   34756.6    287.7   0.041764616   0.39559  -0.06511   0.62468  -0.03356
  47   34797.6    287.4   0.761763535   7.20687  -2.36788   0.05858  -1.26357
  48   34928.6    286.3   0.047192738   0.44481  -0.64516   0.12523   0.11354
  49   35125.2    284.7   0.195007124   1.82771   0.18797   0.92357  -0.96922
  50   35358.6    282.8   0.164711243   1.53357   0.39835  -0.23727   1.14830
  51   35442.4    282.1   0.168490692   1.56505   0.40921   1.12469   0.36424
  52   35491.0    281.8   0.107724481   0.99924  -0.32628  -0.67428  -0.66192
  53   35600.9    280.9   0.131261690   1.21381  -0.18747   1.08062  -0.10454
  54   35751.5    279.7   0.012239060   0.11270  -0.03179  -0.33030   0.05094
  55   35833.7    279.1   0.073180273   0.67232  -0.33244   0.24191  -0.70942
  56   36051.2    277.4   0.108485266   0.99067   0.06672  -0.09896   0.98814
  57   36354.8    275.1   0.005320772   0.04818  -0.03497  -0.20151   0.07970
  58   36605.2    273.2   0.002009516   0.01807  -0.10798  -0.05046  -0.06219
  59   36852.1    271.4   0.335943270   3.00109   1.24409   0.55793   1.06866
  60   37069.0    269.8   0.015560241   0.13819   0.33670   0.05378   0.14809
  61   37265.6    268.3   0.090481949   0.79934   0.12971   0.87677   0.11738
  62   37296.2    268.1   0.063668613   0.56200   0.30940  -0.35356   0.58418
  63   37483.4    266.8   0.055331747   0.48597   0.09426  -0.67958  -0.12351
  64   37577.0    266.1   0.033919777   0.29717  -0.48903   0.01545  -0.24038
  65   37812.0    264.5   0.039554226   0.34438  -0.36165  -0.30978  -0.34297
  66   37875.9    264.0   0.183043800   1.59099  -0.78406  -0.17254  -0.97287
  67   38161.8    262.0   0.025187590   0.21729  -0.33813  -0.01692  -0.32042
  68   38326.3    260.9   0.079472899   0.68265   0.49315   0.22592   0.62322
  69   38486.6    259.8   0.003723353   0.03185  -0.10469  -0.08639  -0.11587
  70   38720.2    258.3   0.003283699   0.02792   0.08291  -0.07985   0.12112
  71   39031.1    256.2   0.066644164   0.56212  -0.44806  -0.41855  -0.43148
  72   39491.2    253.2   0.150485806   1.25450   0.24300   0.91083   0.60484
  73   39681.8    252.0   0.065040730   0.53960   0.63825   0.19945   0.30406
  74   40141.3    249.1   0.032913042   0.26993   0.44011  -0.02413   0.27505
  75   40221.0    248.6   0.006495369   0.05317  -0.07804  -0.21016  -0.05392
  76   40262.3    248.4   0.077802054   0.63616   0.14353   0.76785  -0.16116

FINAL SINGLE POINT ENERGY     -5320.465327159803

DIPOLE MOMENT
-------------
                                X             Y             Z
Electronic contribution:     11.44312       0.07765     -20.57172
Nuclear contribution   :    -13.88685      -1.66461      21.57628
                        -----------------------------------------
Total Dipole Moment    :     -2.44373      -1.58697       1.00456
                        -----------------------------------------
Magnitude (a.u.)       :      3.08211
Magnitude (Debye)      :      7.83411

Rotational constants in cm-1:     0.002268     0.000140     0.000136
Rotational constants in MHz :    68.004902     4.207576     4.088570

                             ****ORCA TERMINATED NORMALLY****
TOTAL RUN TIME: 0 days 0 hours 12 minutes 59 seconds 85 msec
