                         Program Version 4.2.0 -  RELEASE  -
|  1> # ORCA input file
|  2> # SCF done       -209.577240901590          0.000781878513
|  3> ! CAM-B3LYP def2-SVP def2/J RIJCOSX Grid4 TightSCF
|  4> %maxcore 5000
|  5> %tddft
|  6>     Mode sTDDFT
|  7>     Ethresh 5.0
|  8>     maxcore 5000
|  9> end
| 10>
| 11> %pal
| 12>   nprocs 6
| 13>   end
| 14> * xyz 0 1
| 15>    C        3.33959         3.38488        -1.08293
| 16>    C        2.96301         3.93336        -2.28273
| 17>    C        3.84614         4.16953        -3.35696
| 18>    N        4.51535         4.38108        -4.26453
| 19>    C        1.62217         4.19112        -2.62393
| 20>    N        0.53765         4.39462        -2.94028
| 21>    C        4.66461         2.85387        -0.77689
| 22>    C        4.56821         2.01773         0.37413
| 23>    C        5.65402         1.35994         0.87791
| 24>    C        6.90919         1.52198         0.24939
| 25>    C        7.01519         2.37090        -0.89030
| 26>    C        5.87137         3.03359        -1.39468
| 27>    C        8.27475         2.53064        -1.50170
| 28>    C        9.37762         1.88297        -1.01431
| 29>    C        9.27222         1.04706         0.10713
| 30>    C        8.06406         0.87024         0.72535
| 31>    C        3.18472         2.03594         0.86721
| 32>    O        2.69831         1.41250         1.78259
| 33>    C        2.47545         3.05183         0.01984
| 34>    C        1.27008         3.50673         0.46570
| 35>    C        0.54008         4.67493         0.15112
| 36>    C        0.93382         5.88783        -0.42113
| 37>    C       -0.16321         6.78183        -0.37617
| 38>    C       -1.29038         6.09049         0.22081
| 39>    O       -2.43533         6.41324         0.43756
| 40>    N       -0.76896         4.82176         0.54295
| 41>    C       -1.59328         3.80206         1.13131
| 42>    C        0.20815         7.96333        -1.00781
| 43>    N        1.50127         7.82940        -1.42273
| 44>    C        2.03158         6.57952        -1.05454
| 45>    O        3.18483         6.25391        -1.26653
| 46>    C        2.34296         8.83215        -2.01583
| 47>    C       -0.63187         9.12318        -1.14985
| 48>    C       -0.77526         9.88426        -2.32534
| 49>    C       -1.70899        10.97714        -2.41354
| 50>    N       -1.86756        11.61992        -3.59302
| 51>    C       -1.18152        11.23755        -4.61874
| 52>    C       -0.26123        10.15956        -4.53249
| 53>    N       -0.07555         9.52148        -3.42466
| 54>    F        0.45263         9.78433        -5.58957
| 55>    F       -1.35437        11.90084        -5.75896
| 56>    C       -2.53202        11.34138        -1.33086
| 57>    C       -2.40419        10.56874        -0.16171
| 58>    C       -1.46529         9.47619        -0.07173
| 59>    N       -1.47455         8.91864         1.14074
| 60>    S       -2.58055         9.64611         2.03433
| 61>    N       -3.05460        10.75595         0.98826
| 62>    C       -3.54909        12.35828        -1.37244
| 63>    C       -4.83423        12.23153        -0.85498
| 64>    C       -5.52682        13.44042        -1.11021
| 65>    C       -4.60742        14.36533        -1.73312
| 66>    O       -4.70610        15.53487        -2.03871
| 67>    N       -3.42342        13.61380        -1.89407
| 68>    C       -2.23496        14.22729        -2.41886
| 69>    C       -6.81650        13.32381        -0.60737
| 70>    N       -6.93266        12.08363        -0.04432
| 71>    C       -5.75154        11.31832        -0.19753
| 72>    O       -5.65424        10.17384         0.17875
| 73>    C       -8.11918        11.54663         0.56313
| 74>    C       -7.81464        14.33687        -0.51380
| 75>    C       -7.94492        15.33835        -1.41889
| 76>    C       -8.67515        16.58570        -1.27226
| 77>    C       -9.56343        16.90309        -0.27776
| 78>    C      -10.23698        18.13911        -0.18234
| 79>    N      -10.82110        19.11852        -0.05157
| 80>    C       -9.94941        16.02918         0.75906
| 81>    N      -10.30656        15.35475         1.61734
| 82>    C       -8.27907        17.44955        -2.37693
| 83>    C       -7.46454        16.70475        -3.27958
| 84>    C       -7.33150        15.32642        -2.78952
| 85>    O       -6.95786        14.35320        -3.39868
| 86>    C       -6.93846        17.26573        -4.40678
| 87>    C       -7.19578        18.62710        -4.68212
| 88>    C       -8.00962        19.37950        -3.78542
| 89>    C       -8.54878        18.76954        -2.63061
| 90>    C       -8.26085        20.73716        -4.07274
| 91>    C       -7.73351        21.32555        -5.18958
| 92>    C       -6.93140        20.58448        -6.07086
| 93>    C       -6.66861        19.26463        -5.82254
| 94>    H        5.55860         0.72654         1.74744
| 95>    H        5.98018         3.68064        -2.25042
| 96>    H        8.35072         3.17354        -2.36620
| 97>    H       10.33790         2.01121        -1.49105
| 98>    H       10.15248         0.54424         0.47883
| 99>    H        7.97663         0.22788         1.58947
|100>    H        0.85255         2.90398         1.26849
|101>    H       -2.59863         4.21666         1.20740
|102>    H       -1.24098         3.53702         2.13069
|103>    H       -1.61595         2.90924         0.50464
|104>    H        2.21064         9.78924        -1.51046
|105>    H        2.11648         8.94739        -3.07577
|106>    H        3.37289         8.49182        -1.90466
|107>    H       -2.39362        15.30585        -2.38899
|108>    H       -2.06229        13.91914        -3.45039
|109>    H       -1.36914        13.96108        -1.81201
|110>    H       -8.95953        11.57382        -0.13252
|111>    H       -8.38293        12.10263         1.46538
|112>    H       -7.90108        10.51251         0.82930
|113>    H       -8.43397        14.31495         0.37366
|114>    H       -6.32267        16.67985        -5.07195
|115>    H       -9.15722        19.36607        -1.96911
|116>    H       -8.87919        21.30344        -3.39175
|117>    H       -7.93115        22.36582        -5.40062
|118>    H       -6.52311        21.06530        -6.94721
|119>    H       -6.05197        18.68918        -6.49718
|120> *
|121>
|122>                          ****END OF INPUT****

CARTESIAN COORDINATES (ANGSTROEM)
---------------------------------
  C      3.339590    3.384880   -1.082930
  C      2.963010    3.933360   -2.282730
  C      3.846140    4.169530   -3.356960
  N      4.515350    4.381080   -4.264530
  C      1.622170    4.191120   -2.623930
  N      0.537650    4.394620   -2.940280
  C      4.664610    2.853870   -0.776890
  C      4.568210    2.017730    0.374130
  C      5.654020    1.359940    0.877910
  C      6.909190    1.521980    0.249390
  C      7.015190    2.370900   -0.890300
  C      5.871370    3.033590   -1.394680
  C      8.274750    2.530640   -1.501700
  C      9.377620    1.882970   -1.014310
  C      9.272220    1.047060    0.107130
  C      8.064060    0.870240    0.725350
  C      3.184720    2.035940    0.867210
  O      2.698310    1.412500    1.782590
  C      2.475450    3.051830    0.019840
  C      1.270080    3.506730    0.465700
  C      0.540080    4.674930    0.151120
  C      0.933820    5.887830   -0.421130
  C     -0.163210    6.781830   -0.376170
  C     -1.290380    6.090490    0.220810
  O     -2.435330    6.413240    0.437560
  N     -0.768960    4.821760    0.542950
  C     -1.593280    3.802060    1.131310
  C      0.208150    7.963330   -1.007810
  N      1.501270    7.829400   -1.422730
  C      2.031580    6.579520   -1.054540
  O      3.184830    6.253910   -1.266530
  C      2.342960    8.832150   -2.015830
  C     -0.631870    9.123180   -1.149850
  C     -0.775260    9.884260   -2.325340
  C     -1.708990   10.977140   -2.413540
  N     -1.867560   11.619920   -3.593020
  C     -1.181520   11.237550   -4.618740
  C     -0.261230   10.159560   -4.532490
  N     -0.075550    9.521480   -3.424660
  F      0.452630    9.784330   -5.589570
  F     -1.354370   11.900840   -5.758960
  C     -2.532020   11.341380   -1.330860
  C     -2.404190   10.568740   -0.161710
  C     -1.465290    9.476190   -0.071730
  N     -1.474550    8.918640    1.140740
  S     -2.580550    9.646110    2.034330
  N     -3.054600   10.755950    0.988260
  C     -3.549090   12.358280   -1.372440
  C     -4.834230   12.231530   -0.854980
  C     -5.526820   13.440420   -1.110210
  C     -4.607420   14.365330   -1.733120
  O     -4.706100   15.534870   -2.038710
  N     -3.423420   13.613800   -1.894070
  C     -2.234960   14.227290   -2.418860
  C     -6.816500   13.323810   -0.607370
  N     -6.932660   12.083630   -0.044320
  C     -5.751540   11.318320   -0.197530
  O     -5.654240   10.173840    0.178750
  C     -8.119180   11.546630    0.563130
  C     -7.814640   14.336870   -0.513800
  C     -7.944920   15.338350   -1.418890
  C     -8.675150   16.585700   -1.272260
  C     -9.563430   16.903090   -0.277760
  C    -10.236980   18.139110   -0.182340
  N    -10.821100   19.118520   -0.051570
  C     -9.949410   16.029180    0.759060
  N    -10.306560   15.354750    1.617340
  C     -8.279070   17.449550   -2.376930
  C     -7.464540   16.704750   -3.279580
  C     -7.331500   15.326420   -2.789520
  O     -6.957860   14.353200   -3.398680
  C     -6.938460   17.265730   -4.406780
  C     -7.195780   18.627100   -4.682120
  C     -8.009620   19.379500   -3.785420
  C     -8.548780   18.769540   -2.630610
  C     -8.260850   20.737160   -4.072740
  C     -7.733510   21.325550   -5.189580
  C     -6.931400   20.584480   -6.070860
  C     -6.668610   19.264630   -5.822540
  H      5.558600    0.726540    1.747440
  H      5.980180    3.680640   -2.250420
  H      8.350720    3.173540   -2.366200
  H     10.337900    2.011210   -1.491050
  H     10.152480    0.544240    0.478830
  H      7.976630    0.227880    1.589470
  H      0.852550    2.903980    1.268490
  H     -2.598630    4.216660    1.207400
  H     -1.240980    3.537020    2.130690
  H     -1.615950    2.909240    0.504640
  H      2.210640    9.789240   -1.510460
  H      2.116480    8.947390   -3.075770
  H      3.372890    8.491820   -1.904660
  H     -2.393620   15.305850   -2.388990
  H     -2.062290   13.919140   -3.450390
  H     -1.369140   13.961080   -1.812010
  H     -8.959530   11.573820   -0.132520
  H     -8.382930   12.102630    1.465380
  H     -7.901080   10.512510    0.829300
  H     -8.433970   14.314950    0.373660
  H     -6.322670   16.679850   -5.071950
  H     -9.157220   19.366070   -1.969110
  H     -8.879190   21.303440   -3.391750
  H     -7.931150   22.365820   -5.400620
  H     -6.523110   21.065300   -6.947210
  H     -6.051970   18.689180   -6.497180

 Total Charge           Charge          ....    0
 Multiplicity           Mult            ....    1
 Number of Electrons    NEL             ....  540
 Basis Dimension        Dim             .... 1240

ORBITAL ENERGIES
----------------

  NO   OCC          E(Eh)            E(eV)
   0   2.0000     -89.042842     -2422.9789
   1   2.0000     -24.824426      -675.5070
   2   2.0000     -24.823871      -675.4919
   3   2.0000     -19.218397      -522.9592
   4   2.0000     -19.212608      -522.8016
   5   2.0000     -19.209593      -522.7196
   6   2.0000     -19.203278      -522.5478
   7   2.0000     -19.193007      -522.2683
   8   2.0000     -19.191537      -522.2283
   9   2.0000     -14.468511      -393.7082
  10   2.0000     -14.464746      -393.6057
  11   2.0000     -14.464490      -393.5988
  12   2.0000     -14.464300      -393.5936
  13   2.0000     -14.458530      -393.4366
  14   2.0000     -14.457476      -393.4079
  15   2.0000     -14.446976      -393.1222
  16   2.0000     -14.446711      -393.1150
  17   2.0000     -14.421198      -392.4208
  18   2.0000     -14.417435      -392.3183
  19   2.0000     -14.415624      -392.2691
  20   2.0000     -14.410284      -392.1238
  21   2.0000     -10.440937      -284.1123
  22   2.0000     -10.440601      -284.1032
  23   2.0000     -10.385490      -282.6036
  24   2.0000     -10.382260      -282.5156
  25   2.0000     -10.378220      -282.4057
  26   2.0000     -10.376859      -282.3687
  27   2.0000     -10.366959      -282.0993
  28   2.0000     -10.366308      -282.0816
  29   2.0000     -10.360961      -281.9361
  30   2.0000     -10.360557      -281.9251
  31   2.0000     -10.354337      -281.7558
  32   2.0000     -10.353909      -281.7442
  33   2.0000     -10.349455      -281.6230
  34   2.0000     -10.346685      -281.5476
  35   2.0000     -10.346499      -281.5425
  36   2.0000     -10.344242      -281.4811
  37   2.0000     -10.342858      -281.4435
  38   2.0000     -10.342763      -281.4409
  39   2.0000     -10.342482      -281.4333
  40   2.0000     -10.329689      -281.0851
  41   2.0000     -10.328603      -281.0556
  42   2.0000     -10.327836      -281.0347
  43   2.0000     -10.323638      -280.9205
  44   2.0000     -10.320146      -280.8254
  45   2.0000     -10.319934      -280.8197
  46   2.0000     -10.315282      -280.6931
  47   2.0000     -10.314608      -280.6748
  48   2.0000     -10.312744      -280.6240
  49   2.0000     -10.310313      -280.5579
  50   2.0000     -10.307882      -280.4917
  51   2.0000     -10.305902      -280.4378
  52   2.0000     -10.305585      -280.4292
  53   2.0000     -10.303775      -280.3800
  54   2.0000     -10.303730      -280.3787
  55   2.0000     -10.303031      -280.3597
  56   2.0000     -10.298124      -280.2262
  57   2.0000     -10.296586      -280.1843
  58   2.0000     -10.296242      -280.1750
  59   2.0000     -10.296028      -280.1692
  60   2.0000     -10.295042      -280.1423
  61   2.0000     -10.293683      -280.1054
  62   2.0000     -10.293625      -280.1038
  63   2.0000     -10.293113      -280.0898
  64   2.0000     -10.289463      -279.9905
  65   2.0000     -10.286621      -279.9132
  66   2.0000     -10.285967      -279.8954
  67   2.0000     -10.285483      -279.8822
  68   2.0000     -10.284817      -279.8641
  69   2.0000     -10.284579      -279.8576
  70   2.0000     -10.284287      -279.8497
  71   2.0000     -10.283179      -279.8195
  72   2.0000     -10.282549      -279.8024
  73   2.0000     -10.282171      -279.7921
  74   2.0000     -10.281235      -279.7666
  75   2.0000     -10.280643      -279.7505
  76   2.0000     -10.273307      -279.5509
  77   2.0000     -10.272937      -279.5408
  78   2.0000     -10.272626      -279.5324
  79   2.0000      -8.133873      -221.3339
  80   2.0000      -6.104724      -166.1180
  81   2.0000      -6.097196      -165.9131
  82   2.0000      -6.096888      -165.9048
  83   2.0000      -1.352324       -36.7986
  84   2.0000      -1.338219       -36.4148
  85   2.0000      -1.147217       -31.2174
  86   2.0000      -1.143658       -31.1205
  87   2.0000      -1.140178       -31.0258
  88   2.0000      -1.132770       -30.8242
  89   2.0000      -1.132394       -30.8140
  90   2.0000      -1.131832       -30.7987
  91   2.0000      -1.128619       -30.7113
  92   2.0000      -1.123738       -30.5785
  93   2.0000      -1.076206       -29.2851
  94   2.0000      -1.073028       -29.1986
  95   2.0000      -1.063154       -28.9299
  96   2.0000      -1.062272       -28.9059
  97   2.0000      -1.046585       -28.4790
  98   2.0000      -1.020939       -27.7812
  99   2.0000      -1.014258       -27.5993
 100   2.0000      -0.999813       -27.2063
 101   2.0000      -0.996695       -27.1214
 102   2.0000      -0.995581       -27.0911
 103   2.0000      -0.993653       -27.0387
 104   2.0000      -0.990321       -26.9480
 105   2.0000      -0.981205       -26.6999
 106   2.0000      -0.971616       -26.4390
 107   2.0000      -0.967803       -26.3353
 108   2.0000      -0.929589       -25.2954
 109   2.0000      -0.929109       -25.2823
 110   2.0000      -0.924764       -25.1641
 111   2.0000      -0.921426       -25.0733
 112   2.0000      -0.909832       -24.7578
 113   2.0000      -0.905861       -24.6497
 114   2.0000      -0.901733       -24.5374
 115   2.0000      -0.889737       -24.2110
 116   2.0000      -0.880869       -23.9697
 117   2.0000      -0.877969       -23.8908
 118   2.0000      -0.877343       -23.8737
 119   2.0000      -0.874617       -23.7995
 120   2.0000      -0.853649       -23.2290
 121   2.0000      -0.848130       -23.0788
 122   2.0000      -0.834162       -22.6987
 123   2.0000      -0.827346       -22.5132
 124   2.0000      -0.824504       -22.4359
 125   2.0000      -0.820285       -22.3211
 126   2.0000      -0.819698       -22.3051
 127   2.0000      -0.814263       -22.1572
 128   2.0000      -0.797442       -21.6995
 129   2.0000      -0.772138       -21.0109
 130   2.0000      -0.770798       -20.9745
 131   2.0000      -0.770038       -20.9538
 132   2.0000      -0.768040       -20.8994
 133   2.0000      -0.761717       -20.7274
 134   2.0000      -0.758030       -20.6270
 135   2.0000      -0.753685       -20.5088
 136   2.0000      -0.752316       -20.4716
 137   2.0000      -0.717870       -19.5342
 138   2.0000      -0.712195       -19.3798
 139   2.0000      -0.705316       -19.1926
 140   2.0000      -0.701607       -19.0917
 141   2.0000      -0.699646       -19.0383
 142   2.0000      -0.697883       -18.9904
 143   2.0000      -0.694468       -18.8974
 144   2.0000      -0.687632       -18.7114
 145   2.0000      -0.684993       -18.6396
 146   2.0000      -0.680050       -18.5051
 147   2.0000      -0.678110       -18.4523
 148   2.0000      -0.677044       -18.4233
 149   2.0000      -0.674868       -18.3641
 150   2.0000      -0.672523       -18.3003
 151   2.0000      -0.671328       -18.2678
 152   2.0000      -0.664769       -18.0893
 153   2.0000      -0.642771       -17.4907
 154   2.0000      -0.637335       -17.3428
 155   2.0000      -0.634808       -17.2740
 156   2.0000      -0.628076       -17.0908
 157   2.0000      -0.622958       -16.9515
 158   2.0000      -0.620237       -16.8775
 159   2.0000      -0.618611       -16.8333
 160   2.0000      -0.614424       -16.7193
 161   2.0000      -0.606430       -16.5018
 162   2.0000      -0.605443       -16.4750
 163   2.0000      -0.603025       -16.4091
 164   2.0000      -0.601642       -16.3715
 165   2.0000      -0.590594       -16.0709
 166   2.0000      -0.586207       -15.9515
 167   2.0000      -0.584739       -15.9116
 168   2.0000      -0.580660       -15.8006
 169   2.0000      -0.579551       -15.7704
 170   2.0000      -0.575201       -15.6520
 171   2.0000      -0.568233       -15.4624
 172   2.0000      -0.567268       -15.4361
 173   2.0000      -0.564545       -15.3620
 174   2.0000      -0.563146       -15.3240
 175   2.0000      -0.561269       -15.2729
 176   2.0000      -0.560731       -15.2583
 177   2.0000      -0.555197       -15.1077
 178   2.0000      -0.552142       -15.0245
 179   2.0000      -0.547839       -14.9075
 180   2.0000      -0.545223       -14.8363
 181   2.0000      -0.544875       -14.8268
 182   2.0000      -0.542662       -14.7666
 183   2.0000      -0.542330       -14.7576
 184   2.0000      -0.539401       -14.6779
 185   2.0000      -0.536253       -14.5922
 186   2.0000      -0.532936       -14.5019
 187   2.0000      -0.528217       -14.3735
 188   2.0000      -0.527403       -14.3514
 189   2.0000      -0.525346       -14.2954
 190   2.0000      -0.522162       -14.2087
 191   2.0000      -0.521376       -14.1874
 192   2.0000      -0.521106       -14.1800
 193   2.0000      -0.518218       -14.1014
 194   2.0000      -0.517062       -14.0700
 195   2.0000      -0.516257       -14.0481
 196   2.0000      -0.511387       -13.9155
 197   2.0000      -0.511057       -13.9066
 198   2.0000      -0.508956       -13.8494
 199   2.0000      -0.507785       -13.8175
 200   2.0000      -0.505639       -13.7591
 201   2.0000      -0.503654       -13.7051
 202   2.0000      -0.501947       -13.6587
 203   2.0000      -0.499962       -13.6046
 204   2.0000      -0.498740       -13.5714
 205   2.0000      -0.495087       -13.4720
 206   2.0000      -0.493693       -13.4341
 207   2.0000      -0.488162       -13.2836
 208   2.0000      -0.486159       -13.2291
 209   2.0000      -0.483553       -13.1582
 210   2.0000      -0.482740       -13.1360
 211   2.0000      -0.480088       -13.0639
 212   2.0000      -0.478019       -13.0076
 213   2.0000      -0.476349       -12.9621
 214   2.0000      -0.472955       -12.8698
 215   2.0000      -0.471695       -12.8355
 216   2.0000      -0.469687       -12.7808
 217   2.0000      -0.469183       -12.7671
 218   2.0000      -0.466392       -12.6912
 219   2.0000      -0.463158       -12.6032
 220   2.0000      -0.460664       -12.5353
 221   2.0000      -0.455158       -12.3855
 222   2.0000      -0.452871       -12.3232
 223   2.0000      -0.447849       -12.1866
 224   2.0000      -0.447314       -12.1720
 225   2.0000      -0.445942       -12.1347
 226   2.0000      -0.441155       -12.0044
 227   2.0000      -0.439305       -11.9541
 228   2.0000      -0.437347       -11.9008
 229   2.0000      -0.435299       -11.8451
 230   2.0000      -0.434633       -11.8270
 231   2.0000      -0.432075       -11.7574
 232   2.0000      -0.430197       -11.7062
 233   2.0000      -0.428381       -11.6568
 234   2.0000      -0.427183       -11.6242
 235   2.0000      -0.427033       -11.6202
 236   2.0000      -0.422995       -11.5103
 237   2.0000      -0.422378       -11.4935
 238   2.0000      -0.421117       -11.4592
 239   2.0000      -0.418112       -11.3774
 240   2.0000      -0.415966       -11.3190
 241   2.0000      -0.413201       -11.2438
 242   2.0000      -0.409826       -11.1519
 243   2.0000      -0.407441       -11.0870
 244   2.0000      -0.404610       -11.0100
 245   2.0000      -0.403505       -10.9799
 246   2.0000      -0.394240       -10.7278
 247   2.0000      -0.390367       -10.6224
 248   2.0000      -0.383493       -10.4354
 249   2.0000      -0.377555       -10.2738
 250   2.0000      -0.373958       -10.1759
 251   2.0000      -0.372011       -10.1229
 252   2.0000      -0.359819        -9.7912
 253   2.0000      -0.355755        -9.6806
 254   2.0000      -0.346645        -9.4327
 255   2.0000      -0.344315        -9.3693
 256   2.0000      -0.341609        -9.2957
 257   2.0000      -0.337938        -9.1958
 258   2.0000      -0.336854        -9.1663
 259   2.0000      -0.334891        -9.1128
 260   2.0000      -0.331371        -9.0171
 261   2.0000      -0.322766        -8.7829
 262   2.0000      -0.320394        -8.7184
 263   2.0000      -0.315135        -8.5753
 264   2.0000      -0.313463        -8.5298
 265   2.0000      -0.307415        -8.3652
 266   2.0000      -0.293009        -7.9732
 267   2.0000      -0.287719        -7.8292
 268   2.0000      -0.262793        -7.1510
 269   2.0000      -0.246097        -6.6966
 270   0.0000      -0.128531        -3.4975
 271   0.0000      -0.101215        -2.7542
 272   0.0000      -0.090102        -2.4518
 273   0.0000      -0.058648        -1.5959
 274   0.0000      -0.058140        -1.5821

MULLIKEN ATOMIC CHARGES
-----------------------
   0 C :    0.310877
   1 C :   -0.279180
   2 C :   -0.179137
   3 N :    0.158352
   4 C :   -0.243538
   5 N :    0.176979
   6 C :    0.040260
   7 C :    0.013343
   8 C :   -0.081637
   9 C :    0.093941
  10 C :    0.098308
  11 C :   -0.087770
  12 C :   -0.020070
  13 C :    0.036099
  14 C :    0.035856
  15 C :   -0.018366
  16 C :    0.133268
  17 O :   -0.141254
  18 C :   -0.104487
  19 C :   -0.047881
  20 C :    0.180900
  21 C :   -0.060569
  22 C :   -0.022099
  23 C :    0.143119
  24 O :   -0.175320
  25 N :   -0.280256
  26 C :    0.116911
  27 C :    0.024598
  28 N :   -0.238972
  29 C :    0.152448
  30 O :   -0.182624
  31 C :    0.132149
  32 C :    0.075210
  33 C :   -0.048224
  34 C :   -0.055891
  35 N :    0.001827
  36 C :    0.153007
  37 C :    0.156231
  38 N :    0.001057
  39 F :   -0.136558
  40 F :   -0.138843
  41 C :    0.075322
  42 C :   -0.006146
  43 C :   -0.010559
  44 N :   -0.244840
  45 S :    0.579301
  46 N :   -0.243996
  47 C :    0.019238
  48 C :   -0.031830
  49 C :   -0.032699
  50 C :    0.160539
  51 O :   -0.189730
  52 N :   -0.247551
  53 C :    0.134289
  54 C :    0.140203
  55 N :   -0.274240
  56 C :    0.141008
  57 O :   -0.170182
  58 C :    0.110388
  59 C :   -0.071434
  60 C :   -0.057419
  61 C :    0.300232
  62 C :   -0.344559
  63 C :   -0.179069
  64 N :    0.153222
  65 C :   -0.180799
  66 N :    0.145403
  67 C :    0.057866
  68 C :    0.024569
  69 C :    0.150776
  70 O :   -0.136650
  71 C :   -0.072007
  72 C :    0.096844
  73 C :    0.099530
  74 C :   -0.091714
  75 C :   -0.021060
  76 C :    0.036613
  77 C :    0.036927
  78 C :   -0.016251
  79 H :   -0.013530
  80 H :   -0.004163
  81 H :   -0.010493
  82 H :   -0.006441
  83 H :   -0.007467
  84 H :   -0.018564
  85 H :    0.012822
  86 H :    0.062699
  87 H :    0.039537
  88 H :    0.041121
  89 H :    0.021933
  90 H :    0.054786
  91 H :    0.055341
  92 H :    0.052982
  93 H :    0.048130
  94 H :    0.021859
  95 H :    0.040728
  96 H :    0.047052
  97 H :    0.061856
  98 H :    0.022884
  99 H :   -0.011458
 100 H :   -0.006698
 101 H :   -0.009368
 102 H :   -0.004837
 103 H :   -0.005659
 104 H :   -0.016649
Sum of atomic charges:    0.0000000

LOEWDIN ATOMIC CHARGES
----------------------
   0 C :    0.054492
   1 C :   -0.105878
   2 C :   -0.013028
   3 N :   -0.050683
   4 C :   -0.016401
   5 N :   -0.044561
   6 C :   -0.014763
   7 C :   -0.061854
   8 C :    0.034916
   9 C :   -0.012443
  10 C :   -0.002791
  11 C :    0.013347
  12 C :   -0.007595
  13 C :   -0.012919
  14 C :   -0.016253
  15 C :   -0.009185
  16 C :    0.086632
  17 O :   -0.137896
  18 C :   -0.042626
  19 C :    0.016409
  20 C :    0.070417
  21 C :   -0.086804
  22 C :   -0.096616
  23 C :    0.084304
  24 O :   -0.182248
  25 N :   -0.004335
  26 C :    0.029111
  27 C :    0.089333
  28 N :    0.017186
  29 C :    0.080837
  30 O :   -0.168289
  31 C :    0.026284
  32 C :   -0.033554
  33 C :   -0.002372
  34 C :   -0.004645
  35 N :   -0.033841
  36 C :    0.060971
  37 C :    0.062590
  38 N :   -0.033529
  39 F :   -0.023463
  40 F :   -0.025850
  41 C :   -0.030268
  42 C :   -0.035067
  43 C :   -0.033556
  44 N :   -0.266029
  45 S :    0.718631
  46 N :   -0.265286
  47 C :    0.087580
  48 C :   -0.100857
  49 C :   -0.091727
  50 C :    0.089275
  51 O :   -0.178118
  52 N :    0.008971
  53 C :    0.025550
  54 C :    0.072406
  55 N :   -0.005424
  56 C :    0.084400
  57 O :   -0.178600
  58 C :    0.029213
  59 C :    0.032091
  60 C :   -0.043931
  61 C :    0.075627
  62 C :   -0.133567
  63 C :   -0.017811
  64 N :   -0.048432
  65 C :   -0.017295
  66 N :   -0.052331
  67 C :   -0.023302
  68 C :   -0.044363
  69 C :    0.088172
  70 O :   -0.128346
  71 C :    0.037910
  72 C :   -0.005617
  73 C :   -0.005300
  74 C :    0.018487
  75 C :   -0.005600
  76 C :   -0.013938
  77 C :   -0.011801
  78 C :   -0.009179
  79 H :    0.038615
  80 H :    0.039526
  81 H :    0.034218
  82 H :    0.032477
  83 H :    0.031824
  84 H :    0.031155
  85 H :    0.047322
  86 H :    0.043044
  87 H :    0.027593
  88 H :    0.031149
  89 H :    0.024237
  90 H :    0.027630
  91 H :    0.037978
  92 H :    0.037016
  93 H :    0.025307
  94 H :    0.024070
  95 H :    0.030618
  96 H :    0.030624
  97 H :    0.042862
  98 H :    0.046516
  99 H :    0.040212
 100 H :    0.038729
 101 H :    0.034478
 102 H :    0.033084
 103 H :    0.032611
 104 H :    0.032127

  Mayer bond orders larger than 0.100000
B(  0-C ,  1-C ) :   1.6170 B(  0-C ,  6-C ) :   0.9948 B(  0-C , 18-C ) :   1.0665
B(  1-C ,  2-C ) :   1.1342 B(  1-C ,  4-C ) :   1.1753 B(  2-C ,  3-N ) :   2.9890
B(  4-C ,  5-N ) :   2.9848 B(  6-C ,  7-C ) :   1.2075 B(  6-C , 11-C ) :   1.4722
B(  7-C ,  8-C ) :   1.4682 B(  7-C , 16-C ) :   0.9304 B(  8-C ,  9-C ) :   1.1856
B(  8-C , 79-H ) :   1.0164 B(  9-C , 10-C ) :   1.2584 B(  9-C , 15-C ) :   1.2425
B( 10-C , 11-C ) :   1.1943 B( 10-C , 12-C ) :   1.2452 B( 11-C , 80-H ) :   0.9934
B( 12-C , 13-C ) :   1.4855 B( 12-C , 81-H ) :   0.9979 B( 13-C , 14-C ) :   1.2611
B( 13-C , 82-H ) :   0.9888 B( 14-C , 15-C ) :   1.4892 B( 14-C , 83-H ) :   0.9889
B( 15-C , 84-H ) :   0.9979 B( 16-C , 17-O ) :   2.2514 B( 16-C , 18-C ) :   0.9227
B( 18-C , 19-C ) :   1.6304 B( 19-C , 20-C ) :   1.1300 B( 19-C , 85-H ) :   0.9223
B( 20-C , 21-C ) :   1.3267 B( 20-C , 25-N ) :   1.1794 B( 21-C , 22-C ) :   1.2565
B( 21-C , 29-C ) :   0.9786 B( 22-C , 23-C ) :   0.9530 B( 22-C , 27-C ) :   1.4287
B( 23-C , 24-O ) :   2.1665 B( 23-C , 25-N ) :   1.0364 B( 25-N , 26-C ) :   0.9684
B( 26-C , 86-H ) :   0.9501 B( 26-C , 87-H ) :   0.9681 B( 26-C , 88-H ) :   0.9733
B( 27-C , 28-N ) :   1.2473 B( 27-C , 32-C ) :   0.9839 B( 28-N , 29-C ) :   1.0492
B( 28-N , 31-C ) :   0.9588 B( 29-C , 30-O ) :   2.0541 B( 31-C , 89-H ) :   0.9707
B( 31-C , 90-H ) :   0.9625 B( 31-C , 91-H ) :   0.9506 B( 32-C , 33-C ) :   1.3292
B( 32-C , 41-C ) :   0.1526 B( 32-C , 43-C ) :   1.2661 B( 33-C , 34-C ) :   1.0973
B( 33-C , 38-N ) :   1.4281 B( 34-C , 35-N ) :   1.4269 B( 34-C , 41-C ) :   1.3302
B( 35-N , 36-C ) :   1.6645 B( 36-C , 37-C ) :   1.1028 B( 36-C , 40-F ) :   1.1704
B( 37-C , 38-N ) :   1.6629 B( 37-C , 39-F ) :   1.1724 B( 41-C , 42-C ) :   1.2680
B( 41-C , 47-C ) :   0.9826 B( 42-C , 43-C ) :   1.0829 B( 42-C , 46-N ) :   1.5167
B( 43-C , 44-N ) :   1.5146 B( 44-N , 45-S ) :   1.3086 B( 44-N , 46-N ) :   0.1501
B( 45-S , 46-N ) :   1.3098 B( 47-C , 48-C ) :   1.4360 B( 47-C , 52-N ) :   1.2449
B( 48-C , 49-C ) :   1.2454 B( 48-C , 56-C ) :   0.9498 B( 49-C , 50-C ) :   0.9768
B( 49-C , 54-C ) :   1.3852 B( 50-C , 51-O ) :   2.1066 B( 50-C , 52-N ) :   1.0275
B( 52-N , 53-C ) :   0.9625 B( 53-C , 92-H ) :   0.9508 B( 53-C , 93-H ) :   0.9634
B( 53-C , 94-H ) :   0.9709 B( 54-C , 55-N ) :   1.1868 B( 54-C , 59-C ) :   1.1015
B( 55-N , 56-C ) :   1.0271 B( 55-N , 58-C ) :   0.9641 B( 56-C , 57-O ) :   2.1704
B( 58-C , 95-H ) :   0.9745 B( 58-C , 96-H ) :   0.9694 B( 58-C , 97-H ) :   0.9524
B( 59-C , 60-C ) :   1.6628 B( 59-C , 98-H ) :   0.9247 B( 60-C , 61-C ) :   1.0626
B( 60-C , 69-C ) :   0.9014 B( 61-C , 62-C ) :   1.6359 B( 61-C , 67-C ) :   1.0024
B( 62-C , 63-C ) :   1.1410 B( 62-C , 65-C ) :   1.1445 B( 63-C , 64-N ) :   2.9688
B( 65-C , 66-N ) :   2.9674 B( 67-C , 68-C ) :   1.2141 B( 67-C , 74-C ) :   1.4350
B( 68-C , 69-C ) :   0.9300 B( 68-C , 71-C ) :   1.4745 B( 69-C , 70-O ) :   2.2568
B( 71-C , 72-C ) :   1.1855 B( 71-C , 99-H ) :   1.0145 B( 72-C , 73-C ) :   1.2512
B( 72-C , 78-C ) :   1.2432 B( 73-C , 74-C ) :   1.2161 B( 73-C , 75-C ) :   1.2365
B( 74-C ,100-H ) :   0.9900 B( 75-C , 76-C ) :   1.4932 B( 75-C ,101-H ) :   0.9974
B( 76-C , 77-C ) :   1.2562 B( 76-C ,102-H ) :   0.9884 B( 77-C , 78-C ) :   1.4905
B( 77-C ,103-H ) :   0.9890 B( 78-C ,104-H ) :   0.9979

-----------------------------------------------------------------------------
         ABSORPTION SPECTRUM VIA TRANSITION ELECTRIC DIPOLE MOMENTS
-----------------------------------------------------------------------------
State   Energy  Wavelength   fosc         T2         TX        TY        TZ
        (cm-1)    (nm)                  (au**2)     (au)      (au)      (au)
-----------------------------------------------------------------------------
   0    9464.3   1056.6   0.585700931  20.37344   3.16990  -3.21125   0.11412
   1   12909.3    774.6   0.074485784   1.89953   0.33188   1.26200  -0.44357
   2   15666.5    638.3   0.061342752   1.28904   1.03663  -0.46262  -0.02060
   3   17938.7    557.5   0.174383220   3.20028   0.83865  -1.57952   0.04555
   4   20804.4    480.7   0.076703551   1.21377   0.52111  -0.91852  -0.31391
   5   21565.8    463.7   0.010780232   0.16457   0.37546  -0.14966   0.03465
   6   22464.2    445.2   0.016624328   0.24363   0.36544   0.12622  -0.30684
   7   22820.4    438.2   0.014605547   0.21070   0.03576  -0.44922   0.08732
   8   23180.8    431.4   0.062899626   0.89330   0.67124  -0.61810   0.24636
   9   23671.8    422.4   0.018459207   0.25672  -0.32460   0.21062   0.32709
  10   23906.5    418.3   0.018403447   0.25343  -0.24897   0.42176   0.11645
  11   24074.0    415.4   0.043498423   0.59484   0.46144  -0.60925   0.10356
  12   24548.2    407.4   0.010698859   0.14348  -0.21449  -0.30371  -0.07233
  13   24987.5    400.2   0.017987850   0.23699  -0.31060   0.30517   0.21769
  14   25342.5    394.6   0.044818032   0.58221  -0.67940   0.34330  -0.05262
  15   25478.8    392.5   0.040229895   0.51981  -0.23941  -0.59065   0.33709
  16   25678.6    389.4   0.116882027   1.49848   1.01827  -0.51845  -0.43913
  17   26329.9    379.8   0.085161768   1.06481   0.20809   0.49822  -0.87937
  18   27215.6    367.4   0.005524565   0.06683  -0.04713  -0.02384  -0.25306
  19   27774.3    360.0   0.001773611   0.02102   0.01935   0.02806   0.14093
  20   28030.8    356.7   0.010446559   0.12269   0.25182   0.24109  -0.03397
  21   28198.1    354.6   0.021341088   0.24916   0.31394  -0.28398   0.26449
  22   28690.6    348.5   0.026343253   0.30228  -0.14262   0.26369  -0.46087
  23   28894.4    346.1   0.026480451   0.30171   0.29663   0.29605  -0.35507
  24   29217.7    342.3   0.002156702   0.02430   0.03228  -0.06117  -0.13970
  25   29500.4    339.0   0.029844458   0.33305  -0.38605  -0.16478   0.39606
  26   29556.7    338.3   0.044290978   0.49333   0.26503   0.47367   0.44578
  27   30078.1    332.5   0.130168719   1.42473   0.55976   0.08432  -1.05085
  28   30529.0    327.6   0.021566065   0.23256   0.13009  -0.45161   0.10810
  29   30946.8    323.1   0.136977115   1.45716  -0.35430   0.61812  -0.97445
  30   31098.3    321.6   0.035682599   0.37774  -0.31740  -0.02499   0.52571
  31   31464.8    317.8   0.031448958   0.32905  -0.17951  -0.44511   0.31417
  32   31894.9    313.5   0.066300259   0.68434  -0.75648  -0.16930   0.28881
  33   32253.9    310.0   0.146187053   1.49212   1.21016   0.16502   0.01976
  34   32327.3    309.3   0.376896159   3.83820  -0.95008   1.59708  -0.62040
  35   32477.4    307.9   0.187215697   1.89774   1.14457   0.04605  -0.76523
  36   32522.4    307.5   0.500653526   5.06792   1.41098  -1.52486   0.86710
  37   32783.1    305.0   0.169487843   1.70202   0.34074  -1.14841   0.51678
  38   33023.3    302.8   0.167753563   1.67235  -1.23650   0.37861  -0.00920
  39   33270.4    300.6   0.048123570   0.47618   0.55971   0.21188   0.34353
  40   33341.5    299.9   0.327958444   3.23824   1.46272   0.27319  -1.01196
  41   33471.9    298.8   0.041796512   0.41109   0.05553   0.55002  -0.32478
  42   33744.0    296.3   0.160627593   1.56711   0.66482   0.17316  -1.04649
  43   33979.6    294.3   0.122033123   1.18232   0.14404   0.68229  -0.83429
  44   34229.9    292.1   0.042456554   0.40833  -0.41516   0.19759  -0.44377
  45   34308.9    291.5   0.065311093   0.62670   0.04852  -0.70459   0.35762
  46   34388.0    290.8   0.067273738   0.64404  -0.14052  -0.57270   0.54434
  47   34811.1    287.3   0.156632992   1.48129   0.85205  -0.61443   0.61464
  48   35808.8    279.3   0.130473339   1.19952   0.12148  -0.22448   1.06507
  49   36090.0    277.1   0.033471037   0.30532   0.52019  -0.13060  -0.13292
  50   36254.0    275.8   0.047980790   0.43570  -0.60179   0.01504   0.27077
  51   36461.5    274.3   0.012525479   0.11309   0.33267   0.04576   0.01813
  52   36893.2    271.1   0.032042432   0.28593  -0.31027   0.34051  -0.27150
  53   36910.0    270.9   0.108082329   0.96402   0.92848  -0.28433  -0.14526
  54   36979.2    270.4   0.079840824   0.71079  -0.21428  -0.38433   0.71914
  55   37136.2    269.3   0.108773051   0.96427   0.23345   0.64251  -0.70495
  56   37376.7    267.5   0.084408602   0.74347  -0.68924  -0.03556   0.51686
  57   37450.9    267.0   0.005543852   0.04873   0.04419  -0.10283   0.19028
  58   37467.8    266.9   0.010019285   0.08803   0.22983  -0.10575  -0.15502
  59   37660.4    265.5   0.027721694   0.24233  -0.16649   0.16527   0.43278
  60   37954.8    263.5   0.016071526   0.13940   0.24937   0.00558  -0.27783
  61   38077.2    262.6   0.005672516   0.04904   0.01701  -0.17600   0.13334
  62   38574.5    259.2   0.168234032   1.43579   0.83195  -0.76859  -0.39103
  63   38675.7    258.6   0.134722742   1.14678   0.49720   0.02025  -0.94824
  64   38726.9    258.2   0.047843546   0.40671  -0.34700   0.49056   0.21366
  65   38755.5    258.0   0.013934713   0.11837   0.22626   0.17576  -0.19049
  66   38860.0    257.3   0.066350061   0.56210   0.19439   0.56033  -0.45863
  67   39092.4    255.8   0.028385956   0.23905  -0.12618   0.35998  -0.30585
  68   39797.3    251.3   0.029494035   0.24398   0.19235   0.12133  -0.43848
  69   39870.2    250.8   0.043741838   0.36118   0.46054  -0.38587  -0.01380
  70   40011.0    249.9   0.339371566   2.79236  -0.67110  -0.09312   1.52752
  71   40245.3    248.5   0.066950461   0.54766   0.26859  -0.02436  -0.68915

FINAL SINGLE POINT ENERGY     -3927.546320468480

DIPOLE MOMENT
-------------
                                X             Y             Z
Electronic contribution:     -9.58151       0.15874      -6.47437
Nuclear contribution   :     12.30881       0.64204       6.53684
                        -----------------------------------------
Total Dipole Moment    :      2.72730       0.80078       0.06248
                        -----------------------------------------
Magnitude (a.u.)       :      2.84312
Magnitude (Debye)      :      7.22663

Rotational constants in cm-1:     0.002390     0.000279     0.000258
Rotational constants in MHz :    71.644598     8.350503     7.726214

                             ****ORCA TERMINATED NORMALLY****
TOTAL RUN TIME: 0 days 0 hours 11 minutes 14 seconds 42 msec
