                         Program Version 4.2.0 -  RELEASE  -
|  1> # ORCA input file
|  2> # SCF done       -172.748780411276          0.000941175571
|  3> ! CAM-B3LYP def2-SVP def2/J RIJCOSX Grid4 TightSCF
|  4> %maxcore 5000
|  5> %tddft
|  6>     Mode sTDDFT
|  7>     Ethresh 5.0
|  8>     maxcore 5000
|  9> end
| 10>
| 11> %pal
| 12>   nprocs 6
| 13>   end
| 14> * xyz 0 1
| 15>    C      -11.13517         2.23016        -5.89072
| 16>    C      -10.08813         2.75738        -6.60428
| 17>    C       -9.79607         2.42111        -7.94053
| 18>    N       -9.49094         2.18068        -9.02127
| 19>    C       -9.16745         3.69601        -6.10291
| 20>    N       -8.40008         4.48265        -5.76621
| 21>    C      -12.17634         1.35803        -6.42098
| 22>    C      -13.07691         1.02199        -5.37544
| 23>    C      -14.19212         0.24595        -5.57720
| 24>    C      -14.44684        -0.19526        -6.87937
| 25>    C      -13.54228         0.13848        -7.91456
| 26>    C      -12.40061         0.90245        -7.70575
| 27>    S      -14.06309        -0.49628        -9.44280
| 28>    C      -15.48050        -1.17422        -8.68434
| 29>    C      -15.55259        -0.95272        -7.35065
| 30>   Br      -16.73241        -2.09153        -9.73191
| 31>    C      -12.61593         1.65556        -4.13686
| 32>    O      -13.10188         1.55780        -3.01644
| 33>    C      -11.41920         2.42709        -4.48998
| 34>    C      -10.69719         3.11737        -3.55085
| 35>    N      -11.09823         3.15409        -2.27394
| 36>    C      -10.44468         3.69593        -1.20217
| 37>    S      -10.82397         3.02633         0.35771
| 38>    C       -9.59804         4.02001         1.06754
| 39>    N       -9.38733         3.94508         2.45402
| 40>    O       -8.51805         4.65178         2.92700
| 41>    O      -10.09328         3.17507         3.07646
| 42>    C       -8.94701         4.80830         0.15694
| 43>    C       -9.43588         4.65873        -1.15589
| 44>    C       -8.94210         5.50921        -2.22351
| 45>    C       -9.68369         6.06218        -3.19596
| 46>    C       -9.13141         6.97231        -4.15912
| 47>    C       -9.84004         7.67364        -5.05565
| 48>    C      -11.33433         7.60416        -5.15396
| 49>    C       -9.12743         8.63187        -5.98998
| 50>    N       -7.99451         8.06354        -6.68641
| 51>    C       -8.11524         7.18451        -7.69328
| 52>    C       -9.29120         6.61230        -8.08120
| 53>    C       -9.44473         5.79410        -9.20689
| 54>    C      -10.60001         5.09554        -9.46336
| 55>    C      -10.94114         4.32679       -10.59511
| 56>    C      -12.16334         3.72161       -10.51557
| 57>    C      -12.83421         3.95020        -9.29753
| 58>    S      -11.90314         5.00777        -8.27647
| 59>    C      -14.03481         3.42139        -8.84578
| 60>    C      -15.03387         2.74215        -9.55976
| 61>    C      -16.08768         2.36822        -8.77293
| 62>    C      -15.95836         2.71639        -7.40763
| 63>    S      -14.49145         3.60219        -7.16150
| 64>    C      -16.82767         2.24379        -6.42609
| 65>    C      -16.74464         2.24382        -5.04500
| 66>    C      -15.93681         2.96310        -4.16702
| 67>    C      -15.69141         2.57819        -2.79620
| 68>    C      -16.01481         1.40946        -2.14733
| 69>    C      -15.66591         1.22434        -0.79607
| 70>    N      -15.38758         1.08078         0.30846
| 71>    C      -16.61265         0.29195        -2.75034
| 72>    N      -17.04225        -0.66698        -3.21862
| 73>    C      -14.89297         3.63295        -2.21809
| 74>    C      -14.62406         4.61367        -3.15286
| 75>    C      -13.80165         5.63679        -2.65331
| 76>    C      -13.45730         5.39962        -1.35444
| 77>    S      -14.13567         3.94276        -0.71171
| 78>    C      -15.31970         4.26073        -4.40793
| 79>    O      -15.42141         4.96105        -5.40930
| 80>    H      -14.85828        -0.00829        -4.76828
| 81>    H      -11.74183         1.12991        -8.52724
| 82>    H      -16.35086        -1.29814        -6.71919
| 83>    H       -9.78133         3.63345        -3.80125
| 84>    H      -11.93569         2.57964        -2.08449
| 85>    H       -8.16279         5.48889         0.43602
| 86>    H       -7.89851         5.78135        -2.13582
| 87>    H      -10.74208         5.85056        -3.25384
| 88>    H       -8.05670         7.08865        -4.12808
| 89>    H      -11.78909         7.95062        -4.22624
| 90>    H      -11.66857         6.58193        -5.33186
| 91>    H      -11.70997         8.22670        -5.96182
| 92>    H       -8.76321         9.48913        -5.41549
| 93>    H       -9.83300         9.00530        -6.73910
| 94>    H       -7.07183         8.29784        -6.36152
| 95>    H       -7.19801         6.94379        -8.21339
| 96>    H      -10.17219         6.76692        -7.47781
| 97>    H       -8.63245         5.70627        -9.91535
| 98>    H      -10.27560         4.24130       -11.43524
| 99>    H      -12.58215         3.09408       -11.28144
|100>    H      -14.97356         2.56740       -10.61940
|101>    H      -16.95194         1.83797        -9.13426
|102>    H      -17.64677         1.66100        -6.83348
|103>    H      -17.41439         1.53687        -4.56745
|104>    H      -13.49029         6.49577        -3.21841
|105>    H      -12.84492         6.00857        -0.71764
|106> *
|107>
|108>                          ****END OF INPUT****

CARTESIAN COORDINATES (ANGSTROEM)
---------------------------------
  C    -11.135170    2.230160   -5.890720
  C    -10.088130    2.757380   -6.604280
  C     -9.796070    2.421110   -7.940530
  N     -9.490940    2.180680   -9.021270
  C     -9.167450    3.696010   -6.102910
  N     -8.400080    4.482650   -5.766210
  C    -12.176340    1.358030   -6.420980
  C    -13.076910    1.021990   -5.375440
  C    -14.192120    0.245950   -5.577200
  C    -14.446840   -0.195260   -6.879370
  C    -13.542280    0.138480   -7.914560
  C    -12.400610    0.902450   -7.705750
  S    -14.063090   -0.496280   -9.442800
  C    -15.480500   -1.174220   -8.684340
  C    -15.552590   -0.952720   -7.350650
  Br   -16.732410   -2.091530   -9.731910
  C    -12.615930    1.655560   -4.136860
  O    -13.101880    1.557800   -3.016440
  C    -11.419200    2.427090   -4.489980
  C    -10.697190    3.117370   -3.550850
  N    -11.098230    3.154090   -2.273940
  C    -10.444680    3.695930   -1.202170
  S    -10.823970    3.026330    0.357710
  C     -9.598040    4.020010    1.067540
  N     -9.387330    3.945080    2.454020
  O     -8.518050    4.651780    2.927000
  O    -10.093280    3.175070    3.076460
  C     -8.947010    4.808300    0.156940
  C     -9.435880    4.658730   -1.155890
  C     -8.942100    5.509210   -2.223510
  C     -9.683690    6.062180   -3.195960
  C     -9.131410    6.972310   -4.159120
  C     -9.840040    7.673640   -5.055650
  C    -11.334330    7.604160   -5.153960
  C     -9.127430    8.631870   -5.989980
  N     -7.994510    8.063540   -6.686410
  C     -8.115240    7.184510   -7.693280
  C     -9.291200    6.612300   -8.081200
  C     -9.444730    5.794100   -9.206890
  C    -10.600010    5.095540   -9.463360
  C    -10.941140    4.326790  -10.595110
  C    -12.163340    3.721610  -10.515570
  C    -12.834210    3.950200   -9.297530
  S    -11.903140    5.007770   -8.276470
  C    -14.034810    3.421390   -8.845780
  C    -15.033870    2.742150   -9.559760
  C    -16.087680    2.368220   -8.772930
  C    -15.958360    2.716390   -7.407630
  S    -14.491450    3.602190   -7.161500
  C    -16.827670    2.243790   -6.426090
  C    -16.744640    2.243820   -5.045000
  C    -15.936810    2.963100   -4.167020
  C    -15.691410    2.578190   -2.796200
  C    -16.014810    1.409460   -2.147330
  C    -15.665910    1.224340   -0.796070
  N    -15.387580    1.080780    0.308460
  C    -16.612650    0.291950   -2.750340
  N    -17.042250   -0.666980   -3.218620
  C    -14.892970    3.632950   -2.218090
  C    -14.624060    4.613670   -3.152860
  C    -13.801650    5.636790   -2.653310
  C    -13.457300    5.399620   -1.354440
  S    -14.135670    3.942760   -0.711710
  C    -15.319700    4.260730   -4.407930
  O    -15.421410    4.961050   -5.409300
  H    -14.858280   -0.008290   -4.768280
  H    -11.741830    1.129910   -8.527240
  H    -16.350860   -1.298140   -6.719190
  H     -9.781330    3.633450   -3.801250
  H    -11.935690    2.579640   -2.084490
  H     -8.162790    5.488890    0.436020
  H     -7.898510    5.781350   -2.135820
  H    -10.742080    5.850560   -3.253840
  H     -8.056700    7.088650   -4.128080
  H    -11.789090    7.950620   -4.226240
  H    -11.668570    6.581930   -5.331860
  H    -11.709970    8.226700   -5.961820
  H     -8.763210    9.489130   -5.415490
  H     -9.833000    9.005300   -6.739100
  H     -7.071830    8.297840   -6.361520
  H     -7.198010    6.943790   -8.213390
  H    -10.172190    6.766920   -7.477810
  H     -8.632450    5.706270   -9.915350
  H    -10.275600    4.241300  -11.435240
  H    -12.582150    3.094080  -11.281440
  H    -14.973560    2.567400  -10.619400
  H    -16.951940    1.837970   -9.134260
  H    -17.646770    1.661000   -6.833480
  H    -17.414390    1.536870   -4.567450
  H    -13.490290    6.495770   -3.218410
  H    -12.844920    6.008570   -0.717640

 Total Charge           Charge          ....    0
 Multiplicity           Mult            ....    1
 Number of Electrons    NEL             ....  510
 Basis Dimension        Dim             .... 1078

ORBITAL ENERGIES
----------------

  NO   OCC          E(Eh)            E(eV)
   0   2.0000    -482.882745    -13139.9075
   1   2.0000     -88.988417     -2421.4979
   2   2.0000     -88.972108     -2421.0541
   3   2.0000     -88.970383     -2421.0072
   4   2.0000     -88.963873     -2420.8301
   5   2.0000     -88.952518     -2420.5211
   6   2.0000     -62.560436     -1702.3560
   7   2.0000     -56.394378     -1534.5690
   8   2.0000     -56.391678     -1534.4956
   9   2.0000     -56.391652     -1534.4949
  10   2.0000     -19.239057      -523.5214
  11   2.0000     -19.237809      -523.4874
  12   2.0000     -19.226994      -523.1931
  13   2.0000     -19.190461      -522.1990
  14   2.0000     -14.650417      -398.6581
  15   2.0000     -14.490820      -394.3153
  16   2.0000     -14.472935      -393.8286
  17   2.0000     -14.424973      -392.5235
  18   2.0000     -14.417761      -392.3272
  19   2.0000     -14.397446      -391.7744
  20   2.0000     -14.390891      -391.5961
  21   2.0000     -10.372865      -282.2600
  22   2.0000     -10.372137      -282.2402
  23   2.0000     -10.364310      -282.0272
  24   2.0000     -10.354260      -281.7537
  25   2.0000     -10.351393      -281.6757
  26   2.0000     -10.345956      -281.5278
  27   2.0000     -10.344172      -281.4792
  28   2.0000     -10.339825      -281.3609
  29   2.0000     -10.339475      -281.3514
  30   2.0000     -10.335253      -281.2365
  31   2.0000     -10.333867      -281.1988
  32   2.0000     -10.327877      -281.0358
  33   2.0000     -10.322116      -280.8791
  34   2.0000     -10.320422      -280.8330
  35   2.0000     -10.319088      -280.7967
  36   2.0000     -10.315078      -280.6876
  37   2.0000     -10.312739      -280.6239
  38   2.0000     -10.311001      -280.5766
  39   2.0000     -10.310932      -280.5747
  40   2.0000     -10.310198      -280.5547
  41   2.0000     -10.307812      -280.4898
  42   2.0000     -10.304602      -280.4025
  43   2.0000     -10.303867      -280.3825
  44   2.0000     -10.303817      -280.3811
  45   2.0000     -10.302411      -280.3428
  46   2.0000     -10.302120      -280.3349
  47   2.0000     -10.301725      -280.3242
  48   2.0000     -10.301086      -280.3068
  49   2.0000     -10.298051      -280.2242
  50   2.0000     -10.295918      -280.1662
  51   2.0000     -10.294938      -280.1395
  52   2.0000     -10.293954      -280.1127
  53   2.0000     -10.293856      -280.1101
  54   2.0000     -10.292964      -280.0858
  55   2.0000     -10.290800      -280.0269
  56   2.0000     -10.290471      -280.0179
  57   2.0000     -10.290139      -280.0089
  58   2.0000     -10.289217      -279.9838
  59   2.0000     -10.286144      -279.9002
  60   2.0000     -10.285127      -279.8725
  61   2.0000     -10.281206      -279.7658
  62   2.0000     -10.281001      -279.7603
  63   2.0000     -10.279960      -279.7319
  64   2.0000     -10.279437      -279.7177
  65   2.0000     -10.273937      -279.5680
  66   2.0000     -10.272198      -279.5207
  67   2.0000     -10.264062      -279.2993
  68   2.0000     -10.258618      -279.1512
  69   2.0000      -8.789858      -239.1842
  70   2.0000      -8.083836      -219.9724
  71   2.0000      -8.067495      -219.5277
  72   2.0000      -8.064233      -219.4389
  73   2.0000      -8.058782      -219.2906
  74   2.0000      -8.045824      -218.9380
  75   2.0000      -6.626062      -180.3043
  76   2.0000      -6.611670      -179.9127
  77   2.0000      -6.611420      -179.9059
  78   2.0000      -6.053418      -164.7219
  79   2.0000      -6.048965      -164.6007
  80   2.0000      -6.045453      -164.5051
  81   2.0000      -6.037213      -164.2809
  82   2.0000      -6.033582      -164.1821
  83   2.0000      -6.032973      -164.1655
  84   2.0000      -6.029068      -164.0593
  85   2.0000      -6.028789      -164.0517
  86   2.0000      -6.028347      -164.0397
  87   2.0000      -6.026817      -163.9980
  88   2.0000      -6.024298      -163.9295
  89   2.0000      -6.020317      -163.8211
  90   2.0000      -6.015330      -163.6855
  91   2.0000      -6.011011      -163.5679
  92   2.0000      -6.007783      -163.4801
  93   2.0000      -2.741984       -74.6132
  94   2.0000      -2.737920       -74.5026
  95   2.0000      -2.737732       -74.4975
  96   2.0000      -2.726287       -74.1860
  97   2.0000      -2.726269       -74.1856
  98   2.0000      -1.320756       -35.9396
  99   2.0000      -1.142700       -31.0944
 100   2.0000      -1.139910       -31.0185
 101   2.0000      -1.103735       -30.0342
 102   2.0000      -1.096884       -29.8477
 103   2.0000      -1.068224       -29.0678
 104   2.0000      -1.024350       -27.8740
 105   2.0000      -1.013847       -27.5882
 106   2.0000      -1.010230       -27.4897
 107   2.0000      -1.005509       -27.3613
 108   2.0000      -1.004790       -27.3417
 109   2.0000      -0.999820       -27.2065
 110   2.0000      -0.989112       -26.9151
 111   2.0000      -0.987378       -26.8679
 112   2.0000      -0.976070       -26.5602
 113   2.0000      -0.972865       -26.4730
 114   2.0000      -0.939778       -25.5727
 115   2.0000      -0.937901       -25.5216
 116   2.0000      -0.936289       -25.4777
 117   2.0000      -0.919732       -25.0272
 118   2.0000      -0.912186       -24.8218
 119   2.0000      -0.908310       -24.7164
 120   2.0000      -0.901205       -24.5230
 121   2.0000      -0.889009       -24.1912
 122   2.0000      -0.880996       -23.9731
 123   2.0000      -0.879028       -23.9196
 124   2.0000      -0.876274       -23.8446
 125   2.0000      -0.862750       -23.4766
 126   2.0000      -0.858159       -23.3517
 127   2.0000      -0.847520       -23.0622
 128   2.0000      -0.840204       -22.8631
 129   2.0000      -0.835258       -22.7285
 130   2.0000      -0.828399       -22.5419
 131   2.0000      -0.825010       -22.4497
 132   2.0000      -0.822424       -22.3793
 133   2.0000      -0.804883       -21.9020
 134   2.0000      -0.794890       -21.6301
 135   2.0000      -0.780887       -21.2490
 136   2.0000      -0.779896       -21.2221
 137   2.0000      -0.760849       -20.7038
 138   2.0000      -0.758851       -20.6494
 139   2.0000      -0.751678       -20.4542
 140   2.0000      -0.736206       -20.0332
 141   2.0000      -0.720164       -19.5967
 142   2.0000      -0.716665       -19.5014
 143   2.0000      -0.714825       -19.4514
 144   2.0000      -0.694710       -18.9040
 145   2.0000      -0.689488       -18.7619
 146   2.0000      -0.687540       -18.7089
 147   2.0000      -0.674556       -18.3556
 148   2.0000      -0.670538       -18.2463
 149   2.0000      -0.666649       -18.1404
 150   2.0000      -0.660148       -17.9635
 151   2.0000      -0.658765       -17.9259
 152   2.0000      -0.650975       -17.7139
 153   2.0000      -0.645358       -17.5611
 154   2.0000      -0.642337       -17.4789
 155   2.0000      -0.635150       -17.2833
 156   2.0000      -0.632369       -17.2076
 157   2.0000      -0.631564       -17.1857
 158   2.0000      -0.630120       -17.1464
 159   2.0000      -0.628739       -17.1089
 160   2.0000      -0.620872       -16.8948
 161   2.0000      -0.619643       -16.8614
 162   2.0000      -0.610920       -16.6240
 163   2.0000      -0.606857       -16.5134
 164   2.0000      -0.596631       -16.2351
 165   2.0000      -0.591865       -16.1055
 166   2.0000      -0.589573       -16.0431
 167   2.0000      -0.585305       -15.9270
 168   2.0000      -0.577736       -15.7210
 169   2.0000      -0.574609       -15.6359
 170   2.0000      -0.573517       -15.6062
 171   2.0000      -0.565925       -15.3996
 172   2.0000      -0.555774       -15.1234
 173   2.0000      -0.555256       -15.1093
 174   2.0000      -0.553668       -15.0661
 175   2.0000      -0.548935       -14.9373
 176   2.0000      -0.544871       -14.8267
 177   2.0000      -0.538729       -14.6596
 178   2.0000      -0.537053       -14.6139
 179   2.0000      -0.535457       -14.5705
 180   2.0000      -0.534465       -14.5435
 181   2.0000      -0.529331       -14.4038
 182   2.0000      -0.523237       -14.2380
 183   2.0000      -0.521384       -14.1876
 184   2.0000      -0.520037       -14.1509
 185   2.0000      -0.517728       -14.0881
 186   2.0000      -0.515368       -14.0239
 187   2.0000      -0.511049       -13.9063
 188   2.0000      -0.509228       -13.8568
 189   2.0000      -0.505961       -13.7679
 190   2.0000      -0.504001       -13.7146
 191   2.0000      -0.501008       -13.6331
 192   2.0000      -0.499796       -13.6001
 193   2.0000      -0.497583       -13.5399
 194   2.0000      -0.492267       -13.3953
 195   2.0000      -0.491130       -13.3643
 196   2.0000      -0.486498       -13.2383
 197   2.0000      -0.480464       -13.0741
 198   2.0000      -0.477538       -12.9945
 199   2.0000      -0.475509       -12.9392
 200   2.0000      -0.474662       -12.9162
 201   2.0000      -0.474162       -12.9026
 202   2.0000      -0.472806       -12.8657
 203   2.0000      -0.468116       -12.7381
 204   2.0000      -0.465941       -12.6789
 205   2.0000      -0.464149       -12.6301
 206   2.0000      -0.461138       -12.5482
 207   2.0000      -0.460984       -12.5440
 208   2.0000      -0.457624       -12.4526
 209   2.0000      -0.455536       -12.3958
 210   2.0000      -0.452565       -12.3149
 211   2.0000      -0.451921       -12.2974
 212   2.0000      -0.450690       -12.2639
 213   2.0000      -0.447662       -12.1815
 214   2.0000      -0.443836       -12.0774
 215   2.0000      -0.439358       -11.9555
 216   2.0000      -0.436118       -11.8674
 217   2.0000      -0.432702       -11.7744
 218   2.0000      -0.432503       -11.7690
 219   2.0000      -0.431156       -11.7323
 220   2.0000      -0.429271       -11.6811
 221   2.0000      -0.428662       -11.6645
 222   2.0000      -0.424573       -11.5532
 223   2.0000      -0.420834       -11.4515
 224   2.0000      -0.417310       -11.3556
 225   2.0000      -0.413365       -11.2482
 226   2.0000      -0.409627       -11.1465
 227   2.0000      -0.406989       -11.0747
 228   2.0000      -0.405793       -11.0422
 229   2.0000      -0.402034       -10.9399
 230   2.0000      -0.395811       -10.7706
 231   2.0000      -0.390465       -10.6251
 232   2.0000      -0.386522       -10.5178
 233   2.0000      -0.385543       -10.4912
 234   2.0000      -0.378733       -10.3058
 235   2.0000      -0.375250       -10.2111
 236   2.0000      -0.371942       -10.1211
 237   2.0000      -0.370668       -10.0864
 238   2.0000      -0.367029        -9.9874
 239   2.0000      -0.356412        -9.6985
 240   2.0000      -0.353802        -9.6274
 241   2.0000      -0.350307        -9.5323
 242   2.0000      -0.348527        -9.4839
 243   2.0000      -0.336864        -9.1665
 244   2.0000      -0.329667        -8.9707
 245   2.0000      -0.327002        -8.8982
 246   2.0000      -0.319259        -8.6875
 247   2.0000      -0.314655        -8.5622
 248   2.0000      -0.302897        -8.2422
 249   2.0000      -0.300946        -8.1892
 250   2.0000      -0.288188        -7.8420
 251   2.0000      -0.284949        -7.7539
 252   2.0000      -0.271428        -7.3859
 253   2.0000      -0.270505        -7.3608
 254   2.0000      -0.218547        -5.9470
 255   0.0000      -0.093329        -2.5396
 256   0.0000      -0.086492        -2.3536
 257   0.0000      -0.067114        -1.8263
 258   0.0000      -0.055609        -1.5132
 259   0.0000      -0.042331        -1.1519

MULLIKEN ATOMIC CHARGES
-----------------------
   0 C :    0.333764
   1 C :   -0.352152
   2 C :   -0.185606
   3 N :    0.141132
   4 C :   -0.199272
   5 N :    0.134393
   6 C :    0.010293
   7 C :    0.023421
   8 C :   -0.040111
   9 C :    0.133553
  10 C :   -0.115272
  11 C :   -0.000634
  12 S :    0.168317
  13 C :   -0.125283
  14 C :    0.039248
  15 Br:    0.019492
  16 C :    0.177779
  17 O :   -0.215096
  18 C :   -0.117478
  19 C :    0.005054
  20 N :    0.002859
  21 C :   -0.127716
  22 S :    0.212032
  23 C :   -0.004545
  24 N :    0.275782
  25 O :   -0.249982
  26 O :   -0.253107
  27 C :   -0.007940
  28 C :    0.111721
  29 C :   -0.032960
  30 C :   -0.015279
  31 C :    0.072976
  32 C :   -0.257868
  33 C :    0.085387
  34 C :    0.198723
  35 N :   -0.125348
  36 C :    0.106318
  37 C :   -0.054811
  38 C :    0.062245
  39 C :   -0.091417
  40 C :    0.113803
  41 C :    0.000079
  42 C :   -0.023041
  43 S :    0.075478
  44 C :   -0.084147
  45 C :    0.063917
  46 C :   -0.007908
  47 C :    0.005590
  48 S :    0.142070
  49 C :   -0.017139
  50 C :   -0.026357
  51 C :   -0.144797
  52 C :    0.286414
  53 C :   -0.336588
  54 C :   -0.210954
  55 N :    0.146310
  56 C :   -0.193705
  57 N :    0.120030
  58 C :   -0.155254
  59 C :    0.013590
  60 C :    0.013825
  61 C :   -0.072727
  62 S :    0.171425
  63 C :    0.136308
  64 O :   -0.197885
  65 H :   -0.027043
  66 H :   -0.016578
  67 H :    0.010758
  68 H :    0.055845
  69 H :    0.178189
  70 H :    0.009384
  71 H :   -0.002372
  72 H :    0.003235
  73 H :   -0.041815
  74 H :    0.048440
  75 H :    0.048039
  76 H :    0.016617
  77 H :    0.036106
  78 H :    0.017773
  79 H :    0.137928
  80 H :    0.016628
  81 H :   -0.004122
  82 H :   -0.001131
  83 H :   -0.002804
  84 H :   -0.012691
  85 H :   -0.017139
  86 H :   -0.014722
  87 H :   -0.019326
  88 H :    0.016677
  89 H :   -0.028648
  90 H :    0.031823
Sum of atomic charges:   -0.0000000

LOEWDIN ATOMIC CHARGES
----------------------
   0 C :    0.085006
   1 C :   -0.165028
   2 C :   -0.016356
   3 N :   -0.068948
   4 C :   -0.015095
   5 N :   -0.067934
   6 C :   -0.026888
   7 C :   -0.052530
   8 C :    0.037116
   9 C :   -0.026060
  10 C :   -0.143525
  11 C :   -0.009364
  12 S :    0.430746
  13 C :   -0.273733
  14 C :   -0.058996
  15 Br:    0.134049
  16 C :    0.099121
  17 O :   -0.159097
  18 C :   -0.143084
  19 C :    0.119913
  20 N :    0.071784
  21 C :   -0.112455
  22 S :    0.486319
  23 C :   -0.209147
  24 N :    0.272729
  25 O :   -0.215475
  26 O :   -0.218768
  27 C :   -0.002137
  28 C :   -0.093050
  29 C :   -0.027587
  30 C :   -0.017449
  31 C :   -0.028193
  32 C :   -0.049732
  33 C :   -0.056067
  34 C :    0.042667
  35 N :    0.035675
  36 C :    0.091695
  37 C :   -0.129101
  38 C :    0.026540
  39 C :   -0.189848
  40 C :    0.021432
  41 C :   -0.065800
  42 C :   -0.125499
  43 S :    0.408143
  44 C :   -0.230844
  45 C :   -0.026429
  46 C :   -0.063892
  47 C :   -0.113437
  48 S :    0.500814
  49 C :   -0.098943
  50 C :    0.027235
  51 C :   -0.147460
  52 C :    0.070308
  53 C :   -0.162122
  54 C :   -0.032715
  55 N :   -0.067809
  56 C :   -0.017944
  57 N :   -0.083337
  58 C :   -0.177333
  59 C :   -0.074455
  60 C :   -0.052815
  61 C :   -0.177638
  62 S :    0.488890
  63 C :    0.048253
  64 O :   -0.195870
  65 H :    0.043329
  66 H :    0.037416
  67 H :    0.045031
  68 H :    0.042865
  69 H :    0.077373
  70 H :    0.045314
  71 H :    0.032122
  72 H :    0.026625
  73 H :    0.019715
  74 H :    0.038298
  75 H :    0.037535
  76 H :    0.030349
  77 H :    0.040519
  78 H :    0.028260
  79 H :    0.087011
  80 H :    0.035540
  81 H :    0.022646
  82 H :    0.039821
  83 H :    0.039252
  84 H :    0.032821
  85 H :    0.028575
  86 H :    0.030385
  87 H :    0.033459
  88 H :    0.042228
  89 H :    0.031559
  90 H :    0.023508

  Mayer bond orders larger than 0.100000
B(  0-C ,  1-C ) :   1.6031 B(  0-C ,  6-C ) :   1.0128 B(  0-C , 18-C ) :   1.1062
B(  1-C ,  2-C ) :   1.1541 B(  1-C ,  4-C ) :   1.1587 B(  2-C ,  3-N ) :   2.9242
B(  4-C ,  5-N ) :   2.9196 B(  6-C ,  7-C ) :   1.2620 B(  6-C , 11-C ) :   1.4267
B(  7-C ,  8-C ) :   1.4084 B(  7-C , 16-C ) :   0.9824 B(  8-C ,  9-C ) :   1.2529
B(  8-C , 65-H ) :   1.0066 B(  9-C , 10-C ) :   1.3102 B(  9-C , 14-C ) :   1.1666
B( 10-C , 11-C ) :   1.3143 B( 10-C , 12-S ) :   1.0850 B( 11-C , 66-H ) :   0.9781
B( 12-S , 13-C ) :   1.0817 B( 13-C , 14-C ) :   1.6099 B( 13-C , 15-Br) :   1.0160
B( 14-C , 67-H ) :   1.0010 B( 16-C , 17-O ) :   1.9994 B( 16-C , 18-C ) :   0.9905
B( 17-O , 69-H ) :   0.1355 B( 18-C , 19-C ) :   1.4598 B( 19-C , 20-N ) :   1.3496
B( 19-C , 68-H ) :   0.9313 B( 20-N , 21-C ) :   1.1377 B( 20-N , 69-H ) :   0.8253
B( 21-C , 22-S ) :   1.1537 B( 21-C , 28-C ) :   1.4203 B( 22-S , 23-C ) :   1.0944
B( 23-C , 24-N ) :   0.9601 B( 23-C , 27-C ) :   1.4812 B( 24-N , 25-O ) :   1.5379
B( 24-N , 26-O ) :   1.5215 B( 25-O , 26-O ) :   0.2632 B( 27-C , 28-C ) :   1.2263
B( 27-C , 70-H ) :   1.0078 B( 28-C , 29-C ) :   1.0118 B( 29-C , 30-C ) :   1.7610
B( 29-C , 71-H ) :   0.9709 B( 30-C , 31-C ) :   1.1237 B( 30-C , 72-H ) :   0.9601
B( 31-C , 32-C ) :   1.7823 B( 31-C , 73-H ) :   0.9739 B( 32-C , 33-C ) :   1.0795
B( 32-C , 34-C ) :   1.0155 B( 33-C , 74-H ) :   0.9454 B( 33-C , 75-H ) :   0.9418
B( 33-C , 76-H ) :   0.9431 B( 34-C , 35-N ) :   1.0285 B( 34-C , 77-H ) :   0.9386
B( 34-C , 78-H ) :   0.9312 B( 35-N , 36-C ) :   1.3049 B( 35-N , 79-H ) :   0.9348
B( 36-C , 37-C ) :   1.5221 B( 36-C , 80-H ) :   0.9677 B( 37-C , 38-C ) :   1.2366
B( 37-C , 81-H ) :   0.9534 B( 38-C , 39-C ) :   1.5107 B( 38-C , 82-H ) :   0.9825
B( 39-C , 40-C ) :   1.1909 B( 39-C , 43-S ) :   1.0160 B( 40-C , 41-C ) :   1.5140
B( 40-C , 83-H ) :   0.9965 B( 41-C , 42-C ) :   1.2436 B( 41-C , 84-H ) :   0.9987
B( 42-C , 43-S ) :   1.1201 B( 42-C , 44-C ) :   1.3690 B( 44-C , 45-C ) :   1.2597
B( 44-C , 48-S ) :   1.0546 B( 45-C , 46-C ) :   1.4809 B( 45-C , 85-H ) :   0.9963
B( 46-C , 47-C ) :   1.2301 B( 46-C , 86-H ) :   0.9983 B( 47-C , 48-S ) :   1.1528
B( 47-C , 49-C ) :   1.3428 B( 49-C , 50-C ) :   1.4609 B( 49-C , 87-H ) :   0.9485
B( 50-C , 51-C ) :   1.3337 B( 50-C , 88-H ) :   0.9452 B( 51-C , 52-C ) :   1.1537
B( 51-C , 63-C ) :   1.0487 B( 52-C , 53-C ) :   1.5851 B( 52-C , 58-C ) :   1.0494
B( 53-C , 54-C ) :   1.1493 B( 53-C , 56-C ) :   1.1667 B( 54-C , 55-N ) :   3.0005
B( 56-C , 57-N ) :   2.9220 B( 58-C , 59-C ) :   1.4845 B( 58-C , 62-S ) :   1.1213
B( 59-C , 60-C ) :   1.2733 B( 59-C , 63-C ) :   0.9345 B( 60-C , 61-C ) :   1.5270
B( 60-C , 89-H ) :   0.9990 B( 61-C , 62-S ) :   1.1564 B( 61-C , 90-H ) :   0.9689
B( 63-C , 64-O ) :   2.1025

-----------------------------------------------------------------------------
         ABSORPTION SPECTRUM VIA TRANSITION ELECTRIC DIPOLE MOMENTS
-----------------------------------------------------------------------------
State   Energy  Wavelength   fosc         T2         TX        TY        TZ
        (cm-1)    (nm)                  (au**2)     (au)      (au)      (au)
-----------------------------------------------------------------------------
   0   11595.9    862.4   0.129070119   3.66436  -1.50707  -0.80777   0.86058
   1   12497.1    800.2   0.524911262  13.82776   2.66615   1.58237  -2.05317
   2   15780.9    633.7   0.009500617   0.19820  -0.19202   0.02288   0.40100
   3   18861.2    530.2   0.094226022   1.64466   1.26567   0.15978   0.13119
   4   21905.5    456.5   0.255340473   3.83745   0.23570   0.82570   1.76071
   5   22809.0    438.4   0.042335955   0.61105  -0.48443  -0.22809  -0.56953
   6   23377.4    427.8   0.026711500   0.37616  -0.53060  -0.22804  -0.20646
   7   23904.4    418.3   0.135150419   1.86130   0.70396   0.59481   1.00596
   8   24700.4    404.9   0.006529600   0.08703   0.22623   0.18129  -0.05459
   9   25343.5    394.6   0.006791559   0.08822   0.28366  -0.08790   0.00588
  10   26016.6    384.4   0.015319706   0.19385  -0.19397  -0.39052  -0.06104
  11   26085.6    383.4   0.004947835   0.06244   0.10202  -0.06179   0.21959
  12   26452.2    378.0   0.016689825   0.20771  -0.33114  -0.30160   0.08425
  13   26635.9    375.4   0.010994144   0.13588  -0.21823  -0.23593  -0.18055
  14   27138.0    368.5   0.065298713   0.79214  -0.82329  -0.32048   0.10779
  15   27481.4    363.9   0.050883853   0.60956   0.39372   0.40410  -0.53968
  16   27921.3    358.1   0.396970677   4.68057   1.28045   0.77783   1.56077
  17   28108.2    355.8   0.370851018   4.34352  -1.38529  -1.36835  -0.74304
  18   28740.7    347.9   0.000378996   0.00434   0.02448   0.05977   0.01301
  19   28792.9    347.3   0.281455204   3.21810   0.20803   0.11565   1.77805
  20   29216.4    342.3   0.367582641   4.14194  -1.01786  -1.11670  -1.36341
  21   29562.2    338.3   0.187711482   2.09040   0.45822   0.57141   1.24657
  22   29993.0    333.4   0.023007952   0.25254  -0.22268  -0.34078  -0.29466
  23   30241.9    330.7   0.071887856   0.78257  -0.75104  -0.27463  -0.37827
  24   30388.4    329.1   0.090989651   0.98573   0.43140   0.09019   0.88966
  25   30739.6    325.3   0.037692438   0.40368  -0.14029   0.12110  -0.60772
  26   31051.6    322.0   0.062293102   0.66044   0.32054   0.23642   0.70838
  27   31328.9    319.2   0.130372934   1.36999   0.47974   0.82038   0.68324
  28   31711.1    315.3   0.032760134   0.34010  -0.19967  -0.27766  -0.47238
  29   31902.7    313.5   0.078206450   0.80703   0.24177   0.79194  -0.34843
  30   32344.2    309.2   0.151468078   1.54170  -0.68145  -0.36247   0.97260
  31   32572.8    307.0   0.314149057   3.17510  -0.71712  -1.58280   0.39441
  32   32970.3    303.3   0.154129751   1.53900   0.77682   0.56472   0.78527
  33   33447.8    299.0   0.018353513   0.18065   0.14950   0.37139   0.14271
  34   33775.6    296.1   0.227349811   2.21599  -0.34001  -0.74081   1.24562
  35   34094.8    293.3   0.113342571   1.09441  -0.82243  -0.40088  -0.50726
  36   34538.5    289.5   0.070426199   0.67128  -0.08183  -0.34702   0.73767
  37   34791.9    287.4   0.051464433   0.48697   0.16700   0.15692  -0.65914
  38   34967.3    286.0   0.020933668   0.19709   0.14871   0.39022   0.15068
  39   35059.0    285.2   0.054338148   0.51025  -0.69126  -0.17341  -0.04829
  40   35515.4    281.6   0.009036676   0.08377   0.03658  -0.00829  -0.28698
  41   35640.3    280.6   0.022294222   0.20593   0.05500  -0.03668  -0.44896
  42   35975.4    278.0   0.029819070   0.27288   0.40656   0.32527  -0.04228
  43   36226.3    276.0   0.094478283   0.85859   0.12905   0.67931  -0.61682
  44   36383.2    274.9   0.114949016   1.04011   0.10917   0.69000  -0.74303
  45   36463.2    274.2   0.050949863   0.46001  -0.57035  -0.11583   0.34827
  46   36588.9    273.3   0.099234751   0.89287   0.50202   0.14321   0.78762
  47   36977.5    270.4   0.179844420   1.60116  -0.05369  -0.59281  -1.11663
  48   37096.1    269.6   0.048132373   0.42715   0.21297   0.22156   0.57681
  49   37241.3    268.5   0.010482116   0.09266   0.16281   0.08109   0.24409
  50   37466.8    266.9   0.022708252   0.19953   0.31769   0.18957   0.25033
  51   37589.2    266.0   0.053976737   0.47274  -0.18737  -0.09293  -0.65498
  52   37667.3    265.5   0.015526391   0.13570   0.20777  -0.30258  -0.03120
  53   37815.6    264.4   0.010148276   0.08835  -0.21265  -0.18601   0.09236
  54   37962.3    263.4   0.092911742   0.80574   0.27841   0.31769   0.79202
  55   38159.2    262.1   0.034777111   0.30003   0.48407   0.08241  -0.24273
  56   38368.0    260.6   0.003908040   0.03353   0.10036   0.09252   0.12206
  57   38888.7    257.1   0.003356867   0.02842  -0.12711  -0.08172  -0.07472
  58   39036.2    256.2   0.002793292   0.02356  -0.13790  -0.06602  -0.01346
  59   39264.4    254.7   0.011692878   0.09804  -0.15606  -0.12723  -0.23978
  60   39375.1    254.0   0.005162930   0.04317   0.08566   0.18894   0.01144
  61   39479.6    253.3   0.037964754   0.31658  -0.48045  -0.18773   0.22473
  62   39548.7    252.9   0.085821101   0.71439  -0.18430   0.73158  -0.38108
  63   39840.0    251.0   0.056583663   0.46757   0.05086  -0.09442  -0.67533
  64   40004.1    250.0   0.227842303   1.87502  -1.17778  -0.69724   0.04137
  65   40209.9    248.7   0.041133437   0.33677  -0.13434  -0.16517  -0.53986

FINAL SINGLE POINT ENERGY     -7089.774119375575

DIPOLE MOMENT
-------------
                                X             Y             Z
Electronic contribution:    -61.29919     -90.33365     -30.82309
Nuclear contribution   :     64.58158      93.91330      26.25379
                        -----------------------------------------
Total Dipole Moment    :      3.28239       3.57965      -4.56929
                        -----------------------------------------
Magnitude (a.u.)       :      6.66832
Magnitude (Debye)      :     16.94951

Rotational constants in cm-1:     0.001464     0.000888     0.000652
Rotational constants in MHz :    43.902927    26.609945    19.550279

                             ****ORCA TERMINATED NORMALLY****
TOTAL RUN TIME: 0 days 0 hours 14 minutes 45 seconds 313 msec
