                         Program Version 4.2.0 -  RELEASE  -
|  1> # ORCA input file
|  2> # SCF done       -183.190511455884          0.000452055322
|  3> ! CAM-B3LYP def2-SVP def2/J RIJCOSX Grid4 TightSCF
|  4> %maxcore 5000
|  5> %tddft
|  6>     Mode sTDDFT
|  7>     Ethresh 5.0
|  8>     maxcore 5000
|  9> end
| 10>
| 11> %pal
| 12>   nprocs 6
| 13>   end
| 14> * xyz 0 1
| 15>    C      -15.05123         4.22959        -0.88037
| 16>    C      -15.94584         4.99061        -1.58916
| 17>    C      -17.30001         5.14410        -1.22989
| 18>    N      -18.41200         5.29495        -0.98617
| 19>    C      -15.64762         5.67706        -2.78304
| 20>    N      -15.46742         6.25620        -3.75844
| 21>    C      -15.33911         3.51596         0.36074
| 22>    C      -14.23133         2.69676         0.68785
| 23>    C      -14.16474         1.96333         1.84650
| 24>    C      -15.22241         2.08470         2.75368
| 25>    C      -16.32465         2.90612         2.42046
| 26>    C      -16.41161         3.61350         1.22719
| 27>    S      -17.49453         2.95466         3.70512
| 28>    C      -16.48993         1.90067         4.66246
| 29>    C      -15.34531         1.51707         4.05183
| 30>   Br      -17.04495         1.41612         6.38282
| 31>    C      -13.17199         2.89320        -0.32312
| 32>    O      -12.16231         2.24028        -0.46791
| 33>    C      -13.65144         4.01071        -1.18194
| 34>    C      -12.87011         4.68887        -2.07263
| 35>    C      -11.44298         4.66326        -2.06892
| 36>    C      -10.65330         4.63703        -0.93669
| 37>    C       -9.17685         4.49260        -0.93324
| 38>    C       -8.43480         4.46254        -2.12946
| 39>    C       -9.01684         4.59837        -3.34264
| 40>    S      -10.70306         4.76672        -3.64305
| 41>    N       -8.67660         4.40531         0.28138
| 42>    C       -9.73581         4.51431         1.13514
| 43>    C      -10.95243         4.69090         0.42712
| 44>    S      -12.28743         4.88008         1.48879
| 45>    C      -11.24367         4.58122         2.87977
| 46>    C       -9.91279         4.44265         2.51728
| 47>    C      -11.88394         4.45991         4.13001
| 48>    C      -11.27987         4.25503         5.33199
| 49>    C      -11.99174         4.07449         6.53526
| 50>    S      -13.72727         3.89912         6.55607
| 51>    C      -13.75544         3.81690         8.30222
| 52>    C      -12.45787         3.88214         8.81723
| 53>    C      -11.47946         4.01761         7.83060
| 54>    C      -10.01391         4.08030         8.13489
| 55>    C       -9.76223         4.27523         9.62740
| 56>    C      -10.65172         3.32692        10.44529
| 57>    N      -10.35179         3.28596        11.86469
| 58>    C      -12.11183         3.74943        10.26493
| 59>    C      -15.00388         3.71070         8.94272
| 60>    C      -15.27413         4.06918        10.23668
| 61>    C      -16.53281         3.95314        10.83110
| 62>    C      -16.84165         4.50957        12.05439
| 63>    C      -18.06738         4.44970        12.75032
| 64>    C      -18.09130         5.17193        13.91018
| 65>    C      -16.88869         5.85188        14.18279
| 66>    S      -15.70319         5.50617        12.94607
| 67>    C      -16.61381         6.73849        15.21220
| 68>    C      -17.45750         7.15337        16.26040
| 69>    C      -16.90431         8.10625        17.06580
| 70>    C      -15.59719         8.49827        16.69598
| 71>    S      -15.07947         7.57715        15.29772
| 72>    C      -14.85370         9.47825        17.31654
| 73>    C      -13.59049         9.95642        16.96382
| 74>    S      -12.75794         9.38354        15.53793
| 75>    C      -11.50045        10.51471        15.72361
| 76>    C      -11.66683        11.31617        16.83574
| 77>    C      -12.84448        10.98726        17.58147
| 78>    C      -13.13614        11.69181        18.77258
| 79>    C      -12.29404        12.73507        19.13964
| 80>    C      -11.14972        13.06766        18.37775
| 81>    C      -10.82524        12.36955        17.25774
| 82>    O      -12.48149        13.46569        20.26377
| 83>    C      -14.22992        11.29639        19.67189
| 84>    C      -15.16902        12.11621        20.12892
| 85>    H      -13.30109         1.35709         2.07065
| 86>    H      -17.26886         4.23355         1.02376
| 87>    H      -14.61000         0.87375         4.49939
| 88>    H      -13.33308         5.29852        -2.83822
| 89>    H       -7.36443         4.34275        -2.05615
| 90>    H       -8.44544         4.59469        -4.25670
| 91>    H       -9.12233         4.25844         3.22041
| 92>    H      -12.96611         4.51471         4.10722
| 93>    H      -10.20162         4.23684         5.39517
| 94>    H       -9.54910         4.89185         7.56981
| 95>    H       -9.54968         3.14427         7.80588
| 96>    H       -9.98745         5.30697         9.91071
| 97>    H       -8.70823         4.08745         9.84742
| 98>    H      -10.52429         2.30619        10.06399
| 99>    H      -10.43975         4.21149        12.27202
|100>    H       -9.40256         2.96606        12.02115
|101>    H      -12.25626         4.70939        10.77248
|102>    H      -12.76469         3.01979        10.74666
|103>    H      -15.82904         3.37980         8.32562
|104>    H      -14.50217         4.53032        10.83461
|105>    H      -17.31532         3.42264        10.30555
|106>    H      -18.89820         3.88041        12.37235
|107>    H      -18.94480         5.24303        14.56039
|108>    H      -18.44523         6.74957        16.39157
|109>    H      -17.40176         8.54958        17.91066
|110>    H      -15.33372         9.96817        18.15201
|111>    H      -10.70183        10.55081        15.00981
|112>    H      -10.54175        13.88282        18.73600
|113>    H       -9.94245        12.60468        16.68442
|114>    H      -13.26015        13.13880        20.74016
|115>    H      -14.19836        10.26505        20.00623
|116>    H      -15.25641        13.13551        19.78620
|117>    H      -15.92131        11.78387        20.82462
|118> *
|119>
|120>                          ****END OF INPUT****

CARTESIAN COORDINATES (ANGSTROEM)
---------------------------------
  C    -15.051230    4.229590   -0.880370
  C    -15.945840    4.990610   -1.589160
  C    -17.300010    5.144100   -1.229890
  N    -18.412000    5.294950   -0.986170
  C    -15.647620    5.677060   -2.783040
  N    -15.467420    6.256200   -3.758440
  C    -15.339110    3.515960    0.360740
  C    -14.231330    2.696760    0.687850
  C    -14.164740    1.963330    1.846500
  C    -15.222410    2.084700    2.753680
  C    -16.324650    2.906120    2.420460
  C    -16.411610    3.613500    1.227190
  S    -17.494530    2.954660    3.705120
  C    -16.489930    1.900670    4.662460
  C    -15.345310    1.517070    4.051830
  Br   -17.044950    1.416120    6.382820
  C    -13.171990    2.893200   -0.323120
  O    -12.162310    2.240280   -0.467910
  C    -13.651440    4.010710   -1.181940
  C    -12.870110    4.688870   -2.072630
  C    -11.442980    4.663260   -2.068920
  C    -10.653300    4.637030   -0.936690
  C     -9.176850    4.492600   -0.933240
  C     -8.434800    4.462540   -2.129460
  C     -9.016840    4.598370   -3.342640
  S    -10.703060    4.766720   -3.643050
  N     -8.676600    4.405310    0.281380
  C     -9.735810    4.514310    1.135140
  C    -10.952430    4.690900    0.427120
  S    -12.287430    4.880080    1.488790
  C    -11.243670    4.581220    2.879770
  C     -9.912790    4.442650    2.517280
  C    -11.883940    4.459910    4.130010
  C    -11.279870    4.255030    5.331990
  C    -11.991740    4.074490    6.535260
  S    -13.727270    3.899120    6.556070
  C    -13.755440    3.816900    8.302220
  C    -12.457870    3.882140    8.817230
  C    -11.479460    4.017610    7.830600
  C    -10.013910    4.080300    8.134890
  C     -9.762230    4.275230    9.627400
  C    -10.651720    3.326920   10.445290
  N    -10.351790    3.285960   11.864690
  C    -12.111830    3.749430   10.264930
  C    -15.003880    3.710700    8.942720
  C    -15.274130    4.069180   10.236680
  C    -16.532810    3.953140   10.831100
  C    -16.841650    4.509570   12.054390
  C    -18.067380    4.449700   12.750320
  C    -18.091300    5.171930   13.910180
  C    -16.888690    5.851880   14.182790
  S    -15.703190    5.506170   12.946070
  C    -16.613810    6.738490   15.212200
  C    -17.457500    7.153370   16.260400
  C    -16.904310    8.106250   17.065800
  C    -15.597190    8.498270   16.695980
  S    -15.079470    7.577150   15.297720
  C    -14.853700    9.478250   17.316540
  C    -13.590490    9.956420   16.963820
  S    -12.757940    9.383540   15.537930
  C    -11.500450   10.514710   15.723610
  C    -11.666830   11.316170   16.835740
  C    -12.844480   10.987260   17.581470
  C    -13.136140   11.691810   18.772580
  C    -12.294040   12.735070   19.139640
  C    -11.149720   13.067660   18.377750
  C    -10.825240   12.369550   17.257740
  O    -12.481490   13.465690   20.263770
  C    -14.229920   11.296390   19.671890
  C    -15.169020   12.116210   20.128920
  H    -13.301090    1.357090    2.070650
  H    -17.268860    4.233550    1.023760
  H    -14.610000    0.873750    4.499390
  H    -13.333080    5.298520   -2.838220
  H     -7.364430    4.342750   -2.056150
  H     -8.445440    4.594690   -4.256700
  H     -9.122330    4.258440    3.220410
  H    -12.966110    4.514710    4.107220
  H    -10.201620    4.236840    5.395170
  H     -9.549100    4.891850    7.569810
  H     -9.549680    3.144270    7.805880
  H     -9.987450    5.306970    9.910710
  H     -8.708230    4.087450    9.847420
  H    -10.524290    2.306190   10.063990
  H    -10.439750    4.211490   12.272020
  H     -9.402560    2.966060   12.021150
  H    -12.256260    4.709390   10.772480
  H    -12.764690    3.019790   10.746660
  H    -15.829040    3.379800    8.325620
  H    -14.502170    4.530320   10.834610
  H    -17.315320    3.422640   10.305550
  H    -18.898200    3.880410   12.372350
  H    -18.944800    5.243030   14.560390
  H    -18.445230    6.749570   16.391570
  H    -17.401760    8.549580   17.910660
  H    -15.333720    9.968170   18.152010
  H    -10.701830   10.550810   15.009810
  H    -10.541750   13.882820   18.736000
  H     -9.942450   12.604680   16.684420
  H    -13.260150   13.138800   20.740160
  H    -14.198360   10.265050   20.006230
  H    -15.256410   13.135510   19.786200
  H    -15.921310   11.783870   20.824620

 Total Charge           Charge          ....    0
 Multiplicity           Mult            ....    1
 Number of Electrons    NEL             ....  560
 Basis Dimension        Dim             .... 1191

ORBITAL ENERGIES
----------------

  NO   OCC          E(Eh)            E(eV)
   0   2.0000    -482.888257    -13140.0575
   1   2.0000     -88.977209     -2421.1929
   2   2.0000     -88.974262     -2421.1127
   3   2.0000     -88.961408     -2420.7630
   4   2.0000     -88.952360     -2420.5168
   5   2.0000     -88.944559     -2420.3045
   6   2.0000     -88.941540     -2420.2223
   7   2.0000     -88.937981     -2420.1255
   8   2.0000     -62.565619     -1702.4970
   9   2.0000     -56.399553     -1534.7099
  10   2.0000     -56.396945     -1534.6389
  11   2.0000     -56.396795     -1534.6348
  12   2.0000     -19.241158      -523.5785
  13   2.0000     -19.213240      -522.8188
  14   2.0000     -14.417563      -392.3218
  15   2.0000     -14.415476      -392.2650
  16   2.0000     -14.378627      -391.2623
  17   2.0000     -14.377922      -391.2432
  18   2.0000     -10.365837      -282.0688
  19   2.0000     -10.357740      -281.8484
  20   2.0000     -10.344172      -281.4792
  21   2.0000     -10.343536      -281.4619
  22   2.0000     -10.336660      -281.2748
  23   2.0000     -10.332707      -281.1672
  24   2.0000     -10.324211      -280.9361
  25   2.0000     -10.323197      -280.9085
  26   2.0000     -10.319727      -280.8140
  27   2.0000     -10.319409      -280.8054
  28   2.0000     -10.318043      -280.7682
  29   2.0000     -10.309333      -280.5312
  30   2.0000     -10.307258      -280.4748
  31   2.0000     -10.306991      -280.4675
  32   2.0000     -10.306426      -280.4521
  33   2.0000     -10.306135      -280.4442
  34   2.0000     -10.305117      -280.4165
  35   2.0000     -10.304871      -280.4098
  36   2.0000     -10.302610      -280.3483
  37   2.0000     -10.300894      -280.3016
  38   2.0000     -10.299072      -280.2520
  39   2.0000     -10.298043      -280.2240
  40   2.0000     -10.296694      -280.1873
  41   2.0000     -10.295364      -280.1511
  42   2.0000     -10.295101      -280.1439
  43   2.0000     -10.294874      -280.1378
  44   2.0000     -10.294253      -280.1209
  45   2.0000     -10.292581      -280.0754
  46   2.0000     -10.292370      -280.0696
  47   2.0000     -10.291806      -280.0543
  48   2.0000     -10.290988      -280.0320
  49   2.0000     -10.289048      -279.9792
  50   2.0000     -10.288656      -279.9686
  51   2.0000     -10.285039      -279.8701
  52   2.0000     -10.282861      -279.8109
  53   2.0000     -10.282650      -279.8051
  54   2.0000     -10.282366      -279.7974
  55   2.0000     -10.280558      -279.7482
  56   2.0000     -10.280023      -279.7337
  57   2.0000     -10.279508      -279.7196
  58   2.0000     -10.278573      -279.6942
  59   2.0000     -10.278484      -279.6918
  60   2.0000     -10.277717      -279.6709
  61   2.0000     -10.276659      -279.6421
  62   2.0000     -10.275739      -279.6171
  63   2.0000     -10.275428      -279.6086
  64   2.0000     -10.274141      -279.5736
  65   2.0000     -10.273465      -279.5552
  66   2.0000     -10.271722      -279.5078
  67   2.0000     -10.271523      -279.5023
  68   2.0000     -10.270731      -279.4808
  69   2.0000     -10.270675      -279.4793
  70   2.0000     -10.270331      -279.4699
  71   2.0000     -10.267717      -279.3988
  72   2.0000     -10.262632      -279.2604
  73   2.0000     -10.260854      -279.2120
  74   2.0000      -8.794941      -239.3225
  75   2.0000      -8.072604      -219.6667
  76   2.0000      -8.070162      -219.6003
  77   2.0000      -8.056426      -219.2265
  78   2.0000      -8.046509      -218.9566
  79   2.0000      -8.039883      -218.7763
  80   2.0000      -8.037687      -218.7166
  81   2.0000      -8.034225      -218.6224
  82   2.0000      -6.631062      -180.4404
  83   2.0000      -6.616856      -180.0538
  84   2.0000      -6.616476      -180.0435
  85   2.0000      -6.042051      -164.4126
  86   2.0000      -6.039877      -164.3534
  87   2.0000      -6.037456      -164.2875
  88   2.0000      -6.035594      -164.2369
  89   2.0000      -6.034775      -164.2146
  90   2.0000      -6.031397      -164.1227
  91   2.0000      -6.025455      -163.9610
  92   2.0000      -6.021105      -163.8426
  93   2.0000      -6.019390      -163.7959
  94   2.0000      -6.016022      -163.7043
  95   2.0000      -6.012042      -163.5960
  96   2.0000      -6.009077      -163.5153
  97   2.0000      -6.008279      -163.4936
  98   2.0000      -6.007427      -163.4704
  99   2.0000      -6.005259      -163.4114
 100   2.0000      -6.003928      -163.3752
 101   2.0000      -6.003280      -163.3576
 102   2.0000      -6.001947      -163.3213
 103   2.0000      -5.999977      -163.2677
 104   2.0000      -5.998673      -163.2322
 105   2.0000      -5.995164      -163.1367
 106   2.0000      -2.747018       -74.7502
 107   2.0000      -2.743025       -74.6415
 108   2.0000      -2.742722       -74.6333
 109   2.0000      -2.731430       -74.3260
 110   2.0000      -2.731413       -74.3255
 111   2.0000      -1.139856       -31.0170
 112   2.0000      -1.128837       -30.7172
 113   2.0000      -1.046978       -28.4897
 114   2.0000      -1.023018       -27.8377
 115   2.0000      -1.013484       -27.5783
 116   2.0000      -0.994784       -27.0694
 117   2.0000      -0.994028       -27.0489
 118   2.0000      -0.991426       -26.9781
 119   2.0000      -0.987058       -26.8592
 120   2.0000      -0.985722       -26.8229
 121   2.0000      -0.974662       -26.5219
 122   2.0000      -0.967235       -26.3198
 123   2.0000      -0.966408       -26.2973
 124   2.0000      -0.959486       -26.1089
 125   2.0000      -0.942560       -25.6484
 126   2.0000      -0.926853       -25.2210
 127   2.0000      -0.913217       -24.8499
 128   2.0000      -0.909487       -24.7484
 129   2.0000      -0.908156       -24.7122
 130   2.0000      -0.900450       -24.5025
 131   2.0000      -0.894974       -24.3535
 132   2.0000      -0.886538       -24.1239
 133   2.0000      -0.884612       -24.0715
 134   2.0000      -0.879705       -23.9380
 135   2.0000      -0.873531       -23.7700
 136   2.0000      -0.859025       -23.3753
 137   2.0000      -0.852939       -23.2096
 138   2.0000      -0.845484       -23.0068
 139   2.0000      -0.839025       -22.8310
 140   2.0000      -0.836125       -22.7521
 141   2.0000      -0.829538       -22.5729
 142   2.0000      -0.828091       -22.5335
 143   2.0000      -0.819901       -22.3106
 144   2.0000      -0.815317       -22.1859
 145   2.0000      -0.810936       -22.0667
 146   2.0000      -0.807768       -21.9805
 147   2.0000      -0.800541       -21.7838
 148   2.0000      -0.795309       -21.6415
 149   2.0000      -0.780429       -21.2365
 150   2.0000      -0.769415       -20.9369
 151   2.0000      -0.758809       -20.6482
 152   2.0000      -0.752934       -20.4884
 153   2.0000      -0.735837       -20.0231
 154   2.0000      -0.725960       -19.7544
 155   2.0000      -0.719055       -19.5665
 156   2.0000      -0.711146       -19.3513
 157   2.0000      -0.706365       -19.2212
 158   2.0000      -0.695699       -18.9309
 159   2.0000      -0.692448       -18.8425
 160   2.0000      -0.688386       -18.7319
 161   2.0000      -0.685710       -18.6591
 162   2.0000      -0.680295       -18.5118
 163   2.0000      -0.671005       -18.2590
 164   2.0000      -0.668265       -18.1844
 165   2.0000      -0.658346       -17.9145
 166   2.0000      -0.657521       -17.8921
 167   2.0000      -0.649636       -17.6775
 168   2.0000      -0.644354       -17.5338
 169   2.0000      -0.637029       -17.3344
 170   2.0000      -0.636555       -17.3216
 171   2.0000      -0.624643       -16.9974
 172   2.0000      -0.622181       -16.9304
 173   2.0000      -0.617166       -16.7939
 174   2.0000      -0.616400       -16.7731
 175   2.0000      -0.611424       -16.6377
 176   2.0000      -0.607513       -16.5313
 177   2.0000      -0.604641       -16.4531
 178   2.0000      -0.601795       -16.3757
 179   2.0000      -0.600200       -16.3323
 180   2.0000      -0.593694       -16.1552
 181   2.0000      -0.588809       -16.0223
 182   2.0000      -0.581673       -15.8281
 183   2.0000      -0.575297       -15.6546
 184   2.0000      -0.567252       -15.4357
 185   2.0000      -0.564452       -15.3595
 186   2.0000      -0.561122       -15.2689
 187   2.0000      -0.554215       -15.0810
 188   2.0000      -0.551708       -15.0127
 189   2.0000      -0.548118       -14.9151
 190   2.0000      -0.547687       -14.9033
 191   2.0000      -0.544074       -14.8050
 192   2.0000      -0.542753       -14.7691
 193   2.0000      -0.536765       -14.6061
 194   2.0000      -0.535551       -14.5731
 195   2.0000      -0.528592       -14.3837
 196   2.0000      -0.526047       -14.3145
 197   2.0000      -0.523893       -14.2559
 198   2.0000      -0.523209       -14.2372
 199   2.0000      -0.519920       -14.1477
 200   2.0000      -0.515548       -14.0288
 201   2.0000      -0.515107       -14.0168
 202   2.0000      -0.510144       -13.8817
 203   2.0000      -0.508373       -13.8335
 204   2.0000      -0.505681       -13.7603
 205   2.0000      -0.504476       -13.7275
 206   2.0000      -0.502055       -13.6616
 207   2.0000      -0.500449       -13.6179
 208   2.0000      -0.495886       -13.4938
 209   2.0000      -0.493772       -13.4362
 210   2.0000      -0.493629       -13.4323
 211   2.0000      -0.491924       -13.3859
 212   2.0000      -0.491076       -13.3629
 213   2.0000      -0.487348       -13.2614
 214   2.0000      -0.482992       -13.1429
 215   2.0000      -0.481118       -13.0919
 216   2.0000      -0.477804       -13.0017
 217   2.0000      -0.475890       -12.9496
 218   2.0000      -0.474990       -12.9251
 219   2.0000      -0.472320       -12.8525
 220   2.0000      -0.469217       -12.7680
 221   2.0000      -0.467492       -12.7211
 222   2.0000      -0.465259       -12.6603
 223   2.0000      -0.461285       -12.5522
 224   2.0000      -0.460726       -12.5370
 225   2.0000      -0.459799       -12.5118
 226   2.0000      -0.457507       -12.4494
 227   2.0000      -0.456522       -12.4226
 228   2.0000      -0.452802       -12.3214
 229   2.0000      -0.449568       -12.2334
 230   2.0000      -0.448317       -12.1993
 231   2.0000      -0.445925       -12.1342
 232   2.0000      -0.444346       -12.0913
 233   2.0000      -0.444050       -12.0832
 234   2.0000      -0.439382       -11.9562
 235   2.0000      -0.437752       -11.9118
 236   2.0000      -0.434660       -11.8277
 237   2.0000      -0.433333       -11.7916
 238   2.0000      -0.429148       -11.6777
 239   2.0000      -0.428260       -11.6535
 240   2.0000      -0.426489       -11.6053
 241   2.0000      -0.424974       -11.5641
 242   2.0000      -0.423918       -11.5354
 243   2.0000      -0.420265       -11.4360
 244   2.0000      -0.415061       -11.2944
 245   2.0000      -0.413678       -11.2567
 246   2.0000      -0.410937       -11.1822
 247   2.0000      -0.410273       -11.1641
 248   2.0000      -0.409949       -11.1553
 249   2.0000      -0.408135       -11.1059
 250   2.0000      -0.407075       -11.0771
 251   2.0000      -0.400314       -10.8931
 252   2.0000      -0.393960       -10.7202
 253   2.0000      -0.392195       -10.6722
 254   2.0000      -0.389685       -10.6039
 255   2.0000      -0.385148       -10.4804
 256   2.0000      -0.383413       -10.4332
 257   2.0000      -0.378840       -10.3088
 258   2.0000      -0.376258       -10.2385
 259   2.0000      -0.372296       -10.1307
 260   2.0000      -0.366376        -9.9696
 261   2.0000      -0.358783        -9.7630
 262   2.0000      -0.341651        -9.2968
 263   2.0000      -0.338145        -9.2014
 264   2.0000      -0.332824        -9.0566
 265   2.0000      -0.331933        -9.0324
 266   2.0000      -0.328702        -8.9444
 267   2.0000      -0.324488        -8.8298
 268   2.0000      -0.319701        -8.6995
 269   2.0000      -0.312859        -8.5133
 270   2.0000      -0.308776        -8.4022
 271   2.0000      -0.306461        -8.3392
 272   2.0000      -0.298688        -8.1277
 273   2.0000      -0.295345        -8.0367
 274   2.0000      -0.292595        -7.9619
 275   2.0000      -0.285154        -7.7594
 276   2.0000      -0.266578        -7.2540
 277   2.0000      -0.256525        -6.9804
 278   2.0000      -0.230104        -6.2615
 279   2.0000      -0.191346        -5.2068
 280   0.0000      -0.105333        -2.8663
 281   0.0000      -0.081229        -2.2103
 282   0.0000      -0.065696        -1.7877
 283   0.0000      -0.039510        -1.0751
 284   0.0000      -0.022889        -0.6228

MULLIKEN ATOMIC CHARGES
-----------------------
   0 C :    0.312933
   1 C :   -0.337861
   2 C :   -0.182582
   3 N :    0.149759
   4 C :   -0.183945
   5 N :    0.149646
   6 C :    0.023438
   7 C :    0.031836
   8 C :   -0.074032
   9 C :    0.107794
  10 C :   -0.090471
  11 C :   -0.024041
  12 S :    0.184070
  13 C :   -0.127458
  14 C :    0.048671
  15 Br:    0.029739
  16 C :    0.084213
  17 O :   -0.124137
  18 C :   -0.104523
  19 C :    0.018691
  20 C :   -0.175676
  21 C :    0.119163
  22 C :   -0.005707
  23 C :    0.053226
  24 C :   -0.085105
  25 S :    0.168396
  26 N :   -0.069691
  27 C :    0.124124
  28 C :   -0.146582
  29 S :    0.103041
  30 C :   -0.036578
  31 C :   -0.088895
  32 C :    0.022321
  33 C :   -0.008159
  34 C :   -0.096705
  35 S :    0.096133
  36 C :   -0.107070
  37 C :   -0.043852
  38 C :   -0.101439
  39 C :    0.124764
  40 C :    0.071189
  41 C :   -0.068615
  42 N :   -0.162680
  43 C :    0.144087
  44 C :    0.014592
  45 C :   -0.003271
  46 C :   -0.011759
  47 C :   -0.020172
  48 C :    0.033112
  49 C :    0.024906
  50 C :   -0.048045
  51 S :    0.057707
  52 C :   -0.028096
  53 C :    0.020688
  54 C :    0.032381
  55 C :   -0.051746
  56 S :    0.059851
  57 C :   -0.015151
  58 C :   -0.167035
  59 S :    0.133903
  60 C :   -0.107102
  61 C :    0.081061
  62 C :    0.139210
  63 C :   -0.023043
  64 C :    0.084725
  65 C :   -0.012385
  66 C :    0.011016
  67 O :   -0.182007
  68 C :   -0.081103
  69 C :   -0.055779
  70 H :   -0.006100
  71 H :   -0.004737
  72 H :    0.000550
  73 H :    0.034774
  74 H :    0.000501
  75 H :    0.056190
  76 H :   -0.024720
  77 H :   -0.009098
  78 H :   -0.004490
  79 H :    0.016859
  80 H :    0.015272
  81 H :   -0.010475
  82 H :   -0.013592
  83 H :   -0.003320
  84 H :    0.086555
  85 H :    0.086883
  86 H :    0.013483
  87 H :    0.025910
  88 H :   -0.029330
  89 H :    0.003559
  90 H :   -0.021366
  91 H :   -0.016364
  92 H :   -0.015019
  93 H :   -0.019962
  94 H :   -0.016465
  95 H :   -0.014130
  96 H :    0.016685
  97 H :   -0.014594
  98 H :   -0.023690
  99 H :    0.171042
 100 H :    0.036607
 101 H :    0.041365
 102 H :    0.033329
Sum of atomic charges:   -0.0000000

LOEWDIN ATOMIC CHARGES
----------------------
   0 C :    0.075997
   1 C :   -0.137004
   2 C :   -0.018381
   3 N :   -0.050574
   4 C :   -0.019653
   5 N :   -0.048400
   6 C :   -0.024070
   7 C :   -0.052336
   8 C :    0.017253
   9 C :   -0.031363
  10 C :   -0.145304
  11 C :   -0.009189
  12 S :    0.430023
  13 C :   -0.273938
  14 C :   -0.067827
  15 Br:    0.147718
  16 C :    0.058563
  17 O :   -0.125784
  18 C :   -0.078700
  19 C :    0.037018
  20 C :   -0.158204
  21 C :   -0.045673
  22 C :    0.024561
  23 C :   -0.035381
  24 C :   -0.166883
  25 S :    0.478842
  26 N :   -0.127152
  27 C :   -0.003087
  28 C :   -0.233382
  29 S :    0.448994
  30 C :   -0.130802
  31 C :   -0.066335
  32 C :   -0.068826
  33 C :   -0.020119
  34 C :   -0.181811
  35 S :    0.422043
  36 C :   -0.158023
  37 C :   -0.058479
  38 C :   -0.046473
  39 C :   -0.027432
  40 C :   -0.042199
  41 C :    0.012251
  42 N :   -0.101547
  43 C :   -0.026537
  44 C :   -0.052574
  45 C :   -0.027450
  46 C :   -0.063646
  47 C :   -0.140866
  48 C :   -0.041805
  49 C :   -0.030663
  50 C :   -0.185513
  51 S :    0.367967
  52 C :   -0.174380
  53 C :   -0.048774
  54 C :   -0.029778
  55 C :   -0.170613
  56 S :    0.364490
  57 C :   -0.065404
  58 C :   -0.195091
  59 S :    0.473598
  60 C :   -0.191341
  61 C :   -0.063334
  62 C :   -0.028622
  63 C :   -0.092970
  64 C :    0.065675
  65 C :   -0.041674
  66 C :    0.003481
  67 O :   -0.049880
  68 C :   -0.009583
  69 C :   -0.062251
  70 H :    0.042137
  71 H :    0.040995
  72 H :    0.039894
  73 H :    0.044188
  74 H :    0.047552
  75 H :    0.036343
  76 H :    0.031975
  77 H :    0.018975
  78 H :    0.033011
  79 H :    0.032061
  80 H :    0.033311
  81 H :    0.018171
  82 H :    0.018122
  83 H :    0.019564
  84 H :    0.050461
  85 H :    0.052173
  86 H :    0.027127
  87 H :    0.037038
  88 H :    0.016748
  89 H :    0.021858
  90 H :    0.030265
  91 H :    0.031938
  92 H :    0.031038
  93 H :    0.029776
  94 H :    0.031469
  95 H :    0.040835
  96 H :    0.023538
  97 H :    0.035378
  98 H :    0.031853
  99 H :    0.079465
 100 H :    0.036028
 101 H :    0.028145
 102 H :    0.027174

  Mayer bond orders larger than 0.100000
B(  0-C ,  1-C ) :   1.6391 B(  0-C ,  6-C ) :   1.0076 B(  0-C , 18-C ) :   1.0583
B(  1-C ,  2-C ) :   1.1381 B(  1-C ,  4-C ) :   1.1424 B(  2-C ,  3-N ) :   2.9775
B(  4-C ,  5-N ) :   2.9662 B(  6-C ,  7-C ) :   1.2715 B(  6-C , 11-C ) :   1.4035
B(  7-C ,  8-C ) :   1.4178 B(  7-C , 16-C ) :   0.9116 B(  8-C ,  9-C ) :   1.2543
B(  8-C , 70-H ) :   1.0188 B(  9-C , 10-C ) :   1.2996 B(  9-C , 14-C ) :   1.1626
B( 10-C , 11-C ) :   1.3393 B( 10-C , 12-S ) :   1.0821 B( 11-C , 71-H ) :   0.9812
B( 12-S , 13-C ) :   1.0856 B( 13-C , 14-C ) :   1.6152 B( 13-C , 15-Br) :   1.0197
B( 14-C , 72-H ) :   1.0015 B( 16-C , 17-O ) :   2.2618 B( 16-C , 18-C ) :   0.9133
B( 18-C , 19-C ) :   1.6838 B( 19-C , 20-C ) :   1.1112 B( 19-C , 73-H ) :   0.9227
B( 20-C , 21-C ) :   1.4453 B( 20-C , 25-S ) :   1.1052 B( 21-C , 22-C ) :   1.0095
B( 21-C , 28-C ) :   1.2997 B( 22-C , 23-C ) :   1.2165 B( 22-C , 26-N ) :   1.6578
B( 23-C , 24-C ) :   1.5885 B( 23-C , 74-H ) :   0.9763 B( 24-C , 25-S ) :   1.1416
B( 24-C , 75-H ) :   0.9416 B( 26-N , 27-C ) :   1.3063 B( 27-C , 28-C ) :   1.3305
B( 27-C , 31-C ) :   1.2356 B( 28-C , 29-S ) :   1.0270 B( 29-S , 30-C ) :   1.0920
B( 30-C , 31-C ) :   1.4424 B( 30-C , 32-C ) :   1.1457 B( 31-C , 76-H ) :   1.0132
B( 32-C , 33-C ) :   1.6242 B( 32-C , 77-H ) :   0.9563 B( 33-C , 34-C ) :   1.1987
B( 33-C , 78-H ) :   0.9703 B( 34-C , 35-S ) :   1.0948 B( 34-C , 38-C ) :   1.4407
B( 35-S , 36-C ) :   1.1056 B( 36-C , 37-C ) :   1.4528 B( 36-C , 44-C ) :   1.1554
B( 37-C , 38-C ) :   1.3560 B( 37-C , 43-C ) :   1.0327 B( 38-C , 39-C ) :   1.0454
B( 39-C , 40-C ) :   1.0814 B( 39-C , 79-H ) :   0.9125 B( 39-C , 80-H ) :   0.9080
B( 40-C , 41-C ) :   1.0228 B( 40-C , 81-H ) :   0.9266 B( 40-C , 82-H ) :   0.9287
B( 41-C , 42-N ) :   1.1106 B( 41-C , 43-C ) :   1.0455 B( 41-C , 83-H ) :   0.9270
B( 42-N , 84-H ) :   0.9677 B( 42-N , 85-H ) :   0.9697 B( 43-C , 86-H ) :   0.8923
B( 43-C , 87-H ) :   0.9147 B( 44-C , 45-C ) :   1.6032 B( 44-C , 88-H ) :   0.9540
B( 45-C , 46-C ) :   1.1870 B( 45-C , 89-H ) :   0.9664 B( 46-C , 47-C ) :   1.5215
B( 46-C , 90-H ) :   0.9854 B( 47-C , 48-C ) :   1.1644 B( 47-C , 51-S ) :   1.0413
B( 48-C , 49-C ) :   1.5604 B( 48-C , 91-H ) :   0.9990 B( 49-C , 50-C ) :   1.2136
B( 49-C , 92-H ) :   0.9935 B( 50-C , 51-S ) :   1.0439 B( 50-C , 52-C ) :   1.4768
B( 52-C , 53-C ) :   1.2055 B( 52-C , 56-S ) :   1.0468 B( 53-C , 54-C ) :   1.5656
B( 53-C , 93-H ) :   0.9923 B( 54-C , 55-C ) :   1.1664 B( 54-C , 94-H ) :   0.9992
B( 55-C , 56-S ) :   1.0276 B( 55-C , 57-C ) :   1.5363 B( 57-C , 58-C ) :   1.2280
B( 57-C , 95-H ) :   0.9484 B( 58-C , 59-S ) :   1.1145 B( 58-C , 62-C ) :   1.3225
B( 59-S , 60-C ) :   1.2070 B( 60-C , 61-C ) :   1.4025 B( 60-C , 96-H ) :   0.9687
B( 61-C , 62-C ) :   1.2027 B( 61-C , 66-C ) :   1.1575 B( 62-C , 63-C ) :   1.2377
B( 63-C , 64-C ) :   1.4307 B( 63-C , 68-C ) :   0.9941 B( 64-C , 65-C ) :   1.2082
B( 64-C , 67-O ) :   1.2553 B( 65-C , 66-C ) :   1.5360 B( 65-C , 97-H ) :   0.9936
B( 66-C , 98-H ) :   1.0042 B( 67-O , 99-H ) :   0.9410 B( 68-C , 69-C ) :   1.9394
B( 68-C ,100-H ) :   0.9496 B( 69-C ,101-H ) :   0.9615 B( 69-C ,102-H ) :   0.9556

-----------------------------------------------------------------------------
         ABSORPTION SPECTRUM VIA TRANSITION ELECTRIC DIPOLE MOMENTS
-----------------------------------------------------------------------------
State   Energy  Wavelength   fosc         T2         TX        TY        TZ
        (cm-1)    (nm)                  (au**2)     (au)      (au)      (au)
-----------------------------------------------------------------------------
   0    8355.8   1196.8   0.693516041  27.32405  -0.41407  -1.56393  -4.97058
   1   11892.7    840.8   0.889883783  24.63354  -0.15116   2.91588   4.01352
   2   13760.7    726.7   0.067130418   1.60603   1.08659   0.30717   0.57533
   3   16245.9    615.5   0.080602643   1.63336   0.19716   0.26182  -1.23529
   4   16562.8    603.8   0.093058978   1.84970   0.91369   0.89443  -0.46353
   5   18947.2    527.8   0.031479828   0.54697  -0.60398  -0.14261   0.40230
   6   21268.0    470.2   0.953017921  14.75195   2.82921   1.21277  -2.29711
   7   21826.0    458.2   0.408468030   6.16111   2.21061   0.84887  -0.74412
   8   22497.3    444.5   0.007452048   0.10905   0.13029  -0.24380  -0.18066
   9   23592.5    423.9   0.012142362   0.16944   0.17720  -0.35446   0.11134
  10   24414.9    409.6   0.130755073   1.76311   0.17198   0.57322  -1.18531
  11   24936.8    401.0   0.016712559   0.22064   0.45904  -0.09581   0.02718
  12   25343.0    394.6   0.125944239   1.63605   1.23967  -0.05396  -0.31039
  13   25900.4    386.1   0.002800751   0.03560  -0.10596  -0.00786  -0.15592
  14   26245.0    381.0   0.017071031   0.21414  -0.23114   0.29873  -0.26734
  15   26828.0    372.7   0.018392236   0.22569  -0.22123  -0.37916   0.18163
  16   27334.3    365.8   0.050208528   0.60471   0.77459   0.03764  -0.05748
  17   27957.7    357.7   0.087257283   1.02749   0.68613   0.35965   0.65373
  18   28224.5    354.3   0.061400950   0.71618  -0.70841  -0.38107   0.26291
  19   28995.6    344.9   0.091662269   1.04072  -0.23895  -0.24408   0.96127
  20   30077.3    332.5   0.030527518   0.33414   0.30028  -0.17404  -0.46226
  21   30219.3    330.9   0.026341248   0.28696  -0.10309  -0.05357  -0.52294
  22   30370.9    329.3   0.016823355   0.18236   0.03217  -0.15505  -0.39659
  23   30445.5    328.5   0.008047189   0.08702   0.16097   0.02688  -0.24572
  24   30843.5    324.2   0.014759588   0.15754   0.31051  -0.24301   0.04546
  25   31130.6    321.2   0.022718690   0.24025   0.22075  -0.42626  -0.09913
  26   31241.2    320.1   0.085888809   0.90507   0.09072  -0.01160  -0.94695
  27   31533.0    317.1   0.127191278   1.32791   0.49951   0.52321  -0.89702
  28   31687.6    315.6   0.125247844   1.30124  -1.05127  -0.32329   0.30258
  29   31924.4    313.2   0.375044638   3.86754  -0.63435  -1.00260   1.56842
  30   32066.4    311.9   0.118519532   1.21679  -0.03800   0.54168  -0.96017
  31   32341.5    309.2   0.163919063   1.66857  -0.69548   0.42802  -1.00084
  32   32537.7    307.3   0.013851894   0.14015   0.34204  -0.01758   0.15116
  33   33054.5    302.5   0.146148310   1.45559  -0.87865  -0.36068   0.74396
  34   33253.2    300.7   0.092989399   0.92061  -0.85724   0.06466   0.42612
  35   33781.1    296.0   0.038547313   0.37566  -0.11763  -0.13887   0.58527
  36   34267.6    291.8   0.110979815   1.06619  -0.28990   0.12572  -0.98303
  37   34345.4    291.2   0.241949279   2.31917  -0.31790   0.03215   1.48898
  38   34597.7    289.0   0.079223007   0.75384   0.30907   0.02646   0.81093
  39   35098.3    284.9   0.046048124   0.43192  -0.40039   0.17181  -0.49203
  40   35172.5    284.3   0.034815016   0.32587  -0.54758   0.15386   0.04848
  41   35239.1    283.8   0.021707345   0.20280   0.05978  -0.16097  -0.41630
  42   35575.5    281.1   0.005825001   0.05390   0.17124  -0.13639   0.07732
  43   36057.4    277.3   0.123047415   1.12345   0.96680  -0.43370  -0.02562
  44   36279.3    275.6   0.099664432   0.90439  -0.81865   0.28415   0.39175
  45   36400.2    274.7   0.033371396   0.30182  -0.50942   0.12776  -0.16120
  46   36564.8    273.5   0.014735819   0.13267  -0.17412   0.05925  -0.31440
  47   36868.6    271.2   0.075457976   0.67379   0.68203  -0.32185   0.32409
  48   36920.1    270.9   0.055091054   0.49124   0.04987  -0.26618  -0.64645
  49   37220.3    268.7   0.136973353   1.21152   0.71752   0.29232   0.78182
  50   37616.2    265.8   0.044121158   0.38614  -0.05968  -0.18530  -0.59012
  51   37790.3    264.6   0.005390383   0.04696  -0.16289  -0.10430  -0.09771
  52   38091.5    262.5   0.013662868   0.11808  -0.26830   0.21378  -0.01981
  53   38246.3    261.5   0.011527589   0.09923   0.01084   0.31452  -0.01373
  54   38637.5    258.8   0.009850781   0.08393   0.16085   0.15361   0.18565
  55   39100.3    255.8   0.013835643   0.11649  -0.20589   0.21748  -0.16372
  56   39505.7    253.1   0.033224220   0.27687   0.15190   0.11542   0.49038
  57   39574.7    252.7   0.006071299   0.05051   0.00774   0.11669   0.19191
  58   39763.6    251.5   0.010394280   0.08606   0.03155  -0.04126   0.28872
  59   40006.9    250.0   0.002250484   0.01852   0.12442   0.00147   0.05510
  60   40037.6    249.8   0.046809635   0.38490   0.56179   0.19931  -0.17193
  61   40243.8    248.5   0.028697345   0.23476  -0.40064  -0.17233  -0.21107

FINAL SINGLE POINT ENERGY     -7880.360744703327

DIPOLE MOMENT
-------------
                                X             Y             Z
Electronic contribution:    -56.80476     -56.90578     -98.68218
Nuclear contribution   :     57.64169      56.85306     102.16116
                        -----------------------------------------
Total Dipole Moment    :      0.83693      -0.05272       3.47898
                        -----------------------------------------
Magnitude (a.u.)       :      3.57862
Magnitude (Debye)      :      9.09614

Rotational constants in cm-1:     0.001322     0.000254     0.000233
Rotational constants in MHz :    39.642347     7.602745     7.000029

                             ****ORCA TERMINATED NORMALLY****
TOTAL RUN TIME: 0 days 0 hours 12 minutes 23 seconds 754 msec
