                         Program Version 4.2.0 -  RELEASE  -
|  1> # ORCA input file
|  2> # SCF done       -126.596141445115          0.000853073424
|  3> ! CAM-B3LYP def2-SVP def2/J RIJCOSX Grid4 TightSCF
|  4> %maxcore 5000
|  5> %tddft
|  6>     Mode sTDDFT
|  7>     Ethresh 5.0
|  8>     maxcore 5000
|  9> end
| 10>
| 11> %pal
| 12>   nprocs 6
| 13>   end
| 14> * xyz 0 1
| 15>    C       13.06119        -9.14057        -5.79505
| 16>    C       12.85212        -8.52354        -4.62343
| 17>    C       13.82464        -8.16514        -3.63244
| 18>    C       13.31207        -7.54329        -2.54662
| 19>    C       11.90280        -7.36019        -2.58560
| 20>    S       11.24671        -8.01829        -4.07113
| 21>    C       11.11066        -6.75671        -1.63536
| 22>    C       11.51028        -6.17428        -0.40912
| 23>    C       10.48304        -5.64129         0.30663
| 24>    C        9.21378        -5.76855        -0.30747
| 25>    S        9.37406        -6.60616        -1.83913
| 26>    C        8.02330        -5.30040         0.19709
| 27>    C        6.76017        -5.39996        -0.37803
| 28>    C        5.57374        -4.86788         0.17165
| 29>    N        5.50021        -4.19839         1.33063
| 30>    C        4.31596        -3.76382         1.69497
| 31>    C        4.23228        -3.02340         2.98862
| 32>    C        3.15616        -3.98714         0.89280
| 33>    C        1.81773        -3.47545         1.31253
| 34>    N        3.21273        -4.64520        -0.23978
| 35>    C        4.41814        -5.10385        -0.62752
| 36>    C        4.69483        -5.83123        -1.79727
| 37>    S        6.39607        -6.19212        -1.88234
| 38>    C        3.82073        -6.27120        -2.81141
| 39>    C        2.48591        -6.01028        -2.81807
| 40>    C        1.62874        -6.45963        -3.80595
| 41>    C        0.85215        -6.85498        -4.65975
| 42>    C       -0.01149        -7.30145        -5.58711
| 43>    C       -0.79806        -7.70907        -6.41952
| 44>    C       -1.72290        -8.18942        -7.37179
| 45>    N       -1.68082        -9.49612        -7.65368
| 46>    C       -2.56347        -9.93190        -8.53488
| 47>    C       -3.48870        -9.10455        -9.14578
| 48>    C       -3.45266        -7.74449        -8.79437
| 49>    N       -2.55916        -7.30555        -7.90300
| 50>    C       -4.32733        -6.73544        -9.33402
| 51>    C       -5.34901        -6.94568       -10.19742
| 52>    C       -6.17137        -5.91069       -10.69304
| 53>    C       -7.22162        -6.10110       -11.54624
| 54>    C       -8.07927        -5.09853       -12.07780
| 55>    C       -9.05178        -5.56815       -12.89814
| 56>    C       -9.03255        -6.97699       -13.07142
| 57>    S       -7.71617        -7.67862       -12.14844
| 58>    C       -9.88711        -7.74199       -13.82511
| 59>    C      -10.98870        -7.28854       -14.60708
| 60>    C      -11.66331        -8.27071       -15.24173
| 61>    C      -11.14667        -9.59061       -15.01226
| 62>    S       -9.74407        -9.48540       -13.93557
| 63>    C      -11.60858       -10.74780       -15.50347
| 64>    H       14.05259        -9.43215        -6.09309
| 65>    H       12.25401        -9.36305        -6.46841
| 66>    H       14.86657        -8.38825        -3.77973
| 67>    H       13.89747        -7.20321        -1.71008
| 68>    H       12.53788        -6.16308        -0.09293
| 69>    H       10.59254        -5.15536         1.26022
| 70>    H        8.04836        -4.78390         1.14801
| 71>    H        5.22121        -2.97072         3.43493
| 72>    H        3.55430        -3.52982         3.67437
| 73>    H        3.85603        -2.01409         2.82734
| 74>    H        1.07764        -3.74316         0.56369
| 75>    H        1.84229        -2.39214         1.42225
| 76>    H        1.52953        -3.90445         2.27120
| 77>    H        4.26147        -6.84531        -3.61639
| 78>    H        2.05771        -5.42871        -2.01214
| 79>    H       -2.52185       -10.99249        -8.75289
| 80>    H       -4.19549        -9.49131        -9.86025
| 81>    H       -4.11739        -5.73366        -8.98436
| 82>    H       -5.57849        -7.94508       -10.54438
| 83>    H       -5.95996        -4.89765       -10.37722
| 84>    H       -7.93935        -4.06138       -11.82828
| 85>    H       -9.78437        -4.94914       -13.38437
| 86>    H      -11.23880        -6.24415       -14.66762
| 87>    H      -12.52030        -8.12052       -15.87421
| 88>    H      -12.46499       -10.76467       -16.15427
| 89>    H      -11.14552       -11.68821       -15.26720
| 90> *
| 91>
| 92>                          ****END OF INPUT****

CARTESIAN COORDINATES (ANGSTROEM)
---------------------------------
  C     13.061190   -9.140570   -5.795050
  C     12.852120   -8.523540   -4.623430
  C     13.824640   -8.165140   -3.632440
  C     13.312070   -7.543290   -2.546620
  C     11.902800   -7.360190   -2.585600
  S     11.246710   -8.018290   -4.071130
  C     11.110660   -6.756710   -1.635360
  C     11.510280   -6.174280   -0.409120
  C     10.483040   -5.641290    0.306630
  C      9.213780   -5.768550   -0.307470
  S      9.374060   -6.606160   -1.839130
  C      8.023300   -5.300400    0.197090
  C      6.760170   -5.399960   -0.378030
  C      5.573740   -4.867880    0.171650
  N      5.500210   -4.198390    1.330630
  C      4.315960   -3.763820    1.694970
  C      4.232280   -3.023400    2.988620
  C      3.156160   -3.987140    0.892800
  C      1.817730   -3.475450    1.312530
  N      3.212730   -4.645200   -0.239780
  C      4.418140   -5.103850   -0.627520
  C      4.694830   -5.831230   -1.797270
  S      6.396070   -6.192120   -1.882340
  C      3.820730   -6.271200   -2.811410
  C      2.485910   -6.010280   -2.818070
  C      1.628740   -6.459630   -3.805950
  C      0.852150   -6.854980   -4.659750
  C     -0.011490   -7.301450   -5.587110
  C     -0.798060   -7.709070   -6.419520
  C     -1.722900   -8.189420   -7.371790
  N     -1.680820   -9.496120   -7.653680
  C     -2.563470   -9.931900   -8.534880
  C     -3.488700   -9.104550   -9.145780
  C     -3.452660   -7.744490   -8.794370
  N     -2.559160   -7.305550   -7.903000
  C     -4.327330   -6.735440   -9.334020
  C     -5.349010   -6.945680  -10.197420
  C     -6.171370   -5.910690  -10.693040
  C     -7.221620   -6.101100  -11.546240
  C     -8.079270   -5.098530  -12.077800
  C     -9.051780   -5.568150  -12.898140
  C     -9.032550   -6.976990  -13.071420
  S     -7.716170   -7.678620  -12.148440
  C     -9.887110   -7.741990  -13.825110
  C    -10.988700   -7.288540  -14.607080
  C    -11.663310   -8.270710  -15.241730
  C    -11.146670   -9.590610  -15.012260
  S     -9.744070   -9.485400  -13.935570
  C    -11.608580  -10.747800  -15.503470
  H     14.052590   -9.432150   -6.093090
  H     12.254010   -9.363050   -6.468410
  H     14.866570   -8.388250   -3.779730
  H     13.897470   -7.203210   -1.710080
  H     12.537880   -6.163080   -0.092930
  H     10.592540   -5.155360    1.260220
  H      8.048360   -4.783900    1.148010
  H      5.221210   -2.970720    3.434930
  H      3.554300   -3.529820    3.674370
  H      3.856030   -2.014090    2.827340
  H      1.077640   -3.743160    0.563690
  H      1.842290   -2.392140    1.422250
  H      1.529530   -3.904450    2.271200
  H      4.261470   -6.845310   -3.616390
  H      2.057710   -5.428710   -2.012140
  H     -2.521850  -10.992490   -8.752890
  H     -4.195490   -9.491310   -9.860250
  H     -4.117390   -5.733660   -8.984360
  H     -5.578490   -7.945080  -10.544380
  H     -5.959960   -4.897650  -10.377220
  H     -7.939350   -4.061380  -11.828280
  H     -9.784370   -4.949140  -13.384370
  H    -11.238800   -6.244150  -14.667620
  H    -12.520300   -8.120520  -15.874210
  H    -12.464990  -10.764670  -16.154270
  H    -11.145520  -11.688210  -15.267200

 Total Charge           Charge          ....    0
 Multiplicity           Mult            ....    1
 Number of Electrons    NEL             ....  374
 Basis Dimension        Dim             ....  836

ORBITAL ENERGIES
----------------

  NO   OCC          E(Eh)            E(eV)
   0   2.0000     -88.963172     -2420.8110
   1   2.0000     -88.942857     -2420.2582
   2   2.0000     -88.942147     -2420.2389
   3   2.0000     -88.938925     -2420.1512
   4   2.0000     -88.937018     -2420.0993
   5   2.0000     -14.413874      -392.2214
   6   2.0000     -14.411836      -392.1660
   7   2.0000     -14.393646      -391.6710
   8   2.0000     -14.392746      -391.6465
   9   2.0000     -10.339916      -281.3634
  10   2.0000     -10.316380      -280.7230
  11   2.0000     -10.314592      -280.6743
  12   2.0000     -10.314252      -280.6651
  13   2.0000     -10.311232      -280.5829
  14   2.0000     -10.309177      -280.5270
  15   2.0000     -10.308497      -280.5085
  16   2.0000     -10.307753      -280.4882
  17   2.0000     -10.306997      -280.4677
  18   2.0000     -10.305557      -280.4285
  19   2.0000     -10.305451      -280.4256
  20   2.0000     -10.304883      -280.4101
  21   2.0000     -10.303039      -280.3599
  22   2.0000     -10.301642      -280.3219
  23   2.0000     -10.301076      -280.3065
  24   2.0000     -10.300734      -280.2972
  25   2.0000     -10.294516      -280.1280
  26   2.0000     -10.290242      -280.0117
  27   2.0000     -10.289329      -279.9869
  28   2.0000     -10.287888      -279.9477
  29   2.0000     -10.285796      -279.8907
  30   2.0000     -10.283693      -279.8335
  31   2.0000     -10.283693      -279.8335
  32   2.0000     -10.282698      -279.8064
  33   2.0000     -10.280144      -279.7369
  34   2.0000     -10.279436      -279.7177
  35   2.0000     -10.278766      -279.6995
  36   2.0000     -10.278012      -279.6789
  37   2.0000     -10.274496      -279.5833
  38   2.0000     -10.272156      -279.5196
  39   2.0000     -10.271168      -279.4927
  40   2.0000     -10.271060      -279.4898
  41   2.0000     -10.269174      -279.4384
  42   2.0000     -10.268173      -279.4112
  43   2.0000     -10.266623      -279.3690
  44   2.0000     -10.265900      -279.3493
  45   2.0000     -10.265240      -279.3314
  46   2.0000     -10.264925      -279.3228
  47   2.0000     -10.263281      -279.2781
  48   2.0000     -10.259333      -279.1706
  49   2.0000      -8.057634      -219.2594
  50   2.0000      -8.038912      -218.7499
  51   2.0000      -8.038387      -218.7356
  52   2.0000      -8.035624      -218.6604
  53   2.0000      -8.033635      -218.6063
  54   2.0000      -6.026599      -163.9921
  55   2.0000      -6.022569      -163.8824
  56   2.0000      -6.020447      -163.8247
  57   2.0000      -6.008663      -163.5040
  58   2.0000      -6.008142      -163.4899
  59   2.0000      -6.005453      -163.4167
  60   2.0000      -6.004561      -163.3924
  61   2.0000      -6.004260      -163.3842
  62   2.0000      -6.003468      -163.3627
  63   2.0000      -6.001553      -163.3105
  64   2.0000      -5.999859      -163.2645
  65   2.0000      -5.999512      -163.2550
  66   2.0000      -5.999131      -163.2447
  67   2.0000      -5.996126      -163.1629
  68   2.0000      -5.994204      -163.1106
  69   2.0000      -1.071219       -29.1494
  70   2.0000      -1.067595       -29.0507
  71   2.0000      -0.995549       -27.0903
  72   2.0000      -0.992199       -26.9991
  73   2.0000      -0.990733       -26.9592
  74   2.0000      -0.975576       -26.5468
  75   2.0000      -0.969510       -26.3817
  76   2.0000      -0.965843       -26.2819
  77   2.0000      -0.964134       -26.2354
  78   2.0000      -0.908694       -24.7268
  79   2.0000      -0.899869       -24.4867
  80   2.0000      -0.888682       -24.1823
  81   2.0000      -0.884572       -24.0704
  82   2.0000      -0.875999       -23.8371
  83   2.0000      -0.869012       -23.6470
  84   2.0000      -0.861452       -23.4413
  85   2.0000      -0.847674       -23.0664
  86   2.0000      -0.844960       -22.9925
  87   2.0000      -0.842254       -22.9189
  88   2.0000      -0.832325       -22.6487
  89   2.0000      -0.826163       -22.4811
  90   2.0000      -0.817016       -22.2321
  91   2.0000      -0.816228       -22.2107
  92   2.0000      -0.805772       -21.9262
  93   2.0000      -0.794019       -21.6064
  94   2.0000      -0.789016       -21.4702
  95   2.0000      -0.782214       -21.2851
  96   2.0000      -0.766349       -20.8534
  97   2.0000      -0.747978       -20.3535
  98   2.0000      -0.739136       -20.1129
  99   2.0000      -0.725012       -19.7286
 100   2.0000      -0.710100       -19.3228
 101   2.0000      -0.706801       -19.2330
 102   2.0000      -0.705045       -19.1853
 103   2.0000      -0.685372       -18.6499
 104   2.0000      -0.682747       -18.5785
 105   2.0000      -0.668806       -18.1991
 106   2.0000      -0.656504       -17.8644
 107   2.0000      -0.647468       -17.6185
 108   2.0000      -0.637996       -17.3607
 109   2.0000      -0.635167       -17.2838
 110   2.0000      -0.629194       -17.1212
 111   2.0000      -0.621539       -16.9129
 112   2.0000      -0.619481       -16.8569
 113   2.0000      -0.616616       -16.7790
 114   2.0000      -0.614173       -16.7125
 115   2.0000      -0.599565       -16.3150
 116   2.0000      -0.597495       -16.2587
 117   2.0000      -0.594222       -16.1696
 118   2.0000      -0.593006       -16.1365
 119   2.0000      -0.586431       -15.9576
 120   2.0000      -0.564934       -15.3726
 121   2.0000      -0.557397       -15.1675
 122   2.0000      -0.556119       -15.1328
 123   2.0000      -0.546796       -14.8791
 124   2.0000      -0.544048       -14.8043
 125   2.0000      -0.543767       -14.7967
 126   2.0000      -0.539131       -14.6705
 127   2.0000      -0.527954       -14.3663
 128   2.0000      -0.516601       -14.0574
 129   2.0000      -0.513257       -13.9664
 130   2.0000      -0.511013       -13.9054
 131   2.0000      -0.508599       -13.8397
 132   2.0000      -0.507573       -13.8118
 133   2.0000      -0.502320       -13.6688
 134   2.0000      -0.500234       -13.6121
 135   2.0000      -0.495566       -13.4850
 136   2.0000      -0.494813       -13.4645
 137   2.0000      -0.490423       -13.3451
 138   2.0000      -0.489189       -13.3115
 139   2.0000      -0.487701       -13.2710
 140   2.0000      -0.486691       -13.2435
 141   2.0000      -0.482470       -13.1287
 142   2.0000      -0.482048       -13.1172
 143   2.0000      -0.476800       -12.9744
 144   2.0000      -0.471745       -12.8368
 145   2.0000      -0.470965       -12.8156
 146   2.0000      -0.467355       -12.7174
 147   2.0000      -0.463218       -12.6048
 148   2.0000      -0.462607       -12.5882
 149   2.0000      -0.459956       -12.5160
 150   2.0000      -0.457063       -12.4373
 151   2.0000      -0.456023       -12.4090
 152   2.0000      -0.444779       -12.1031
 153   2.0000      -0.443958       -12.0807
 154   2.0000      -0.435270       -11.8443
 155   2.0000      -0.429974       -11.7002
 156   2.0000      -0.427212       -11.6250
 157   2.0000      -0.425049       -11.5662
 158   2.0000      -0.422669       -11.5014
 159   2.0000      -0.421372       -11.4661
 160   2.0000      -0.418153       -11.3785
 161   2.0000      -0.411386       -11.1944
 162   2.0000      -0.409921       -11.1545
 163   2.0000      -0.404594       -11.0096
 164   2.0000      -0.396055       -10.7772
 165   2.0000      -0.387995       -10.5579
 166   2.0000      -0.387431       -10.5425
 167   2.0000      -0.384403       -10.4601
 168   2.0000      -0.375900       -10.2288
 169   2.0000      -0.371845       -10.1184
 170   2.0000      -0.365330        -9.9411
 171   2.0000      -0.358192        -9.7469
 172   2.0000      -0.347584        -9.4582
 173   2.0000      -0.337819        -9.1925
 174   2.0000      -0.335955        -9.1418
 175   2.0000      -0.333850        -9.0845
 176   2.0000      -0.323575        -8.8049
 177   2.0000      -0.321615        -8.7516
 178   2.0000      -0.313365        -8.5271
 179   2.0000      -0.310387        -8.4461
 180   2.0000      -0.307706        -8.3731
 181   2.0000      -0.294912        -8.0250
 182   2.0000      -0.292507        -7.9595
 183   2.0000      -0.280030        -7.6200
 184   2.0000      -0.253006        -6.8846
 185   2.0000      -0.219732        -5.9792
 186   2.0000      -0.201696        -5.4884
 187   0.0000      -0.081557        -2.2193
 188   0.0000      -0.070439        -1.9167
 189   0.0000      -0.032580        -0.8865
 190   0.0000      -0.019822        -0.5394
 191   0.0000      -0.008180        -0.2226

MULLIKEN ATOMIC CHARGES
-----------------------
   0 C :   -0.025865
   1 C :   -0.065992
   2 C :    0.053223
   3 C :    0.026730
   4 C :   -0.064744
   5 S :    0.086207
   6 C :   -0.036346
   7 C :    0.024735
   8 C :    0.036976
   9 C :   -0.026103
  10 S :    0.065238
  11 C :   -0.026709
  12 C :   -0.138999
  13 C :    0.026771
  14 N :    0.017184
  15 C :   -0.185091
  16 C :    0.132262
  17 C :   -0.166006
  18 C :    0.127718
  19 N :    0.005707
  20 C :    0.056499
  21 C :   -0.157694
  22 S :    0.154142
  23 C :    0.032596
  24 C :   -0.129984
  25 C :    0.053255
  26 C :   -0.024507
  27 C :   -0.075645
  28 C :    0.171580
  29 C :   -0.146499
  30 N :   -0.074260
  31 C :    0.075920
  32 C :   -0.053618
  33 C :    0.054857
  34 N :   -0.059500
  35 C :    0.019858
  36 C :    0.031060
  37 C :   -0.021962
  38 C :   -0.012221
  39 C :    0.038853
  40 C :    0.030351
  41 C :   -0.048898
  42 S :    0.065891
  43 C :   -0.064907
  44 C :    0.029979
  45 C :    0.053395
  46 C :   -0.064185
  47 S :    0.082050
  48 C :   -0.028724
  49 H :    0.020248
  50 H :    0.024173
  51 H :   -0.010428
  52 H :   -0.010829
  53 H :   -0.016125
  54 H :   -0.012878
  55 H :   -0.004357
  56 H :    0.024066
  57 H :    0.023893
  58 H :    0.022860
  59 H :    0.031975
  60 H :    0.025267
  61 H :    0.024209
  62 H :   -0.010463
  63 H :    0.043125
  64 H :    0.002942
  65 H :   -0.009833
  66 H :   -0.011255
  67 H :    0.001035
  68 H :   -0.013002
  69 H :   -0.010976
  70 H :   -0.012366
  71 H :   -0.010924
  72 H :   -0.009999
  73 H :    0.021593
  74 H :    0.023473
Sum of atomic charges:   -0.0000000

LOEWDIN ATOMIC CHARGES
----------------------
   0 C :   -0.072230
   1 C :   -0.139926
   2 C :   -0.029275
   3 C :   -0.027437
   4 C :   -0.172760
   5 S :    0.356052
   6 C :   -0.181849
   7 C :   -0.037610
   8 C :   -0.032354
   9 C :   -0.152368
  10 S :    0.367979
  11 C :   -0.066200
  12 C :   -0.182515
  13 C :   -0.048534
  14 N :   -0.044784
  15 C :   -0.008421
  16 C :   -0.052816
  17 C :    0.001957
  18 C :   -0.052325
  19 N :   -0.043486
  20 C :   -0.043313
  21 C :   -0.194801
  22 S :    0.479770
  23 C :   -0.013786
  24 C :   -0.049051
  25 C :    0.008746
  26 C :   -0.063937
  27 C :   -0.022645
  28 C :   -0.005613
  29 C :    0.009114
  30 N :   -0.083186
  31 C :    0.043733
  32 C :   -0.062001
  33 C :    0.031754
  34 N :   -0.078425
  35 C :   -0.031205
  36 C :   -0.008093
  37 C :   -0.061582
  38 C :   -0.133756
  39 C :   -0.034851
  40 C :   -0.025295
  41 C :   -0.182098
  42 S :    0.360970
  43 C :   -0.173520
  44 C :   -0.026776
  45 C :   -0.028703
  46 C :   -0.139618
  47 S :    0.352529
  48 C :   -0.073166
  49 H :    0.028891
  50 H :    0.027352
  51 H :    0.033749
  52 H :    0.032721
  53 H :    0.030730
  54 H :    0.033940
  55 H :    0.043401
  56 H :    0.037435
  57 H :    0.036630
  58 H :    0.036516
  59 H :    0.039772
  60 H :    0.037492
  61 H :    0.037496
  62 H :    0.033498
  63 H :    0.042200
  64 H :    0.025647
  65 H :    0.030578
  66 H :    0.034901
  67 H :    0.021076
  68 H :    0.034379
  69 H :    0.034300
  70 H :    0.032090
  71 H :    0.032506
  72 H :    0.034013
  73 H :    0.029305
  74 H :    0.027088

  Mayer bond orders larger than 0.100000
B(  0-C ,  1-C ) :   1.8606 B(  0-C , 49-H ) :   0.9511 B(  0-C , 50-H ) :   0.9416
B(  1-C ,  2-C ) :   1.0812 B(  1-C ,  5-S ) :   1.0085 B(  2-C ,  3-C ) :   1.6559
B(  2-C , 51-H ) :   0.9934 B(  3-C ,  4-C ) :   1.1573 B(  3-C , 52-H ) :   0.9918
B(  4-C ,  5-S ) :   1.0497 B(  4-C ,  6-C ) :   1.5436 B(  6-C ,  7-C ) :   1.1799
B(  6-C , 10-S ) :   1.0351 B(  7-C ,  8-C ) :   1.5860 B(  7-C , 53-H ) :   0.9926
B(  8-C ,  9-C ) :   1.1574 B(  8-C , 54-H ) :   1.0001 B(  9-C , 10-S ) :   1.0402
B(  9-C , 11-C ) :   1.4946 B( 11-C , 12-C ) :   1.2673 B( 11-C , 55-H ) :   0.9689
B( 12-C , 13-C ) :   1.2773 B( 12-C , 21-C ) :   0.1200 B( 12-C , 22-S ) :   1.1335
B( 13-C , 14-N ) :   1.4376 B( 13-C , 20-C ) :   1.2476 B( 14-N , 15-C ) :   1.7114
B( 15-C , 16-C ) :   1.0969 B( 15-C , 17-C ) :   1.1422 B( 16-C , 56-H ) :   0.9416
B( 16-C , 57-H ) :   0.9413 B( 16-C , 58-H ) :   0.9406 B( 17-C , 18-C ) :   1.0978
B( 17-C , 19-N ) :   1.7104 B( 18-C , 59-H ) :   0.9433 B( 18-C , 60-H ) :   0.9408
B( 18-C , 61-H ) :   0.9398 B( 19-N , 20-C ) :   1.3871 B( 20-C , 21-C ) :   1.2954
B( 21-C , 22-S ) :   1.1312 B( 21-C , 23-C ) :   1.1896 B( 23-C , 24-C ) :   1.6736
B( 23-C , 62-H ) :   0.9559 B( 24-C , 25-C ) :   0.9893 B( 24-C , 63-H ) :   0.9342
B( 25-C , 26-C ) :   2.1391 B( 25-C , 28-C ) :   0.1780 B( 26-C , 27-C ) :   0.8773
B( 27-C , 28-C ) :   2.3171 B( 28-C , 29-C ) :   0.8075 B( 29-C , 30-N ) :   1.5463
B( 29-C , 34-N ) :   1.5597 B( 30-N , 31-C ) :   1.5356 B( 31-C , 32-C ) :   1.3962
B( 31-C , 64-H ) :   0.9782 B( 32-C , 33-C ) :   1.3341 B( 32-C , 65-H ) :   0.9671
B( 33-C , 34-N ) :   1.4826 B( 33-C , 35-C ) :   1.0633 B( 35-C , 36-C ) :   1.6479
B( 35-C , 66-H ) :   0.9865 B( 36-C , 37-C ) :   1.1419 B( 36-C , 67-H ) :   0.9612
B( 37-C , 38-C ) :   1.5847 B( 37-C , 68-H ) :   0.9867 B( 38-C , 39-C ) :   1.1227
B( 38-C , 42-S ) :   1.0318 B( 39-C , 40-C ) :   1.6176 B( 39-C , 69-H ) :   0.9991
B( 40-C , 41-C ) :   1.1662 B( 40-C , 70-H ) :   0.9924 B( 41-C , 42-S ) :   1.0321
B( 41-C , 43-C ) :   1.5661 B( 43-C , 44-C ) :   1.1486 B( 43-C , 47-S ) :   1.0453
B( 44-C , 45-C ) :   1.6656 B( 44-C , 71-H ) :   0.9917 B( 45-C , 46-C ) :   1.0787
B( 45-C , 72-H ) :   0.9930 B( 46-C , 47-S ) :   1.0063 B( 46-C , 48-C ) :   1.8655
B( 48-C , 73-H ) :   0.9511 B( 48-C , 74-H ) :   0.9421

-----------------------------------------------------------------------------
         ABSORPTION SPECTRUM VIA TRANSITION ELECTRIC DIPOLE MOMENTS
-----------------------------------------------------------------------------
State   Energy  Wavelength   fosc         T2         TX        TY        TZ
        (cm-1)    (nm)                  (au**2)     (au)      (au)      (au)
-----------------------------------------------------------------------------
   0   13107.7    762.9   1.234866310  31.01480  -5.50861   0.81810  -0.02732
   1   19043.2    525.1   1.564689709  27.04974  -3.65903  -1.38114  -3.42836
   2   21052.2    475.0   0.067481940   1.05527   0.84978  -0.37699  -0.43707
   3   21522.0    464.6   0.017984631   0.27510  -0.35714  -0.21121  -0.32085
   4   23408.2    427.2   0.532610544   7.49061  -0.80647   1.33162   2.25100
   5   23715.7    421.7   0.030923875   0.42927  -0.50756   0.14663   0.38750
   6   25813.1    387.4   0.617148213   7.87092  -1.08272  -1.01871  -2.37926
   7   27503.6    363.6   0.007254260   0.08683   0.17277  -0.07961   0.22505
   8   28461.8    351.3   0.054456772   0.62989   0.36655   0.59083   0.38269
   9   29317.3    341.1   0.048387626   0.54336   0.41955   0.35067   0.49433
  10   29962.4    333.8   0.001655655   0.01819  -0.02035  -0.05575  -0.12112
  11   30184.8    331.3   0.230157947   2.51023  -0.63104  -0.48035  -1.37160
  12   30974.4    322.8   0.029732591   0.31601   0.23741   0.45477   0.22985
  13   31177.6    320.7   0.001063509   0.01123   0.00790   0.10180   0.02837
  14   31351.9    319.0   0.007097036   0.07452   0.15632  -0.03749  -0.22064
  15   32048.2    312.0   0.137662565   1.41413  -0.09449   1.14469   0.30805
  16   32265.4    309.9   0.051040441   0.52078   0.40705  -0.39481  -0.44634
  17   32805.4    304.8   0.035034243   0.35158  -0.05514  -0.30397  -0.50610
  18   33253.2    300.7   0.191818431   1.89903  -0.56044   1.19427  -0.39833
  19   34026.7    293.9   0.012957285   0.12536  -0.33473   0.11540   0.00174
  20   34134.1    293.0   0.015072115   0.14537   0.15037   0.32766   0.12406
  21   34368.1    291.0   0.008497041   0.08139  -0.19075   0.19893  -0.07371
  22   34910.4    286.4   0.000333155   0.00314  -0.01513   0.03553  -0.04062
  23   35225.7    283.9   0.091377578   0.85400   0.45867  -0.50153  -0.62616
  24   35586.6    281.0   0.031117530   0.28787   0.33441  -0.40994   0.08937
  25   35712.6    280.0   0.046007702   0.42412  -0.40860   0.22873  -0.45260
  26   35986.8    277.9   0.373867612   3.42019  -1.28727   0.85889  -1.01264
  27   36903.6    271.0   0.044975656   0.40122  -0.59646  -0.05895  -0.20491
  28   38074.3    262.6   0.125671539   1.08663   0.46829  -0.47937  -0.79846
  29   38174.5    262.0   0.033048875   0.28501   0.20916   0.43411   0.22981
  30   38513.9    259.6   0.071030788   0.60716   0.38830   0.43461   0.51720
  31   38962.7    256.7   0.046300701   0.39121  -0.28223  -0.32688  -0.45245
  32   39778.6    251.4   0.057005397   0.47178   0.10161  -0.57763  -0.35749
  33   40035.1    249.8   0.025379103   0.20869   0.38059   0.25178  -0.02132
  34   40087.5    249.5   0.049937962   0.41011  -0.62410   0.10768  -0.09493
  35   40176.2    248.9   0.022789378   0.18674   0.32142   0.11426   0.26529
  36   40257.7    248.4   0.061712907   0.50466   0.17012   0.66033   0.19921

FINAL SINGLE POINT ENERGY     -3746.777447265730

DIPOLE MOMENT
-------------
                                X             Y             Z
Electronic contribution:      9.58817     -10.76966      -8.07182
Nuclear contribution   :     -9.70974      11.79803       7.99390
                        -----------------------------------------
Total Dipole Moment    :     -0.12157       1.02837      -0.07791
                        -----------------------------------------
Magnitude (a.u.)       :      1.03846
Magnitude (Debye)      :      2.63955

Rotational constants in cm-1:     0.002657     0.000266     0.000246
Rotational constants in MHz :    79.653939     7.969470     7.360318

                             ****ORCA TERMINATED NORMALLY****
TOTAL RUN TIME: 0 days 0 hours 4 minutes 16 seconds 900 msec
