                         Program Version 4.2.0 -  RELEASE  -
|  1> # ORCA input file
|  2> # SCF done       -155.066538281081          0.000571187590
|  3> ! CAM-B3LYP def2-SVP def2/J RIJCOSX Grid4 TightSCF
|  4> %maxcore 5000
|  5> %tddft
|  6>     Mode sTDDFT
|  7>     Ethresh 5.0
|  8>     maxcore 5000
|  9> end
| 10>
| 11> %pal
| 12>   nprocs 6
| 13>   end
| 14> * xyz 0 1
| 15>    C       12.11030        -7.39499        -1.72191
| 16>    C       10.83118        -7.20380        -1.37589
| 17>    C       10.10727        -7.83055        -0.30507
| 18>    C        8.81876        -7.44440        -0.19919
| 19>    C        8.40995        -6.48453        -1.17091
| 20>    S        9.75317        -6.08672        -2.22847
| 21>    C        7.16817        -5.92712        -1.32021
| 22>    C        5.99982        -6.17418        -0.54930
| 23>    C        4.90907        -5.49169        -0.96579
| 24>    C        5.12471        -4.64496        -2.09941
| 25>    S        6.81145        -4.77611        -2.59786
| 26>    C        4.17596        -3.84008        -2.64427
| 27>    C        4.28038        -2.95187        -3.77739
| 28>    C        5.22704        -3.16761        -4.78327
| 29>    C        5.33980        -2.32635        -5.87527
| 30>    C        6.38933        -2.57831        -6.92559
| 31>    N        5.96719        -2.06723        -8.22069
| 32>    C        4.47859        -1.24160        -5.98270
| 33>    C        3.52267        -1.01991        -5.00824
| 34>    C        3.40366        -1.85537        -3.90966
| 35>    C        2.41305        -1.50982        -2.82479
| 36>    N        3.07858        -1.09008        -1.59758
| 37>    C        3.74603         0.10134        -1.55995
| 38>    S        5.17671         0.26666        -0.57450
| 39>    C        5.37462         1.96815        -0.94388
| 40>    C        4.36343         2.36654        -1.81494
| 41>    C        3.45938         1.30399        -2.14974
| 42>    S        2.16944         1.83240        -3.20697
| 43>    C        2.85388         3.43509        -3.17979
| 44>    N        2.19141         4.41842        -3.92194
| 45>    O        2.65272         5.54883        -3.91348
| 46>    O        1.19163         4.06774        -4.53176
| 47>    C        3.98237         3.58119        -2.42272
| 48>    C        6.46227         2.66143        -0.35423
| 49>    C        6.89194         3.89793        -0.68322
| 50>    C        8.01288         4.56696        -0.04774
| 51>    C        8.30977         4.33164         1.29564
| 52>    C        9.35287         4.97946         1.93353
| 53>    C        9.64399         4.70368         3.38580
| 54>    N        8.43556         4.31731         4.09811
| 55>    C       10.12655         5.88051         1.21275
| 56>    C        9.85844         6.11200        -0.12436
| 57>    C        8.81086         5.47345        -0.76823
| 58>    C        8.56773         5.72775        -2.23055
| 59>    N        8.61186         4.48718        -2.97668
| 60>    C        8.39753         4.36711        -4.30358
| 61>    C        8.29186         5.33832        -5.25088
| 62>    C        8.09260         5.08639        -6.63839
| 63>    C        8.03272         6.19532        -7.41445
| 64>    C        8.18444         7.41487        -6.70309
| 65>    S        8.39441         7.09036        -4.99524
| 66>    C        8.18825         8.69120        -7.20617
| 67>    C        8.04010         9.09105        -8.56127
| 68>    C        8.09016        10.42729        -8.76056
| 69>    C        8.28313        11.20053        -7.56798
| 70>    S        8.39830        10.10666        -6.18134
| 71>    C        8.36880        12.53380        -7.45820
| 72>    H       12.72999        -8.08476        -1.17662
| 73>    H       12.55675        -6.87256        -2.54789
| 74>    H       10.59067        -8.54628         0.33612
| 75>    H        8.13352        -7.81376         0.54326
| 76>    H        6.00858        -6.84917         0.28774
| 77>    H        3.93885        -5.55720        -0.50428
| 78>    H        3.21119        -3.87985        -2.15282
| 79>    H        5.87147        -4.03067        -4.72158
| 80>    H        6.63652        -3.65387        -6.93386
| 81>    H        7.30091        -2.03765        -6.64304
| 82>    H        5.13886        -2.56084        -8.53740
| 83>    H        6.69728        -2.20806        -8.90978
| 84>    H        4.56474        -0.58413        -6.83273
| 85>    H        2.85306        -0.17755        -5.10304
| 86>    H        1.77661        -2.36164        -2.57160
| 87>    H        1.76764        -0.69478        -3.15635
| 88>    H        3.58325        -1.84052        -1.14226
| 89>    H        4.47322         4.53029        -2.31885
| 90>    H        7.00565         2.09730         0.39288
| 91>    H        6.39959         4.43422        -1.47944
| 92>    H        7.69811         3.65555         1.87141
| 93>    H       10.15003         5.58267         3.82170
| 94>    H       10.34282         3.86020         3.44932
| 95>    H        7.76510         5.07927         4.08381
| 96>    H        8.64955         4.10783         5.06660
| 97>    H       10.94173         6.39965         1.69528
| 98>    H       10.47215         6.80775        -0.67763
| 99>    H        9.33339         6.40612        -2.61793
|100>    H        7.59479         6.22062        -2.37421
|101>    H        8.56192         3.64744        -2.42208
|102>    H        8.33382         3.34330        -4.65081
|103>    H        7.99829         4.08009        -7.00846
|104>    H        7.88330         6.18094        -8.47900
|105>    H        7.90039         8.36701        -9.34500
|106>    H        7.99686        10.91088        -9.71698
|107>    H        8.29105        13.16098        -8.32860
|108>    H        8.51199        13.01579        -6.50855
|109> *
|110>
|111>                          ****END OF INPUT****

CARTESIAN COORDINATES (ANGSTROEM)
---------------------------------
  C     12.110300   -7.394990   -1.721910
  C     10.831180   -7.203800   -1.375890
  C     10.107270   -7.830550   -0.305070
  C      8.818760   -7.444400   -0.199190
  C      8.409950   -6.484530   -1.170910
  S      9.753170   -6.086720   -2.228470
  C      7.168170   -5.927120   -1.320210
  C      5.999820   -6.174180   -0.549300
  C      4.909070   -5.491690   -0.965790
  C      5.124710   -4.644960   -2.099410
  S      6.811450   -4.776110   -2.597860
  C      4.175960   -3.840080   -2.644270
  C      4.280380   -2.951870   -3.777390
  C      5.227040   -3.167610   -4.783270
  C      5.339800   -2.326350   -5.875270
  C      6.389330   -2.578310   -6.925590
  N      5.967190   -2.067230   -8.220690
  C      4.478590   -1.241600   -5.982700
  C      3.522670   -1.019910   -5.008240
  C      3.403660   -1.855370   -3.909660
  C      2.413050   -1.509820   -2.824790
  N      3.078580   -1.090080   -1.597580
  C      3.746030    0.101340   -1.559950
  S      5.176710    0.266660   -0.574500
  C      5.374620    1.968150   -0.943880
  C      4.363430    2.366540   -1.814940
  C      3.459380    1.303990   -2.149740
  S      2.169440    1.832400   -3.206970
  C      2.853880    3.435090   -3.179790
  N      2.191410    4.418420   -3.921940
  O      2.652720    5.548830   -3.913480
  O      1.191630    4.067740   -4.531760
  C      3.982370    3.581190   -2.422720
  C      6.462270    2.661430   -0.354230
  C      6.891940    3.897930   -0.683220
  C      8.012880    4.566960   -0.047740
  C      8.309770    4.331640    1.295640
  C      9.352870    4.979460    1.933530
  C      9.643990    4.703680    3.385800
  N      8.435560    4.317310    4.098110
  C     10.126550    5.880510    1.212750
  C      9.858440    6.112000   -0.124360
  C      8.810860    5.473450   -0.768230
  C      8.567730    5.727750   -2.230550
  N      8.611860    4.487180   -2.976680
  C      8.397530    4.367110   -4.303580
  C      8.291860    5.338320   -5.250880
  C      8.092600    5.086390   -6.638390
  C      8.032720    6.195320   -7.414450
  C      8.184440    7.414870   -6.703090
  S      8.394410    7.090360   -4.995240
  C      8.188250    8.691200   -7.206170
  C      8.040100    9.091050   -8.561270
  C      8.090160   10.427290   -8.760560
  C      8.283130   11.200530   -7.567980
  S      8.398300   10.106660   -6.181340
  C      8.368800   12.533800   -7.458200
  H     12.729990   -8.084760   -1.176620
  H     12.556750   -6.872560   -2.547890
  H     10.590670   -8.546280    0.336120
  H      8.133520   -7.813760    0.543260
  H      6.008580   -6.849170    0.287740
  H      3.938850   -5.557200   -0.504280
  H      3.211190   -3.879850   -2.152820
  H      5.871470   -4.030670   -4.721580
  H      6.636520   -3.653870   -6.933860
  H      7.300910   -2.037650   -6.643040
  H      5.138860   -2.560840   -8.537400
  H      6.697280   -2.208060   -8.909780
  H      4.564740   -0.584130   -6.832730
  H      2.853060   -0.177550   -5.103040
  H      1.776610   -2.361640   -2.571600
  H      1.767640   -0.694780   -3.156350
  H      3.583250   -1.840520   -1.142260
  H      4.473220    4.530290   -2.318850
  H      7.005650    2.097300    0.392880
  H      6.399590    4.434220   -1.479440
  H      7.698110    3.655550    1.871410
  H     10.150030    5.582670    3.821700
  H     10.342820    3.860200    3.449320
  H      7.765100    5.079270    4.083810
  H      8.649550    4.107830    5.066600
  H     10.941730    6.399650    1.695280
  H     10.472150    6.807750   -0.677630
  H      9.333390    6.406120   -2.617930
  H      7.594790    6.220620   -2.374210
  H      8.561920    3.647440   -2.422080
  H      8.333820    3.343300   -4.650810
  H      7.998290    4.080090   -7.008460
  H      7.883300    6.180940   -8.479000
  H      7.900390    8.367010   -9.345000
  H      7.996860   10.910880   -9.716980
  H      8.291050   13.160980   -8.328600
  H      8.511990   13.015790   -6.508550

 Total Charge           Charge          ....    0
 Multiplicity           Mult            ....    1
 Number of Electrons    NEL             ....  448
 Basis Dimension        Dim             .... 1007

ORBITAL ENERGIES
----------------

  NO   OCC          E(Eh)            E(eV)
   0   2.0000     -88.964456     -2420.8459
   1   2.0000     -88.961166     -2420.7564
   2   2.0000     -88.947388     -2420.3815
   3   2.0000     -88.941868     -2420.2313
   4   2.0000     -88.917306     -2419.5629
   5   2.0000     -88.903787     -2419.1950
   6   2.0000     -19.234217      -523.3897
   7   2.0000     -19.232621      -523.3462
   8   2.0000     -14.642477      -398.4421
   9   2.0000     -14.437405      -392.8618
  10   2.0000     -14.427344      -392.5880
  11   2.0000     -14.385975      -391.4623
  12   2.0000     -14.384355      -391.4182
  13   2.0000     -10.345517      -281.5158
  14   2.0000     -10.341611      -281.4095
  15   2.0000     -10.314816      -280.6804
  16   2.0000     -10.314654      -280.6760
  17   2.0000     -10.313901      -280.6555
  18   2.0000     -10.311336      -280.5857
  19   2.0000     -10.310427      -280.5610
  20   2.0000     -10.308803      -280.5168
  21   2.0000     -10.303985      -280.3857
  22   2.0000     -10.303895      -280.3832
  23   2.0000     -10.301583      -280.3203
  24   2.0000     -10.296936      -280.1939
  25   2.0000     -10.293920      -280.1118
  26   2.0000     -10.292836      -280.0823
  27   2.0000     -10.292832      -280.0822
  28   2.0000     -10.291636      -280.0497
  29   2.0000     -10.290262      -280.0123
  30   2.0000     -10.289572      -279.9935
  31   2.0000     -10.289188      -279.9830
  32   2.0000     -10.284694      -279.8608
  33   2.0000     -10.283376      -279.8249
  34   2.0000     -10.281562      -279.7755
  35   2.0000     -10.280478      -279.7460
  36   2.0000     -10.275539      -279.6116
  37   2.0000     -10.274211      -279.5755
  38   2.0000     -10.274094      -279.5723
  39   2.0000     -10.273483      -279.5557
  40   2.0000     -10.273071      -279.5445
  41   2.0000     -10.273023      -279.5432
  42   2.0000     -10.271986      -279.5150
  43   2.0000     -10.268562      -279.4218
  44   2.0000     -10.268373      -279.4166
  45   2.0000     -10.268038      -279.4075
  46   2.0000     -10.265602      -279.3412
  47   2.0000     -10.264395      -279.3084
  48   2.0000     -10.263412      -279.2816
  49   2.0000     -10.263395      -279.2812
  50   2.0000     -10.263059      -279.2720
  51   2.0000     -10.258199      -279.1398
  52   2.0000     -10.258139      -279.1382
  53   2.0000     -10.257772      -279.1282
  54   2.0000     -10.253615      -279.0151
  55   2.0000     -10.248010      -278.8625
  56   2.0000     -10.232817      -278.4491
  57   2.0000      -8.060166      -219.3283
  58   2.0000      -8.055736      -219.2077
  59   2.0000      -8.043246      -218.8679
  60   2.0000      -8.038618      -218.7419
  61   2.0000      -8.012960      -218.0437
  62   2.0000      -8.000429      -217.7027
  63   2.0000      -6.029591      -164.0735
  64   2.0000      -6.025823      -163.9710
  65   2.0000      -6.025512      -163.9625
  66   2.0000      -6.021915      -163.8646
  67   2.0000      -6.021510      -163.8536
  68   2.0000      -6.016382      -163.7141
  69   2.0000      -6.013100      -163.6248
  70   2.0000      -6.009051      -163.5146
  71   2.0000      -6.008465      -163.4986
  72   2.0000      -6.004559      -163.3924
  73   2.0000      -6.003941      -163.3756
  74   2.0000      -5.999075      -163.2431
  75   2.0000      -5.982938      -162.8040
  76   2.0000      -5.978875      -162.6934
  77   2.0000      -5.973547      -162.5485
  78   2.0000      -5.970317      -162.4606
  79   2.0000      -5.966441      -162.3551
  80   2.0000      -5.960867      -162.2034
  81   2.0000      -1.310847       -35.6700
  82   2.0000      -1.130032       -30.7497
  83   2.0000      -1.051108       -28.6021
  84   2.0000      -1.028776       -27.9944
  85   2.0000      -1.002686       -27.2845
  86   2.0000      -0.995827       -27.0978
  87   2.0000      -0.974446       -26.5160
  88   2.0000      -0.972587       -26.4654
  89   2.0000      -0.970115       -26.3982
  90   2.0000      -0.959294       -26.1037
  91   2.0000      -0.958208       -26.0742
  92   2.0000      -0.946371       -25.7521
  93   2.0000      -0.942941       -25.6587
  94   2.0000      -0.934072       -25.4174
  95   2.0000      -0.895751       -24.3746
  96   2.0000      -0.893278       -24.3073
  97   2.0000      -0.875597       -23.8262
  98   2.0000      -0.869886       -23.6708
  99   2.0000      -0.866158       -23.5694
 100   2.0000      -0.859472       -23.3874
 101   2.0000      -0.850165       -23.1342
 102   2.0000      -0.848880       -23.0992
 103   2.0000      -0.845751       -23.0141
 104   2.0000      -0.827535       -22.5184
 105   2.0000      -0.825497       -22.4629
 106   2.0000      -0.819502       -22.2998
 107   2.0000      -0.815452       -22.1896
 108   2.0000      -0.812785       -22.1170
 109   2.0000      -0.797141       -21.6913
 110   2.0000      -0.793790       -21.6001
 111   2.0000      -0.783183       -21.3115
 112   2.0000      -0.779482       -21.2108
 113   2.0000      -0.777558       -21.1584
 114   2.0000      -0.758812       -20.6483
 115   2.0000      -0.742131       -20.1944
 116   2.0000      -0.730444       -19.8764
 117   2.0000      -0.729731       -19.8570
 118   2.0000      -0.721377       -19.6297
 119   2.0000      -0.711828       -19.3698
 120   2.0000      -0.692357       -18.8400
 121   2.0000      -0.686022       -18.6676
 122   2.0000      -0.683764       -18.6062
 123   2.0000      -0.676283       -18.4026
 124   2.0000      -0.656777       -17.8718
 125   2.0000      -0.656063       -17.8524
 126   2.0000      -0.652590       -17.7579
 127   2.0000      -0.647185       -17.6108
 128   2.0000      -0.636799       -17.3282
 129   2.0000      -0.635742       -17.2994
 130   2.0000      -0.624449       -16.9921
 131   2.0000      -0.623195       -16.9580
 132   2.0000      -0.618674       -16.8350
 133   2.0000      -0.617911       -16.8142
 134   2.0000      -0.613206       -16.6862
 135   2.0000      -0.607850       -16.5404
 136   2.0000      -0.602298       -16.3893
 137   2.0000      -0.599844       -16.3226
 138   2.0000      -0.591304       -16.0902
 139   2.0000      -0.589496       -16.0410
 140   2.0000      -0.586410       -15.9570
 141   2.0000      -0.580957       -15.8086
 142   2.0000      -0.578759       -15.7488
 143   2.0000      -0.578449       -15.7404
 144   2.0000      -0.573924       -15.6173
 145   2.0000      -0.565604       -15.3909
 146   2.0000      -0.565206       -15.3800
 147   2.0000      -0.559619       -15.2280
 148   2.0000      -0.553960       -15.0740
 149   2.0000      -0.550180       -14.9712
 150   2.0000      -0.547428       -14.8963
 151   2.0000      -0.541427       -14.7330
 152   2.0000      -0.537464       -14.6251
 153   2.0000      -0.532133       -14.4801
 154   2.0000      -0.526027       -14.3139
 155   2.0000      -0.521814       -14.1993
 156   2.0000      -0.517587       -14.0843
 157   2.0000      -0.516476       -14.0540
 158   2.0000      -0.511578       -13.9207
 159   2.0000      -0.506758       -13.7896
 160   2.0000      -0.505692       -13.7606
 161   2.0000      -0.502372       -13.6702
 162   2.0000      -0.498979       -13.5779
 163   2.0000      -0.495680       -13.4881
 164   2.0000      -0.493133       -13.4188
 165   2.0000      -0.491833       -13.3835
 166   2.0000      -0.489654       -13.3242
 167   2.0000      -0.489365       -13.3163
 168   2.0000      -0.485773       -13.2185
 169   2.0000      -0.484696       -13.1893
 170   2.0000      -0.483289       -13.1510
 171   2.0000      -0.480242       -13.0680
 172   2.0000      -0.472430       -12.8555
 173   2.0000      -0.470708       -12.8086
 174   2.0000      -0.468666       -12.7530
 175   2.0000      -0.463157       -12.6031
 176   2.0000      -0.462111       -12.5747
 177   2.0000      -0.460167       -12.5218
 178   2.0000      -0.458430       -12.4745
 179   2.0000      -0.457338       -12.4448
 180   2.0000      -0.451518       -12.2864
 181   2.0000      -0.448715       -12.2102
 182   2.0000      -0.444551       -12.0969
 183   2.0000      -0.438813       -11.9407
 184   2.0000      -0.438694       -11.9375
 185   2.0000      -0.434773       -11.8308
 186   2.0000      -0.432664       -11.7734
 187   2.0000      -0.431209       -11.7338
 188   2.0000      -0.427447       -11.6314
 189   2.0000      -0.426959       -11.6181
 190   2.0000      -0.420318       -11.4374
 191   2.0000      -0.418138       -11.3781
 192   2.0000      -0.412872       -11.2348
 193   2.0000      -0.411397       -11.1947
 194   2.0000      -0.407947       -11.1008
 195   2.0000      -0.403609       -10.9828
 196   2.0000      -0.399437       -10.8692
 197   2.0000      -0.395144       -10.7524
 198   2.0000      -0.393897       -10.7185
 199   2.0000      -0.391414       -10.6509
 200   2.0000      -0.389407       -10.5963
 201   2.0000      -0.378753       -10.3064
 202   2.0000      -0.371742       -10.1156
 203   2.0000      -0.366647        -9.9770
 204   2.0000      -0.359786        -9.7903
 205   2.0000      -0.358977        -9.7683
 206   2.0000      -0.350366        -9.5339
 207   2.0000      -0.342107        -9.3092
 208   2.0000      -0.337989        -9.1971
 209   2.0000      -0.333716        -9.0809
 210   2.0000      -0.326085        -8.8732
 211   2.0000      -0.317825        -8.6485
 212   2.0000      -0.317523        -8.6402
 213   2.0000      -0.314223        -8.5504
 214   2.0000      -0.309370        -8.4184
 215   2.0000      -0.306058        -8.3283
 216   2.0000      -0.303582        -8.2609
 217   2.0000      -0.298305        -8.1173
 218   2.0000      -0.297128        -8.0853
 219   2.0000      -0.294749        -8.0205
 220   2.0000      -0.267727        -7.2852
 221   2.0000      -0.230775        -6.2797
 222   2.0000      -0.227996        -6.2041
 223   2.0000      -0.183697        -4.9987
 224   0.0000      -0.067719        -1.8427
 225   0.0000      -0.065145        -1.7727
 226   0.0000      -0.017888        -0.4867
 227   0.0000      -0.007685        -0.2091
 228   0.0000       0.001464         0.0398

MULLIKEN ATOMIC CHARGES
-----------------------
   0 C :   -0.029637
   1 C :   -0.062954
   2 C :    0.054824
   3 C :    0.028842
   4 C :   -0.064547
   5 S :    0.078214
   6 C :   -0.057355
   7 C :    0.036468
   8 C :    0.025352
   9 C :   -0.006832
  10 S :    0.076236
  11 C :   -0.103984
  12 C :    0.117952
  13 C :   -0.095040
  14 C :   -0.073229
  15 C :    0.202054
  16 N :   -0.232531
  17 C :   -0.003206
  18 C :   -0.018742
  19 C :   -0.058482
  20 C :    0.190448
  21 N :   -0.129640
  22 C :   -0.145845
  23 S :    0.125665
  24 C :   -0.142281
  25 C :    0.117819
  26 C :   -0.030394
  27 S :    0.138209
  28 C :    0.004312
  29 N :    0.270317
  30 O :   -0.239815
  31 O :   -0.253957
  32 C :   -0.001094
  33 C :    0.075625
  34 C :   -0.096369
  35 C :    0.115798
  36 C :   -0.081594
  37 C :   -0.067029
  38 C :    0.202091
  39 N :   -0.231937
  40 C :   -0.013775
  41 C :   -0.016022
  42 C :   -0.079272
  43 C :    0.212316
  44 N :   -0.167001
  45 C :    0.030021
  46 C :   -0.080345
  47 C :    0.038949
  48 C :    0.010183
  49 C :   -0.029130
  50 S :    0.029612
  51 C :   -0.084293
  52 C :    0.030472
  53 C :    0.034855
  54 C :   -0.051709
  55 S :    0.045768
  56 C :   -0.053339
  57 H :    0.021711
  58 H :    0.023403
  59 H :   -0.009547
  60 H :   -0.010836
  61 H :   -0.012376
  62 H :   -0.014207
  63 H :   -0.019174
  64 H :   -0.026156
  65 H :   -0.007225
  66 H :    0.018024
  67 H :    0.095469
  68 H :    0.094916
  69 H :   -0.015241
  70 H :   -0.023420
  71 H :    0.026315
  72 H :    0.019095
  73 H :    0.117638
  74 H :    0.015199
  75 H :   -0.016115
  76 H :   -0.013559
  77 H :   -0.025802
  78 H :   -0.009709
  79 H :    0.018818
  80 H :    0.097466
  81 H :    0.094678
  82 H :   -0.031427
  83 H :   -0.023037
  84 H :    0.029130
  85 H :    0.037193
  86 H :    0.141374
  87 H :    0.001706
  88 H :   -0.022272
  89 H :   -0.025033
  90 H :   -0.022382
  91 H :   -0.027091
  92 H :    0.004725
  93 H :    0.006728
Sum of atomic charges:   -0.0000000

LOEWDIN ATOMIC CHARGES
----------------------
   0 C :   -0.073673
   1 C :   -0.139648
   2 C :   -0.027938
   3 C :   -0.027114
   4 C :   -0.173783
   5 S :    0.348389
   6 C :   -0.185078
   7 C :   -0.029702
   8 C :   -0.036869
   9 C :   -0.137617
  10 S :    0.373697
  11 C :   -0.073968
  12 C :   -0.031288
  13 C :   -0.030077
  14 C :   -0.030175
  15 C :    0.026661
  16 N :   -0.113223
  17 C :   -0.017093
  18 C :   -0.021780
  19 C :   -0.044819
  20 C :    0.041186
  21 N :   -0.036170
  22 C :   -0.133098
  23 S :    0.432762
  24 C :   -0.189056
  25 C :   -0.065274
  26 C :   -0.233651
  27 S :    0.417558
  28 C :   -0.175681
  29 N :    0.274680
  30 O :   -0.208496
  31 O :   -0.221426
  32 C :   -0.002968
  33 C :   -0.038986
  34 C :   -0.042607
  35 C :   -0.028070
  36 C :   -0.015644
  37 C :   -0.032270
  38 C :    0.026595
  39 N :   -0.113341
  40 C :   -0.028099
  41 C :   -0.017235
  42 C :   -0.036357
  43 C :    0.035385
  44 N :   -0.003006
  45 C :    0.012828
  46 C :   -0.225111
  47 C :   -0.023023
  48 C :   -0.063645
  49 C :   -0.168176
  50 S :    0.345625
  51 C :   -0.210143
  52 C :   -0.025061
  53 C :   -0.056755
  54 C :   -0.135083
  55 S :    0.323525
  56 C :   -0.112816
  57 H :    0.029411
  58 H :    0.027054
  59 H :    0.034241
  60 H :    0.032509
  61 H :    0.032082
  62 H :    0.031846
  63 H :    0.026424
  64 H :    0.009940
  65 H :    0.006931
  66 H :    0.031223
  67 H :    0.055692
  68 H :    0.056939
  69 H :    0.028885
  70 H :    0.018055
  71 H :    0.031513
  72 H :    0.022143
  73 H :    0.067311
  74 H :    0.043204
  75 H :    0.029390
  76 H :    0.024290
  77 H :    0.024338
  78 H :    0.006221
  79 H :    0.030653
  80 H :    0.056443
  81 H :    0.056863
  82 H :    0.024598
  83 H :    0.028650
  84 H :    0.023664
  85 H :    0.022433
  86 H :    0.078164
  87 H :    0.034052
  88 H :    0.028440
  89 H :    0.026906
  90 H :    0.028042
  91 H :    0.026754
  92 H :    0.021622
  93 H :    0.019274

  Mayer bond orders larger than 0.100000
B(  0-C ,  1-C ) :   1.8695 B(  0-C , 57-H ) :   0.9509 B(  0-C , 58-H ) :   0.9420
B(  1-C ,  2-C ) :   1.0762 B(  1-C ,  5-S ) :   1.0060 B(  2-C ,  3-C ) :   1.6713
B(  2-C , 59-H ) :   0.9932 B(  3-C ,  4-C ) :   1.1422 B(  3-C , 60-H ) :   0.9916
B(  4-C ,  5-S ) :   1.0419 B(  4-C ,  6-C ) :   1.5844 B(  6-C ,  7-C ) :   1.1497
B(  6-C , 10-S ) :   1.0241 B(  7-C ,  8-C ) :   1.6369 B(  7-C , 61-H ) :   0.9926
B(  8-C ,  9-C ) :   1.1034 B(  8-C , 62-H ) :   0.9977 B(  9-C , 10-S ) :   1.0282
B(  9-C , 11-C ) :   1.6685 B( 11-C , 12-C ) :   1.0488 B( 11-C , 63-H ) :   0.9451
B( 12-C , 13-C ) :   1.3471 B( 12-C , 19-C ) :   1.3451 B( 13-C , 14-C ) :   1.3962
B( 13-C , 64-H ) :   0.9743 B( 14-C , 15-C ) :   1.0146 B( 14-C , 17-C ) :   1.3965
B( 15-C , 16-N ) :   1.0890 B( 15-C , 65-H ) :   0.9398 B( 15-C , 66-H ) :   0.9191
B( 16-N , 67-H ) :   0.9725 B( 16-N , 68-H ) :   0.9677 B( 17-C , 18-C ) :   1.3494
B( 17-C , 69-H ) :   0.9933 B( 18-C , 19-C ) :   1.4044 B( 18-C , 70-H ) :   0.9857
B( 19-C , 20-C ) :   1.0403 B( 20-C , 21-N ) :   1.0412 B( 20-C , 71-H ) :   0.9172
B( 20-C , 72-H ) :   0.9308 B( 21-N , 22-C ) :   1.1917 B( 21-N , 73-H ) :   0.9170
B( 22-C , 23-S ) :   1.1401 B( 22-C , 26-C ) :   1.5146 B( 23-S , 24-C ) :   1.0915
B( 24-C , 25-C ) :   1.4015 B( 24-C , 33-C ) :   1.1466 B( 25-C , 26-C ) :   1.2368
B( 25-C , 32-C ) :   1.1359 B( 26-C , 27-S ) :   0.9773 B( 27-S , 28-C ) :   1.0786
B( 28-C , 29-N ) :   0.9554 B( 28-C , 32-C ) :   1.5679 B( 29-N , 30-O ) :   1.5314
B( 29-N , 31-O ) :   1.5167 B( 30-O , 31-O ) :   0.2716 B( 32-C , 74-H ) :   0.9935
B( 33-C , 34-C ) :   1.6991 B( 33-C , 75-H ) :   0.9524 B( 34-C , 35-C ) :   1.0548
B( 34-C , 76-H ) :   0.9569 B( 35-C , 36-C ) :   1.3204 B( 35-C , 42-C ) :   1.3570
B( 36-C , 37-C ) :   1.3910 B( 36-C , 77-H ) :   0.9943 B( 37-C , 38-C ) :   1.0157
B( 37-C , 40-C ) :   1.3816 B( 38-C , 39-N ) :   1.0868 B( 38-C , 78-H ) :   0.9392
B( 38-C , 79-H ) :   0.9203 B( 39-N , 80-H ) :   0.9715 B( 39-N , 81-H ) :   0.9674
B( 40-C , 41-C ) :   1.3713 B( 40-C , 82-H ) :   0.9947 B( 41-C , 42-C ) :   1.4204
B( 41-C , 83-H ) :   0.9900 B( 42-C , 43-C ) :   1.0314 B( 43-C , 44-N ) :   0.9783
B( 43-C , 84-H ) :   0.9210 B( 43-C , 85-H ) :   0.9189 B( 44-N , 45-C ) :   1.2373
B( 44-N , 86-H ) :   0.9257 B( 45-C , 46-C ) :   1.6218 B( 45-C , 87-H ) :   0.9546
B( 46-C , 47-C ) :   1.1404 B( 46-C , 50-S ) :   0.9795 B( 47-C , 48-C ) :   1.6277
B( 47-C , 88-H ) :   0.9949 B( 48-C , 49-C ) :   1.1646 B( 48-C , 89-H ) :   0.9916
B( 49-C , 50-S ) :   1.0388 B( 49-C , 51-C ) :   1.5665 B( 51-C , 52-C ) :   1.1635
B( 51-C , 55-S ) :   1.0142 B( 52-C , 53-C ) :   1.6517 B( 52-C , 90-H ) :   0.9900
B( 53-C , 54-C ) :   1.0848 B( 53-C , 91-H ) :   0.9926 B( 54-C , 55-S ) :   1.0141
B( 54-C , 56-C ) :   1.8569 B( 56-C , 92-H ) :   0.9498 B( 56-C , 93-H ) :   0.9414

-----------------------------------------------------------------------------
         ABSORPTION SPECTRUM VIA TRANSITION ELECTRIC DIPOLE MOMENTS
-----------------------------------------------------------------------------
State   Energy  Wavelength   fosc         T2         TX        TY        TZ
        (cm-1)    (nm)                  (au**2)     (au)      (au)      (au)
-----------------------------------------------------------------------------
   0   11600.1    862.1   0.015084007   0.42808   0.35303   0.47875  -0.27250
   1   17738.4    563.7   0.248618869   4.61418  -1.53522  -1.28420  -0.77982
   2   17910.4    558.3   0.001328624   0.02442  -0.13237  -0.03505  -0.07530
   3   21621.5    462.5   1.591249356  24.22853   3.45215  -3.08031   1.68015
   4   22209.8    450.3   0.692024830  10.25776   0.71761   2.63119  -1.67918
   5   22568.9    443.1   0.008113165   0.11835   0.32933  -0.08286   0.05495
   6   23231.0    430.5   0.000987660   0.01400   0.05957  -0.10191   0.00785
   7   24472.2    408.6   0.249425213   3.35538  -0.18363   1.62506  -0.82514
   8   30097.1    332.3   0.004193736   0.04587   0.02638   0.17404   0.12201
   9   30682.6    325.9   0.687160642   7.37296  -2.03009  -1.57895  -0.87099
  10   31488.5    317.6   0.004864216   0.05086  -0.01893   0.20154  -0.09939
  11   32110.5    311.4   0.002527906   0.02592  -0.11450   0.02533  -0.11029
  12   32170.3    310.8   0.000017493   0.00018   0.00614   0.00453  -0.01099
  13   32530.1    307.4   0.000447635   0.00453   0.04572  -0.00917   0.04854
  14   32928.1    303.7   0.001085805   0.01086   0.08968   0.02426   0.04716
  15   33294.2    300.4   0.173707669   1.71761   1.03752  -0.42179   0.68062
  16   33631.3    297.3   0.018417528   0.18029  -0.31913   0.17707  -0.21699
  17   33966.8    294.4   0.053153639   0.51517  -0.37891  -0.51450  -0.32693
  18   34141.4    292.9   0.038578835   0.37200  -0.33134  -0.27695   0.43071
  19   34384.7    290.8   0.008714442   0.08344  -0.09504   0.25779  -0.08914
  20   34884.1    286.7   0.078731649   0.74301  -0.40087  -0.30541   0.69932
  21   35386.6    282.6   0.257714049   2.39759   0.37449  -1.28562   0.77752
  22   35493.4    281.7   0.002664700   0.02472   0.07507  -0.06241   0.12323
  23   35677.2    280.3   0.029465561   0.27189  -0.21825   0.47259   0.03040
  24   35788.3    279.4   0.028735473   0.26433   0.13433   0.47061  -0.15753
  25   36159.1    276.6   0.140919393   1.28301  -0.22544   1.08945  -0.21281
  26   36376.3    274.9   0.018438245   0.16687   0.15021  -0.36337   0.11077
  27   36386.2    274.8   0.005290523   0.04787   0.06395  -0.20590   0.03719
  28   36436.0    274.5   0.000652892   0.00590  -0.07609   0.00484   0.00927
  29   36791.1    271.8   0.000936033   0.00838  -0.00444   0.01667   0.08988
  30   36859.2    271.3   0.001952298   0.01744   0.06354  -0.10212  -0.05451
  31   37253.3    268.4   0.141173212   1.24757  -0.26047  -0.69981   0.83065
  32   37646.2    265.6   0.150507555   1.31617   0.23338   0.23336   1.09875
  33   37706.5    265.2   0.016821369   0.14687  -0.03934  -0.00139  -0.38120
  34   37914.9    263.7   0.027311840   0.23715   0.01463  -0.45463   0.17391
  35   38269.3    261.3   0.002781379   0.02393   0.07394   0.08571  -0.10542
  36   38769.9    257.9   0.018604131   0.15798   0.15101   0.13635  -0.34144
  37   39185.9    255.2   0.008849961   0.07435   0.16985  -0.00792  -0.21317
  38   39287.1    254.5   0.018499375   0.15502   0.33804   0.10972   0.16944
  39   39513.2    253.1   0.002603767   0.02169   0.05621   0.05318   0.12532
  40   40072.6    249.5   0.000698508   0.00574  -0.06152  -0.01943   0.03971
  41   40090.6    249.4   0.001909936   0.01568   0.05178  -0.10642   0.04096
  42   40185.8    248.8   0.014578148   0.11943   0.06722   0.07203  -0.33124

FINAL SINGLE POINT ENERGY     -4508.662270978858

DIPOLE MOMENT
-------------
                                X             Y             Z
Electronic contribution:    -21.81410      -0.58166      -4.03285
Nuclear contribution   :     23.10486      -4.30608       6.58210
                        -----------------------------------------
Total Dipole Moment    :      1.29075      -4.88774       2.54925
                        -----------------------------------------
Magnitude (a.u.)       :      5.66169
Magnitude (Debye)      :     14.39086

Rotational constants in cm-1:     0.001410     0.000543     0.000508
Rotational constants in MHz :    42.259380    16.264909    15.224131

                             ****ORCA TERMINATED NORMALLY****
TOTAL RUN TIME: 0 days 0 hours 7 minutes 34 seconds 855 msec
