                         Program Version 4.2.0 -  RELEASE  -
|  1> # ORCA input file
|  2> # SCF done       -179.353235876674          0.000797793635
|  3> ! CAM-B3LYP def2-SVP def2/J RIJCOSX Grid4 TightSCF
|  4> %maxcore 5000
|  5> %tddft
|  6>     Mode sTDDFT
|  7>     Ethresh 5.0
|  8>     maxcore 5000
|  9> end
| 10>
| 11> %pal
| 12>   nprocs 6
| 13>   end
| 14> * xyz 0 1
| 15>    C        0.87308        -2.06005        -3.36076
| 16>    C       -0.44905        -2.23329        -3.05862
| 17>    F       -1.33902        -2.41115        -4.05428
| 18>    C       -0.92541        -2.23317        -1.74148
| 19>    C       -0.03661        -2.05331        -0.71763
| 20>    C        1.33698        -1.86852        -0.97205
| 21>    C        1.80109        -1.86971        -2.31904
| 22>    C        3.17416        -1.67248        -2.60080
| 23>    C        4.04990        -1.48146        -1.56757
| 24>    C        3.58232        -1.49985        -0.22213
| 25>    C        2.26472        -1.68231         0.07862
| 26>    C        4.72788        -1.30495         0.68841
| 27>    O        4.70935        -1.22451         1.89834
| 28>    C        5.92590        -1.27306        -0.18485
| 29>    C        5.48830        -1.21656        -1.55306
| 30>    C        6.21424        -0.76969        -2.63545
| 31>    C        7.51369        -0.24132        -2.55138
| 32>    N        8.55226         0.25120        -2.53318
| 33>    C        5.70380        -0.68552        -3.94440
| 34>    N        5.35157        -0.61190        -5.03554
| 35>    C        7.16912        -1.30157         0.40042
| 36>    C        8.41730        -1.62694        -0.14247
| 37>    S        9.84527        -0.99173         0.62280
| 38>    C       10.90798        -1.66405        -0.56074
| 39>    C       10.18206        -2.43418        -1.49023
| 40>    C        8.77642        -2.42687        -1.24640
| 41>    C        7.92837        -3.22895        -2.02799
| 42>    C        8.46327        -3.94763        -3.06223
| 43>    F        7.66705        -4.72394        -3.81364
| 44>    C        9.84291        -3.90130        -3.34556
| 45>    F       10.32436        -4.61631        -4.37635
| 46>    C       10.69903        -3.17159        -2.56864
| 47>    C       12.29832        -1.40318        -0.56521
| 48>    C       12.92381        -0.65863         0.37963
| 49>    C       14.30315        -0.28338         0.44860
| 50>    C       15.21800        -0.20678        -0.53589
| 51>    C       14.96945        -0.51077        -1.97911
| 52>    C       16.60199         0.29678        -0.22721
| 53>    N       17.60450        -0.61677        -0.72658
| 54>    C       18.87314        -0.27204        -1.03880
| 55>    C       19.38345         0.98874        -1.04879
| 56>    C       20.70954         1.28416        -1.41251
| 57>    C       21.21973         2.55605        -1.46078
| 58>    C       22.53845         2.95089        -1.78746
| 59>    C       22.74369         4.29794        -1.76296
| 60>    C       21.59711         5.04928        -1.42334
| 61>    S       20.24540         3.98581        -1.11724
| 62>    C       21.45932         6.42228        -1.33876
| 63>    C       22.44629         7.40971        -1.54040
| 64>    C       21.97267         8.67655        -1.40219
| 65>    C       20.58524         8.77044        -1.09259
| 66>    S       19.91450         7.15840        -0.94965
| 67>    C       19.94768         9.97848        -0.98188
| 68>    C       18.59486        10.33234        -0.72979
| 69>    C       18.22770        11.69340        -0.79565
| 70>    O       19.24018        12.54462        -1.12610
| 71>    C       19.23955        13.89383        -0.70971
| 72>    C       16.88016        12.11627        -0.59444
| 73>    O       16.63327        13.44873        -0.77026
| 74>    C       15.31604        13.91748        -0.61431
| 75>    C       15.89091        11.21694        -0.26488
| 76>    C       16.22172         9.86227        -0.15792
| 77>    C       17.56437         9.41003        -0.40359
| 78>    N       17.67133         8.09810        -0.25928
| 79>    S       16.23119         7.48393         0.14062
| 80>    N       15.39727         8.86368         0.15324
| 81>    H        1.20404        -2.06281        -4.38755
| 82>    H       -1.97972        -2.37435        -1.56358
| 83>    H       -0.37929        -2.04990         0.30631
| 84>    H        3.49768        -1.68393        -3.62947
| 85>    H        1.93104        -1.68222         1.10552
| 86>    H        7.16406        -1.05355         1.45845
| 87>    H        6.87673        -3.31384        -1.81073
| 88>    H       11.75329        -3.18271        -2.79043
| 89>    H       12.85488        -1.85497        -1.36932
| 90>    H       12.31767        -0.30563         1.20608
| 91>    H       14.61900         0.03977         1.43395
| 92>    H       15.02606        -1.58255        -2.17274
| 93>    H       15.71765        -0.02254        -2.59968
| 94>    H       13.98148        -0.16496        -2.27731
| 95>    H       16.72544         0.45437         0.85308
| 96>    H       16.74308         1.26143        -0.72569
| 97>    H       17.38899        -1.59600        -0.63379
| 98>    H       19.50377        -1.10145        -1.33108
| 99>    H       18.76909         1.83025        -0.76485
|100>    H       21.37213         0.46679        -1.66540
|101>    H       23.29502         2.22512        -2.03031
|102>    H       23.68334         4.77098        -1.98592
|103>    H       23.46669         7.16664        -1.77915
|104>    H       22.57112         9.56283        -1.52275
|105>    H       20.59064        10.83416        -1.14455
|106>    H       20.28171        14.21037        -0.77187
|107>    H       18.88971        13.99995         0.31889
|108>    H       18.63155        14.51928        -1.36582
|109>    H       15.36442        14.98702        -0.81358
|110>    H       14.94862        13.75468         0.40352
|111>    H       14.63480        13.44544        -1.32850
|112>    H       14.86943        11.51149        -0.10264
|113> *
|114>
|115>                          ****END OF INPUT****

CARTESIAN COORDINATES (ANGSTROEM)
---------------------------------
  C      0.873080   -2.060050   -3.360760
  C     -0.449050   -2.233290   -3.058620
  F     -1.339020   -2.411150   -4.054280
  C     -0.925410   -2.233170   -1.741480
  C     -0.036610   -2.053310   -0.717630
  C      1.336980   -1.868520   -0.972050
  C      1.801090   -1.869710   -2.319040
  C      3.174160   -1.672480   -2.600800
  C      4.049900   -1.481460   -1.567570
  C      3.582320   -1.499850   -0.222130
  C      2.264720   -1.682310    0.078620
  C      4.727880   -1.304950    0.688410
  O      4.709350   -1.224510    1.898340
  C      5.925900   -1.273060   -0.184850
  C      5.488300   -1.216560   -1.553060
  C      6.214240   -0.769690   -2.635450
  C      7.513690   -0.241320   -2.551380
  N      8.552260    0.251200   -2.533180
  C      5.703800   -0.685520   -3.944400
  N      5.351570   -0.611900   -5.035540
  C      7.169120   -1.301570    0.400420
  C      8.417300   -1.626940   -0.142470
  S      9.845270   -0.991730    0.622800
  C     10.907980   -1.664050   -0.560740
  C     10.182060   -2.434180   -1.490230
  C      8.776420   -2.426870   -1.246400
  C      7.928370   -3.228950   -2.027990
  C      8.463270   -3.947630   -3.062230
  F      7.667050   -4.723940   -3.813640
  C      9.842910   -3.901300   -3.345560
  F     10.324360   -4.616310   -4.376350
  C     10.699030   -3.171590   -2.568640
  C     12.298320   -1.403180   -0.565210
  C     12.923810   -0.658630    0.379630
  C     14.303150   -0.283380    0.448600
  C     15.218000   -0.206780   -0.535890
  C     14.969450   -0.510770   -1.979110
  C     16.601990    0.296780   -0.227210
  N     17.604500   -0.616770   -0.726580
  C     18.873140   -0.272040   -1.038800
  C     19.383450    0.988740   -1.048790
  C     20.709540    1.284160   -1.412510
  C     21.219730    2.556050   -1.460780
  C     22.538450    2.950890   -1.787460
  C     22.743690    4.297940   -1.762960
  C     21.597110    5.049280   -1.423340
  S     20.245400    3.985810   -1.117240
  C     21.459320    6.422280   -1.338760
  C     22.446290    7.409710   -1.540400
  C     21.972670    8.676550   -1.402190
  C     20.585240    8.770440   -1.092590
  S     19.914500    7.158400   -0.949650
  C     19.947680    9.978480   -0.981880
  C     18.594860   10.332340   -0.729790
  C     18.227700   11.693400   -0.795650
  O     19.240180   12.544620   -1.126100
  C     19.239550   13.893830   -0.709710
  C     16.880160   12.116270   -0.594440
  O     16.633270   13.448730   -0.770260
  C     15.316040   13.917480   -0.614310
  C     15.890910   11.216940   -0.264880
  C     16.221720    9.862270   -0.157920
  C     17.564370    9.410030   -0.403590
  N     17.671330    8.098100   -0.259280
  S     16.231190    7.483930    0.140620
  N     15.397270    8.863680    0.153240
  H      1.204040   -2.062810   -4.387550
  H     -1.979720   -2.374350   -1.563580
  H     -0.379290   -2.049900    0.306310
  H      3.497680   -1.683930   -3.629470
  H      1.931040   -1.682220    1.105520
  H      7.164060   -1.053550    1.458450
  H      6.876730   -3.313840   -1.810730
  H     11.753290   -3.182710   -2.790430
  H     12.854880   -1.854970   -1.369320
  H     12.317670   -0.305630    1.206080
  H     14.619000    0.039770    1.433950
  H     15.026060   -1.582550   -2.172740
  H     15.717650   -0.022540   -2.599680
  H     13.981480   -0.164960   -2.277310
  H     16.725440    0.454370    0.853080
  H     16.743080    1.261430   -0.725690
  H     17.388990   -1.596000   -0.633790
  H     19.503770   -1.101450   -1.331080
  H     18.769090    1.830250   -0.764850
  H     21.372130    0.466790   -1.665400
  H     23.295020    2.225120   -2.030310
  H     23.683340    4.770980   -1.985920
  H     23.466690    7.166640   -1.779150
  H     22.571120    9.562830   -1.522750
  H     20.590640   10.834160   -1.144550
  H     20.281710   14.210370   -0.771870
  H     18.889710   13.999950    0.318890
  H     18.631550   14.519280   -1.365820
  H     15.364420   14.987020   -0.813580
  H     14.948620   13.754680    0.403520
  H     14.634800   13.445440   -1.328500
  H     14.869430   11.511490   -0.102640

 Total Charge           Charge          ....    0
 Multiplicity           Mult            ....    1
 Number of Electrons    NEL             ....  488
 Basis Dimension        Dim             .... 1100

ORBITAL ENERGIES
----------------

  NO   OCC          E(Eh)            E(eV)
   0   2.0000     -88.994434     -2421.6617
   1   2.0000     -88.984097     -2421.3804
   2   2.0000     -88.919178     -2419.6138
   3   2.0000     -88.911884     -2419.4154
   4   2.0000     -24.798325      -674.7967
   5   2.0000     -24.795049      -674.7076
   6   2.0000     -24.780910      -674.3228
   7   2.0000     -19.248142      -523.7686
   8   2.0000     -19.232236      -523.3357
   9   2.0000     -19.207028      -522.6498
  10   2.0000     -14.441008      -392.9598
  11   2.0000     -14.413270      -392.2050
  12   2.0000     -14.409306      -392.0972
  13   2.0000     -14.408881      -392.0856
  14   2.0000     -14.408208      -392.0673
  15   2.0000     -10.383996      -282.5629
  16   2.0000     -10.378762      -282.4205
  17   2.0000     -10.364498      -282.0323
  18   2.0000     -10.358364      -281.8654
  19   2.0000     -10.337143      -281.2880
  20   2.0000     -10.336830      -281.2795
  21   2.0000     -10.334675      -281.2208
  22   2.0000     -10.333668      -281.1934
  23   2.0000     -10.326284      -280.9925
  24   2.0000     -10.323544      -280.9179
  25   2.0000     -10.320927      -280.8467
  26   2.0000     -10.318658      -280.7850
  27   2.0000     -10.318510      -280.7809
  28   2.0000     -10.314675      -280.6766
  29   2.0000     -10.311792      -280.5981
  30   2.0000     -10.311628      -280.5937
  31   2.0000     -10.311274      -280.5840
  32   2.0000     -10.307886      -280.4918
  33   2.0000     -10.305907      -280.4380
  34   2.0000     -10.305688      -280.4320
  35   2.0000     -10.303937      -280.3844
  36   2.0000     -10.303536      -280.3735
  37   2.0000     -10.302515      -280.3457
  38   2.0000     -10.300545      -280.2921
  39   2.0000     -10.300400      -280.2881
  40   2.0000     -10.299875      -280.2738
  41   2.0000     -10.299237      -280.2565
  42   2.0000     -10.298262      -280.2299
  43   2.0000     -10.295494      -280.1546
  44   2.0000     -10.294175      -280.1187
  45   2.0000     -10.292878      -280.0835
  46   2.0000     -10.291774      -280.0534
  47   2.0000     -10.291035      -280.0333
  48   2.0000     -10.289612      -279.9946
  49   2.0000     -10.286840      -279.9191
  50   2.0000     -10.286186      -279.9014
  51   2.0000     -10.284088      -279.8443
  52   2.0000     -10.283778      -279.8358
  53   2.0000     -10.283516      -279.8287
  54   2.0000     -10.280947      -279.7588
  55   2.0000     -10.278327      -279.6875
  56   2.0000     -10.272649      -279.5330
  57   2.0000     -10.269985      -279.4605
  58   2.0000     -10.266705      -279.3712
  59   2.0000     -10.265015      -279.3253
  60   2.0000     -10.262822      -279.2656
  61   2.0000     -10.260657      -279.2067
  62   2.0000     -10.259532      -279.1761
  63   2.0000     -10.255382      -279.0631
  64   2.0000     -10.251859      -278.9673
  65   2.0000     -10.249235      -278.8959
  66   2.0000      -8.086409      -220.0424
  67   2.0000      -8.079318      -219.8494
  68   2.0000      -8.015474      -218.1121
  69   2.0000      -8.006540      -217.8690
  70   2.0000      -6.057821      -164.8417
  71   2.0000      -6.050207      -164.6345
  72   2.0000      -6.048281      -164.5821
  73   2.0000      -6.048274      -164.5819
  74   2.0000      -6.044241      -164.4722
  75   2.0000      -6.042012      -164.4115
  76   2.0000      -5.985220      -162.8661
  77   2.0000      -5.981277      -162.7588
  78   2.0000      -5.976476      -162.6282
  79   2.0000      -5.976320      -162.6239
  80   2.0000      -5.972148      -162.5104
  81   2.0000      -5.967320      -162.3790
  82   2.0000      -1.318653       -35.8824
  83   2.0000      -1.303432       -35.4682
  84   2.0000      -1.295168       -35.2433
  85   2.0000      -1.156392       -31.4670
  86   2.0000      -1.128751       -30.7149
  87   2.0000      -1.121331       -30.5130
  88   2.0000      -1.096866       -29.8472
  89   2.0000      -1.040062       -28.3015
  90   2.0000      -1.023017       -27.8377
  91   2.0000      -1.010215       -27.4893
  92   2.0000      -0.994598       -27.0644
  93   2.0000      -0.986676       -26.8488
  94   2.0000      -0.970840       -26.4179
  95   2.0000      -0.967832       -26.3360
  96   2.0000      -0.959676       -26.1141
  97   2.0000      -0.955276       -25.9944
  98   2.0000      -0.943682       -25.6789
  99   2.0000      -0.939555       -25.5666
 100   2.0000      -0.933076       -25.3903
 101   2.0000      -0.924621       -25.1602
 102   2.0000      -0.912208       -24.8224
 103   2.0000      -0.892241       -24.2791
 104   2.0000      -0.884765       -24.0757
 105   2.0000      -0.880507       -23.9598
 106   2.0000      -0.874508       -23.7966
 107   2.0000      -0.862879       -23.4801
 108   2.0000      -0.861901       -23.4535
 109   2.0000      -0.849082       -23.1047
 110   2.0000      -0.844825       -22.9889
 111   2.0000      -0.836263       -22.7559
 112   2.0000      -0.830135       -22.5891
 113   2.0000      -0.825848       -22.4725
 114   2.0000      -0.816186       -22.2096
 115   2.0000      -0.810506       -22.0550
 116   2.0000      -0.804161       -21.8823
 117   2.0000      -0.795073       -21.6350
 118   2.0000      -0.792857       -21.5747
 119   2.0000      -0.788242       -21.4492
 120   2.0000      -0.771871       -21.0037
 121   2.0000      -0.767596       -20.8874
 122   2.0000      -0.755095       -20.5472
 123   2.0000      -0.749279       -20.3889
 124   2.0000      -0.746256       -20.3067
 125   2.0000      -0.730542       -19.8791
 126   2.0000      -0.717675       -19.5289
 127   2.0000      -0.712666       -19.3926
 128   2.0000      -0.705723       -19.2037
 129   2.0000      -0.703303       -19.1378
 130   2.0000      -0.689282       -18.7563
 131   2.0000      -0.677261       -18.4292
 132   2.0000      -0.675866       -18.3912
 133   2.0000      -0.674538       -18.3551
 134   2.0000      -0.671258       -18.2659
 135   2.0000      -0.670755       -18.2522
 136   2.0000      -0.649317       -17.6688
 137   2.0000      -0.645570       -17.5668
 138   2.0000      -0.642545       -17.4845
 139   2.0000      -0.639383       -17.3985
 140   2.0000      -0.630648       -17.1608
 141   2.0000      -0.628201       -17.0942
 142   2.0000      -0.623632       -16.9699
 143   2.0000      -0.621626       -16.9153
 144   2.0000      -0.615411       -16.7462
 145   2.0000      -0.612561       -16.6686
 146   2.0000      -0.605445       -16.4750
 147   2.0000      -0.602485       -16.3944
 148   2.0000      -0.600351       -16.3364
 149   2.0000      -0.594681       -16.1821
 150   2.0000      -0.593054       -16.1378
 151   2.0000      -0.590578       -16.0705
 152   2.0000      -0.586159       -15.9502
 153   2.0000      -0.584142       -15.8953
 154   2.0000      -0.579880       -15.7793
 155   2.0000      -0.570838       -15.5333
 156   2.0000      -0.568403       -15.4670
 157   2.0000      -0.563282       -15.3277
 158   2.0000      -0.560240       -15.2449
 159   2.0000      -0.559864       -15.2347
 160   2.0000      -0.556631       -15.1467
 161   2.0000      -0.553660       -15.0659
 162   2.0000      -0.552624       -15.0377
 163   2.0000      -0.551534       -15.0080
 164   2.0000      -0.545200       -14.8356
 165   2.0000      -0.542891       -14.7728
 166   2.0000      -0.536226       -14.5914
 167   2.0000      -0.534287       -14.5387
 168   2.0000      -0.531617       -14.4660
 169   2.0000      -0.529265       -14.4020
 170   2.0000      -0.526868       -14.3368
 171   2.0000      -0.525757       -14.3066
 172   2.0000      -0.522597       -14.2206
 173   2.0000      -0.519939       -14.1483
 174   2.0000      -0.518438       -14.1074
 175   2.0000      -0.517614       -14.0850
 176   2.0000      -0.514756       -14.0072
 177   2.0000      -0.513103       -13.9622
 178   2.0000      -0.508018       -13.8239
 179   2.0000      -0.506343       -13.7783
 180   2.0000      -0.504239       -13.7210
 181   2.0000      -0.500399       -13.6166
 182   2.0000      -0.495039       -13.4707
 183   2.0000      -0.489344       -13.3157
 184   2.0000      -0.488894       -13.3035
 185   2.0000      -0.487940       -13.2775
 186   2.0000      -0.487387       -13.2625
 187   2.0000      -0.484014       -13.1707
 188   2.0000      -0.481283       -13.0964
 189   2.0000      -0.476782       -12.9739
 190   2.0000      -0.472915       -12.8687
 191   2.0000      -0.472273       -12.8512
 192   2.0000      -0.470443       -12.8014
 193   2.0000      -0.462911       -12.5964
 194   2.0000      -0.459743       -12.5103
 195   2.0000      -0.458677       -12.4812
 196   2.0000      -0.455997       -12.4083
 197   2.0000      -0.453034       -12.3277
 198   2.0000      -0.451982       -12.2991
 199   2.0000      -0.451144       -12.2762
 200   2.0000      -0.447934       -12.1889
 201   2.0000      -0.445927       -12.1343
 202   2.0000      -0.443577       -12.0703
 203   2.0000      -0.441391       -12.0109
 204   2.0000      -0.440508       -11.9868
 205   2.0000      -0.438202       -11.9241
 206   2.0000      -0.436926       -11.8894
 207   2.0000      -0.435807       -11.8589
 208   2.0000      -0.432988       -11.7822
 209   2.0000      -0.431075       -11.7301
 210   2.0000      -0.426973       -11.6185
 211   2.0000      -0.423792       -11.5320
 212   2.0000      -0.422405       -11.4942
 213   2.0000      -0.419093       -11.4041
 214   2.0000      -0.417197       -11.3525
 215   2.0000      -0.414349       -11.2750
 216   2.0000      -0.411861       -11.2073
 217   2.0000      -0.411431       -11.1956
 218   2.0000      -0.401812       -10.9339
 219   2.0000      -0.400482       -10.8977
 220   2.0000      -0.390660       -10.6304
 221   2.0000      -0.389698       -10.6042
 222   2.0000      -0.382519       -10.4089
 223   2.0000      -0.378044       -10.2871
 224   2.0000      -0.376827       -10.2540
 225   2.0000      -0.372867       -10.1462
 226   2.0000      -0.368848       -10.0369
 227   2.0000      -0.364681        -9.9235
 228   2.0000      -0.360813        -9.8182
 229   2.0000      -0.339589        -9.2407
 230   2.0000      -0.330924        -9.0049
 231   2.0000      -0.329486        -8.9658
 232   2.0000      -0.325336        -8.8529
 233   2.0000      -0.322100        -8.7648
 234   2.0000      -0.317787        -8.6474
 235   2.0000      -0.311627        -8.4798
 236   2.0000      -0.306338        -8.3359
 237   2.0000      -0.296553        -8.0696
 238   2.0000      -0.292551        -7.9607
 239   2.0000      -0.287705        -7.8289
 240   2.0000      -0.278524        -7.5790
 241   2.0000      -0.254835        -6.9344
 242   2.0000      -0.244736        -6.6596
 243   2.0000      -0.180281        -4.9057
 244   0.0000      -0.104473        -2.8429
 245   0.0000      -0.059340        -1.6147
 246   0.0000      -0.055245        -1.5033
 247   0.0000      -0.042308        -1.1513
 248   0.0000      -0.016678        -0.4538

MULLIKEN ATOMIC CHARGES
-----------------------
   0 C :   -0.096997
   1 C :    0.301586
   2 F :   -0.193248
   3 C :   -0.029827
   4 C :   -0.009819
   5 C :    0.098610
   6 C :    0.101571
   7 C :   -0.092658
   8 C :    0.043323
   9 C :    0.017026
  10 C :   -0.084272
  11 C :    0.133896
  12 O :   -0.153631
  13 C :   -0.153135
  14 C :    0.256923
  15 C :   -0.350116
  16 C :   -0.191139
  17 N :    0.159635
  18 C :   -0.180538
  19 N :    0.148465
  20 C :    0.064516
  21 C :   -0.153676
  22 S :    0.183208
  23 C :   -0.060705
  24 C :    0.128749
  25 C :    0.122020
  26 C :   -0.084813
  27 C :    0.223882
  28 F :   -0.167893
  29 C :    0.237109
  30 F :   -0.176769
  31 C :   -0.111131
  32 C :   -0.004055
  33 C :    0.020929
  34 C :    0.012745
  35 C :   -0.229528
  36 C :    0.096297
  37 C :    0.228822
  38 N :   -0.175193
  39 C :    0.064620
  40 C :   -0.066883
  41 C :   -0.001407
  42 C :   -0.039869
  43 C :    0.038592
  44 C :    0.016251
  45 C :   -0.048701
  46 S :    0.042022
  47 C :   -0.037882
  48 C :    0.035119
  49 C :    0.012563
  50 C :    0.031674
  51 S :    0.092825
  52 C :   -0.120077
  53 C :    0.041342
  54 C :    0.107690
  55 O :   -0.324784
  56 C :    0.213865
  57 C :    0.228805
  58 O :   -0.330795
  59 C :    0.183684
  60 C :   -0.214537
  61 C :    0.079639
  62 C :    0.039118
  63 N :   -0.318431
  64 S :    0.471107
  65 N :   -0.282216
  66 H :   -0.003151
  67 H :    0.001896
  68 H :   -0.010583
  69 H :   -0.006016
  70 H :   -0.014292
  71 H :    0.022798
  72 H :    0.003774
  73 H :   -0.008247
  74 H :   -0.020053
  75 H :    0.006113
  76 H :   -0.012416
  77 H :    0.035076
  78 H :    0.026806
  79 H :    0.044018
  80 H :    0.014337
  81 H :    0.044708
  82 H :    0.122778
  83 H :   -0.000810
  84 H :   -0.002961
  85 H :   -0.028546
  86 H :   -0.024247
  87 H :   -0.024504
  88 H :   -0.026779
  89 H :   -0.023719
  90 H :   -0.015136
  91 H :    0.021817
  92 H :    0.010450
  93 H :    0.025734
  94 H :    0.035728
  95 H :    0.026464
  96 H :    0.028791
  97 H :   -0.043332
Sum of atomic charges:   -0.0000000

LOEWDIN ATOMIC CHARGES
----------------------
   0 C :   -0.042116
   1 C :    0.092714
   2 F :   -0.067580
   3 C :   -0.038836
   4 C :    0.003712
   5 C :   -0.020279
   6 C :    0.002818
   7 C :    0.007628
   8 C :   -0.017286
   9 C :   -0.059363
  10 C :    0.032402
  11 C :    0.080709
  12 O :   -0.153855
  13 C :   -0.110651
  14 C :    0.055504
  15 C :   -0.146554
  16 C :   -0.014422
  17 N :   -0.060373
  18 C :   -0.019711
  19 N :   -0.058683
  20 C :    0.038892
  21 C :   -0.189934
  22 S :    0.507563
  23 C :   -0.127467
  24 C :   -0.043129
  25 C :   -0.022819
  26 C :   -0.038842
  27 C :    0.081060
  28 F :   -0.046928
  29 C :    0.061270
  30 F :   -0.055130
  31 C :   -0.025372
  32 C :   -0.047967
  33 C :    0.001182
  34 C :   -0.057240
  35 C :   -0.009578
  36 C :   -0.053038
  37 C :    0.048392
  38 N :   -0.010902
  39 C :    0.036498
  40 C :   -0.128569
  41 C :   -0.041361
  42 C :   -0.171866
  43 C :   -0.033985
  44 C :   -0.048950
  45 C :   -0.172212
  46 S :    0.349802
  47 C :   -0.205908
  48 C :   -0.034114
  49 C :   -0.044964
  50 C :   -0.132972
  51 S :    0.404019
  52 C :   -0.072571
  53 C :   -0.053605
  54 C :    0.036319
  55 O :   -0.102576
  56 C :    0.078136
  57 C :    0.043763
  58 O :   -0.097507
  59 C :    0.078344
  60 C :   -0.100893
  61 C :   -0.052328
  62 C :   -0.044015
  63 N :   -0.294066
  64 S :    0.601311
  65 N :   -0.301430
  66 H :    0.042955
  67 H :    0.041182
  68 H :    0.035052
  69 H :    0.038872
  70 H :    0.038773
  71 H :    0.045158
  72 H :    0.045245
  73 H :    0.041259
  74 H :    0.032223
  75 H :    0.026958
  76 H :    0.031312
  77 H :    0.036313
  78 H :    0.037950
  79 H :    0.041251
  80 H :    0.022555
  81 H :    0.039663
  82 H :    0.077309
  83 H :    0.027327
  84 H :    0.015957
  85 H :    0.027153
  86 H :    0.028700
  87 H :    0.027494
  88 H :    0.025641
  89 H :    0.027516
  90 H :    0.032538
  91 H :    0.019333
  92 H :    0.013004
  93 H :    0.013475
  94 H :    0.028137
  95 H :    0.017191
  96 H :    0.018838
  97 H :    0.033572

  Mayer bond orders larger than 0.100000
B(  0-C ,  1-C ) :   1.4386 B(  0-C ,  6-C ) :   1.2033 B(  0-C , 66-H ) :   1.0075
B(  1-C ,  2-F ) :   1.0858 B(  1-C ,  3-C ) :   1.2586 B(  3-C ,  4-C ) :   1.4557
B(  3-C , 67-H ) :   0.9931 B(  4-C ,  5-C ) :   1.2381 B(  4-C , 68-H ) :   0.9973
B(  5-C ,  6-C ) :   1.2611 B(  5-C , 10-C ) :   1.1814 B(  6-C ,  7-C ) :   1.1959
B(  7-C ,  8-C ) :   1.4659 B(  7-C , 69-H ) :   0.9952 B(  8-C ,  9-C ) :   1.2197
B(  8-C , 14-C ) :   0.9907 B(  9-C , 10-C ) :   1.4756 B(  9-C , 11-C ) :   0.9183
B( 10-C , 70-H ) :   1.0166 B( 11-C , 12-O ) :   2.2599 B( 11-C , 13-C ) :   0.9537
B( 13-C , 14-C ) :   1.0896 B( 13-C , 20-C ) :   1.5579 B( 14-C , 15-C ) :   1.6055
B( 15-C , 16-C ) :   1.1708 B( 15-C , 18-C ) :   1.1439 B( 16-C , 17-N ) :   3.0022
B( 18-C , 19-N ) :   2.9761 B( 20-C , 21-C ) :   1.2190 B( 20-C , 71-H ) :   0.9268
B( 21-C , 22-S ) :   1.1144 B( 21-C , 25-C ) :   1.2957 B( 22-S , 23-C ) :   1.1912
B( 23-C , 24-C ) :   1.2973 B( 23-C , 32-C ) :   1.1852 B( 24-C , 25-C ) :   1.2348
B( 24-C , 31-C ) :   1.1781 B( 25-C , 26-C ) :   1.2015 B( 26-C , 27-C ) :   1.4682
B( 26-C , 31-C ) :   0.1073 B( 26-C , 72-H ) :   0.9885 B( 27-C , 28-F ) :   1.1434
B( 27-C , 29-C ) :   1.1744 B( 29-C , 30-F ) :   1.1313 B( 29-C , 31-C ) :   1.4827
B( 31-C , 73-H ) :   0.9961 B( 32-C , 33-C ) :   1.6625 B( 32-C , 74-H ) :   0.9608
B( 33-C , 34-C ) :   1.1397 B( 33-C , 75-H ) :   0.9587 B( 34-C , 35-C ) :   1.7865
B( 34-C , 76-H ) :   0.9492 B( 35-C , 36-C ) :   1.0732 B( 35-C , 37-C ) :   1.0548
B( 36-C , 77-H ) :   0.9364 B( 36-C , 78-H ) :   0.9456 B( 36-C , 79-H ) :   0.9411
B( 37-C , 38-N ) :   0.9753 B( 37-C , 80-H ) :   0.9408 B( 37-C , 81-H ) :   0.9150
B( 38-N , 39-C ) :   1.2099 B( 38-N , 82-H ) :   0.9406 B( 39-C , 40-C ) :   1.6273
B( 39-C , 83-H ) :   0.9649 B( 40-C , 41-C ) :   1.1567 B( 40-C , 84-H ) :   0.9605
B( 41-C , 42-C ) :   1.5921 B( 41-C , 85-H ) :   0.9796 B( 42-C , 43-C ) :   1.1445
B( 42-C , 46-S ) :   1.0093 B( 43-C , 44-C ) :   1.5863 B( 43-C , 86-H ) :   0.9968
B( 44-C , 45-C ) :   1.1915 B( 44-C , 87-H ) :   0.9926 B( 45-C , 46-S ) :   1.0474
B( 45-C , 47-C ) :   1.5085 B( 47-C , 48-C ) :   1.1841 B( 47-C , 51-S ) :   0.9973
B( 48-C , 49-C ) :   1.5870 B( 48-C , 88-H ) :   0.9922 B( 49-C , 50-C ) :   1.1360
B( 49-C , 89-H ) :   1.0013 B( 50-C , 51-S ) :   1.0513 B( 50-C , 52-C ) :   1.5430
B( 52-C , 53-C ) :   1.1730 B( 52-C , 90-H ) :   0.9491 B( 53-C , 54-C ) :   1.4259
B( 53-C , 60-C ) :   0.1104 B( 53-C , 62-C ) :   1.1458 B( 54-C , 55-O ) :   1.1752
B( 54-C , 57-C ) :   1.1825 B( 55-O , 56-C ) :   0.9377 B( 56-C , 91-H ) :   0.9769
B( 56-C , 92-H ) :   0.9732 B( 56-C , 93-H ) :   0.9742 B( 57-C , 58-O ) :   1.1276
B( 57-C , 60-C ) :   1.3594 B( 58-O , 59-C ) :   0.9613 B( 59-C , 94-H ) :   0.9774
B( 59-C , 95-H ) :   0.9690 B( 59-C , 96-H ) :   0.9684 B( 60-C , 61-C ) :   1.1465
B( 60-C , 97-H ) :   1.0379 B( 61-C , 62-C ) :   1.1598 B( 61-C , 65-N ) :   1.5413
B( 62-C , 63-N ) :   1.5168 B( 63-N , 64-S ) :   1.2233 B( 63-N , 65-N ) :   0.1420
B( 64-S , 65-N ) :   1.2404

-----------------------------------------------------------------------------
         ABSORPTION SPECTRUM VIA TRANSITION ELECTRIC DIPOLE MOMENTS
-----------------------------------------------------------------------------
State   Energy  Wavelength   fosc         T2         TX        TY        TZ
        (cm-1)    (nm)                  (au**2)     (au)      (au)      (au)
-----------------------------------------------------------------------------
   0    7774.2   1286.3   0.010146873   0.42968   0.52300   0.39468   0.01951
   1   13390.5    746.8   0.818247165  20.11697  -0.61727   4.42336   0.41209
   2   16175.4    618.2   0.939577432  19.12283   4.31410  -0.52756   0.48276
   3   18807.9    531.7   0.004437741   0.07768  -0.11435  -0.24853   0.05324
   4   20156.8    496.1   0.443240847   7.23926   0.44916   2.65158  -0.08138
   5   21533.0    464.4   0.002044881   0.03126   0.16928  -0.02880  -0.04216
   6   23402.4    427.3   0.000653342   0.00919  -0.06547  -0.06712   0.01999
   7   24595.6    406.6   0.008883669   0.11891   0.28668   0.18958  -0.02803
   8   25143.0    397.7   0.123554721   1.61778   1.17718   0.42792  -0.22114
   9   26170.6    382.1   0.215461266   2.71038   1.50837   0.52661  -0.39733
  10   27066.5    369.5   0.024996311   0.30403   0.49949   0.05803  -0.22623
  11   27151.2    368.3   0.132147898   1.60231  -1.02456  -0.25483   0.69832
  12   28681.5    348.7   0.059896092   0.68750   0.73730   0.36405   0.10657
  13   28824.4    346.9   0.019475075   0.22243  -0.12802   0.22452   0.39450
  14   29205.8    342.4   0.380469371   4.28870   1.93049   0.71496  -0.22527
  15   29842.5    335.1   0.129342587   1.42686   0.05375   1.08709   0.49215
  16   30333.2    329.7   0.001891278   0.02053   0.07127  -0.05049  -0.11357
  17   30615.8    326.6   0.010560530   0.11356  -0.17185   0.12766   0.26024
  18   31062.8    321.9   0.002485258   0.02634   0.13353   0.07519  -0.05343
  19   31176.0    320.8   0.009189347   0.09704   0.17713   0.20518  -0.15351
  20   31997.4    312.5   0.249323949   2.56522   1.44014   0.50360  -0.48744
  21   32110.1    311.4   0.167708189   1.71945  -0.50346  -1.19361   0.20313
  22   32849.7    304.4   0.006112146   0.06125   0.08219   0.23218  -0.02435
  23   32977.8    303.2   0.005771817   0.05762   0.23056  -0.05479  -0.03818
  24   33264.0    300.6   0.219204266   2.16945  -1.41176  -0.34539   0.23893
  25   33741.4    296.4   0.324311924   3.16428  -1.74812  -0.31698   0.08884
  26   33758.0    296.2   0.003218131   0.03138   0.17486  -0.01153   0.02599
  27   33864.0    295.3   0.233595639   2.27092  -1.43250  -0.13413  -0.44819
  28   34001.2    294.1   0.000932129   0.00903   0.02726  -0.02334   0.08796
  29   34099.2    293.3   0.000441657   0.00426  -0.06028   0.01178   0.02218
  30   34759.8    287.7   0.000726791   0.00688  -0.00703  -0.03103  -0.07662
  31   35002.4    285.7   0.020901154   0.19658   0.33243   0.17486   0.23559
  32   35286.6    283.4   0.236931936   2.21050  -1.20521  -0.66572  -0.56104
  33   35980.5    277.9   0.203394310   1.86100  -1.05288  -0.30330   0.81268
  34   36990.2    270.3   0.032095746   0.28565  -0.16372   0.50767   0.03351
  35   37252.3    268.4   0.038875995   0.34356   0.05339  -0.58345  -0.01722
  36   37267.9    268.3   0.059677631   0.52717  -0.46730  -0.55454   0.03595
  37   37290.9    268.2   0.006969091   0.06152   0.23669   0.04580  -0.05835
  38   38104.2    262.4   0.177445646   1.53309   0.68416   0.03379  -1.03144
  39   38297.5    261.1   0.000069606   0.00060   0.01349   0.01879  -0.00796
  40   39124.1    255.6   0.003751900   0.03157   0.03264  -0.17325  -0.02213
  41   39234.0    254.9   0.001574276   0.01321   0.04600   0.10494   0.00898
  42   40021.8    249.9   0.002919776   0.02402  -0.04934   0.09145   0.11498
  43   40145.6    249.1   0.026886780   0.22048   0.43464   0.00010  -0.17769
  44   40208.0    248.7   0.049258230   0.40331   0.54351  -0.23867  -0.22571
  45   40240.7    248.5   0.021150194   0.17303  -0.40807  -0.02561   0.07651

FINAL SINGLE POINT ENERGY     -4350.334542702735

DIPOLE MOMENT
-------------
                                X             Y             Z
Electronic contribution:    -72.60229     -50.69685     -12.42744
Nuclear contribution   :     73.29451      49.72468      14.10507
                        -----------------------------------------
Total Dipole Moment    :      0.69222      -0.97217       1.67763
                        -----------------------------------------
Magnitude (a.u.)       :      2.05882
Magnitude (Debye)      :      5.23310

Rotational constants in cm-1:     0.001330     0.000257     0.000224
Rotational constants in MHz :    39.885055     7.700456     6.729531

                             ****ORCA TERMINATED NORMALLY****
TOTAL RUN TIME: 0 days 0 hours 10 minutes 38 seconds 440 msec
