                         Program Version 4.2.0 -  RELEASE  -
|  1> # ORCA input file
|  2> # SCF done       -168.081343566342          0.006005597795
|  3> ! CAM-B3LYP def2-SVP def2/J RIJCOSX Grid4 TightSCF
|  4> %maxcore 5000
|  5> %tddft
|  6>     Mode sTDDFT
|  7>     Ethresh 5.0
|  8>     maxcore 5000
|  9> end
| 10>
| 11> %pal
| 12>   nprocs 6
| 13>   end
| 14> * xyz 0 1
| 15>    C       -9.95848        -3.57454         1.19690
| 16>    C      -11.02751        -3.27425         2.01494
| 17>    C      -12.32869        -3.77201         1.81891
| 18>    N      -13.41178        -4.14050         1.70682
| 19>    C      -10.98440        -2.43604         3.14055
| 20>    N      -11.03295        -1.78539         4.08976
| 21>    C      -10.00838        -4.44373         0.02862
| 22>    C       -8.76747        -4.36180        -0.64867
| 23>    C       -8.47049        -5.11337        -1.75758
| 24>    C       -9.44798        -5.99995        -2.22073
| 25>    C      -10.68941        -6.06494        -1.54897
| 26>    C      -10.99340        -5.29760        -0.43150
| 27>    S      -11.74278        -7.24270        -2.27363
| 28>    C      -10.51351        -7.62662        -3.44990
| 29>    C       -9.37509        -6.90866        -3.31154
| 30>   Br      -10.84002        -8.95329        -4.73417
| 31>    C       -7.88722        -3.41309         0.05191
| 32>    O       -6.78509        -3.05761        -0.31605
| 33>    C       -8.62322        -3.01611         1.27244
| 34>    C       -8.12300        -2.33342         2.34744
| 35>    C       -6.89356        -1.65556         2.47734
| 36>    O       -6.12574        -1.32162         1.39985
| 37>    C       -5.11913        -0.57854         1.79031
| 38>    C       -5.16461        -0.37929         3.15687
| 39>    N       -4.26410         0.36908         3.92954
| 40>    O       -3.29409         0.84679         3.38078
| 41>    O       -4.52164         0.49512         5.12169
| 42>    C       -6.31608        -1.09170         3.63148
| 43>    N       -6.67830        -1.15899         4.92840
| 44>    C       -7.43135        -2.13781         5.53248
| 45>    C       -7.77622        -2.10076         6.82479
| 46>    C       -7.43999        -0.93729         7.71028
| 47>    C       -8.55826        -3.24088         7.42461
| 48>    N       -9.98734        -3.03484         7.33016
| 49>    C      -10.80598        -3.60187         6.42122
| 50>    C      -10.46655        -4.50421         5.45995
| 51>    C      -11.41305        -5.16159         4.65773
| 52>    C      -11.09016        -5.98683         3.60975
| 53>    C      -11.96084        -6.80694         2.85263
| 54>    C      -11.34518        -7.52433         1.87262
| 55>    C       -9.95734        -7.28245         1.76841
| 56>    S       -9.44192        -6.15701         3.00554
| 57>    C       -9.05838        -7.75930         0.83836
| 58>    C       -9.28359        -8.68076        -0.20889
| 59>    C       -8.18800        -8.90232        -0.98059
| 60>    C       -7.02591        -8.17447        -0.59016
| 61>    S       -7.40709        -7.17122         0.79688
| 62>    C       -5.79546        -8.34500        -1.15447
| 63>    C       -4.55136        -7.71987        -0.83213
| 64>    C       -3.35573        -8.38527        -1.15162
| 65>    O       -3.53536        -9.61262        -1.71207
| 66>    C       -2.51947       -10.26669        -2.43960
| 67>    C       -2.08276        -7.82630        -0.81947
| 68>    O       -0.98755        -8.60062        -1.08949
| 69>    C        0.28406        -8.12495        -0.72234
| 70>    C       -1.98569        -6.58389        -0.23951
| 71>    C       -3.15672        -5.86821         0.03790
| 72>    C       -4.44472        -6.43525        -0.24035
| 73>    N       -5.42814        -5.59158         0.05632
| 74>    S       -4.80166        -4.22865         0.63722
| 75>    N       -3.24448        -4.64289         0.55278
| 76>    H       -7.50582        -5.04233        -2.23389
| 77>    H      -11.95060        -5.39271         0.05216
| 78>    H       -8.51512        -7.01735        -3.94732
| 79>    H       -8.74918        -2.27213         3.22717
| 80>    H       -4.41995        -0.21848         1.06083
| 81>    H       -6.16038        -0.52515         5.53658
| 82>    H       -7.68934        -2.98117         4.90842
| 83>    H       -6.38819        -0.67259         7.61137
| 84>    H       -7.62727        -1.18192         8.75002
| 85>    H       -8.02387        -0.05313         7.45305
| 86>    H       -8.30398        -3.34170         8.48513
| 87>    H       -8.31590        -4.17875         6.92672
| 88>    H      -10.34419        -2.23923         7.83600
| 89>    H      -11.84448        -3.31776         6.52215
| 90>    H       -9.43082        -4.74749         5.26951
| 91>    H      -12.46347        -5.03779         4.88648
| 92>    H      -13.01539        -6.83856         3.06062
| 93>    H      -11.85103        -8.20096         1.20734
| 94>    H      -10.23631        -9.15953        -0.35214
| 95>    H       -8.16010        -9.57967        -1.81639
| 96>    H       -5.72974        -9.11508        -1.91236
| 97>    H       -1.77016       -10.70801        -1.78071
| 98>    H       -2.02807        -9.59464        -3.14703
| 99>    H       -3.03011       -11.05920        -2.98876
|100>    H        0.53701        -7.19923        -1.24755
|101>    H        0.97943        -8.90998        -1.01749
|102>    H        0.35678        -7.96436         0.35815
|103>    H       -1.04001        -6.14187         0.01829
|104> *
|105>
|106>                          ****END OF INPUT****

CARTESIAN COORDINATES (ANGSTROEM)
---------------------------------
  C     -9.958480   -3.574540    1.196900
  C    -11.027510   -3.274250    2.014940
  C    -12.328690   -3.772010    1.818910
  N    -13.411780   -4.140500    1.706820
  C    -10.984400   -2.436040    3.140550
  N    -11.032950   -1.785390    4.089760
  C    -10.008380   -4.443730    0.028620
  C     -8.767470   -4.361800   -0.648670
  C     -8.470490   -5.113370   -1.757580
  C     -9.447980   -5.999950   -2.220730
  C    -10.689410   -6.064940   -1.548970
  C    -10.993400   -5.297600   -0.431500
  S    -11.742780   -7.242700   -2.273630
  C    -10.513510   -7.626620   -3.449900
  C     -9.375090   -6.908660   -3.311540
  Br   -10.840020   -8.953290   -4.734170
  C     -7.887220   -3.413090    0.051910
  O     -6.785090   -3.057610   -0.316050
  C     -8.623220   -3.016110    1.272440
  C     -8.123000   -2.333420    2.347440
  C     -6.893560   -1.655560    2.477340
  O     -6.125740   -1.321620    1.399850
  C     -5.119130   -0.578540    1.790310
  C     -5.164610   -0.379290    3.156870
  N     -4.264100    0.369080    3.929540
  O     -3.294090    0.846790    3.380780
  O     -4.521640    0.495120    5.121690
  C     -6.316080   -1.091700    3.631480
  N     -6.678300   -1.158990    4.928400
  C     -7.431350   -2.137810    5.532480
  C     -7.776220   -2.100760    6.824790
  C     -7.439990   -0.937290    7.710280
  C     -8.558260   -3.240880    7.424610
  N     -9.987340   -3.034840    7.330160
  C    -10.805980   -3.601870    6.421220
  C    -10.466550   -4.504210    5.459950
  C    -11.413050   -5.161590    4.657730
  C    -11.090160   -5.986830    3.609750
  C    -11.960840   -6.806940    2.852630
  C    -11.345180   -7.524330    1.872620
  C     -9.957340   -7.282450    1.768410
  S     -9.441920   -6.157010    3.005540
  C     -9.058380   -7.759300    0.838360
  C     -9.283590   -8.680760   -0.208890
  C     -8.188000   -8.902320   -0.980590
  C     -7.025910   -8.174470   -0.590160
  S     -7.407090   -7.171220    0.796880
  C     -5.795460   -8.345000   -1.154470
  C     -4.551360   -7.719870   -0.832130
  C     -3.355730   -8.385270   -1.151620
  O     -3.535360   -9.612620   -1.712070
  C     -2.519470  -10.266690   -2.439600
  C     -2.082760   -7.826300   -0.819470
  O     -0.987550   -8.600620   -1.089490
  C      0.284060   -8.124950   -0.722340
  C     -1.985690   -6.583890   -0.239510
  C     -3.156720   -5.868210    0.037900
  C     -4.444720   -6.435250   -0.240350
  N     -5.428140   -5.591580    0.056320
  S     -4.801660   -4.228650    0.637220
  N     -3.244480   -4.642890    0.552780
  H     -7.505820   -5.042330   -2.233890
  H    -11.950600   -5.392710    0.052160
  H     -8.515120   -7.017350   -3.947320
  H     -8.749180   -2.272130    3.227170
  H     -4.419950   -0.218480    1.060830
  H     -6.160380   -0.525150    5.536580
  H     -7.689340   -2.981170    4.908420
  H     -6.388190   -0.672590    7.611370
  H     -7.627270   -1.181920    8.750020
  H     -8.023870   -0.053130    7.453050
  H     -8.303980   -3.341700    8.485130
  H     -8.315900   -4.178750    6.926720
  H    -10.344190   -2.239230    7.836000
  H    -11.844480   -3.317760    6.522150
  H     -9.430820   -4.747490    5.269510
  H    -12.463470   -5.037790    4.886480
  H    -13.015390   -6.838560    3.060620
  H    -11.851030   -8.200960    1.207340
  H    -10.236310   -9.159530   -0.352140
  H     -8.160100   -9.579670   -1.816390
  H     -5.729740   -9.115080   -1.912360
  H     -1.770160  -10.708010   -1.780710
  H     -2.028070   -9.594640   -3.147030
  H     -3.030110  -11.059200   -2.988760
  H      0.537010   -7.199230   -1.247550
  H      0.979430   -8.909980   -1.017490
  H      0.356780   -7.964360    0.358150
  H     -1.040010   -6.141870    0.018290

 Total Charge           Charge          ....    0
 Multiplicity           Mult            ....    1
 Number of Electrons    NEL             ....  482
 Basis Dimension        Dim             .... 1028

ORBITAL ENERGIES
----------------

  NO   OCC          E(Eh)            E(eV)
   0   2.0000    -482.875317    -13139.7054
   1   2.0000     -88.993328     -2421.6316
   2   2.0000     -88.962010     -2420.7794
   3   2.0000     -88.928320     -2419.8626
   4   2.0000     -88.918209     -2419.5875
   5   2.0000     -62.553014     -1702.1541
   6   2.0000     -56.386938     -1534.3666
   7   2.0000     -56.384273     -1534.2941
   8   2.0000     -56.384240     -1534.2932
   9   2.0000     -19.320566      -525.7393
  10   2.0000     -19.257655      -524.0274
  11   2.0000     -19.256294      -523.9904
  12   2.0000     -19.251357      -523.8560
  13   2.0000     -19.240330      -523.5560
  14   2.0000     -19.200757      -522.4792
  15   2.0000     -14.667713      -399.1288
  16   2.0000     -14.466075      -393.6419
  17   2.0000     -14.437874      -392.8745
  18   2.0000     -14.409223      -392.0949
  19   2.0000     -14.407252      -392.0413
  20   2.0000     -14.403189      -391.9307
  21   2.0000     -14.396550      -391.7500
  22   2.0000     -10.377766      -282.3934
  23   2.0000     -10.359543      -281.8975
  24   2.0000     -10.352706      -281.7115
  25   2.0000     -10.349258      -281.6176
  26   2.0000     -10.343037      -281.4483
  27   2.0000     -10.340375      -281.3759
  28   2.0000     -10.339542      -281.3532
  29   2.0000     -10.334851      -281.2256
  30   2.0000     -10.326967      -281.0111
  31   2.0000     -10.322209      -280.8816
  32   2.0000     -10.320259      -280.8285
  33   2.0000     -10.314372      -280.6683
  34   2.0000     -10.314130      -280.6617
  35   2.0000     -10.313743      -280.6512
  36   2.0000     -10.311887      -280.6007
  37   2.0000     -10.310749      -280.5697
  38   2.0000     -10.307991      -280.4947
  39   2.0000     -10.307447      -280.4799
  40   2.0000     -10.302158      -280.3360
  41   2.0000     -10.298218      -280.2288
  42   2.0000     -10.296626      -280.1854
  43   2.0000     -10.289913      -280.0028
  44   2.0000     -10.288335      -279.9598
  45   2.0000     -10.287832      -279.9461
  46   2.0000     -10.287790      -279.9450
  47   2.0000     -10.286270      -279.9036
  48   2.0000     -10.285442      -279.8811
  49   2.0000     -10.282518      -279.8015
  50   2.0000     -10.281357      -279.7699
  51   2.0000     -10.279770      -279.7268
  52   2.0000     -10.279296      -279.7139
  53   2.0000     -10.277892      -279.6756
  54   2.0000     -10.277504      -279.6651
  55   2.0000     -10.273890      -279.5668
  56   2.0000     -10.270548      -279.4758
  57   2.0000     -10.269873      -279.4574
  58   2.0000     -10.265770      -279.3458
  59   2.0000     -10.265693      -279.3437
  60   2.0000     -10.265588      -279.3409
  61   2.0000     -10.263582      -279.2863
  62   2.0000     -10.263119      -279.2737
  63   2.0000     -10.257758      -279.1278
  64   2.0000     -10.247449      -278.8473
  65   2.0000      -8.782419      -238.9818
  66   2.0000      -8.083839      -219.9724
  67   2.0000      -8.057569      -219.2576
  68   2.0000      -8.023302      -218.3251
  69   2.0000      -8.013036      -218.0458
  70   2.0000      -6.618556      -180.1001
  71   2.0000      -6.604240      -179.7105
  72   2.0000      -6.604059      -179.7056
  73   2.0000      -6.055127      -164.7684
  74   2.0000      -6.047383      -164.5577
  75   2.0000      -6.046123      -164.5234
  76   2.0000      -6.027279      -164.0106
  77   2.0000      -6.023027      -163.8949
  78   2.0000      -6.018852      -163.7813
  79   2.0000      -5.993004      -163.0779
  80   2.0000      -5.989107      -162.9719
  81   2.0000      -5.984462      -162.8455
  82   2.0000      -5.982980      -162.8052
  83   2.0000      -5.978736      -162.6897
  84   2.0000      -5.973802      -162.5554
  85   2.0000      -2.734475       -74.4088
  86   2.0000      -2.730411       -74.2983
  87   2.0000      -2.730318       -74.2957
  88   2.0000      -2.718920       -73.9856
  89   2.0000      -2.718908       -73.9852
  90   2.0000      -1.335934       -36.3526
  91   2.0000      -1.247406       -33.9436
  92   2.0000      -1.160336       -31.5743
  93   2.0000      -1.155010       -31.4294
  94   2.0000      -1.135971       -30.9114
  95   2.0000      -1.118872       -30.4461
  96   2.0000      -1.094399       -29.7801
  97   2.0000      -1.072247       -29.1773
  98   2.0000      -1.034998       -28.1637
  99   2.0000      -1.006451       -27.3869
 100   2.0000      -0.998358       -27.1667
 101   2.0000      -0.979276       -26.6475
 102   2.0000      -0.973817       -26.4989
 103   2.0000      -0.972238       -26.4559
 104   2.0000      -0.958166       -26.0730
 105   2.0000      -0.955312       -25.9953
 106   2.0000      -0.946463       -25.7546
 107   2.0000      -0.936981       -25.4966
 108   2.0000      -0.930914       -25.3315
 109   2.0000      -0.914881       -24.8952
 110   2.0000      -0.899695       -24.4820
 111   2.0000      -0.892808       -24.2946
 112   2.0000      -0.882982       -24.0272
 113   2.0000      -0.867933       -23.6177
 114   2.0000      -0.867721       -23.6119
 115   2.0000      -0.865372       -23.5480
 116   2.0000      -0.847111       -23.0511
 117   2.0000      -0.842082       -22.9142
 118   2.0000      -0.837093       -22.7785
 119   2.0000      -0.821561       -22.3558
 120   2.0000      -0.817468       -22.2444
 121   2.0000      -0.814500       -22.1637
 122   2.0000      -0.812066       -22.0974
 123   2.0000      -0.798504       -21.7284
 124   2.0000      -0.796606       -21.6767
 125   2.0000      -0.795542       -21.6478
 126   2.0000      -0.787350       -21.4249
 127   2.0000      -0.771667       -20.9981
 128   2.0000      -0.762591       -20.7512
 129   2.0000      -0.749574       -20.3969
 130   2.0000      -0.742967       -20.2172
 131   2.0000      -0.718079       -19.5399
 132   2.0000      -0.716178       -19.4882
 133   2.0000      -0.705711       -19.2034
 134   2.0000      -0.692607       -18.8468
 135   2.0000      -0.686527       -18.6814
 136   2.0000      -0.677584       -18.4380
 137   2.0000      -0.674599       -18.3568
 138   2.0000      -0.671565       -18.2742
 139   2.0000      -0.667179       -18.1549
 140   2.0000      -0.650900       -17.7119
 141   2.0000      -0.650574       -17.7030
 142   2.0000      -0.648188       -17.6381
 143   2.0000      -0.643669       -17.5151
 144   2.0000      -0.642847       -17.4928
 145   2.0000      -0.640922       -17.4404
 146   2.0000      -0.630131       -17.1467
 147   2.0000      -0.624215       -16.9857
 148   2.0000      -0.614008       -16.7080
 149   2.0000      -0.611666       -16.6443
 150   2.0000      -0.607030       -16.5181
 151   2.0000      -0.605340       -16.4721
 152   2.0000      -0.602858       -16.4046
 153   2.0000      -0.598161       -16.2768
 154   2.0000      -0.595401       -16.2017
 155   2.0000      -0.587685       -15.9917
 156   2.0000      -0.585603       -15.9351
 157   2.0000      -0.582160       -15.8414
 158   2.0000      -0.581291       -15.8177
 159   2.0000      -0.573342       -15.6014
 160   2.0000      -0.571255       -15.5446
 161   2.0000      -0.564459       -15.3597
 162   2.0000      -0.563999       -15.3472
 163   2.0000      -0.559021       -15.2117
 164   2.0000      -0.553286       -15.0557
 165   2.0000      -0.540048       -14.6955
 166   2.0000      -0.538435       -14.6516
 167   2.0000      -0.536436       -14.5972
 168   2.0000      -0.533387       -14.5142
 169   2.0000      -0.532318       -14.4851
 170   2.0000      -0.530217       -14.4279
 171   2.0000      -0.526143       -14.3171
 172   2.0000      -0.520800       -14.1717
 173   2.0000      -0.518647       -14.1131
 174   2.0000      -0.514454       -13.9990
 175   2.0000      -0.513847       -13.9825
 176   2.0000      -0.509603       -13.8670
 177   2.0000      -0.507232       -13.8025
 178   2.0000      -0.503125       -13.6907
 179   2.0000      -0.501184       -13.6379
 180   2.0000      -0.499340       -13.5877
 181   2.0000      -0.497127       -13.5275
 182   2.0000      -0.491375       -13.3710
 183   2.0000      -0.489593       -13.3225
 184   2.0000      -0.484986       -13.1971
 185   2.0000      -0.484144       -13.1742
 186   2.0000      -0.477970       -13.0062
 187   2.0000      -0.475620       -12.9423
 188   2.0000      -0.469693       -12.7810
 189   2.0000      -0.467091       -12.7102
 190   2.0000      -0.465703       -12.6724
 191   2.0000      -0.463573       -12.6145
 192   2.0000      -0.460176       -12.5220
 193   2.0000      -0.458705       -12.4820
 194   2.0000      -0.453718       -12.3463
 195   2.0000      -0.451657       -12.2902
 196   2.0000      -0.443817       -12.0769
 197   2.0000      -0.443213       -12.0604
 198   2.0000      -0.441526       -12.0145
 199   2.0000      -0.440633       -11.9902
 200   2.0000      -0.438255       -11.9255
 201   2.0000      -0.435944       -11.8626
 202   2.0000      -0.430413       -11.7121
 203   2.0000      -0.429074       -11.6757
 204   2.0000      -0.425403       -11.5758
 205   2.0000      -0.423259       -11.5175
 206   2.0000      -0.420893       -11.4531
 207   2.0000      -0.416689       -11.3387
 208   2.0000      -0.413975       -11.2648
 209   2.0000      -0.411280       -11.1915
 210   2.0000      -0.409120       -11.1327
 211   2.0000      -0.406268       -11.0551
 212   2.0000      -0.402789       -10.9604
 213   2.0000      -0.400601       -10.9009
 214   2.0000      -0.396029       -10.7765
 215   2.0000      -0.394177       -10.7261
 216   2.0000      -0.390928       -10.6377
 217   2.0000      -0.386859       -10.5270
 218   2.0000      -0.383580       -10.4377
 219   2.0000      -0.381436       -10.3794
 220   2.0000      -0.380866       -10.3639
 221   2.0000      -0.380381       -10.3507
 222   2.0000      -0.371736       -10.1155
 223   2.0000      -0.366846        -9.9824
 224   2.0000      -0.365515        -9.9462
 225   2.0000      -0.364953        -9.9309
 226   2.0000      -0.360618        -9.8129
 227   2.0000      -0.344149        -9.3648
 228   2.0000      -0.338288        -9.2053
 229   2.0000      -0.329148        -8.9566
 230   2.0000      -0.323223        -8.7953
 231   2.0000      -0.313994        -8.5442
 232   2.0000      -0.309276        -8.4158
 233   2.0000      -0.301905        -8.2153
 234   2.0000      -0.287089        -7.8121
 235   2.0000      -0.284729        -7.7479
 236   2.0000      -0.277655        -7.5554
 237   2.0000      -0.274499        -7.4695
 238   2.0000      -0.259988        -7.0746
 239   2.0000      -0.245379        -6.6771
 240   2.0000      -0.186079        -5.0635
 241   0.0000      -0.078286        -2.1303
 242   0.0000      -0.056719        -1.5434
 243   0.0000      -0.053322        -1.4510
 244   0.0000      -0.043948        -1.1959
 245   0.0000      -0.021152        -0.5756

MULLIKEN ATOMIC CHARGES
-----------------------
   0 C :    0.320587
   1 C :   -0.368406
   2 C :   -0.184892
   3 N :    0.140244
   4 C :   -0.185276
   5 N :    0.131399
   6 C :    0.007291
   7 C :    0.020619
   8 C :   -0.065630
   9 C :    0.115126
  10 C :   -0.088472
  11 C :    0.002652
  12 S :    0.157627
  13 C :   -0.136223
  14 C :    0.064719
  15 Br:    0.006566
  16 C :    0.141084
  17 O :   -0.180043
  18 C :   -0.057895
  19 C :   -0.105259
  20 C :    0.027388
  21 O :   -0.124199
  22 C :    0.102012
  23 C :    0.102509
  24 N :    0.291231
  25 O :   -0.231082
  26 O :   -0.273110
  27 C :    0.066145
  28 N :   -0.012762
  29 C :    0.076955
  30 C :   -0.229736
  31 C :    0.064067
  32 C :    0.206120
  33 N :   -0.138926
  34 C :    0.105069
  35 C :   -0.084204
  36 C :    0.005919
  37 C :   -0.066462
  38 C :    0.064825
  39 C :    0.002204
  40 C :   -0.045136
  41 S :    0.026432
  42 C :   -0.063872
  43 C :    0.035535
  44 C :    0.042610
  45 C :   -0.001175
  46 S :    0.095097
  47 C :   -0.087612
  48 C :    0.003744
  49 C :    0.122655
  50 O :   -0.314419
  51 C :    0.211494
  52 C :    0.227826
  53 O :   -0.334766
  54 C :    0.182158
  55 C :   -0.210105
  56 C :    0.062406
  57 C :    0.030490
  58 N :   -0.307298
  59 S :    0.478827
  60 N :   -0.261025
  61 H :   -0.018077
  62 H :   -0.013686
  63 H :   -0.007306
  64 H :    0.017058
  65 H :    0.038980
  66 H :    0.138404
  67 H :    0.005344
  68 H :    0.038679
  69 H :    0.006840
  70 H :    0.042956
  71 H :    0.010057
  72 H :    0.025472
  73 H :    0.125360
  74 H :    0.009176
  75 H :   -0.012760
  76 H :   -0.010346
  77 H :   -0.013577
  78 H :   -0.024393
  79 H :   -0.020088
  80 H :   -0.020632
  81 H :   -0.013217
  82 H :    0.025644
  83 H :    0.012952
  84 H :    0.023684
  85 H :    0.027332
  86 H :    0.036117
  87 H :    0.028564
  88 H :   -0.042182
Sum of atomic charges:   -0.0000000

LOEWDIN ATOMIC CHARGES
----------------------
   0 C :    0.063133
   1 C :   -0.153555
   2 C :   -0.012377
   3 N :   -0.078902
   4 C :   -0.013052
   5 N :   -0.079326
   6 C :   -0.018058
   7 C :   -0.048460
   8 C :    0.028450
   9 C :   -0.033517
  10 C :   -0.141025
  11 C :   -0.006439
  12 S :    0.421217
  13 C :   -0.280716
  14 C :   -0.061224
  15 Br:    0.123406
  16 C :    0.083610
  17 O :   -0.167907
  18 C :   -0.089397
  19 C :    0.026975
  20 C :   -0.028958
  21 O :    0.074990
  22 C :    0.113914
  23 C :   -0.111575
  24 N :    0.295240
  25 O :   -0.194135
  26 O :   -0.224218
  27 C :    0.030404
  28 N :    0.048493
  29 C :    0.013049
  30 C :   -0.086332
  31 C :   -0.055436
  32 C :    0.048375
  33 N :    0.010666
  34 C :    0.069587
  35 C :   -0.143078
  36 C :   -0.023378
  37 C :   -0.181763
  38 C :   -0.022566
  39 C :   -0.058943
  40 C :   -0.177292
  41 S :    0.364577
  42 C :   -0.195023
  43 C :   -0.038200
  44 C :   -0.035703
  45 C :   -0.139365
  46 S :    0.400698
  47 C :   -0.063140
  48 C :   -0.062601
  49 C :    0.048911
  50 O :   -0.096038
  51 C :    0.077044
  52 C :    0.038180
  53 O :   -0.100254
  54 C :    0.077823
  55 C :   -0.087632
  56 C :   -0.059795
  57 C :   -0.056469
  58 N :   -0.302828
  59 S :    0.650260
  60 N :   -0.304375
  61 H :    0.038560
  62 H :    0.037159
  63 H :    0.037391
  64 H :    0.049075
  65 H :    0.044951
  66 H :    0.077959
  67 H :    0.027614
  68 H :    0.035865
  69 H :    0.029528
  70 H :    0.038556
  71 H :    0.026394
  72 H :    0.035027
  73 H :    0.080976
  74 H :    0.032031
  75 H :    0.008363
  76 H :    0.033819
  77 H :    0.033705
  78 H :    0.026481
  79 H :    0.023764
  80 H :    0.028440
  81 H :    0.031578
  82 H :    0.014442
  83 H :    0.013364
  84 H :    0.020301
  85 H :    0.017165
  86 H :    0.028468
  87 H :    0.018729
  88 H :    0.034351

  Mayer bond orders larger than 0.100000
B(  0-C ,  1-C ) :   1.6002 B(  0-C ,  6-C ) :   1.0050 B(  0-C , 18-C ) :   1.0653
B(  1-C ,  2-C ) :   1.1544 B(  1-C ,  4-C ) :   1.1715 B(  2-C ,  3-N ) :   2.9353
B(  4-C ,  5-N ) :   2.9093 B(  6-C ,  7-C ) :   1.2801 B(  6-C , 11-C ) :   1.4136
B(  7-C ,  8-C ) :   1.4036 B(  7-C , 16-C ) :   0.9566 B(  8-C ,  9-C ) :   1.2411
B(  8-C , 61-H ) :   1.0176 B(  9-C , 10-C ) :   1.3173 B(  9-C , 14-C ) :   1.1564
B( 10-C , 11-C ) :   1.3342 B( 10-C , 12-S ) :   1.0746 B( 11-C , 62-H ) :   0.9689
B( 12-S , 13-C ) :   1.0752 B( 13-C , 14-C ) :   1.6210 B( 13-C , 15-Br) :   1.0091
B( 14-C , 63-H ) :   1.0000 B( 16-C , 17-O ) :   2.1422 B( 16-C , 18-C ) :   0.9411
B( 18-C , 19-C ) :   1.5614 B( 19-C , 20-C ) :   1.2239 B( 19-C , 64-H ) :   0.9276
B( 20-C , 21-O ) :   1.0869 B( 20-C , 27-C ) :   1.2959 B( 21-O , 22-C ) :   1.2701
B( 22-C , 23-C ) :   1.3826 B( 22-C , 65-H ) :   1.0185 B( 23-C , 24-N ) :   0.9568
B( 23-C , 27-C ) :   1.2431 B( 24-N , 25-O ) :   1.5559 B( 24-N , 26-O ) :   1.4649
B( 25-O , 26-O ) :   0.2561 B( 26-O , 66-H ) :   0.1012 B( 27-C , 28-N ) :   1.3003
B( 28-N , 29-C ) :   1.0999 B( 28-N , 66-H ) :   0.8598 B( 29-C , 30-C ) :   1.8169
B( 29-C , 67-H ) :   0.9472 B( 30-C , 31-C ) :   1.0699 B( 30-C , 32-C ) :   1.0587
B( 31-C , 68-H ) :   0.9462 B( 31-C , 69-H ) :   0.9489 B( 31-C , 70-H ) :   0.9586
B( 32-C , 33-N ) :   1.0086 B( 32-C , 71-H ) :   0.9326 B( 32-C , 72-H ) :   0.9347
B( 33-N , 34-C ) :   1.2514 B( 33-N , 73-H ) :   0.9364 B( 34-C , 35-C ) :   1.5817
B( 34-C , 74-H ) :   0.9593 B( 35-C , 36-C ) :   1.1771 B( 35-C , 75-H ) :   0.9597
B( 36-C , 37-C ) :   1.5538 B( 36-C , 76-H ) :   0.9841 B( 37-C , 38-C ) :   1.1448
B( 37-C , 41-S ) :   1.0116 B( 38-C , 39-C ) :   1.5732 B( 38-C , 77-H ) :   0.9998
B( 39-C , 40-C ) :   1.1698 B( 39-C , 78-H ) :   1.0006 B( 40-C , 41-S ) :   1.0508
B( 40-C , 42-C ) :   1.5148 B( 42-C , 43-C ) :   1.1669 B( 42-C , 46-S ) :   1.0390
B( 43-C , 44-C ) :   1.5930 B( 43-C , 79-H ) :   0.9956 B( 44-C , 45-C ) :   1.1222
B( 44-C , 80-H ) :   0.9975 B( 45-C , 46-S ) :   1.0447 B( 45-C , 47-C ) :   1.6020
B( 47-C , 48-C ) :   1.1212 B( 47-C , 81-H ) :   0.9493 B( 48-C , 49-C ) :   1.4447
B( 48-C , 55-C ) :   0.1142 B( 48-C , 57-C ) :   1.1652 B( 49-C , 50-O ) :   1.2032
B( 49-C , 52-C ) :   1.1710 B( 50-O , 51-C ) :   0.9374 B( 51-C , 82-H ) :   0.9744
B( 51-C , 83-H ) :   0.9740 B( 51-C , 84-H ) :   0.9763 B( 52-C , 53-O ) :   1.1195
B( 52-C , 55-C ) :   1.3713 B( 53-O , 54-C ) :   0.9626 B( 54-C , 85-H ) :   0.9683
B( 54-C , 86-H ) :   0.9774 B( 54-C , 87-H ) :   0.9685 B( 55-C , 56-C ) :   1.1388
B( 55-C , 88-H ) :   1.0399 B( 56-C , 57-C ) :   1.1695 B( 56-C , 60-N ) :   1.5398
B( 57-C , 58-N ) :   1.5052 B( 58-N , 59-S ) :   1.2408 B( 58-N , 60-N ) :   0.1395
B( 59-S , 60-N ) :   1.2621

-----------------------------------------------------------------------------
         ABSORPTION SPECTRUM VIA TRANSITION ELECTRIC DIPOLE MOMENTS
-----------------------------------------------------------------------------
State   Energy  Wavelength   fosc         T2         TX        TY        TZ
        (cm-1)    (nm)                  (au**2)     (au)      (au)      (au)
-----------------------------------------------------------------------------
   0    7219.8   1385.1   0.071607384   3.26519  -0.75242   1.64272   0.02290
   1   12174.2    821.4   0.063972852   1.72993  -1.19081   0.28866   0.47811
   2   15161.0    659.6   0.455363426   9.88794  -2.23567   0.63967   2.11673
   3   15830.4    631.7   0.010290291   0.21400   0.37120  -0.00503  -0.27602
   4   19367.6    516.3   0.025268926   0.42952   0.50768   0.20610  -0.35959
   5   20388.7    490.5   0.470844393   7.60261   1.53731  -0.97416  -2.07130
   6   21959.8    455.4   0.421134475   6.31347   1.63861   1.13637   1.52876
   7   24244.0    412.5   0.022383918   0.30395   0.30293   0.34121   0.30945
   8   24499.1    408.2   0.060497394   0.81295   0.37927   0.22208  -0.78726
   9   25181.4    397.1   0.022698955   0.29676   0.47010   0.18118  -0.20722
  10   26311.1    380.1   0.022159932   0.27727  -0.03675   0.42997   0.30175
  11   26411.3    378.6   0.077415987   0.96497  -0.92782  -0.02729  -0.32153
  12   26928.2    371.4   0.019079353   0.23326  -0.04701  -0.31182  -0.36580
  13   27843.9    359.1   0.132568402   1.56742   0.83039  -0.38690  -0.85334
  14   28289.5    353.5   0.097704751   1.13701  -0.00927  -0.59496  -0.88485
  15   28384.5    352.3   0.149671477   1.73593   0.05875  -0.83887  -1.01429
  16   28700.1    348.4   0.001860412   0.02134  -0.13963   0.02780  -0.03272
  17   29156.9    343.0   0.054323143   0.61337  -0.16642  -0.34899  -0.68109
  18   29535.7    338.6   0.533142065   5.94252   1.01848   1.35898   1.74883
  19   30185.2    331.3   0.130189648   1.41990  -0.18907   0.47151   1.07788
  20   30305.4    330.0   0.010295429   0.11184  -0.29059   0.16552   0.00164
  21   30637.3    326.4   0.057127303   0.61386   0.74665  -0.06966   0.22699
  22   31328.9    319.2   0.147298418   1.54785   1.18157   0.23518   0.31052
  23   31605.7    316.4   0.088117740   0.91785  -0.15307   0.44492   0.83455
  24   32196.1    310.6   0.248213866   2.53804   0.52550  -1.28334  -0.78417
  25   32411.6    308.5   0.050663472   0.51460  -0.10099   0.29472   0.64618
  26   32513.3    307.6   0.067563982   0.68412   0.08794   0.65420   0.49841
  27   32654.2    306.2   0.053652816   0.54092   0.24797   0.52399   0.45261
  28   32776.7    305.1   0.229950747   2.30965   0.21955   1.11824   1.00548
  29   33160.2    301.6   0.020818303   0.20668   0.45358  -0.01345   0.02766
  30   33306.2    300.2   0.042879163   0.42384   0.55864   0.19730  -0.26986
  31   33573.7    297.9   0.173202928   1.69837   0.05304  -1.01999  -0.80943
  32   34014.7    294.0   0.016434721   0.15906  -0.29035  -0.10941   0.25058
  33   34353.7    291.1   0.044770714   0.42904   0.51110   0.35024  -0.21248
  34   34428.0    290.5   0.249388452   2.38474  -1.44059  -0.39274   0.39394
  35   34681.9    288.3   0.006505673   0.06175   0.24399   0.01815  -0.04349
  36   35099.4    284.9   0.020642020   0.19361  -0.33435  -0.20690   0.19751
  37   35519.6    281.5   0.030226747   0.28016   0.38208  -0.31217  -0.19162
  38   35554.6    281.3   0.059026410   0.54655   0.04059   0.52849   0.51536
  39   35709.9    280.0   0.019253372   0.17750  -0.24796  -0.16931  -0.29554
  40   36107.9    276.9   0.062438746   0.56928  -0.54233  -0.37637  -0.36539
  41   36131.3    276.8   0.001838510   0.01675   0.03922   0.10760  -0.06029
  42   36677.0    272.7   0.008288759   0.07440  -0.26922  -0.00406   0.04361
  43   36939.9    270.7   0.132366069   1.17966  -0.97448  -0.46972  -0.09703
  44   37345.8    267.8   0.005869280   0.05174   0.09583   0.13315   0.15757
  45   37570.0    266.2   0.008081673   0.07082  -0.19290   0.17945   0.03747
  46   37754.2    264.9   0.083425036   0.72746  -0.49522  -0.49873  -0.48319
  47   38132.2    262.2   0.016900750   0.14591   0.25222   0.14236  -0.24907
  48   38265.7    261.3   0.057672106   0.49617  -0.58248   0.36953   0.14261
  49   38579.0    259.2   0.002235142   0.01907   0.02156   0.01968   0.13499
  50   38706.1    258.4   0.005527524   0.04701  -0.06657  -0.13699  -0.15433
  51   38835.4    257.5   0.078579188   0.66612   0.34438   0.72034   0.16923
  52   39037.8    256.2   0.227201018   1.91602   1.24372   0.60620   0.04123
  53   39506.6    253.1   0.010005864   0.08338  -0.19514  -0.21195   0.01951
  54   39607.9    252.5   0.014427152   0.11992   0.31789  -0.11469   0.07553
  55   39726.8    251.7   0.015854596   0.13139   0.33976   0.12398   0.02406
  56   40083.1    249.5   0.023726173   0.19487   0.08468  -0.37470  -0.21748
  57   40211.4    248.7   0.074727153   0.61179  -0.25943   0.47400   0.56552
  58   40313.1    248.1   0.024263821   0.19815   0.17011   0.36913   0.18154

FINAL SINGLE POINT ENERGY     -6652.920642119998

DIPOLE MOMENT
-------------
                                X             Y             Z
Electronic contribution:    -50.86324     -30.02576     -87.21667
Nuclear contribution   :     52.54708      29.39994      87.84850
                        -----------------------------------------
Total Dipole Moment    :      1.68383      -0.62582       0.63183
                        -----------------------------------------
Magnitude (a.u.)       :      1.90425
Magnitude (Debye)      :      4.84021

Rotational constants in cm-1:     0.001386     0.000965     0.000676
Rotational constants in MHz :    41.565473    28.917932    20.267922

                             ****ORCA TERMINATED NORMALLY****
TOTAL RUN TIME: 0 days 0 hours 10 minutes 6 seconds 82 msec
