                         Program Version 4.2.0 -  RELEASE  -
|  1> # ORCA input file
|  2> # SCF done       -192.288260959069          0.000684270292
|  3> ! CAM-B3LYP def2-SVP def2/J RIJCOSX Grid4 TightSCF
|  4> %maxcore 5000
|  5> %tddft
|  6>     Mode sTDDFT
|  7>     Ethresh 5.0
|  8>     maxcore 5000
|  9> end
| 10>
| 11> %pal
| 12>   nprocs 6
| 13>   end
| 14> * xyz 0 1
| 15>    C        8.95405         0.41217        -5.00628
| 16>    C        9.24218        -0.09921        -3.80203
| 17>    C       10.43499         0.09437        -3.02722
| 18>    C       10.44368        -0.55172        -1.84118
| 19>    C        9.26581        -1.30897        -1.57877
| 20>    S        8.13924        -1.16235        -2.91246
| 21>    C        9.00039        -2.07000        -0.46691
| 22>    C        9.83186        -2.25790         0.66579
| 23>    C        9.30520        -3.08971         1.59912
| 24>    C        8.03036        -3.62361         1.26362
| 25>    S        7.51234        -2.98762        -0.28655
| 26>    C        7.34050        -4.52254         2.03267
| 27>    C        6.13283        -5.18098         1.74865
| 28>    S        5.30729        -5.01433         0.22191
| 29>    C        4.22279        -6.28812         0.63131
| 30>    C        4.46417        -6.83231         1.85253
| 31>    C        3.67014        -7.94739         2.44765
| 32>    C        5.53705        -6.18442         2.53081
| 33>    C        5.98172        -6.54888         3.84125
| 34>    C        6.43509        -5.67251         4.77333
| 35>    C        7.11032        -6.05070         5.95713
| 36>    C        7.56630        -5.14290         6.86424
| 37>    C        8.52708        -5.42159         7.85789
| 38>    S        9.05645        -4.16951         8.94264
| 39>    C       10.41152        -5.08544         9.51912
| 40>    C       10.41430        -6.35604         8.93584
| 41>    C        9.34649        -6.54924         8.00912
| 42>    N        9.24342        -7.69327         7.30116
| 43>    C       10.15080        -8.61039         7.52399
| 44>    O       10.13590        -9.75115         6.83879
| 45>    C        9.10022        -9.92227         5.87811
| 46>    C        9.35347        -9.12410         4.60464
| 47>    C       11.19547        -8.43719         8.50289
| 48>    C       12.14604        -9.55884         8.80445
| 49>    N       11.46393       -10.52824         9.65574
| 50>    N       11.31329        -7.33340         9.17883
| 51>    C       11.43889        -4.48076        10.27280
| 52>    N       12.66785        -4.90018        10.29891
| 53>    C       13.47256        -4.02540        10.90926
| 54>    C       12.85938        -2.89769        11.41328
| 55>    S       11.17545        -2.91900        11.11626
| 56>    C       13.91317        -2.07772        12.04810
| 57>    C       15.06805        -2.39393        11.05643
| 58>    C       14.98914        -3.96351        11.00760
| 59>    C       15.46386        -4.67075        12.29187
| 60>    C       16.96102        -4.55627        12.55324
| 61>    C       15.63397        -4.64097         9.79241
| 62>    C       14.98465        -4.33500         8.44789
| 63>    N       16.17745        -1.47826        11.38719
| 64>    C       15.83858        -0.77480        12.60232
| 65>    S       14.05553        -0.30737        12.40888
| 66>    C       16.59133        -0.61621        10.41073
| 67>    C       16.77144        -0.75866         9.07140
| 68>    C       17.05050        -1.85194         8.17437
| 69>    C       17.93088        -2.86384         8.44888
| 70>    C       18.32585        -3.82685         7.50217
| 71>    N       18.64916        -4.62900         6.74730
| 72>    C       18.56678        -2.93415         9.70587
| 73>    N       19.10459        -2.96466        10.71872
| 74>    C       16.53602        -1.47935         6.86077
| 75>    C       16.22955        -0.09631         6.88437
| 76>    C       16.53100         0.44816         8.22833
| 77>    O       16.51461         1.60254         8.58268
| 78>    C       15.67898         0.55016         5.80474
| 79>    C       15.38936        -0.21344         4.66803
| 80>    C       15.70902        -1.59181         4.65531
| 81>    C       16.30093        -2.23952         5.73372
| 82>    S       15.21785        -2.34936         3.17051
| 83>    C       14.58339        -0.82777         2.60310
| 84>    C       14.74580         0.19984         3.46768
| 85>   Br       13.73164        -0.74907         0.93827
| 86>    H        9.65444         1.05341        -5.51169
| 87>    H        8.02476         0.20181        -5.50291
| 88>    H       11.23534         0.71000        -3.39744
| 89>    H       11.25934        -0.52065        -1.13988
| 90>    H       10.78989        -1.77745         0.74825
| 91>    H        9.78929        -3.35605         2.52265
| 92>    H        7.82153        -4.81212         2.95829
| 93>    H        3.45698        -6.56225        -0.06753
| 94>    H        2.86392        -8.23799         1.77956
| 95>    H        3.24524        -7.64274         3.40298
| 96>    H        4.30684        -8.81443         2.62272
| 97>    H        5.94288        -7.60254         4.08993
| 98>    H        6.31873        -4.61092         4.59364
| 99>    H        7.36523        -7.09095         6.09111
|100>    H        7.25145        -4.10955         6.78493
|101>    H        8.14440        -9.63037         6.32587
|102>    H        9.09685       -10.99440         5.66876
|103>    H        9.34973        -8.05919         4.82225
|104>    H        8.57420        -9.33760         3.87839
|105>    H       10.31660        -9.39417         4.17847
|106>    H       13.04720        -9.12286         9.26267
|107>    H       12.41515       -10.06496         7.87378
|108>    H       11.22016       -10.09409        10.54034
|109>    H       12.07788       -11.31125         9.85096
|110>    H       14.11468        -2.52397        13.03022
|111>    H       14.72898        -2.08177        10.05729
|112>    H       14.92231        -4.28372        13.15703
|113>    H       15.18782        -5.72348        12.20164
|114>    H       17.29141        -3.52184        12.52027
|115>    H       17.53394        -5.11383        11.81854
|116>    H       17.19260        -4.96172        13.53534
|117>    H       16.69146        -4.38443         9.77491
|118>    H       15.56192        -5.71848         9.94998
|119>    H       14.91478        -3.26607         8.25487
|120>    H       13.98333        -4.75569         8.41472
|121>    H       15.57225        -4.78889         7.65271
|122>    H       16.44482         0.11423        12.74906
|123>    H       15.92679        -1.43230        13.46884
|124>    H       16.66658         0.41983        10.73562
|125>    H       15.45378         1.60432         5.84204
|126>    H       16.52416        -3.29318         5.69091
|127>    H       14.41368         1.20452         3.27879
|128> *
|129>
|130>                          ****END OF INPUT****

CARTESIAN COORDINATES (ANGSTROEM)
---------------------------------
  C      8.954050    0.412170   -5.006280
  C      9.242180   -0.099210   -3.802030
  C     10.434990    0.094370   -3.027220
  C     10.443680   -0.551720   -1.841180
  C      9.265810   -1.308970   -1.578770
  S      8.139240   -1.162350   -2.912460
  C      9.000390   -2.070000   -0.466910
  C      9.831860   -2.257900    0.665790
  C      9.305200   -3.089710    1.599120
  C      8.030360   -3.623610    1.263620
  S      7.512340   -2.987620   -0.286550
  C      7.340500   -4.522540    2.032670
  C      6.132830   -5.180980    1.748650
  S      5.307290   -5.014330    0.221910
  C      4.222790   -6.288120    0.631310
  C      4.464170   -6.832310    1.852530
  C      3.670140   -7.947390    2.447650
  C      5.537050   -6.184420    2.530810
  C      5.981720   -6.548880    3.841250
  C      6.435090   -5.672510    4.773330
  C      7.110320   -6.050700    5.957130
  C      7.566300   -5.142900    6.864240
  C      8.527080   -5.421590    7.857890
  S      9.056450   -4.169510    8.942640
  C     10.411520   -5.085440    9.519120
  C     10.414300   -6.356040    8.935840
  C      9.346490   -6.549240    8.009120
  N      9.243420   -7.693270    7.301160
  C     10.150800   -8.610390    7.523990
  O     10.135900   -9.751150    6.838790
  C      9.100220   -9.922270    5.878110
  C      9.353470   -9.124100    4.604640
  C     11.195470   -8.437190    8.502890
  C     12.146040   -9.558840    8.804450
  N     11.463930  -10.528240    9.655740
  N     11.313290   -7.333400    9.178830
  C     11.438890   -4.480760   10.272800
  N     12.667850   -4.900180   10.298910
  C     13.472560   -4.025400   10.909260
  C     12.859380   -2.897690   11.413280
  S     11.175450   -2.919000   11.116260
  C     13.913170   -2.077720   12.048100
  C     15.068050   -2.393930   11.056430
  C     14.989140   -3.963510   11.007600
  C     15.463860   -4.670750   12.291870
  C     16.961020   -4.556270   12.553240
  C     15.633970   -4.640970    9.792410
  C     14.984650   -4.335000    8.447890
  N     16.177450   -1.478260   11.387190
  C     15.838580   -0.774800   12.602320
  S     14.055530   -0.307370   12.408880
  C     16.591330   -0.616210   10.410730
  C     16.771440   -0.758660    9.071400
  C     17.050500   -1.851940    8.174370
  C     17.930880   -2.863840    8.448880
  C     18.325850   -3.826850    7.502170
  N     18.649160   -4.629000    6.747300
  C     18.566780   -2.934150    9.705870
  N     19.104590   -2.964660   10.718720
  C     16.536020   -1.479350    6.860770
  C     16.229550   -0.096310    6.884370
  C     16.531000    0.448160    8.228330
  O     16.514610    1.602540    8.582680
  C     15.678980    0.550160    5.804740
  C     15.389360   -0.213440    4.668030
  C     15.709020   -1.591810    4.655310
  C     16.300930   -2.239520    5.733720
  S     15.217850   -2.349360    3.170510
  C     14.583390   -0.827770    2.603100
  C     14.745800    0.199840    3.467680
  Br    13.731640   -0.749070    0.938270
  H      9.654440    1.053410   -5.511690
  H      8.024760    0.201810   -5.502910
  H     11.235340    0.710000   -3.397440
  H     11.259340   -0.520650   -1.139880
  H     10.789890   -1.777450    0.748250
  H      9.789290   -3.356050    2.522650
  H      7.821530   -4.812120    2.958290
  H      3.456980   -6.562250   -0.067530
  H      2.863920   -8.237990    1.779560
  H      3.245240   -7.642740    3.402980
  H      4.306840   -8.814430    2.622720
  H      5.942880   -7.602540    4.089930
  H      6.318730   -4.610920    4.593640
  H      7.365230   -7.090950    6.091110
  H      7.251450   -4.109550    6.784930
  H      8.144400   -9.630370    6.325870
  H      9.096850  -10.994400    5.668760
  H      9.349730   -8.059190    4.822250
  H      8.574200   -9.337600    3.878390
  H     10.316600   -9.394170    4.178470
  H     13.047200   -9.122860    9.262670
  H     12.415150  -10.064960    7.873780
  H     11.220160  -10.094090   10.540340
  H     12.077880  -11.311250    9.850960
  H     14.114680   -2.523970   13.030220
  H     14.728980   -2.081770   10.057290
  H     14.922310   -4.283720   13.157030
  H     15.187820   -5.723480   12.201640
  H     17.291410   -3.521840   12.520270
  H     17.533940   -5.113830   11.818540
  H     17.192600   -4.961720   13.535340
  H     16.691460   -4.384430    9.774910
  H     15.561920   -5.718480    9.949980
  H     14.914780   -3.266070    8.254870
  H     13.983330   -4.755690    8.414720
  H     15.572250   -4.788890    7.652710
  H     16.444820    0.114230   12.749060
  H     15.926790   -1.432300   13.468840
  H     16.666580    0.419830   10.735620
  H     15.453780    1.604320    5.842040
  H     16.524160   -3.293180    5.690910
  H     14.413680    1.204520    3.278790

 Total Charge           Charge          ....    0
 Multiplicity           Mult            ....    1
 Number of Electrons    NEL             ....  578
 Basis Dimension        Dim             .... 1250

ORBITAL ENERGIES
----------------

  NO   OCC          E(Eh)            E(eV)
   0   2.0000    -482.892580    -13140.1751
   1   2.0000     -88.976946     -2421.1858
   2   2.0000     -88.970665     -2421.0149
   3   2.0000     -88.969143     -2420.9735
   4   2.0000     -88.943192     -2420.2673
   5   2.0000     -88.936624     -2420.0886
   6   2.0000     -88.932074     -2419.9647
   7   2.0000     -88.930513     -2419.9223
   8   2.0000     -62.569788     -1702.6105
   9   2.0000     -56.403736     -1534.8237
  10   2.0000     -56.401139     -1534.7530
  11   2.0000     -56.400972     -1534.7485
  12   2.0000     -19.258470      -524.0496
  13   2.0000     -19.210593      -522.7468
  14   2.0000     -14.472559      -393.8184
  15   2.0000     -14.419311      -392.3694
  16   2.0000     -14.413507      -392.2115
  17   2.0000     -14.413235      -392.2041
  18   2.0000     -14.410678      -392.1345
  19   2.0000     -14.407312      -392.0429
  20   2.0000     -14.382851      -391.3773
  21   2.0000     -10.375473      -282.3310
  22   2.0000     -10.365550      -282.0610
  23   2.0000     -10.360131      -281.9135
  24   2.0000     -10.349386      -281.6211
  25   2.0000     -10.346694      -281.5478
  26   2.0000     -10.342762      -281.4409
  27   2.0000     -10.339419      -281.3499
  28   2.0000     -10.337387      -281.2946
  29   2.0000     -10.330845      -281.1166
  30   2.0000     -10.326016      -280.9852
  31   2.0000     -10.323354      -280.9128
  32   2.0000     -10.322766      -280.8967
  33   2.0000     -10.321102      -280.8515
  34   2.0000     -10.315690      -280.7042
  35   2.0000     -10.312573      -280.6194
  36   2.0000     -10.310655      -280.5672
  37   2.0000     -10.309541      -280.5369
  38   2.0000     -10.308770      -280.5159
  39   2.0000     -10.307265      -280.4750
  40   2.0000     -10.307068      -280.4696
  41   2.0000     -10.306194      -280.4458
  42   2.0000     -10.305565      -280.4287
  43   2.0000     -10.302768      -280.3526
  44   2.0000     -10.302342      -280.3410
  45   2.0000     -10.300959      -280.3033
  46   2.0000     -10.300801      -280.2990
  47   2.0000     -10.300788      -280.2987
  48   2.0000     -10.298786      -280.2442
  49   2.0000     -10.298501      -280.2365
  50   2.0000     -10.298262      -280.2299
  51   2.0000     -10.294460      -280.1265
  52   2.0000     -10.294210      -280.1197
  53   2.0000     -10.292060      -280.0612
  54   2.0000     -10.288180      -279.9556
  55   2.0000     -10.287353      -279.9331
  56   2.0000     -10.285057      -279.8706
  57   2.0000     -10.279557      -279.7210
  58   2.0000     -10.279260      -279.7129
  59   2.0000     -10.279136      -279.7095
  60   2.0000     -10.277083      -279.6537
  61   2.0000     -10.276381      -279.6345
  62   2.0000     -10.274244      -279.5764
  63   2.0000     -10.273158      -279.5468
  64   2.0000     -10.269728      -279.4535
  65   2.0000     -10.269314      -279.4422
  66   2.0000     -10.268924      -279.4316
  67   2.0000     -10.268573      -279.4221
  68   2.0000     -10.264089      -279.3001
  69   2.0000     -10.263768      -279.2913
  70   2.0000     -10.263151      -279.2745
  71   2.0000     -10.258534      -279.1489
  72   2.0000     -10.258133      -279.1380
  73   2.0000     -10.246258      -278.8148
  74   2.0000     -10.243161      -278.7306
  75   2.0000      -8.799037      -239.4340
  76   2.0000      -8.072846      -219.6733
  77   2.0000      -8.065897      -219.4842
  78   2.0000      -8.064061      -219.4343
  79   2.0000      -8.038855      -218.7484
  80   2.0000      -8.032673      -218.5801
  81   2.0000      -8.028698      -218.4720
  82   2.0000      -8.026447      -218.4107
  83   2.0000      -6.635181      -180.5525
  84   2.0000      -6.620905      -180.1640
  85   2.0000      -6.620617      -180.1561
  86   2.0000      -6.042555      -164.4263
  87   2.0000      -6.038261      -164.3094
  88   2.0000      -6.034935      -164.2189
  89   2.0000      -6.034095      -164.1961
  90   2.0000      -6.033317      -164.1749
  91   2.0000      -6.030993      -164.1117
  92   2.0000      -6.029413      -164.0687
  93   2.0000      -6.028392      -164.0409
  94   2.0000      -6.026099      -163.9785
  95   2.0000      -6.008203      -163.4915
  96   2.0000      -6.003864      -163.3734
  97   2.0000      -6.002482      -163.3358
  98   2.0000      -6.001039      -163.2966
  99   2.0000      -5.998523      -163.2281
 100   2.0000      -5.998402      -163.2248
 101   2.0000      -5.996576      -163.1751
 102   2.0000      -5.994634      -163.1223
 103   2.0000      -5.993719      -163.0974
 104   2.0000      -5.993478      -163.0908
 105   2.0000      -5.989231      -162.9753
 106   2.0000      -5.985387      -162.8707
 107   2.0000      -2.751073       -74.8605
 108   2.0000      -2.747134       -74.7533
 109   2.0000      -2.746900       -74.7470
 110   2.0000      -2.735545       -74.4380
 111   2.0000      -2.735535       -74.4377
 112   2.0000      -1.176081       -32.0028
 113   2.0000      -1.128063       -30.6962
 114   2.0000      -1.090916       -29.6853
 115   2.0000      -1.073831       -29.2204
 116   2.0000      -1.064938       -28.9784
 117   2.0000      -1.022396       -27.8208
 118   2.0000      -1.010817       -27.5057
 119   2.0000      -1.001982       -27.2653
 120   2.0000      -0.990911       -26.9641
 121   2.0000      -0.987841       -26.8805
 122   2.0000      -0.986244       -26.8371
 123   2.0000      -0.981371       -26.7045
 124   2.0000      -0.975206       -26.5367
 125   2.0000      -0.963650       -26.2222
 126   2.0000      -0.960184       -26.1279
 127   2.0000      -0.957735       -26.0613
 128   2.0000      -0.942478       -25.6461
 129   2.0000      -0.914619       -24.8881
 130   2.0000      -0.909163       -24.7396
 131   2.0000      -0.907375       -24.6909
 132   2.0000      -0.897748       -24.4290
 133   2.0000      -0.886152       -24.1134
 134   2.0000      -0.885953       -24.1080
 135   2.0000      -0.880797       -23.9677
 136   2.0000      -0.876213       -23.8430
 137   2.0000      -0.869786       -23.6681
 138   2.0000      -0.860947       -23.4275
 139   2.0000      -0.856125       -23.2963
 140   2.0000      -0.843789       -22.9607
 141   2.0000      -0.838064       -22.8049
 142   2.0000      -0.837165       -22.7804
 143   2.0000      -0.834120       -22.6976
 144   2.0000      -0.832276       -22.6474
 145   2.0000      -0.829525       -22.5725
 146   2.0000      -0.828603       -22.5474
 147   2.0000      -0.814417       -22.1614
 148   2.0000      -0.804988       -21.9048
 149   2.0000      -0.789059       -21.4714
 150   2.0000      -0.778918       -21.1954
 151   2.0000      -0.777454       -21.1556
 152   2.0000      -0.771836       -21.0027
 153   2.0000      -0.762030       -20.7359
 154   2.0000      -0.753196       -20.4955
 155   2.0000      -0.749031       -20.3822
 156   2.0000      -0.747110       -20.3299
 157   2.0000      -0.734015       -19.9736
 158   2.0000      -0.722965       -19.6729
 159   2.0000      -0.714549       -19.4439
 160   2.0000      -0.704341       -19.1661
 161   2.0000      -0.701985       -19.1020
 162   2.0000      -0.694319       -18.8934
 163   2.0000      -0.692688       -18.8490
 164   2.0000      -0.690726       -18.7956
 165   2.0000      -0.685234       -18.6462
 166   2.0000      -0.676952       -18.4208
 167   2.0000      -0.670205       -18.2372
 168   2.0000      -0.661110       -17.9897
 169   2.0000      -0.658166       -17.9096
 170   2.0000      -0.657047       -17.8792
 171   2.0000      -0.644119       -17.5274
 172   2.0000      -0.640455       -17.4277
 173   2.0000      -0.633777       -17.2459
 174   2.0000      -0.630261       -17.1503
 175   2.0000      -0.622509       -16.9393
 176   2.0000      -0.622083       -16.9277
 177   2.0000      -0.617492       -16.8028
 178   2.0000      -0.615530       -16.7494
 179   2.0000      -0.614520       -16.7219
 180   2.0000      -0.607077       -16.5194
 181   2.0000      -0.602714       -16.4007
 182   2.0000      -0.594515       -16.1776
 183   2.0000      -0.591737       -16.1020
 184   2.0000      -0.589387       -16.0380
 185   2.0000      -0.582669       -15.8552
 186   2.0000      -0.582180       -15.8419
 187   2.0000      -0.575356       -15.6562
 188   2.0000      -0.564152       -15.3514
 189   2.0000      -0.561206       -15.2712
 190   2.0000      -0.556141       -15.1334
 191   2.0000      -0.553217       -15.0538
 192   2.0000      -0.550554       -14.9813
 193   2.0000      -0.547376       -14.8949
 194   2.0000      -0.546356       -14.8671
 195   2.0000      -0.541327       -14.7302
 196   2.0000      -0.540735       -14.7141
 197   2.0000      -0.539650       -14.6846
 198   2.0000      -0.537670       -14.6307
 199   2.0000      -0.532367       -14.4865
 200   2.0000      -0.530723       -14.4417
 201   2.0000      -0.529517       -14.4089
 202   2.0000      -0.523252       -14.2384
 203   2.0000      -0.521109       -14.1801
 204   2.0000      -0.516728       -14.0609
 205   2.0000      -0.514542       -14.0014
 206   2.0000      -0.513812       -13.9815
 207   2.0000      -0.510072       -13.8798
 208   2.0000      -0.507802       -13.8180
 209   2.0000      -0.505018       -13.7422
 210   2.0000      -0.504171       -13.7192
 211   2.0000      -0.502334       -13.6692
 212   2.0000      -0.499730       -13.5984
 213   2.0000      -0.498545       -13.5661
 214   2.0000      -0.494416       -13.4537
 215   2.0000      -0.491270       -13.3681
 216   2.0000      -0.489497       -13.3199
 217   2.0000      -0.488167       -13.2837
 218   2.0000      -0.486817       -13.2470
 219   2.0000      -0.483400       -13.1540
 220   2.0000      -0.482084       -13.1182
 221   2.0000      -0.479161       -13.0386
 222   2.0000      -0.478164       -13.0115
 223   2.0000      -0.476867       -12.9762
 224   2.0000      -0.473521       -12.8852
 225   2.0000      -0.470653       -12.8071
 226   2.0000      -0.468314       -12.7435
 227   2.0000      -0.466306       -12.6888
 228   2.0000      -0.462910       -12.5964
 229   2.0000      -0.461866       -12.5680
 230   2.0000      -0.459022       -12.4906
 231   2.0000      -0.457709       -12.4549
 232   2.0000      -0.456703       -12.4275
 233   2.0000      -0.452752       -12.3200
 234   2.0000      -0.450927       -12.2703
 235   2.0000      -0.448432       -12.2025
 236   2.0000      -0.447475       -12.1764
 237   2.0000      -0.446264       -12.1435
 238   2.0000      -0.444583       -12.0977
 239   2.0000      -0.442779       -12.0486
 240   2.0000      -0.441233       -12.0066
 241   2.0000      -0.439228       -11.9520
 242   2.0000      -0.438606       -11.9351
 243   2.0000      -0.437076       -11.8934
 244   2.0000      -0.435775       -11.8580
 245   2.0000      -0.430966       -11.7272
 246   2.0000      -0.429277       -11.6812
 247   2.0000      -0.427686       -11.6379
 248   2.0000      -0.425792       -11.5864
 249   2.0000      -0.424441       -11.5496
 250   2.0000      -0.424191       -11.5428
 251   2.0000      -0.417848       -11.3702
 252   2.0000      -0.416457       -11.3324
 253   2.0000      -0.413400       -11.2492
 254   2.0000      -0.409976       -11.1560
 255   2.0000      -0.409306       -11.1378
 256   2.0000      -0.403384       -10.9766
 257   2.0000      -0.402281       -10.9466
 258   2.0000      -0.398625       -10.8471
 259   2.0000      -0.394742       -10.7415
 260   2.0000      -0.392099       -10.6696
 261   2.0000      -0.390223       -10.6185
 262   2.0000      -0.387658       -10.5487
 263   2.0000      -0.386175       -10.5084
 264   2.0000      -0.384029       -10.4500
 265   2.0000      -0.381891       -10.3918
 266   2.0000      -0.381230       -10.3738
 267   2.0000      -0.380351       -10.3499
 268   2.0000      -0.374647       -10.1947
 269   2.0000      -0.361437        -9.8352
 270   2.0000      -0.357881        -9.7384
 271   2.0000      -0.348114        -9.4727
 272   2.0000      -0.343939        -9.3590
 273   2.0000      -0.338727        -9.2172
 274   2.0000      -0.333912        -9.0862
 275   2.0000      -0.331415        -9.0183
 276   2.0000      -0.321978        -8.7615
 277   2.0000      -0.318939        -8.6788
 278   2.0000      -0.315135        -8.5753
 279   2.0000      -0.314366        -8.5543
 280   2.0000      -0.308394        -8.3918
 281   2.0000      -0.305084        -8.3018
 282   2.0000      -0.301618        -8.2075
 283   2.0000      -0.297660        -8.0998
 284   2.0000      -0.289810        -7.8861
 285   2.0000      -0.286267        -7.7897
 286   2.0000      -0.277751        -7.5580
 287   2.0000      -0.235176        -6.3995
 288   2.0000      -0.205210        -5.5840
 289   0.0000      -0.075753        -2.0614
 290   0.0000      -0.072166        -1.9637
 291   0.0000      -0.055049        -1.4980
 292   0.0000      -0.043625        -1.1871
 293   0.0000      -0.009710        -0.2642

MULLIKEN ATOMIC CHARGES
-----------------------
   0 C :   -0.033397
   1 C :   -0.063727
   2 C :    0.053345
   3 C :    0.038082
   4 C :   -0.073662
   5 S :    0.078586
   6 C :   -0.036486
   7 C :    0.034928
   8 C :    0.032927
   9 C :   -0.042466
  10 S :    0.071968
  11 C :   -0.029287
  12 C :   -0.120207
  13 S :    0.099860
  14 C :   -0.121476
  15 C :   -0.067174
  16 C :    0.119582
  17 C :    0.106900
  18 C :   -0.056480
  19 C :    0.004633
  20 C :    0.013922
  21 C :    0.004288
  22 C :   -0.143944
  23 S :    0.165520
  24 C :   -0.136226
  25 C :    0.052576
  26 C :    0.044525
  27 N :   -0.064512
  28 C :    0.136239
  29 O :   -0.271489
  30 C :    0.191100
  31 C :   -0.034382
  32 C :   -0.221233
  33 C :    0.262240
  34 N :   -0.242795
  35 N :    0.043890
  36 C :   -0.126229
  37 N :   -0.022342
  38 C :   -0.066099
  39 C :   -0.070655
  40 S :    0.122414
  41 C :   -0.127886
  42 C :    0.091607
  43 C :   -0.157023
  44 C :    0.037168
  45 C :    0.042392
  46 C :    0.073824
  47 C :    0.013344
  48 N :   -0.196917
  49 C :    0.072750
  50 S :   -0.001040
  51 C :    0.118934
  52 C :   -0.190138
  53 C :    0.230333
  54 C :   -0.360804
  55 C :   -0.177471
  56 N :    0.168944
  57 C :   -0.182470
  58 N :    0.163083
  59 C :    0.028916
  60 C :    0.012328
  61 C :    0.143957
  62 O :   -0.150567
  63 C :   -0.077577
  64 C :    0.106869
  65 C :   -0.087583
  66 C :   -0.019194
  67 S :    0.183443
  68 C :   -0.125388
  69 C :    0.046858
  70 Br:    0.015656
  71 H :    0.017867
  72 H :    0.020293
  73 H :   -0.014592
  74 H :   -0.031838
  75 H :   -0.035604
  76 H :   -0.015576
  77 H :   -0.001346
  78 H :    0.012267
  79 H :    0.007778
  80 H :    0.028601
  81 H :    0.022726
  82 H :   -0.010868
  83 H :    0.004091
  84 H :    0.004994
  85 H :   -0.022121
  86 H :    0.021263
  87 H :    0.023105
  88 H :    0.040315
  89 H :    0.022197
  90 H :    0.021844
  91 H :    0.000865
  92 H :    0.001241
  93 H :    0.093604
  94 H :    0.097056
  95 H :    0.069864
  96 H :    0.040624
  97 H :   -0.014623
  98 H :    0.009192
  99 H :    0.020633
 100 H :    0.022941
 101 H :    0.005242
 102 H :    0.008324
 103 H :    0.010454
 104 H :    0.007505
 105 H :    0.031373
 106 H :    0.013822
 107 H :    0.062871
 108 H :    0.059931
 109 H :    0.030745
 110 H :   -0.008617
 111 H :   -0.006118
 112 H :   -0.001931
Sum of atomic charges:   -0.0000000

LOEWDIN ATOMIC CHARGES
----------------------
   0 C :   -0.081166
   1 C :   -0.139013
   2 C :   -0.034113
   3 C :   -0.027633
   4 C :   -0.179935
   5 S :    0.349733
   6 C :   -0.178650
   7 C :   -0.039998
   8 C :   -0.031638
   9 C :   -0.156767
  10 S :    0.360833
  11 C :   -0.074275
  12 C :   -0.166221
  13 S :    0.424486
  14 C :   -0.195261
  15 C :   -0.058542
  16 C :   -0.044144
  17 C :   -0.066376
  18 C :   -0.019520
  19 C :   -0.028050
  20 C :   -0.014246
  21 C :   -0.052336
  22 C :   -0.181183
  23 S :    0.469772
  24 C :   -0.221221
  25 C :   -0.045303
  26 C :   -0.041407
  27 N :   -0.096286
  28 C :    0.065814
  29 O :   -0.064451
  30 C :    0.086262
  31 C :   -0.071176
  32 C :   -0.011089
  33 C :    0.021107
  34 N :   -0.116740
  35 N :   -0.023597
  36 C :   -0.128451
  37 N :   -0.074456
  38 C :   -0.032070
  39 C :   -0.222570
  40 S :    0.401902
  41 C :   -0.138931
  42 C :    0.044622
  43 C :   -0.036506
  44 C :   -0.023406
  45 C :   -0.058241
  46 C :   -0.022614
  47 C :   -0.065046
  48 N :   -0.027479
  49 C :   -0.039402
  50 S :    0.208029
  51 C :    0.115785
  52 C :   -0.145616
  53 C :    0.069582
  54 C :   -0.145357
  55 C :   -0.021426
  56 N :   -0.054849
  57 C :   -0.022393
  58 N :   -0.047916
  59 C :   -0.015912
  60 C :   -0.049917
  61 C :    0.088893
  62 O :   -0.150424
  63 C :    0.021487
  64 C :   -0.036099
  65 C :   -0.143597
  66 C :   -0.011016
  67 S :    0.429583
  68 C :   -0.277726
  69 C :   -0.066603
  70 Br:    0.139552
  71 H :    0.027621
  72 H :    0.025613
  73 H :    0.032205
  74 H :    0.025419
  75 H :    0.021379
  76 H :    0.032312
  77 H :    0.040940
  78 H :    0.020194
  79 H :    0.032177
  80 H :    0.035864
  81 H :    0.033025
  82 H :    0.025728
  83 H :    0.029253
  84 H :    0.028585
  85 H :    0.025847
  86 H :    0.017544
  87 H :    0.024948
  88 H :    0.028311
  89 H :    0.031838
  90 H :    0.027560
  91 H :    0.013044
  92 H :    0.026692
  93 H :    0.054657
  94 H :    0.056885
  95 H :    0.027698
  96 H :    0.029607
  97 H :    0.013705
  98 H :    0.027281
  99 H :    0.018962
 100 H :    0.025296
 101 H :    0.024814
 102 H :    0.022580
 103 H :    0.033311
 104 H :    0.013923
 105 H :    0.028494
 106 H :    0.025046
 107 H :    0.029328
 108 H :    0.023775
 109 H :    0.038588
 110 H :    0.041487
 111 H :    0.039997
 112 H :    0.039387

  Mayer bond orders larger than 0.100000
B(  0-C ,  1-C ) :   1.8631 B(  0-C , 71-H ) :   0.9509 B(  0-C , 72-H ) :   0.9416
B(  1-C ,  2-C ) :   1.0786 B(  1-C ,  5-S ) :   1.0088 B(  2-C ,  3-C ) :   1.6621
B(  2-C , 73-H ) :   0.9928 B(  3-C ,  4-C ) :   1.1524 B(  3-C , 74-H ) :   0.9893
B(  4-C ,  5-S ) :   1.0408 B(  4-C ,  6-C ) :   1.5646 B(  6-C ,  7-C ) :   1.1633
B(  6-C , 10-S ) :   1.0313 B(  7-C ,  8-C ) :   1.6105 B(  7-C , 75-H ) :   0.9868
B(  8-C ,  9-C ) :   1.1317 B(  8-C , 76-H ) :   0.9999 B(  9-C , 10-S ) :   1.0294
B(  9-C , 11-C ) :   1.5881 B( 11-C , 12-C ) :   1.1924 B( 11-C , 77-H ) :   0.9569
B( 12-C , 13-S ) :   1.1189 B( 12-C , 17-C ) :   1.4082 B( 13-S , 14-C ) :   1.1293
B( 14-C , 15-C ) :   1.5874 B( 14-C , 78-H ) :   0.9661 B( 15-C , 16-C ) :   1.0964
B( 15-C , 17-C ) :   1.2470 B( 16-C , 79-H ) :   0.9515 B( 16-C , 80-H ) :   0.9457
B( 16-C , 81-H ) :   0.9418 B( 17-C , 18-C ) :   1.0844 B( 18-C , 19-C ) :   1.6556
B( 18-C , 82-H ) :   0.9575 B( 19-C , 20-C ) :   1.1333 B( 19-C , 83-H ) :   0.9890
B( 20-C , 21-C ) :   1.6413 B( 20-C , 84-H ) :   0.9742 B( 21-C , 22-C ) :   1.1526
B( 21-C , 85-H ) :   0.9577 B( 22-C , 23-S ) :   1.1361 B( 22-C , 24-C ) :   0.1339
B( 22-C , 26-C ) :   1.3441 B( 23-S , 24-C ) :   1.1634 B( 24-C , 25-C ) :   1.3704
B( 24-C , 36-C ) :   1.1105 B( 25-C , 26-C ) :   1.2411 B( 25-C , 35-N ) :   1.3716
B( 26-C , 27-N ) :   1.3607 B( 27-N , 28-C ) :   1.6020 B( 28-C , 29-O ) :   1.2626
B( 28-C , 32-C ) :   1.0874 B( 29-O , 30-C ) :   0.9125 B( 30-C , 31-C ) :   1.1149
B( 30-C , 86-H ) :   0.9478 B( 30-C , 87-H ) :   0.9584 B( 31-C , 88-H ) :   0.9650
B( 31-C , 89-H ) :   0.9630 B( 31-C , 90-H ) :   0.9630 B( 32-C , 33-C ) :   1.0433
B( 32-C , 35-N ) :   1.7842 B( 33-C , 34-N ) :   1.0901 B( 33-C , 91-H ) :   0.9181
B( 33-C , 92-H ) :   0.9092 B( 34-N , 93-H ) :   0.9668 B( 34-N , 94-H ) :   0.9728
B( 36-C , 37-N ) :   1.6926 B( 36-C , 40-S ) :   1.0781 B( 37-N , 38-C ) :   1.3980
B( 37-N , 40-S ) :   0.1013 B( 38-C , 39-C ) :   1.5375 B( 38-C , 43-C ) :   0.9300
B( 39-C , 40-S ) :   1.1013 B( 39-C , 41-C ) :   1.0752 B( 41-C , 42-C ) :   0.9649
B( 41-C , 50-S ) :   0.9936 B( 41-C , 95-H ) :   0.8735 B( 42-C , 43-C ) :   0.9555
B( 42-C , 48-N ) :   0.9697 B( 42-C , 96-H ) :   0.9157 B( 43-C , 44-C ) :   1.0195
B( 43-C , 46-C ) :   1.0487 B( 44-C , 45-C ) :   1.1055 B( 44-C , 97-H ) :   0.9390
B( 44-C , 98-H ) :   0.9298 B( 45-C , 99-H ) :   0.9600 B( 45-C ,100-H ) :   0.9601
B( 45-C ,101-H ) :   0.9591 B( 46-C , 47-C ) :   1.1082 B( 46-C ,102-H ) :   0.9353
B( 46-C ,103-H ) :   0.9159 B( 47-C ,104-H ) :   0.9552 B( 47-C ,105-H ) :   0.9402
B( 47-C ,106-H ) :   0.9554 B( 48-N , 49-C ) :   0.9917 B( 48-N , 51-C ) :   1.2361
B( 49-C , 50-S ) :   1.0124 B( 49-C ,107-H ) :   0.9543 B( 49-C ,108-H ) :   0.9413
B( 51-C , 52-C ) :   1.6554 B( 51-C ,109-H ) :   0.9047 B( 52-C , 53-C ) :   1.0229
B( 52-C , 61-C ) :   0.9542 B( 53-C , 54-C ) :   1.6749 B( 53-C , 59-C ) :   0.9982
B( 54-C , 55-C ) :   1.1306 B( 54-C , 57-C ) :   1.1608 B( 55-C , 56-N ) :   3.0020
B( 57-C , 58-N ) :   2.9640 B( 59-C , 60-C ) :   1.2837 B( 59-C , 66-C ) :   1.4193
B( 60-C , 61-C ) :   0.9197 B( 60-C , 63-C ) :   1.4299 B( 61-C , 62-O ) :   2.2449
B( 63-C , 64-C ) :   1.2492 B( 63-C ,110-H ) :   1.0163 B( 64-C , 65-C ) :   1.3158
B( 64-C , 69-C ) :   1.1620 B( 65-C , 66-C ) :   1.3213 B( 65-C , 67-S ) :   1.0794
B( 66-C ,111-H ) :   0.9895 B( 67-S , 68-C ) :   1.0869 B( 68-C , 69-C ) :   1.6201
B( 68-C , 70-Br) :   1.0101 B( 69-C ,112-H ) :   0.9999

-----------------------------------------------------------------------------
         ABSORPTION SPECTRUM VIA TRANSITION ELECTRIC DIPOLE MOMENTS
-----------------------------------------------------------------------------
State   Energy  Wavelength   fosc         T2         TX        TY        TZ
        (cm-1)    (nm)                  (au**2)     (au)      (au)      (au)
-----------------------------------------------------------------------------
   0   14842.6    673.7   0.896447852  19.88345   0.55898  -1.51304   4.15713
   1   19119.3    523.0   0.086356628   1.48696   0.61470   0.72434  -0.76448
   2   19716.1    507.2   0.510749584   8.52829   1.24003   1.86150  -1.87762
   3   20610.9    485.2   0.615009567   9.82338  -2.54979  -1.75194  -0.50263
   4   23565.1    424.4   0.014561436   0.20343  -0.04768  -0.10316  -0.43648
   5   25508.5    392.0   0.035531444   0.45857   0.36273   0.44047  -0.36467
   6   25655.9    389.8   0.002084844   0.02675  -0.07859  -0.08752   0.11365
   7   27495.9    363.7   0.132786087   1.58987  -1.03967  -0.65267  -0.28806
   8   28131.6    355.5   0.199348826   2.33289   0.52305  -0.74867  -1.22426
   9   28766.2    347.6   0.005562080   0.06365   0.22643  -0.09519  -0.05765
  10   29612.9    337.7   0.033359808   0.37087   0.43202  -0.31955   0.28655
  11   30021.6    333.1   0.084287566   0.92428   0.11026   0.95173  -0.07959
  12   30193.8    331.2   0.010557054   0.11511   0.33123  -0.06827  -0.02709
  13   30936.3    323.2   0.404887129   4.30865  -1.14078   0.57332  -1.63663
  14   31448.3    318.0   0.297334100   3.11260   1.21546   0.77136   1.01994
  15   32040.4    312.1   0.058512069   0.60120   0.06952  -0.34956  -0.68861
  16   32295.0    309.6   0.074242821   0.75682  -0.08730   0.76140   0.41167
  17   32553.3    307.2   0.001470574   0.01487  -0.07303   0.05974   0.07727
  18   32636.7    306.4   0.002294623   0.02315  -0.03548   0.03103  -0.14465
  19   32989.5    303.1   0.255897776   2.55368  -0.63229  -0.58706  -1.34508
  20   33199.5    301.2   0.058553482   0.58063  -0.43129   0.59496  -0.20158
  21   33463.8    298.8   0.067505599   0.66411   0.57789  -0.27427   0.50490
  22   33674.4    297.0   0.225752019   2.20702   0.79053  -0.97230   0.79795
  23   33910.5    294.9   0.128087224   1.24350  -0.37291   0.14258  -1.04121
  24   34050.0    293.7   0.101808266   0.98433   0.64605  -0.48689   0.57436
  25   34502.5    289.8   0.175371228   1.67334  -0.01454  -1.25956  -0.29434
  26   34715.8    288.1   0.024131690   0.22884   0.17615  -0.17326  -0.40962
  27   35236.6    283.8   0.120935698   1.12989   0.52338  -0.32939   0.86456
  28   35521.7    281.5   0.028987838   0.26866   0.50022   0.11782   0.06752
  29   35631.2    280.7   0.068586173   0.63370  -0.54687  -0.03946  -0.57713
  30   35717.5    280.0   0.342394335   3.15588  -0.10200  -0.05475   1.77271
  31   36383.2    274.9   0.370571981   3.35311   0.70248  -1.17796   1.21328
  32   36684.7    272.6   0.022515878   0.20206  -0.01657   0.20575  -0.39931
  33   36726.7    272.3   0.025823343   0.23148  -0.26481   0.37455  -0.14514
  34   37069.0    269.8   0.004391222   0.03900  -0.05497   0.17723   0.06756
  35   37247.6    268.5   0.039140855   0.34595  -0.07525  -0.47368  -0.34046
  36   37375.3    267.6   0.032370940   0.28513   0.07248   0.50028   0.17203
  37   37854.0    264.2   0.053171922   0.46243  -0.23080  -0.60839  -0.19754
  38   38585.4    259.2   0.007098078   0.06056   0.05800  -0.21907  -0.09595
  39   38870.5    257.3   0.002794601   0.02367   0.10342  -0.09651  -0.06049
  40   39010.4    256.3   0.005290344   0.04465   0.19530   0.06315  -0.05014
  41   39332.9    254.2   0.047700999   0.39925   0.63020   0.02495   0.03843
  42   39367.6    254.0   0.015551371   0.13005  -0.27770  -0.18848  -0.13193
  43   39447.2    253.5   0.018809479   0.15698   0.32856   0.17180   0.13967
  44   39779.6    251.4   0.008670875   0.07176  -0.13121  -0.23328   0.01109
  45   40137.9    249.1   0.146623345   1.20261   0.32651  -0.60722   0.85281

FINAL SINGLE POINT ENERGY     -7973.703167308591

DIPOLE MOMENT
-------------
                                X             Y             Z
Electronic contribution:     26.50717      78.48085     -70.20053
Nuclear contribution   :    -27.86551     -78.84677      70.41544
                        -----------------------------------------
Total Dipole Moment    :     -1.35834      -0.36592       0.21491
                        -----------------------------------------
Magnitude (a.u.)       :      1.42308
Magnitude (Debye)      :      3.61719

Rotational constants in cm-1:     0.000870     0.000473     0.000347
Rotational constants in MHz :    26.090481    14.180487    10.399552

                             ****ORCA TERMINATED NORMALLY****
TOTAL RUN TIME: 0 days 0 hours 12 minutes 24 seconds 193 msec
