                         Program Version 4.2.0 -  RELEASE  -
|  1> # ORCA input file
|  2> # SCF done       -146.995747421442          0.000291889446
|  3> ! CAM-B3LYP def2-SVP def2/J RIJCOSX Grid4 TightSCF
|  4> %maxcore 5000
|  5> %tddft
|  6>     Mode sTDDFT
|  7>     Ethresh 5.0
|  8>     maxcore 5000
|  9> end
| 10>
| 11> %pal
| 12>   nprocs 6
| 13>   end
| 14> * xyz 0 1
| 15>    C       -2.91600        -1.34513         1.80851
| 16>    C       -1.74856        -1.48185         1.16075
| 17>    C       -1.19007        -0.62103         0.16221
| 18>    C        0.01517        -1.02188        -0.31005
| 19>    C        0.50377        -2.21890         0.27071
| 20>    S       -0.63687        -2.82943         1.45158
| 21>    C        1.69874        -2.85662        -0.00398
| 22>    C        2.69662        -2.46761        -0.91944
| 23>    C        3.77612        -3.30698        -0.94884
| 24>    C        3.68791        -4.39619        -0.06492
| 25>    S        2.17303        -4.33123         0.81406
| 26>    C        4.63992        -5.38700         0.12933
| 27>    C        4.51803        -6.43674         1.01521
| 28>    C        5.49411        -7.40022         1.23754
| 29>    C        5.43073        -8.47323         2.13938
| 30>    C        6.56433        -9.24384         2.17747
| 31>    C        7.57252        -8.81087         1.30246
| 32>    S        7.04005        -7.40327         0.41297
| 33>    C        8.84496        -9.34468         1.13308
| 34>    C        9.42743       -10.41741         1.83053
| 35>    C       10.72184       -10.66754         1.47314
| 36>    C       11.22533        -9.81017         0.46948
| 37>    S        9.98133        -8.67571        -0.01698
| 38>    C       12.51047        -9.84187        -0.02675
| 39>    C       13.07266        -9.05011        -1.03202
| 40>    S       12.10946        -7.96186        -1.99719
| 41>    C       13.48107        -7.55345        -2.94826
| 42>    C       14.62284        -8.19349        -2.57778
| 43>    C       15.92471        -7.92503        -3.25837
| 44>    C       14.41942        -9.05905        -1.46027
| 45>    C       15.41491        -9.78389        -0.74010
| 46>    C       16.64103       -10.17985        -1.16570
| 47>    C       17.61166       -10.84209        -0.35746
| 48>    C       17.53836       -11.01046         0.98586
| 49>    C       18.51992       -11.64796         1.78995
| 50>    S       18.26901       -11.74794         3.51296
| 51>    C       19.76625       -12.58966         3.76683
| 52>    C       20.41624       -12.77150         2.56821
| 53>    C       19.72693       -12.23616         1.45238
| 54>    O       20.20237       -12.30319         0.18909
| 55>    S       22.03753       -13.44338         2.32350
| 56>    C       20.13483       -12.94270         5.12228
| 57>    C       20.59934       -14.19290         5.50032
| 58>    O       20.70929       -15.13480         4.50567
| 59>    C       20.28157       -16.46300         4.75625
| 60>    C       20.97843       -14.47513         6.85382
| 61>    O       21.50634       -15.71286         7.06185
| 62>    C       21.90755       -16.06130         8.36563
| 63>    C       20.81713       -13.53979         7.84564
| 64>    C       20.30079       -12.28232         7.50470
| 65>    C       19.96815       -11.97386         6.14329
| 66>    N       19.51862       -10.73064         6.00518
| 67>    S       19.50255       -10.02503         7.45029
| 68>    N       20.07378       -11.25504         8.32195
| 69>    H       -3.56231        -0.51045         1.60237
| 70>    H       -3.24036        -2.05585         2.54593
| 71>    H       -1.71403         0.26168        -0.15872
| 72>    H        0.57603        -0.49365        -1.06077
| 73>    H        2.60072        -1.58698        -1.52860
| 74>    H        4.63435        -3.16799        -1.58287
| 75>    H        5.54676        -5.31261        -0.45823
| 76>    H        3.60729        -6.52063         1.59506
| 77>    H        4.55780        -8.65050         2.74285
| 78>    H        6.68850       -10.10182         2.81342
| 79>    H        8.89152       -10.96959         2.58149
| 80>    H       11.33142       -11.44211         1.90462
| 81>    H       13.15655       -10.58419         0.42313
| 82>    H       13.36728        -6.83736        -3.73886
| 83>    H       15.83894        -7.03753        -3.88158
| 84>    H       16.20693        -8.76085        -3.89803
| 85>    H       16.71257        -7.76701        -2.52441
| 86>    H       15.13524       -10.04612         0.27082
| 87>    H       16.92378       -10.03205        -2.19576
| 88>    H       18.48825       -11.21368        -0.86711
| 89>    H       16.69122       -10.62986         1.53966
| 90>    H       21.04849       -12.77692         0.20782
| 91>    H       21.91535       -14.42946         3.20144
| 92>    H       21.07872       -17.06133         5.20048
| 93>    H       20.01528       -16.87029         3.78057
| 94>    H       19.40609       -16.47906         5.40727
| 95>    H       22.30084       -17.07368         8.28838
| 96>    H       21.06229       -16.05101         9.06029
| 97>    H       22.69176       -15.39354         8.73389
| 98>    H       21.08371       -13.72811         8.87068
| 99> *
|100>
|101>                          ****END OF INPUT****

CARTESIAN COORDINATES (ANGSTROEM)
---------------------------------
  C     -2.916000   -1.345130    1.808510
  C     -1.748560   -1.481850    1.160750
  C     -1.190070   -0.621030    0.162210
  C      0.015170   -1.021880   -0.310050
  C      0.503770   -2.218900    0.270710
  S     -0.636870   -2.829430    1.451580
  C      1.698740   -2.856620   -0.003980
  C      2.696620   -2.467610   -0.919440
  C      3.776120   -3.306980   -0.948840
  C      3.687910   -4.396190   -0.064920
  S      2.173030   -4.331230    0.814060
  C      4.639920   -5.387000    0.129330
  C      4.518030   -6.436740    1.015210
  C      5.494110   -7.400220    1.237540
  C      5.430730   -8.473230    2.139380
  C      6.564330   -9.243840    2.177470
  C      7.572520   -8.810870    1.302460
  S      7.040050   -7.403270    0.412970
  C      8.844960   -9.344680    1.133080
  C      9.427430  -10.417410    1.830530
  C     10.721840  -10.667540    1.473140
  C     11.225330   -9.810170    0.469480
  S      9.981330   -8.675710   -0.016980
  C     12.510470   -9.841870   -0.026750
  C     13.072660   -9.050110   -1.032020
  S     12.109460   -7.961860   -1.997190
  C     13.481070   -7.553450   -2.948260
  C     14.622840   -8.193490   -2.577780
  C     15.924710   -7.925030   -3.258370
  C     14.419420   -9.059050   -1.460270
  C     15.414910   -9.783890   -0.740100
  C     16.641030  -10.179850   -1.165700
  C     17.611660  -10.842090   -0.357460
  C     17.538360  -11.010460    0.985860
  C     18.519920  -11.647960    1.789950
  S     18.269010  -11.747940    3.512960
  C     19.766250  -12.589660    3.766830
  C     20.416240  -12.771500    2.568210
  C     19.726930  -12.236160    1.452380
  O     20.202370  -12.303190    0.189090
  S     22.037530  -13.443380    2.323500
  C     20.134830  -12.942700    5.122280
  C     20.599340  -14.192900    5.500320
  O     20.709290  -15.134800    4.505670
  C     20.281570  -16.463000    4.756250
  C     20.978430  -14.475130    6.853820
  O     21.506340  -15.712860    7.061850
  C     21.907550  -16.061300    8.365630
  C     20.817130  -13.539790    7.845640
  C     20.300790  -12.282320    7.504700
  C     19.968150  -11.973860    6.143290
  N     19.518620  -10.730640    6.005180
  S     19.502550  -10.025030    7.450290
  N     20.073780  -11.255040    8.321950
  H     -3.562310   -0.510450    1.602370
  H     -3.240360   -2.055850    2.545930
  H     -1.714030    0.261680   -0.158720
  H      0.576030   -0.493650   -1.060770
  H      2.600720   -1.586980   -1.528600
  H      4.634350   -3.167990   -1.582870
  H      5.546760   -5.312610   -0.458230
  H      3.607290   -6.520630    1.595060
  H      4.557800   -8.650500    2.742850
  H      6.688500  -10.101820    2.813420
  H      8.891520  -10.969590    2.581490
  H     11.331420  -11.442110    1.904620
  H     13.156550  -10.584190    0.423130
  H     13.367280   -6.837360   -3.738860
  H     15.838940   -7.037530   -3.881580
  H     16.206930   -8.760850   -3.898030
  H     16.712570   -7.767010   -2.524410
  H     15.135240  -10.046120    0.270820
  H     16.923780  -10.032050   -2.195760
  H     18.488250  -11.213680   -0.867110
  H     16.691220  -10.629860    1.539660
  H     21.048490  -12.776920    0.207820
  H     21.915350  -14.429460    3.201440
  H     21.078720  -17.061330    5.200480
  H     20.015280  -16.870290    3.780570
  H     19.406090  -16.479060    5.407270
  H     22.300840  -17.073680    8.288380
  H     21.062290  -16.051010    9.060290
  H     22.691760  -15.393540    8.733890
  H     21.083710  -13.728110    8.870680

 Total Charge           Charge          ....    0
 Multiplicity           Mult            ....    1
 Number of Electrons    NEL             ....  442
 Basis Dimension        Dim             ....  938

ORBITAL ENERGIES
----------------

  NO   OCC          E(Eh)            E(eV)
   0   2.0000     -89.009575     -2422.0737
   1   2.0000     -88.937715     -2420.1182
   2   2.0000     -88.937211     -2420.1046
   3   2.0000     -88.935298     -2420.0525
   4   2.0000     -88.934096     -2420.0198
   5   2.0000     -88.933354     -2419.9996
   6   2.0000     -88.929037     -2419.8821
   7   2.0000     -88.918872     -2419.6055
   8   2.0000     -19.266418      -524.2659
   9   2.0000     -19.257377      -524.0199
  10   2.0000     -19.238425      -523.5042
  11   2.0000     -14.427051      -392.5800
  12   2.0000     -14.424959      -392.5231
  13   2.0000     -10.355963      -281.8001
  14   2.0000     -10.349479      -281.6236
  15   2.0000     -10.337435      -281.2959
  16   2.0000     -10.323926      -280.9283
  17   2.0000     -10.321415      -280.8600
  18   2.0000     -10.315399      -280.6963
  19   2.0000     -10.315019      -280.6859
  20   2.0000     -10.299014      -280.2504
  21   2.0000     -10.298572      -280.2384
  22   2.0000     -10.298472      -280.2357
  23   2.0000     -10.298234      -280.2292
  24   2.0000     -10.297920      -280.2207
  25   2.0000     -10.296971      -280.1948
  26   2.0000     -10.296260      -280.1755
  27   2.0000     -10.294731      -280.1339
  28   2.0000     -10.294654      -280.1318
  29   2.0000     -10.294080      -280.1162
  30   2.0000     -10.292126      -280.0630
  31   2.0000     -10.286351      -279.9058
  32   2.0000     -10.281100      -279.7630
  33   2.0000     -10.279484      -279.7190
  34   2.0000     -10.279161      -279.7102
  35   2.0000     -10.275137      -279.6007
  36   2.0000     -10.275086      -279.5993
  37   2.0000     -10.273684      -279.5612
  38   2.0000     -10.273618      -279.5594
  39   2.0000     -10.273614      -279.5593
  40   2.0000     -10.273567      -279.5580
  41   2.0000     -10.272874      -279.5391
  42   2.0000     -10.272811      -279.5374
  43   2.0000     -10.271834      -279.5108
  44   2.0000     -10.268766      -279.4273
  45   2.0000     -10.267968      -279.4056
  46   2.0000     -10.265074      -279.3269
  47   2.0000     -10.264497      -279.3112
  48   2.0000     -10.263035      -279.2714
  49   2.0000     -10.259929      -279.1869
  50   2.0000     -10.257572      -279.1227
  51   2.0000     -10.255686      -279.0714
  52   2.0000     -10.255298      -279.0609
  53   2.0000     -10.249813      -278.9116
  54   2.0000      -8.101752      -220.4599
  55   2.0000      -8.033080      -218.5912
  56   2.0000      -8.032999      -218.5890
  57   2.0000      -8.031370      -218.5447
  58   2.0000      -8.030474      -218.5203
  59   2.0000      -8.029682      -218.4987
  60   2.0000      -8.025692      -218.3902
  61   2.0000      -8.014700      -218.0911
  62   2.0000      -6.073002      -165.2548
  63   2.0000      -6.065324      -165.0459
  64   2.0000      -6.063905      -165.0072
  65   2.0000      -6.002438      -163.3346
  66   2.0000      -6.002298      -163.3308
  67   2.0000      -6.001105      -163.2984
  68   2.0000      -6.000114      -163.2714
  69   2.0000      -5.999361      -163.2509
  70   2.0000      -5.998550      -163.2289
  71   2.0000      -5.998044      -163.2151
  72   2.0000      -5.996969      -163.1858
  73   2.0000      -5.996139      -163.1632
  74   2.0000      -5.995505      -163.1460
  75   2.0000      -5.995411      -163.1434
  76   2.0000      -5.995180      -163.1371
  77   2.0000      -5.994749      -163.1254
  78   2.0000      -5.992362      -163.0605
  79   2.0000      -5.991587      -163.0394
  80   2.0000      -5.991522      -163.0376
  81   2.0000      -5.990641      -163.0136
  82   2.0000      -5.986274      -162.8948
  83   2.0000      -5.984906      -162.8576
  84   2.0000      -5.980619      -162.7409
  85   2.0000      -5.975262      -162.5951
  86   2.0000      -1.175791       -31.9949
  87   2.0000      -1.148939       -31.2642
  88   2.0000      -1.134936       -30.8832
  89   2.0000      -1.112472       -30.2719
  90   2.0000      -0.984978       -26.8026
  91   2.0000      -0.981919       -26.7194
  92   2.0000      -0.979334       -26.6490
  93   2.0000      -0.970317       -26.4037
  94   2.0000      -0.963575       -26.2202
  95   2.0000      -0.960327       -26.1318
  96   2.0000      -0.957550       -26.0563
  97   2.0000      -0.949332       -25.8327
  98   2.0000      -0.896431       -24.3931
  99   2.0000      -0.894186       -24.3320
 100   2.0000      -0.877827       -23.8869
 101   2.0000      -0.874226       -23.7889
 102   2.0000      -0.863927       -23.5086
 103   2.0000      -0.861022       -23.4296
 104   2.0000      -0.859522       -23.3888
 105   2.0000      -0.846501       -23.0345
 106   2.0000      -0.841640       -22.9022
 107   2.0000      -0.833506       -22.6808
 108   2.0000      -0.828961       -22.5572
 109   2.0000      -0.822140       -22.3716
 110   2.0000      -0.813982       -22.1496
 111   2.0000      -0.809298       -22.0221
 112   2.0000      -0.807592       -21.9757
 113   2.0000      -0.803243       -21.8574
 114   2.0000      -0.790883       -21.5210
 115   2.0000      -0.783368       -21.3165
 116   2.0000      -0.781062       -21.2538
 117   2.0000      -0.762693       -20.7539
 118   2.0000      -0.750891       -20.4328
 119   2.0000      -0.739691       -20.1280
 120   2.0000      -0.722157       -19.6509
 121   2.0000      -0.716989       -19.5103
 122   2.0000      -0.700517       -19.0621
 123   2.0000      -0.695166       -18.9164
 124   2.0000      -0.691627       -18.8201
 125   2.0000      -0.683364       -18.5953
 126   2.0000      -0.673316       -18.3218
 127   2.0000      -0.663484       -18.0543
 128   2.0000      -0.652680       -17.7603
 129   2.0000      -0.646249       -17.5853
 130   2.0000      -0.637225       -17.3398
 131   2.0000      -0.627067       -17.0634
 132   2.0000      -0.625258       -17.0141
 133   2.0000      -0.618879       -16.8406
 134   2.0000      -0.617066       -16.7912
 135   2.0000      -0.614711       -16.7271
 136   2.0000      -0.612693       -16.6722
 137   2.0000      -0.610607       -16.6155
 138   2.0000      -0.609223       -16.5778
 139   2.0000      -0.596968       -16.2443
 140   2.0000      -0.593215       -16.1422
 141   2.0000      -0.587747       -15.9934
 142   2.0000      -0.583398       -15.8751
 143   2.0000      -0.579065       -15.7572
 144   2.0000      -0.577142       -15.7048
 145   2.0000      -0.566130       -15.4052
 146   2.0000      -0.561876       -15.2894
 147   2.0000      -0.556665       -15.1476
 148   2.0000      -0.547077       -14.8867
 149   2.0000      -0.546087       -14.8598
 150   2.0000      -0.542847       -14.7716
 151   2.0000      -0.535833       -14.5807
 152   2.0000      -0.533746       -14.5240
 153   2.0000      -0.531939       -14.4748
 154   2.0000      -0.525012       -14.2863
 155   2.0000      -0.514824       -14.0091
 156   2.0000      -0.510693       -13.8967
 157   2.0000      -0.508975       -13.8499
 158   2.0000      -0.507398       -13.8070
 159   2.0000      -0.502696       -13.6791
 160   2.0000      -0.499209       -13.5842
 161   2.0000      -0.494625       -13.4594
 162   2.0000      -0.494276       -13.4499
 163   2.0000      -0.491061       -13.3625
 164   2.0000      -0.486979       -13.2514
 165   2.0000      -0.485192       -13.2028
 166   2.0000      -0.483592       -13.1592
 167   2.0000      -0.481565       -13.1041
 168   2.0000      -0.478033       -13.0079
 169   2.0000      -0.477588       -12.9958
 170   2.0000      -0.472263       -12.8509
 171   2.0000      -0.469269       -12.7695
 172   2.0000      -0.464181       -12.6310
 173   2.0000      -0.461944       -12.5701
 174   2.0000      -0.460081       -12.5194
 175   2.0000      -0.457958       -12.4617
 176   2.0000      -0.456165       -12.4129
 177   2.0000      -0.452810       -12.3216
 178   2.0000      -0.452120       -12.3028
 179   2.0000      -0.449324       -12.2267
 180   2.0000      -0.445945       -12.1348
 181   2.0000      -0.445010       -12.1093
 182   2.0000      -0.438196       -11.9239
 183   2.0000      -0.432615       -11.7720
 184   2.0000      -0.430310       -11.7093
 185   2.0000      -0.428497       -11.6600
 186   2.0000      -0.427790       -11.6408
 187   2.0000      -0.420615       -11.4455
 188   2.0000      -0.418830       -11.3970
 189   2.0000      -0.415809       -11.3147
 190   2.0000      -0.412261       -11.2182
 191   2.0000      -0.409230       -11.1357
 192   2.0000      -0.403367       -10.9762
 193   2.0000      -0.399983       -10.8841
 194   2.0000      -0.397983       -10.8297
 195   2.0000      -0.397007       -10.8031
 196   2.0000      -0.395375       -10.7587
 197   2.0000      -0.392211       -10.6726
 198   2.0000      -0.387422       -10.5423
 199   2.0000      -0.386433       -10.5154
 200   2.0000      -0.385413       -10.4876
 201   2.0000      -0.379843       -10.3360
 202   2.0000      -0.375809       -10.2263
 203   2.0000      -0.371775       -10.1165
 204   2.0000      -0.358773        -9.7627
 205   2.0000      -0.354914        -9.6577
 206   2.0000      -0.344487        -9.3740
 207   2.0000      -0.329595        -8.9687
 208   2.0000      -0.326473        -8.8838
 209   2.0000      -0.326035        -8.8719
 210   2.0000      -0.316998        -8.6260
 211   2.0000      -0.311990        -8.4897
 212   2.0000      -0.305594        -8.3156
 213   2.0000      -0.301230        -8.1969
 214   2.0000      -0.298688        -8.1277
 215   2.0000      -0.281888        -7.6706
 216   2.0000      -0.272394        -7.4122
 217   2.0000      -0.269034        -7.3208
 218   2.0000      -0.238154        -6.4805
 219   2.0000      -0.218585        -5.9480
 220   2.0000      -0.177092        -4.8189
 221   0.0000      -0.085584        -2.3288
 222   0.0000      -0.050397        -1.3714
 223   0.0000      -0.036929        -1.0049
 224   0.0000      -0.013216        -0.3596
 225   0.0000       0.010457         0.2846

MULLIKEN ATOMIC CHARGES
-----------------------
   0 C :   -0.035531
   1 C :   -0.063789
   2 C :    0.049419
   3 C :    0.023997
   4 C :   -0.066180
   5 S :    0.076306
   6 C :   -0.042172
   7 C :    0.014703
   8 C :    0.029112
   9 C :   -0.025944
  10 S :    0.073181
  11 C :   -0.011710
  12 C :   -0.014007
  13 C :   -0.023203
  14 C :    0.026320
  15 C :    0.015451
  16 C :   -0.047445
  17 S :    0.076383
  18 C :   -0.034807
  19 C :    0.021618
  20 C :    0.024136
  21 C :   -0.037973
  22 S :    0.075309
  23 C :   -0.018326
  24 C :   -0.125861
  25 S :    0.096033
  26 C :   -0.110450
  27 C :   -0.091088
  28 C :    0.114649
  29 C :    0.147940
  30 C :   -0.045560
  31 C :    0.006255
  32 C :   -0.017801
  33 C :    0.064564
  34 C :   -0.144817
  35 S :    0.166154
  36 C :   -0.205991
  37 C :   -0.021256
  38 C :    0.106153
  39 O :   -0.182732
  40 S :   -0.047060
  41 C :    0.050306
  42 C :    0.091252
  43 O :   -0.352339
  44 C :    0.199391
  45 C :    0.240269
  46 O :   -0.321720
  47 C :    0.175998
  48 C :   -0.206105
  49 C :    0.078539
  50 C :   -0.025165
  51 N :   -0.258156
  52 S :    0.486844
  53 N :   -0.274090
  54 H :    0.017012
  55 H :    0.019242
  56 H :   -0.015837
  57 H :   -0.013287
  58 H :   -0.018446
  59 H :   -0.014405
  60 H :   -0.008436
  61 H :   -0.009426
  62 H :   -0.015403
  63 H :   -0.017386
  64 H :   -0.018572
  65 H :   -0.015462
  66 H :   -0.013555
  67 H :    0.010473
  68 H :    0.002170
  69 H :    0.035188
  70 H :    0.031112
  71 H :   -0.015209
  72 H :   -0.031005
  73 H :   -0.004417
  74 H :   -0.032884
  75 H :    0.177656
  76 H :    0.107670
  77 H :    0.035779
  78 H :    0.035607
  79 H :    0.021891
  80 H :    0.040878
  81 H :    0.030880
  82 H :    0.032880
  83 H :   -0.033712
Sum of atomic charges:    0.0000000

LOEWDIN ATOMIC CHARGES
----------------------
   0 C :   -0.084060
   1 C :   -0.138883
   2 C :   -0.038414
   3 C :   -0.027636
   4 C :   -0.182674
   5 S :    0.350074
   6 C :   -0.178174
   7 C :   -0.040550
   8 C :   -0.036816
   9 C :   -0.149611
  10 S :    0.370367
  11 C :   -0.062220
  12 C :   -0.065212
  13 C :   -0.146759
  14 C :   -0.040441
  15 C :   -0.038067
  16 C :   -0.181156
  17 S :    0.375993
  18 C :   -0.179064
  19 C :   -0.043641
  20 C :   -0.034429
  21 C :   -0.159321
  22 S :    0.373087
  23 C :   -0.068081
  24 C :   -0.172743
  25 S :    0.420820
  26 C :   -0.193651
  27 C :   -0.054215
  28 C :   -0.044836
  29 C :   -0.055079
  30 C :   -0.023434
  31 C :   -0.031346
  32 C :   -0.036994
  33 C :   -0.035171
  34 C :   -0.207652
  35 S :    0.456962
  36 C :   -0.185799
  37 C :   -0.214545
  38 C :   -0.000420
  39 O :   -0.048445
  40 S :    0.192146
  41 C :   -0.063282
  42 C :    0.038491
  43 O :   -0.108289
  44 C :    0.082224
  45 C :    0.046355
  46 O :   -0.093289
  47 C :    0.079508
  48 C :   -0.085507
  49 C :   -0.052700
  50 C :   -0.057968
  51 N :   -0.287875
  52 S :    0.624941
  53 N :   -0.296638
  54 H :    0.027072
  55 H :    0.024765
  56 H :    0.031496
  57 H :    0.031548
  58 H :    0.029401
  59 H :    0.032895
  60 H :    0.027669
  61 H :    0.027620
  62 H :    0.032451
  63 H :    0.030052
  64 H :    0.029893
  65 H :    0.031718
  66 H :    0.037358
  67 H :    0.019537
  68 H :    0.030257
  69 H :    0.033573
  70 H :    0.035895
  71 H :    0.023124
  72 H :    0.025514
  73 H :    0.028299
  74 H :    0.021073
  75 H :    0.071722
  76 H :   -0.015803
  77 H :    0.015633
  78 H :    0.025421
  79 H :    0.018538
  80 H :    0.030381
  81 H :    0.019103
  82 H :    0.020575
  83 H :    0.037341

  Mayer bond orders larger than 0.100000
B(  0-C ,  1-C ) :   1.8497 B(  0-C , 54-H ) :   0.9507 B(  0-C , 55-H ) :   0.9422
B(  1-C ,  2-C ) :   1.0893 B(  1-C ,  5-S ) :   1.0109 B(  2-C ,  3-C ) :   1.6380
B(  2-C , 56-H ) :   0.9934 B(  3-C ,  4-C ) :   1.1752 B(  3-C , 57-H ) :   0.9923
B(  4-C ,  5-S ) :   1.0444 B(  4-C ,  6-C ) :   1.5079 B(  6-C ,  7-C ) :   1.2071
B(  6-C , 10-S ) :   1.0455 B(  7-C ,  8-C ) :   1.5486 B(  7-C , 58-H ) :   0.9941
B(  8-C ,  9-C ) :   1.1894 B(  8-C , 59-H ) :   0.9998 B(  9-C , 10-S ) :   1.0414
B(  9-C , 11-C ) :   1.5015 B( 11-C , 12-C ) :   1.2365 B( 11-C , 60-H ) :   0.9708
B( 12-C , 13-C ) :   1.4890 B( 12-C , 61-H ) :   0.9720 B( 13-C , 14-C ) :   1.2016
B( 13-C , 17-S ) :   1.0474 B( 14-C , 15-C ) :   1.5237 B( 14-C , 62-H ) :   1.0003
B( 15-C , 16-C ) :   1.2351 B( 15-C , 63-H ) :   0.9951 B( 16-C , 17-S ) :   1.0517
B( 16-C , 18-C ) :   1.4496 B( 18-C , 19-C ) :   1.2174 B( 18-C , 22-S ) :   1.0508
B( 19-C , 20-C ) :   1.5538 B( 19-C , 64-H ) :   0.9943 B( 20-C , 21-C ) :   1.1674
B( 20-C , 65-H ) :   1.0003 B( 21-C , 22-S ) :   1.0350 B( 21-C , 23-C ) :   1.5385
B( 23-C , 24-C ) :   1.2257 B( 23-C , 66-H ) :   0.9592 B( 24-C , 25-S ) :   1.1101
B( 24-C , 29-C ) :   1.3471 B( 25-S , 26-C ) :   1.1294 B( 26-C , 27-C ) :   1.5914
B( 26-C , 67-H ) :   0.9651 B( 27-C , 28-C ) :   1.0950 B( 27-C , 29-C ) :   1.2404
B( 28-C , 68-H ) :   0.9458 B( 28-C , 69-H ) :   0.9406 B( 28-C , 70-H ) :   0.9436
B( 29-C , 30-C ) :   1.1391 B( 30-C , 31-C ) :   1.6748 B( 30-C , 71-H ) :   0.9472
B( 31-C , 32-C ) :   1.1240 B( 31-C , 72-H ) :   0.9788 B( 32-C , 33-C ) :   1.6954
B( 32-C , 73-H ) :   0.9696 B( 33-C , 34-C ) :   1.1375 B( 33-C , 74-H ) :   0.9404
B( 34-C , 35-S ) :   1.1023 B( 34-C , 36-C ) :   0.1203 B( 34-C , 38-C ) :   1.4835
B( 35-S , 36-C ) :   1.1521 B( 36-C , 37-C ) :   1.5910 B( 36-C , 41-C ) :   0.9933
B( 37-C , 38-C ) :   1.2324 B( 37-C , 40-S ) :   1.0192 B( 38-C , 39-O ) :   1.2415
B( 39-O , 75-H ) :   0.9320 B( 40-S , 76-H ) :   0.9137 B( 41-C , 42-C ) :   1.5521
B( 41-C , 48-C ) :   0.1141 B( 41-C , 50-C ) :   1.1941 B( 42-C , 43-O ) :   1.1258
B( 42-C , 45-C ) :   1.1327 B( 43-O , 44-C ) :   0.9158 B( 44-C , 77-H ) :   0.9743
B( 44-C , 78-H ) :   0.9787 B( 44-C , 79-H ) :   0.9741 B( 45-C , 46-O ) :   1.1457
B( 45-C , 48-C ) :   1.3831 B( 46-O , 47-C ) :   0.9570 B( 47-C , 80-H ) :   0.9775
B( 47-C , 81-H ) :   0.9695 B( 47-C , 82-H ) :   0.9692 B( 48-C , 49-C ) :   1.1321
B( 48-C , 83-H ) :   1.0456 B( 49-C , 50-C ) :   1.1659 B( 49-C , 53-N ) :   1.5408
B( 50-C , 51-N ) :   1.5655 B( 51-N , 52-S ) :   1.2543 B( 51-N , 53-N ) :   0.1462
B( 52-S , 53-N ) :   1.2500

-----------------------------------------------------------------------------
         ABSORPTION SPECTRUM VIA TRANSITION ELECTRIC DIPOLE MOMENTS
-----------------------------------------------------------------------------
State   Energy  Wavelength   fosc         T2         TX        TY        TZ
        (cm-1)    (nm)                  (au**2)     (au)      (au)      (au)
-----------------------------------------------------------------------------
   0    8899.4   1123.7   1.819465663  67.30671  -7.22253   3.88550   0.21137
   1   15916.4    628.3   0.001216549   0.02516  -0.04038   0.14647  -0.04559
   2   18205.1    549.3   0.143383684   2.59288  -1.15157  -0.54519  -0.98465
   3   19487.6    513.1   0.046395226   0.78377  -0.38958  -0.62559   0.49055
   4   21394.8    467.4   0.137001690   2.10811  -0.01337   1.04333  -1.00965
   5   23876.3    418.8   0.131421176   1.81206  -0.41911   0.37030  -1.22445
   6   24227.1    412.8   0.266639230   3.62324  -1.18780   1.13894  -0.95666
   7   26276.1    380.6   0.070527591   0.88363   0.86230  -0.23967   0.28747
   8   28040.1    356.6   0.136825124   1.60643  -1.14828   0.40497  -0.35198
   9   28116.2    355.7   0.024199066   0.28335  -0.31861   0.23550   0.35549
  10   29488.7    339.1   0.231106356   2.58008   1.00486   0.56638  -1.11783
  11   30260.3    330.5   0.024581835   0.26743  -0.20363  -0.15919   0.44791
  12   30383.5    329.1   0.016878299   0.18288   0.23433   0.11361  -0.33921
  13   30913.5    323.5   0.317042983   3.37634   0.49535  -0.91110   1.51686
  14   31034.0    322.2   0.071016393   0.75335   0.09267   0.24494  -0.82750
  15   31596.3    316.5   0.141073545   1.46989  -0.21411  -0.61773   1.02100
  16   31756.1    314.9   0.152930679   1.58542  -0.25924   0.76842  -0.96319
  17   32072.6    311.8   0.013851270   0.14218  -0.07379  -0.10759   0.35377
  18   32631.8    306.5   0.000340547   0.00344  -0.00392  -0.02168   0.05432
  19   32991.8    303.1   0.167462149   1.67104  -0.11036  -0.61788   1.13008
  20   33538.2    298.2   0.037333489   0.36647   0.57111   0.17980   0.08929
  21   34715.8    288.1   0.065643115   0.62250  -0.32615   0.56115  -0.44859
  22   35131.5    284.6   0.037506902   0.35147  -0.09695  -0.31144   0.49505
  23   35689.0    280.2   0.015151302   0.13976   0.35781   0.08820   0.06287
  24   35935.0    278.3   0.060267277   0.55213  -0.16217   0.37019   0.62353
  25   36746.6    272.1   0.031771225   0.28464   0.22523  -0.38678   0.29037
  26   37201.3    268.8   0.076114231   0.67357   0.75257   0.18560  -0.26975
  27   37641.6    265.7   0.014961108   0.13085   0.00392  -0.32306  -0.16269
  28   37963.0    263.4   0.150722066   1.30705   0.15773  -1.10215   0.25970
  29   38229.7    261.6   0.077294089   0.66561  -0.17330   0.74952   0.27166
  30   38281.9    261.2   0.317322116   2.72887   0.72291  -1.15957  -0.92826
  31   38996.7    256.4   0.029246391   0.24690   0.43859   0.02949   0.23167
  32   39375.4    254.0   0.026087638   0.21811   0.01100  -0.25545  -0.39082
  33   39690.3    252.0   0.301934624   2.50441  -0.51992   1.39108   0.54680
  34   39895.1    250.7   0.173985435   1.43572   0.67733  -0.95305   0.26198
  35   40302.9    248.1   0.012292924   0.10041   0.20480  -0.02285  -0.24072

FINAL SINGLE POINT ENERGY     -5097.580544588415

DIPOLE MOMENT
-------------
                                X             Y             Z
Electronic contribution:     -2.23858       9.57265       9.36096
Nuclear contribution   :      3.70262     -11.46669      -8.05941
                        -----------------------------------------
Total Dipole Moment    :      1.46404      -1.89404       1.30155
                        -----------------------------------------
Magnitude (a.u.)       :      2.72486
Magnitude (Debye)      :      6.92604

Rotational constants in cm-1:     0.002435     0.000247     0.000233
Rotational constants in MHz :    73.004305     7.396151     6.987104

                             ****ORCA TERMINATED NORMALLY****
TOTAL RUN TIME: 0 days 0 hours 6 minutes 22 seconds 585 msec
