                         Program Version 4.2.0 -  RELEASE  -
|  1> # ORCA input file
|  2> # SCF done       -165.878838434738          0.000705878089
|  3> ! CAM-B3LYP def2-SVP def2/J RIJCOSX Grid4 TightSCF
|  4> %maxcore 5000
|  5> %tddft
|  6>     Mode sTDDFT
|  7>     Ethresh 5.0
|  8>     maxcore 5000
|  9> end
| 10>
| 11> %pal
| 12>   nprocs 6
| 13>   end
| 14> * xyz 0 1
| 15>    C        4.72311        -7.84943        13.62116
| 16>    C        4.75447        -8.05983        12.29787
| 17>    C        4.06110        -9.07010        11.55124
| 18>    C        4.29158        -9.03424        10.21982
| 19>    C        5.17949        -8.00058         9.80826
| 20>    S        5.71232        -7.06865        11.18486
| 21>    C        5.59988        -7.72912         8.52257
| 22>    C        5.25264        -8.41568         7.33482
| 23>    C        5.83364        -7.91525         6.20995
| 24>    C        6.67750        -6.80229         6.43169
| 25>    S        6.69978        -6.42410         8.15178
| 26>    C        7.47824        -6.02649         5.62082
| 27>    C        7.74227        -5.98220         4.23828
| 28>    C        7.07616        -6.63693         3.16084
| 29>    C        7.52661        -6.50022         1.78829
| 30>    N        6.90297        -7.18999         0.81267
| 31>    C        5.85963        -7.92293         1.10166
| 32>    C        5.36400        -7.99107         2.44076
| 33>    N        5.99147        -7.36691         3.41615
| 34>    C        4.21002        -8.74454         2.75412
| 35>    N        3.27909        -9.36981         2.99482
| 36>    C        5.21345        -8.64777         0.06844
| 37>    N        4.65647        -9.23948        -0.73905
| 38>    C        8.62934        -5.70875         1.42912
| 39>    C        9.24142        -4.99102         2.47186
| 40>    C        8.80608        -5.12238         3.83852
| 41>    N        9.51128        -4.34470         4.65769
| 42>    S       10.58969        -3.51870         3.79624
| 43>    N       10.22649        -4.09887         2.34813
| 44>    C        9.14006        -5.63922         0.07321
| 45>    C       10.53841        -5.68232        -0.15584
| 46>    N       11.49377        -5.87226         0.75281
| 47>    S       12.91910        -5.87706         0.01837
| 48>    N       12.40567        -5.66003        -1.48829
| 49>    C       11.07642        -5.57401        -1.48609
| 50>    C       10.21206        -5.42067        -2.60276
| 51>    C        8.85320        -5.41675        -2.33280
| 52>    C        8.33280        -5.52954        -1.04353
| 53>    C       10.73077        -5.27959        -3.93469
| 54>    S        9.66912        -5.03272        -5.29992
| 55>    C       10.98940        -4.95569        -6.41740
| 56>    C       12.21174        -5.14220        -5.74384
| 57>    C       12.03099        -5.30814        -4.34483
| 58>    C       13.49622        -5.27352        -6.37805
| 59>    O       13.75755        -5.26925        -7.56162
| 60>    C       14.69730        -5.47903        -5.40222
| 61>    F       14.82003        -4.47966        -4.51003
| 62>    F       14.61356        -6.62228        -4.69994
| 63>    F       15.84620        -5.52832        -6.07762
| 64>    C       10.66852        -4.69530        -7.78149
| 65>    C       11.47938        -4.20310        -8.80885
| 66>    C       10.69104        -4.06243        -9.97633
| 67>    C       11.01587        -3.62499       -11.24619
| 68>    C        9.99758        -3.60827       -12.20363
| 69>    C        9.99724        -3.23222       -13.54866
| 70>    C        8.69052        -3.40635       -14.07850
| 71>    C        7.87695        -3.89273       -13.06118
| 72>    C        8.65186        -4.03339       -11.87479
| 73>    C        8.32533        -4.46747       -10.61187
| 74>    C        9.34716        -4.48386        -9.64686
| 75>    C        9.34966        -4.85595        -8.30884
| 76>    C        8.25294        -3.13564       -15.42784
| 77>    C        9.01805        -2.66756       -16.40981
| 78>    H        4.12752        -8.47474        14.26274
| 79>    H        5.28559        -7.05778        14.08142
| 80>    H        3.42136        -9.77788        12.04737
| 81>    H        3.85565        -9.71390         9.50980
| 82>    H        4.58634        -9.25948         7.33620
| 83>    H        5.67689        -8.30868         5.22471
| 84>    H        8.07460        -5.29643         6.15869
| 85>    H        8.16404        -5.31136        -3.15867
| 86>    H        7.26283        -5.50179        -0.91411
| 87>    H       12.82011        -5.45727        -3.63248
| 88>    H       12.51992        -3.95836        -8.73832
| 89>    H       12.01996        -3.31120       -11.49332
| 90>    H       10.84959        -2.86949       -14.09312
| 91>    H        6.83143        -4.12704       -13.14902
| 92>    H        7.32303        -4.78407       -10.35983
| 93>    H        8.50744        -5.22256        -7.74960
| 94>    H        7.20744        -3.34480       -15.61738
| 95>    H       10.06238        -2.44695       -16.27027
| 96>    H        8.62289        -2.49089       -17.39498
| 97> *
| 98>
| 99>                          ****END OF INPUT****

CARTESIAN COORDINATES (ANGSTROEM)
---------------------------------
  C      4.723110   -7.849430   13.621160
  C      4.754470   -8.059830   12.297870
  C      4.061100   -9.070100   11.551240
  C      4.291580   -9.034240   10.219820
  C      5.179490   -8.000580    9.808260
  S      5.712320   -7.068650   11.184860
  C      5.599880   -7.729120    8.522570
  C      5.252640   -8.415680    7.334820
  C      5.833640   -7.915250    6.209950
  C      6.677500   -6.802290    6.431690
  S      6.699780   -6.424100    8.151780
  C      7.478240   -6.026490    5.620820
  C      7.742270   -5.982200    4.238280
  C      7.076160   -6.636930    3.160840
  C      7.526610   -6.500220    1.788290
  N      6.902970   -7.189990    0.812670
  C      5.859630   -7.922930    1.101660
  C      5.364000   -7.991070    2.440760
  N      5.991470   -7.366910    3.416150
  C      4.210020   -8.744540    2.754120
  N      3.279090   -9.369810    2.994820
  C      5.213450   -8.647770    0.068440
  N      4.656470   -9.239480   -0.739050
  C      8.629340   -5.708750    1.429120
  C      9.241420   -4.991020    2.471860
  C      8.806080   -5.122380    3.838520
  N      9.511280   -4.344700    4.657690
  S     10.589690   -3.518700    3.796240
  N     10.226490   -4.098870    2.348130
  C      9.140060   -5.639220    0.073210
  C     10.538410   -5.682320   -0.155840
  N     11.493770   -5.872260    0.752810
  S     12.919100   -5.877060    0.018370
  N     12.405670   -5.660030   -1.488290
  C     11.076420   -5.574010   -1.486090
  C     10.212060   -5.420670   -2.602760
  C      8.853200   -5.416750   -2.332800
  C      8.332800   -5.529540   -1.043530
  C     10.730770   -5.279590   -3.934690
  S      9.669120   -5.032720   -5.299920
  C     10.989400   -4.955690   -6.417400
  C     12.211740   -5.142200   -5.743840
  C     12.030990   -5.308140   -4.344830
  C     13.496220   -5.273520   -6.378050
  O     13.757550   -5.269250   -7.561620
  C     14.697300   -5.479030   -5.402220
  F     14.820030   -4.479660   -4.510030
  F     14.613560   -6.622280   -4.699940
  F     15.846200   -5.528320   -6.077620
  C     10.668520   -4.695300   -7.781490
  C     11.479380   -4.203100   -8.808850
  C     10.691040   -4.062430   -9.976330
  C     11.015870   -3.624990  -11.246190
  C      9.997580   -3.608270  -12.203630
  C      9.997240   -3.232220  -13.548660
  C      8.690520   -3.406350  -14.078500
  C      7.876950   -3.892730  -13.061180
  C      8.651860   -4.033390  -11.874790
  C      8.325330   -4.467470  -10.611870
  C      9.347160   -4.483860   -9.646860
  C      9.349660   -4.855950   -8.308840
  C      8.252940   -3.135640  -15.427840
  C      9.018050   -2.667560  -16.409810
  H      4.127520   -8.474740   14.262740
  H      5.285590   -7.057780   14.081420
  H      3.421360   -9.777880   12.047370
  H      3.855650   -9.713900    9.509800
  H      4.586340   -9.259480    7.336200
  H      5.676890   -8.308680    5.224710
  H      8.074600   -5.296430    6.158690
  H      8.164040   -5.311360   -3.158670
  H      7.262830   -5.501790   -0.914110
  H     12.820110   -5.457270   -3.632480
  H     12.519920   -3.958360   -8.738320
  H     12.019960   -3.311200  -11.493320
  H     10.849590   -2.869490  -14.093120
  H      6.831430   -4.127040  -13.149020
  H      7.323030   -4.784070  -10.359830
  H      8.507440   -5.222560   -7.749600
  H      7.207440   -3.344800  -15.617380
  H     10.062380   -2.446950  -16.270270
  H      8.622890   -2.490890  -17.394980

 Total Charge           Charge          ....    0
 Multiplicity           Mult            ....    1
 Number of Electrons    NEL             ....  466
 Basis Dimension        Dim             ....  997

ORBITAL ENERGIES
----------------

  NO   OCC          E(Eh)            E(eV)
   0   2.0000     -89.030590     -2422.6455
   1   2.0000     -89.016186     -2422.2536
   2   2.0000     -88.959506     -2420.7112
   3   2.0000     -88.958031     -2420.6711
   4   2.0000     -88.955607     -2420.6051
   5   2.0000     -24.791361      -674.6072
   6   2.0000     -24.791164      -674.6019
   7   2.0000     -24.785017      -674.4346
   8   2.0000     -19.215554      -522.8818
   9   2.0000     -14.454072      -393.3153
  10   2.0000     -14.448942      -393.1757
  11   2.0000     -14.441572      -392.9752
  12   2.0000     -14.436136      -392.8272
  13   2.0000     -14.430232      -392.6666
  14   2.0000     -14.428467      -392.6185
  15   2.0000     -14.423709      -392.4891
  16   2.0000     -14.422641      -392.4600
  17   2.0000     -10.500287      -285.7273
  18   2.0000     -10.372830      -282.2590
  19   2.0000     -10.369914      -282.1797
  20   2.0000     -10.366910      -282.0980
  21   2.0000     -10.339261      -281.3456
  22   2.0000     -10.337993      -281.3111
  23   2.0000     -10.333264      -281.1824
  24   2.0000     -10.329718      -281.0859
  25   2.0000     -10.327577      -281.0277
  26   2.0000     -10.326597      -281.0010
  27   2.0000     -10.323989      -280.9300
  28   2.0000     -10.323493      -280.9165
  29   2.0000     -10.320466      -280.8342
  30   2.0000     -10.317487      -280.7531
  31   2.0000     -10.317184      -280.7448
  32   2.0000     -10.316630      -280.7298
  33   2.0000     -10.314692      -280.6770
  34   2.0000     -10.314538      -280.6728
  35   2.0000     -10.305350      -280.4228
  36   2.0000     -10.305044      -280.4145
  37   2.0000     -10.303898      -280.3833
  38   2.0000     -10.303137      -280.3626
  39   2.0000     -10.299447      -280.2622
  40   2.0000     -10.298717      -280.2423
  41   2.0000     -10.297742      -280.2158
  42   2.0000     -10.297047      -280.1969
  43   2.0000     -10.291537      -280.0470
  44   2.0000     -10.290096      -280.0077
  45   2.0000     -10.287898      -279.9479
  46   2.0000     -10.287191      -279.9287
  47   2.0000     -10.287009      -279.9237
  48   2.0000     -10.282064      -279.7892
  49   2.0000     -10.281654      -279.7780
  50   2.0000     -10.281154      -279.7644
  51   2.0000     -10.280746      -279.7533
  52   2.0000     -10.279315      -279.7144
  53   2.0000     -10.277846      -279.6744
  54   2.0000     -10.276544      -279.6390
  55   2.0000     -10.271103      -279.4909
  56   2.0000     -10.268961      -279.4326
  57   2.0000     -10.268711      -279.4258
  58   2.0000     -10.265745      -279.3451
  59   2.0000     -10.265146      -279.3288
  60   2.0000     -10.264429      -279.3093
  61   2.0000     -10.262931      -279.2686
  62   2.0000     -10.257401      -279.1181
  63   2.0000      -8.121986      -221.0105
  64   2.0000      -8.108027      -220.6306
  65   2.0000      -8.055014      -219.1881
  66   2.0000      -8.054757      -219.1811
  67   2.0000      -8.052079      -219.1082
  68   2.0000      -6.093074      -165.8010
  69   2.0000      -6.085307      -165.5896
  70   2.0000      -6.084769      -165.5750
  71   2.0000      -6.079269      -165.4253
  72   2.0000      -6.071470      -165.2131
  73   2.0000      -6.070417      -165.1845
  74   2.0000      -6.024494      -163.9348
  75   2.0000      -6.024197      -163.9267
  76   2.0000      -6.021710      -163.8591
  77   2.0000      -6.020572      -163.8281
  78   2.0000      -6.020046      -163.8138
  79   2.0000      -6.017736      -163.7509
  80   2.0000      -6.017357      -163.7406
  81   2.0000      -6.015431      -163.6882
  82   2.0000      -6.013079      -163.6242
  83   2.0000      -1.378721       -37.5169
  84   2.0000      -1.282221       -34.8910
  85   2.0000      -1.279642       -34.8208
  86   2.0000      -1.132009       -30.8035
  87   2.0000      -1.128490       -30.7078
  88   2.0000      -1.116574       -30.3835
  89   2.0000      -1.110164       -30.2091
  90   2.0000      -1.037304       -28.2265
  91   2.0000      -1.007860       -27.4253
  92   2.0000      -1.006828       -27.3972
  93   2.0000      -0.997675       -27.1481
  94   2.0000      -0.996035       -27.1035
  95   2.0000      -0.986708       -26.8497
  96   2.0000      -0.985626       -26.8203
  97   2.0000      -0.983251       -26.7556
  98   2.0000      -0.972943       -26.4751
  99   2.0000      -0.966749       -26.3066
 100   2.0000      -0.959529       -26.1101
 101   2.0000      -0.948832       -25.8190
 102   2.0000      -0.906131       -24.6571
 103   2.0000      -0.899091       -24.4655
 104   2.0000      -0.896296       -24.3894
 105   2.0000      -0.888070       -24.1656
 106   2.0000      -0.871195       -23.7064
 107   2.0000      -0.865665       -23.5559
 108   2.0000      -0.861790       -23.4505
 109   2.0000      -0.859433       -23.3863
 110   2.0000      -0.854450       -23.2508
 111   2.0000      -0.850953       -23.1556
 112   2.0000      -0.842668       -22.9302
 113   2.0000      -0.830154       -22.5896
 114   2.0000      -0.822727       -22.3875
 115   2.0000      -0.814167       -22.1546
 116   2.0000      -0.802688       -21.8422
 117   2.0000      -0.801219       -21.8023
 118   2.0000      -0.793611       -21.5952
 119   2.0000      -0.781484       -21.2653
 120   2.0000      -0.767529       -20.8855
 121   2.0000      -0.749704       -20.4005
 122   2.0000      -0.747614       -20.3436
 123   2.0000      -0.730999       -19.8915
 124   2.0000      -0.725613       -19.7449
 125   2.0000      -0.724423       -19.7126
 126   2.0000      -0.711797       -19.3690
 127   2.0000      -0.703195       -19.1349
 128   2.0000      -0.700915       -19.0729
 129   2.0000      -0.697568       -18.9818
 130   2.0000      -0.686238       -18.6735
 131   2.0000      -0.679568       -18.4920
 132   2.0000      -0.672305       -18.2943
 133   2.0000      -0.671311       -18.2673
 134   2.0000      -0.666556       -18.1379
 135   2.0000      -0.662327       -18.0228
 136   2.0000      -0.661196       -17.9920
 137   2.0000      -0.646717       -17.5981
 138   2.0000      -0.641978       -17.4691
 139   2.0000      -0.639642       -17.4056
 140   2.0000      -0.633606       -17.2413
 141   2.0000      -0.631454       -17.1827
 142   2.0000      -0.623971       -16.9791
 143   2.0000      -0.618335       -16.8258
 144   2.0000      -0.615589       -16.7510
 145   2.0000      -0.612070       -16.6553
 146   2.0000      -0.603298       -16.4166
 147   2.0000      -0.596815       -16.2402
 148   2.0000      -0.592040       -16.1102
 149   2.0000      -0.586875       -15.9697
 150   2.0000      -0.582164       -15.8415
 151   2.0000      -0.580141       -15.7864
 152   2.0000      -0.565338       -15.3836
 153   2.0000      -0.564759       -15.3679
 154   2.0000      -0.557736       -15.1768
 155   2.0000      -0.555084       -15.1046
 156   2.0000      -0.549144       -14.9430
 157   2.0000      -0.544583       -14.8189
 158   2.0000      -0.544446       -14.8151
 159   2.0000      -0.540786       -14.7155
 160   2.0000      -0.539428       -14.6786
 161   2.0000      -0.538317       -14.6483
 162   2.0000      -0.537397       -14.6233
 163   2.0000      -0.532892       -14.5007
 164   2.0000      -0.526004       -14.3133
 165   2.0000      -0.523937       -14.2571
 166   2.0000      -0.517150       -14.0724
 167   2.0000      -0.514091       -13.9891
 168   2.0000      -0.512242       -13.9388
 169   2.0000      -0.511738       -13.9251
 170   2.0000      -0.509099       -13.8533
 171   2.0000      -0.501696       -13.6518
 172   2.0000      -0.501244       -13.6395
 173   2.0000      -0.496807       -13.5188
 174   2.0000      -0.495644       -13.4871
 175   2.0000      -0.490866       -13.3571
 176   2.0000      -0.487212       -13.2577
 177   2.0000      -0.484840       -13.1932
 178   2.0000      -0.482299       -13.1240
 179   2.0000      -0.481337       -13.0979
 180   2.0000      -0.477801       -13.0016
 181   2.0000      -0.474350       -12.9077
 182   2.0000      -0.473674       -12.8893
 183   2.0000      -0.471285       -12.8243
 184   2.0000      -0.471168       -12.8211
 185   2.0000      -0.469703       -12.7813
 186   2.0000      -0.465923       -12.6784
 187   2.0000      -0.465091       -12.6558
 188   2.0000      -0.463208       -12.6045
 189   2.0000      -0.460308       -12.5256
 190   2.0000      -0.457569       -12.4511
 191   2.0000      -0.456283       -12.4161
 192   2.0000      -0.452462       -12.3121
 193   2.0000      -0.450576       -12.2608
 194   2.0000      -0.449824       -12.2403
 195   2.0000      -0.448634       -12.2080
 196   2.0000      -0.443287       -12.0624
 197   2.0000      -0.439375       -11.9560
 198   2.0000      -0.437609       -11.9079
 199   2.0000      -0.437036       -11.8924
 200   2.0000      -0.437005       -11.8915
 201   2.0000      -0.428316       -11.6551
 202   2.0000      -0.427075       -11.6213
 203   2.0000      -0.421224       -11.4621
 204   2.0000      -0.418874       -11.3981
 205   2.0000      -0.415222       -11.2988
 206   2.0000      -0.414467       -11.2782
 207   2.0000      -0.408233       -11.1086
 208   2.0000      -0.406263       -11.0550
 209   2.0000      -0.404943       -11.0191
 210   2.0000      -0.403237       -10.9726
 211   2.0000      -0.398348       -10.8396
 212   2.0000      -0.392770       -10.6878
 213   2.0000      -0.387748       -10.5512
 214   2.0000      -0.384466       -10.4618
 215   2.0000      -0.369505       -10.0547
 216   2.0000      -0.367469        -9.9993
 217   2.0000      -0.355247        -9.6668
 218   2.0000      -0.351792        -9.5728
 219   2.0000      -0.350083        -9.5262
 220   2.0000      -0.346751        -9.4356
 221   2.0000      -0.344993        -9.3877
 222   2.0000      -0.338484        -9.2106
 223   2.0000      -0.337422        -9.1817
 224   2.0000      -0.331888        -9.0311
 225   2.0000      -0.329428        -8.9642
 226   2.0000      -0.322834        -8.7848
 227   2.0000      -0.312858        -8.5133
 228   2.0000      -0.294233        -8.0065
 229   2.0000      -0.270975        -7.3736
 230   2.0000      -0.267008        -7.2657
 231   2.0000      -0.237608        -6.4656
 232   2.0000      -0.222178        -6.0458
 233   0.0000      -0.118871        -3.2346
 234   0.0000      -0.098594        -2.6829
 235   0.0000      -0.065350        -1.7783
 236   0.0000      -0.062407        -1.6982
 237   0.0000      -0.043184        -1.1751

MULLIKEN ATOMIC CHARGES
-----------------------
   0 C :   -0.011992
   1 C :   -0.074351
   2 C :    0.064767
   3 C :    0.030258
   4 C :   -0.050354
   5 S :    0.105395
   6 C :   -0.048141
   7 C :    0.021931
   8 C :    0.055119
   9 C :   -0.035641
  10 S :    0.104743
  11 C :   -0.066308
  12 C :    0.125536
  13 C :   -0.078621
  14 C :   -0.044913
  15 N :    0.054119
  16 C :   -0.128866
  17 C :   -0.126734
  18 N :    0.025367
  19 C :   -0.236698
  20 N :    0.227037
  21 C :   -0.218897
  22 N :    0.235201
  23 C :    0.079608
  24 C :   -0.010912
  25 C :   -0.010032
  26 N :   -0.279571
  27 S :    0.525440
  28 N :   -0.260346
  29 C :   -0.014360
  30 C :    0.029387
  31 N :   -0.267471
  32 S :    0.507702
  33 N :   -0.284631
  34 C :   -0.003606
  35 C :    0.178572
  36 C :   -0.081943
  37 C :    0.015794
  38 C :   -0.092035
  39 S :    0.103768
  40 C :   -0.059519
  41 C :    0.027626
  42 C :   -0.020168
  43 C :    0.001314
  44 O :   -0.165376
  45 C :    0.472389
  46 F :   -0.169351
  47 F :   -0.168106
  48 F :   -0.143055
  49 C :    0.032011
  50 C :    0.004385
  51 C :    0.030629
  52 C :    0.015714
  53 C :    0.038681
  54 C :   -0.012184
  55 C :    0.056063
  56 C :   -0.021076
  57 C :    0.054337
  58 C :    0.005425
  59 C :    0.056947
  60 C :   -0.037140
  61 C :    0.012194
  62 C :   -0.023497
  63 H :    0.030712
  64 H :    0.032531
  65 H :   -0.000617
  66 H :    0.000205
  67 H :   -0.002687
  68 H :   -0.012579
  69 H :    0.004883
  70 H :   -0.010465
  71 H :   -0.021570
  72 H :    0.018684
  73 H :   -0.002945
  74 H :   -0.016451
  75 H :   -0.021126
  76 H :   -0.025480
  77 H :   -0.023155
  78 H :   -0.010477
  79 H :   -0.019450
  80 H :    0.007993
  81 H :    0.020427
Sum of atomic charges:   -0.0000000

LOEWDIN ATOMIC CHARGES
----------------------
   0 C :   -0.050015
   1 C :   -0.141934
   2 C :   -0.014696
   3 C :   -0.025362
   4 C :   -0.153706
   5 S :    0.374389
   6 C :   -0.190759
   7 C :   -0.009937
   8 C :   -0.037640
   9 C :   -0.104354
  10 S :    0.395281
  11 C :   -0.063025
  12 C :   -0.009884
  13 C :   -0.018808
  14 C :   -0.001243
  15 N :   -0.002902
  16 C :   -0.028647
  17 C :   -0.051625
  18 N :    0.007506
  19 C :   -0.041801
  20 N :   -0.023749
  21 C :   -0.034638
  22 N :   -0.011526
  23 C :   -0.036401
  24 C :   -0.038063
  25 C :   -0.043108
  26 N :   -0.286216
  27 S :    0.663572
  28 N :   -0.274211
  29 C :   -0.025517
  30 C :   -0.037725
  31 N :   -0.277950
  32 S :    0.641662
  33 N :   -0.282758
  34 C :   -0.039531
  35 C :   -0.031435
  36 C :   -0.027365
  37 C :    0.009799
  38 C :   -0.174310
  39 S :    0.453814
  40 C :   -0.094126
  41 C :   -0.132515
  42 C :   -0.024035
  43 C :    0.037370
  44 O :   -0.123044
  45 C :    0.143158
  46 F :   -0.062309
  47 F :   -0.060388
  48 F :   -0.043903
  49 C :   -0.100242
  50 C :    0.061583
  51 C :   -0.071710
  52 C :    0.092821
  53 C :   -0.069597
  54 C :    0.053962
  55 C :   -0.063219
  56 C :    0.025153
  57 C :   -0.064999
  58 C :    0.080268
  59 C :   -0.071218
  60 C :    0.035852
  61 C :   -0.021559
  62 C :   -0.053359
  63 H :    0.033587
  64 H :    0.031138
  65 H :    0.038043
  66 H :    0.037081
  67 H :    0.036374
  68 H :    0.030138
  69 H :    0.035897
  70 H :    0.024398
  71 H :    0.031997
  72 H :    0.025924
  73 H :    0.028300
  74 H :    0.038621
  75 H :    0.026266
  76 H :    0.024923
  77 H :    0.035779
  78 H :    0.020790
  79 H :    0.029049
  80 H :    0.017965
  81 H :    0.024607

  Mayer bond orders larger than 0.100000
B(  0-C ,  1-C ) :   1.8605 B(  0-C , 63-H ) :   0.9512 B(  0-C , 64-H ) :   0.9419
B(  1-C ,  2-C ) :   1.0804 B(  1-C ,  5-S ) :   1.0051 B(  2-C ,  3-C ) :   1.6553
B(  2-C , 65-H ) :   0.9931 B(  3-C ,  4-C ) :   1.1592 B(  3-C , 66-H ) :   0.9926
B(  4-C ,  5-S ) :   1.0728 B(  4-C ,  6-C ) :   1.5024 B(  6-C ,  7-C ) :   1.1902
B(  6-C , 10-S ) :   1.0453 B(  7-C ,  8-C ) :   1.5589 B(  7-C , 67-H ) :   0.9956
B(  8-C ,  9-C ) :   1.1898 B(  8-C , 68-H ) :   0.9845 B(  9-C , 10-S ) :   1.0851
B(  9-C , 11-C ) :   1.4345 B( 11-C , 12-C ) :   1.3395 B( 11-C , 69-H ) :   0.9217
B( 12-C , 13-C ) :   1.1615 B( 12-C , 23-C ) :   0.1175 B( 12-C , 25-C ) :   1.1601
B( 13-C , 14-C ) :   1.0820 B( 13-C , 18-N ) :   1.4925 B( 14-C , 15-N ) :   1.4188
B( 14-C , 23-C ) :   1.3613 B( 15-N , 16-C ) :   1.7469 B( 16-C , 17-C ) :   1.2147
B( 16-C , 21-C ) :   1.1535 B( 17-C , 18-N ) :   1.6606 B( 17-C , 19-C ) :   1.1526
B( 19-C , 20-N ) :   3.0383 B( 21-C , 22-N ) :   3.0526 B( 23-C , 24-C ) :   1.2414
B( 23-C , 29-C ) :   0.9567 B( 24-C , 25-C ) :   1.1020 B( 24-C , 28-N ) :   1.5107
B( 25-C , 26-N ) :   1.5467 B( 26-N , 27-S ) :   1.2718 B( 26-N , 28-N ) :   0.1505
B( 27-S , 28-N ) :   1.2826 B( 29-C , 30-C ) :   1.2363 B( 29-C , 35-C ) :   0.1148
B( 29-C , 37-C ) :   1.5018 B( 30-C , 31-N ) :   1.5163 B( 30-C , 34-C ) :   1.1661
B( 31-N , 32-S ) :   1.2752 B( 31-N , 33-N ) :   0.1489 B( 32-S , 33-N ) :   1.2571
B( 33-N , 34-C ) :   1.5287 B( 34-C , 35-C ) :   1.1824 B( 35-C , 36-C ) :   1.4460
B( 35-C , 38-C ) :   1.1019 B( 36-C , 37-C ) :   1.2176 B( 36-C , 70-H ) :   0.9901
B( 37-C , 71-H ) :   0.9901 B( 38-C , 39-S ) :   1.0618 B( 38-C , 42-C ) :   1.5785
B( 39-S , 40-C ) :   1.1922 B( 40-C , 41-C ) :   1.4170 B( 40-C , 49-C ) :   1.1075
B( 41-C , 42-C ) :   1.1762 B( 41-C , 43-C ) :   0.9935 B( 42-C , 72-H ) :   0.9442
B( 43-C , 44-O ) :   2.1333 B( 43-C , 45-C ) :   0.8846 B( 45-C , 46-F ) :   1.1190
B( 45-C , 47-F ) :   1.1165 B( 45-C , 48-F ) :   1.1819 B( 49-C , 50-C ) :   1.4344
B( 49-C , 60-C ) :   1.1774 B( 50-C , 51-C ) :   1.1526 B( 50-C , 73-H ) :   1.0036
B( 51-C , 52-C ) :   1.3719 B( 51-C , 59-C ) :   1.1464 B( 52-C , 53-C ) :   1.1836
B( 52-C , 74-H ) :   1.0052 B( 53-C , 54-C ) :   1.3635 B( 53-C , 57-C ) :   1.1375
B( 54-C , 55-C ) :   1.2040 B( 54-C , 75-H ) :   1.0076 B( 55-C , 56-C ) :   1.4495
B( 55-C , 61-C ) :   1.0797 B( 56-C , 57-C ) :   1.1220 B( 56-C , 76-H ) :   1.0155
B( 57-C , 58-C ) :   1.4183 B( 58-C , 59-C ) :   1.1555 B( 58-C , 77-H ) :   1.0046
B( 59-C , 60-C ) :   1.3922 B( 60-C , 78-H ) :   0.9986 B( 61-C , 62-C ) :   1.9406
B( 61-C , 79-H ) :   0.9662 B( 62-C , 80-H ) :   0.9528 B( 62-C , 81-H ) :   0.9488

-----------------------------------------------------------------------------
         ABSORPTION SPECTRUM VIA TRANSITION ELECTRIC DIPOLE MOMENTS
-----------------------------------------------------------------------------
State   Energy  Wavelength   fosc         T2         TX        TY        TZ
        (cm-1)    (nm)                  (au**2)     (au)      (au)      (au)
-----------------------------------------------------------------------------
   0    7943.2   1258.9   0.012451572   0.51607   0.07423   0.11957  -0.70446
   1    8690.6   1150.7   0.802438005  30.39742   1.58528   0.92087  -5.19964
   2   15486.5    645.7   0.005776663   0.12280  -0.03611  -0.03546   0.34676
   3   19384.2    515.9   0.494199845   8.39325  -0.78850  -0.59303   2.72394
   4   19629.7    509.4   0.703616850  11.80042   0.49927   0.57649  -3.34945
   5   20241.5    494.0   0.052820616   0.85908  -0.00468  -0.32913   0.86645
   6   21087.6    474.2   0.006724742   0.10498   0.08093   0.14012  -0.28071
   7   22066.9    453.2   0.102876248   1.53479  -0.15906   0.22828  -1.20722
   8   23516.1    425.2   0.675990085   9.46348  -1.57300   0.41100  -2.61156
   9   24020.4    416.3   0.195639829   2.68135  -0.47032  -0.44820   1.50309
  10   24220.5    412.9   0.099534040   1.35290  -0.30207   0.18223  -1.10835
  11   24645.5    405.8   0.176762158   2.36117  -0.41036  -0.74700   1.27858
  12   24882.5    401.9   0.006374608   0.08434   0.10105   0.08169  -0.25973
  13   25664.6    389.6   0.067080550   0.86047   0.81262  -0.16620   0.41532
  14   26266.7    380.7   0.057149024   0.71627  -0.10726  -0.03499   0.83878
  15   26377.5    379.1   0.013177932   0.16447   0.25900  -0.14191   0.27794
  16   28220.1    354.4   0.009417926   0.10987   0.12466   0.07324  -0.29827
  17   28457.4    351.4   0.001546780   0.01789   0.06427   0.01262   0.11664
  18   28753.2    347.8   0.012942897   0.14819   0.14630   0.17093  -0.31236
  19   28805.0    347.2   0.040602079   0.46404  -0.57651  -0.32465   0.16209
  20   29982.7    333.5   0.039658687   0.43545  -0.64134  -0.15402   0.02036
  21   30248.9    330.6   0.074885270   0.81501  -0.40164   0.19033  -0.78579
  22   30643.4    326.3   0.089248374   0.95883  -0.68361  -0.69870  -0.05755
  23   31278.6    319.7   0.337839737   3.55582   1.34516   1.24551   0.44167
  24   31529.4    317.2   0.019795217   0.20669   0.05418   0.15202   0.42502
  25   31922.9    313.3   0.024827636   0.25604   0.47368   0.16588  -0.06441
  26   32186.1    310.7   0.042456186   0.43426  -0.47829  -0.31446   0.32651
  27   32516.7    307.5   0.015541043   0.15734  -0.33374  -0.18241  -0.11264
  28   32917.2    303.8   0.100807000   1.00819  -0.83062  -0.56314   0.03369
  29   33007.5    303.0   0.012768537   0.12735  -0.07637   0.02507  -0.34769
  30   33441.5    299.0   0.080346620   0.79097   0.13804  -0.23970   0.84526
  31   33685.5    296.9   0.141499509   1.38289   0.80018   0.83758  -0.20261
  32   34527.3    289.6   0.070062204   0.66803  -0.27150  -0.12858  -0.76012
  33   34626.0    288.8   0.022620222   0.21507  -0.25234  -0.37158  -0.11538
  34   34694.7    288.2   0.004199515   0.03985   0.14610   0.12088   0.06238
  35   35091.9    285.0   0.000520976   0.00489   0.01783   0.05950  -0.03209
  36   35245.4    283.7   0.033799142   0.31570  -0.29980  -0.08024  -0.46839
  37   35451.8    282.1   0.000190501   0.00177   0.00234  -0.03585  -0.02186
  38   35699.8    280.1   0.008437540   0.07781  -0.19915  -0.06498  -0.18419
  39   36058.7    277.3   0.008726679   0.07967   0.01626  -0.14489   0.24169
  40   36334.4    275.2   0.466514610   4.22691   0.23278   0.52105  -1.97516
  41   36557.7    273.5   0.182591960   1.64429   0.38905   0.45772  -1.13288
  42   36743.5    272.2   0.438089138   3.92516   0.30449   0.04327   1.95718
  43   36956.7    270.6   0.103384950   0.92096  -0.56214  -0.45208   0.63292
  44   37386.0    267.5   0.033870924   0.29826  -0.28840   0.04689  -0.46139
  45   37402.2    267.4   0.011081399   0.09754   0.07022  -0.03736   0.30201
  46   37850.7    264.2   0.006050370   0.05262  -0.04612  -0.04449  -0.22027
  47   38389.4    260.5   0.001829791   0.01569  -0.00666  -0.02746   0.12204
  48   38521.7    259.6   0.021883850   0.18702   0.38691   0.13761  -0.13559
  49   38566.1    259.3   0.160010533   1.36590   1.03247   0.43280   0.33553
  50   38684.6    258.5   0.041273971   0.35125   0.13182  -0.57374  -0.06849
  51   38985.0    256.5   0.034423498   0.29069  -0.48061  -0.01573  -0.24384
  52   39084.1    255.9   0.030509785   0.25699   0.10886  -0.30730   0.38820
  53   39269.4    254.7   0.042932662   0.35992   0.56811  -0.02584   0.19108
  54   39651.8    252.2   0.070116137   0.58214   0.24419   0.23314   0.68422
  55   39978.4    250.1   0.016255096   0.13386  -0.35870   0.00831  -0.07157
  56   40119.7    249.3   0.050654190   0.41566  -0.54944  -0.28512  -0.18022

FINAL SINGLE POINT ENERGY     -4564.081995250448

DIPOLE MOMENT
-------------
                                X             Y             Z
Electronic contribution:     38.43793      -2.06978      27.19705
Nuclear contribution   :    -39.47824       2.92464     -24.44853
                        -----------------------------------------
Total Dipole Moment    :     -1.04030       0.85486       2.74853
                        -----------------------------------------
Magnitude (a.u.)       :      3.06062
Magnitude (Debye)      :      7.77949

Rotational constants in cm-1:     0.002438     0.000302     0.000278
Rotational constants in MHz :    73.088127     9.064985     8.333889

                             ****ORCA TERMINATED NORMALLY****
TOTAL RUN TIME: 0 days 0 hours 9 minutes 56 seconds 770 msec
