                         Program Version 4.2.0 -  RELEASE  -
|  1> # ORCA input file
|  2> # SCF done       -172.349227065462          0.000185697581
|  3> ! CAM-B3LYP def2-SVP def2/J RIJCOSX Grid4 TightSCF
|  4> %maxcore 5000
|  5> %tddft
|  6>     Mode sTDDFT
|  7>     Ethresh 5.0
|  8>     maxcore 5000
|  9> end
| 10>
| 11> %pal
| 12>   nprocs 6
| 13>   end
| 14> * xyz 0 1
| 15>    C       14.06350        -5.33592        -3.57595
| 16>    C       12.89402        -5.04568        -4.16084
| 17>    C       12.67143        -4.24051        -5.32873
| 18>    C       11.37538        -4.12851        -5.69061
| 19>    C       10.46801        -4.83000        -4.84533
| 20>    S       11.33754        -5.64206        -3.56084
| 21>    C        9.10257        -4.90888        -4.96929
| 22>    C        8.27260        -4.31598        -5.95327
| 23>    C        6.95500        -4.60870        -5.81084
| 24>    C        6.65156        -5.44164        -4.69821
| 25>    S        8.12970        -5.84615        -3.84691
| 26>    C        5.40360        -5.91641        -4.39365
| 27>    C        5.01102        -6.70470        -3.29668
| 28>    S        3.51286        -7.62168        -3.42126
| 29>    C        3.66723        -8.33446        -1.83288
| 30>    C        4.81754        -7.83737        -1.25176
| 31>    C        5.56344        -6.94642        -2.04996
| 32>    S        6.91424        -6.34207        -1.12537
| 33>    C        6.42094        -7.35955         0.24716
| 34>    S        7.20008        -7.44491         1.66528
| 35>    O        5.31958        -8.06326        -0.01299
| 36>    C        2.73761        -9.29804        -1.35865
| 37>    C        2.86035        -9.92308        -0.16692
| 38>    C        2.03212       -10.98724         0.33730
| 39>    C        0.88643       -11.44899        -0.33246
| 40>    C        0.20993       -12.54229         0.15053
| 41>    C        0.62475       -13.16378         1.34367
| 42>    C        1.72911       -12.69212         2.03935
| 43>    C        2.42531       -11.61857         1.52729
| 44>    C       -0.27042       -14.25991         1.63248
| 45>    C       -1.25028       -14.31436         0.62719
| 46>    C       -1.00029       -13.24891        -0.42061
| 47>    C       -0.67247       -13.98955        -1.73902
| 48>    C       -0.19208       -13.12351        -2.89606
| 49>    C       -2.20020       -12.30440        -0.58465
| 50>    C       -2.61747       -11.66352         0.73402
| 51>    C       -2.21807       -15.28793         0.65226
| 52>    C       -2.20707       -16.25502         1.67062
| 53>    C       -1.23649       -16.17060         2.67901
| 54>    C       -0.27777       -15.18000         2.67220
| 55>    C       -3.17099       -17.32594         1.61634
| 56>    C       -3.04484       -18.51615         2.24126
| 57>    C       -3.96290       -19.58984         2.11879
| 58>    S       -3.59257       -21.14536         2.83804
| 59>    C       -5.06043       -21.90269         2.24938
| 60>    C       -5.77976       -20.95051         1.54710
| 61>    C       -5.17507       -19.68250         1.46820
| 62>    S       -6.19295       -18.61401         0.53871
| 63>    C       -7.36426       -19.94000         0.31852
| 64>    S       -8.75225       -19.81488        -0.50833
| 65>    O       -6.97167       -21.06503         0.91256
| 66>    C       -5.37630       -23.25717         2.46662
| 67>    C       -4.54367       -24.13076         3.10396
| 68>    C       -4.81949       -25.48852         3.30637
| 69>    C       -3.94520       -26.36711         3.89785
| 70>    C       -4.14633       -27.75239         4.12176
| 71>    C       -3.09606       -28.38483         4.70951
| 72>    C       -1.99641       -27.53618         4.98807
| 73>    S       -2.35556       -25.89737         4.47844
| 74>    C       -0.79248       -27.87228         5.56154
| 75>    C       -0.37535       -29.15876         6.00526
| 76>    C        0.87168       -29.19186         6.52433
| 77>    C        1.54413       -27.92409         6.53321
| 78>    S        0.47561       -26.69575         5.83562
| 79>    C        2.77714       -27.65194         6.98140
| 80>    H       14.98699        -4.95403        -3.97423
| 81>    H       14.11847        -5.95316        -2.69810
| 82>    H       13.49720        -3.78236        -5.84364
| 83>    H       11.02756        -3.56583        -6.53872
| 84>    H        8.67357        -3.69511        -6.73410
| 85>    H        6.17694        -4.25276        -6.46293
| 86>    H        4.62119        -5.70580        -5.11138
| 87>    H        1.93119        -9.52953        -2.03906
| 88>    H        3.69130        -9.64712         0.46787
| 89>    H        0.54364       -10.93728        -1.21722
| 90>    H        2.04111       -13.16081         2.96056
| 91>    H        3.29921       -11.25106         2.04557
| 92>    H       -1.57310       -14.52534        -2.04720
| 93>    H        0.09555       -14.73649        -1.52068
| 94>    H       -0.90472       -12.33582        -3.12618
| 95>    H       -0.07830       -13.74291        -3.78338
| 96>    H        0.77305       -12.67726        -2.67279
| 97>    H       -3.03934       -12.86964        -0.99576
| 98>    H       -1.94328       -11.51825        -1.29595
| 99>    H       -2.90431       -12.42353         1.45747
|100>    H       -3.46506       -11.00025         0.57704
|101>    H       -1.79866       -11.08303         1.15377
|102>    H       -2.97505       -15.34188        -0.11713
|103>    H       -1.24814       -16.88738         3.48547
|104>    H        0.46132       -15.12830         3.45761
|105>    H       -4.02173       -17.16677         0.96542
|106>    H       -2.17997       -18.72697         2.85338
|107>    H       -6.32737       -23.59157         2.07463
|108>    H       -3.59319       -23.75803         3.46843
|109>    H       -5.77004       -25.87944         2.96821
|110>    H       -5.06470       -28.23480         3.83625
|111>    H       -3.07846       -29.43293         4.94897
|112>    H       -1.01965       -30.01583         5.92038
|113>    H        1.35633       -30.07200         6.90810
|114>    H        3.39393       -28.42866         7.39780
|115>    H        3.18746       -26.65970         6.94049
|116> *
|117>
|118>                          ****END OF INPUT****

CARTESIAN COORDINATES (ANGSTROEM)
---------------------------------
  C     14.063500   -5.335920   -3.575950
  C     12.894020   -5.045680   -4.160840
  C     12.671430   -4.240510   -5.328730
  C     11.375380   -4.128510   -5.690610
  C     10.468010   -4.830000   -4.845330
  S     11.337540   -5.642060   -3.560840
  C      9.102570   -4.908880   -4.969290
  C      8.272600   -4.315980   -5.953270
  C      6.955000   -4.608700   -5.810840
  C      6.651560   -5.441640   -4.698210
  S      8.129700   -5.846150   -3.846910
  C      5.403600   -5.916410   -4.393650
  C      5.011020   -6.704700   -3.296680
  S      3.512860   -7.621680   -3.421260
  C      3.667230   -8.334460   -1.832880
  C      4.817540   -7.837370   -1.251760
  C      5.563440   -6.946420   -2.049960
  S      6.914240   -6.342070   -1.125370
  C      6.420940   -7.359550    0.247160
  S      7.200080   -7.444910    1.665280
  O      5.319580   -8.063260   -0.012990
  C      2.737610   -9.298040   -1.358650
  C      2.860350   -9.923080   -0.166920
  C      2.032120  -10.987240    0.337300
  C      0.886430  -11.448990   -0.332460
  C      0.209930  -12.542290    0.150530
  C      0.624750  -13.163780    1.343670
  C      1.729110  -12.692120    2.039350
  C      2.425310  -11.618570    1.527290
  C     -0.270420  -14.259910    1.632480
  C     -1.250280  -14.314360    0.627190
  C     -1.000290  -13.248910   -0.420610
  C     -0.672470  -13.989550   -1.739020
  C     -0.192080  -13.123510   -2.896060
  C     -2.200200  -12.304400   -0.584650
  C     -2.617470  -11.663520    0.734020
  C     -2.218070  -15.287930    0.652260
  C     -2.207070  -16.255020    1.670620
  C     -1.236490  -16.170600    2.679010
  C     -0.277770  -15.180000    2.672200
  C     -3.170990  -17.325940    1.616340
  C     -3.044840  -18.516150    2.241260
  C     -3.962900  -19.589840    2.118790
  S     -3.592570  -21.145360    2.838040
  C     -5.060430  -21.902690    2.249380
  C     -5.779760  -20.950510    1.547100
  C     -5.175070  -19.682500    1.468200
  S     -6.192950  -18.614010    0.538710
  C     -7.364260  -19.940000    0.318520
  S     -8.752250  -19.814880   -0.508330
  O     -6.971670  -21.065030    0.912560
  C     -5.376300  -23.257170    2.466620
  C     -4.543670  -24.130760    3.103960
  C     -4.819490  -25.488520    3.306370
  C     -3.945200  -26.367110    3.897850
  C     -4.146330  -27.752390    4.121760
  C     -3.096060  -28.384830    4.709510
  C     -1.996410  -27.536180    4.988070
  S     -2.355560  -25.897370    4.478440
  C     -0.792480  -27.872280    5.561540
  C     -0.375350  -29.158760    6.005260
  C      0.871680  -29.191860    6.524330
  C      1.544130  -27.924090    6.533210
  S      0.475610  -26.695750    5.835620
  C      2.777140  -27.651940    6.981400
  H     14.986990   -4.954030   -3.974230
  H     14.118470   -5.953160   -2.698100
  H     13.497200   -3.782360   -5.843640
  H     11.027560   -3.565830   -6.538720
  H      8.673570   -3.695110   -6.734100
  H      6.176940   -4.252760   -6.462930
  H      4.621190   -5.705800   -5.111380
  H      1.931190   -9.529530   -2.039060
  H      3.691300   -9.647120    0.467870
  H      0.543640  -10.937280   -1.217220
  H      2.041110  -13.160810    2.960560
  H      3.299210  -11.251060    2.045570
  H     -1.573100  -14.525340   -2.047200
  H      0.095550  -14.736490   -1.520680
  H     -0.904720  -12.335820   -3.126180
  H     -0.078300  -13.742910   -3.783380
  H      0.773050  -12.677260   -2.672790
  H     -3.039340  -12.869640   -0.995760
  H     -1.943280  -11.518250   -1.295950
  H     -2.904310  -12.423530    1.457470
  H     -3.465060  -11.000250    0.577040
  H     -1.798660  -11.083030    1.153770
  H     -2.975050  -15.341880   -0.117130
  H     -1.248140  -16.887380    3.485470
  H      0.461320  -15.128300    3.457610
  H     -4.021730  -17.166770    0.965420
  H     -2.179970  -18.726970    2.853380
  H     -6.327370  -23.591570    2.074630
  H     -3.593190  -23.758030    3.468430
  H     -5.770040  -25.879440    2.968210
  H     -5.064700  -28.234800    3.836250
  H     -3.078460  -29.432930    4.948970
  H     -1.019650  -30.015830    5.920380
  H      1.356330  -30.072000    6.908100
  H      3.393930  -28.428660    7.397800
  H      3.187460  -26.659700    6.940490

 Total Charge           Charge          ....    0
 Multiplicity           Mult            ....    1
 Number of Electrons    NEL             ....  530
 Basis Dimension        Dim             .... 1130

ORBITAL ENERGIES
----------------

  NO   OCC          E(Eh)            E(eV)
   0   2.0000     -88.969916     -2420.9945
   1   2.0000     -88.964845     -2420.8565
   2   2.0000     -88.961220     -2420.7579
   3   2.0000     -88.960826     -2420.7472
   4   2.0000     -88.945857     -2420.3398
   5   2.0000     -88.940309     -2420.1888
   6   2.0000     -88.939335     -2420.1624
   7   2.0000     -88.936793     -2420.0932
   8   2.0000     -88.883917     -2418.6543
   9   2.0000     -88.880425     -2418.5593
  10   2.0000     -19.307308      -525.3786
  11   2.0000     -19.304650      -525.3062
  12   2.0000     -10.403235      -283.0864
  13   2.0000     -10.397763      -282.9375
  14   2.0000     -10.348456      -281.5958
  15   2.0000     -10.345875      -281.5256
  16   2.0000     -10.316400      -280.7235
  17   2.0000     -10.314663      -280.6762
  18   2.0000     -10.312396      -280.6145
  19   2.0000     -10.312369      -280.6138
  20   2.0000     -10.311800      -280.5983
  21   2.0000     -10.311525      -280.5909
  22   2.0000     -10.311283      -280.5843
  23   2.0000     -10.311160      -280.5809
  24   2.0000     -10.309028      -280.5229
  25   2.0000     -10.308482      -280.5081
  26   2.0000     -10.307360      -280.4775
  27   2.0000     -10.306655      -280.4583
  28   2.0000     -10.304949      -280.4119
  29   2.0000     -10.304670      -280.4043
  30   2.0000     -10.290884      -280.0292
  31   2.0000     -10.289166      -279.9824
  32   2.0000     -10.288237      -279.9572
  33   2.0000     -10.288146      -279.9547
  34   2.0000     -10.286857      -279.9196
  35   2.0000     -10.286515      -279.9103
  36   2.0000     -10.285277      -279.8766
  37   2.0000     -10.284576      -279.8575
  38   2.0000     -10.283438      -279.8266
  39   2.0000     -10.282794      -279.8090
  40   2.0000     -10.281980      -279.7869
  41   2.0000     -10.281007      -279.7604
  42   2.0000     -10.280448      -279.7452
  43   2.0000     -10.278025      -279.6793
  44   2.0000     -10.277265      -279.6586
  45   2.0000     -10.276598      -279.6405
  46   2.0000     -10.275259      -279.6040
  47   2.0000     -10.273802      -279.5644
  48   2.0000     -10.272478      -279.5283
  49   2.0000     -10.271763      -279.5089
  50   2.0000     -10.269447      -279.4459
  51   2.0000     -10.268697      -279.4254
  52   2.0000     -10.268048      -279.4078
  53   2.0000     -10.267909      -279.4040
  54   2.0000     -10.267518      -279.3934
  55   2.0000     -10.267388      -279.3898
  56   2.0000     -10.266738      -279.3721
  57   2.0000     -10.266522      -279.3663
  58   2.0000     -10.266061      -279.3537
  59   2.0000     -10.265614      -279.3416
  60   2.0000     -10.265240      -279.3314
  61   2.0000     -10.261410      -279.2272
  62   2.0000     -10.260836      -279.2115
  63   2.0000     -10.250401      -278.9276
  64   2.0000     -10.243779      -278.7474
  65   2.0000      -8.065218      -219.4657
  66   2.0000      -8.060285      -219.3315
  67   2.0000      -8.056328      -219.2238
  68   2.0000      -8.056212      -219.2207
  69   2.0000      -8.042057      -218.8355
  70   2.0000      -8.036550      -218.6856
  71   2.0000      -8.036058      -218.6723
  72   2.0000      -8.033544      -218.6038
  73   2.0000      -7.981727      -217.1938
  74   2.0000      -7.978262      -217.0995
  75   2.0000      -6.035245      -164.2274
  76   2.0000      -6.030965      -164.1109
  77   2.0000      -6.030309      -164.0931
  78   2.0000      -6.025940      -163.9742
  79   2.0000      -6.025795      -163.9702
  80   2.0000      -6.025756      -163.9691
  81   2.0000      -6.025694      -163.9675
  82   2.0000      -6.021927      -163.8650
  83   2.0000      -6.021812      -163.8618
  84   2.0000      -6.020736      -163.8326
  85   2.0000      -6.017870      -163.7546
  86   2.0000      -6.017671      -163.7492
  87   2.0000      -6.011834      -163.5903
  88   2.0000      -6.007780      -163.4800
  89   2.0000      -6.006304      -163.4398
  90   2.0000      -6.005912      -163.4292
  91   2.0000      -6.003360      -163.3597
  92   2.0000      -6.002841      -163.3456
  93   2.0000      -6.002367      -163.3327
  94   2.0000      -6.001930      -163.3208
  95   2.0000      -5.999459      -163.2536
  96   2.0000      -5.997361      -163.1965
  97   2.0000      -5.996567      -163.1749
  98   2.0000      -5.994061      -163.1067
  99   2.0000      -5.951379      -161.9452
 100   2.0000      -5.948247      -161.8600
 101   2.0000      -5.947919      -161.8511
 102   2.0000      -5.944761      -161.7652
 103   2.0000      -5.941777      -161.6840
 104   2.0000      -5.938322      -161.5900
 105   2.0000      -1.230239       -33.4765
 106   2.0000      -1.227536       -33.4030
 107   2.0000      -0.998967       -27.1833
 108   2.0000      -0.997770       -27.1507
 109   2.0000      -0.991590       -26.9825
 110   2.0000      -0.990379       -26.9496
 111   2.0000      -0.984302       -26.7842
 112   2.0000      -0.970206       -26.4007
 113   2.0000      -0.967626       -26.3304
 114   2.0000      -0.945320       -25.7235
 115   2.0000      -0.935445       -25.4548
 116   2.0000      -0.931975       -25.3603
 117   2.0000      -0.918934       -25.0055
 118   2.0000      -0.907049       -24.6821
 119   2.0000      -0.898455       -24.4482
 120   2.0000      -0.894843       -24.3499
 121   2.0000      -0.886755       -24.1298
 122   2.0000      -0.880471       -23.9588
 123   2.0000      -0.877262       -23.8715
 124   2.0000      -0.872668       -23.7465
 125   2.0000      -0.864368       -23.5207
 126   2.0000      -0.854238       -23.2450
 127   2.0000      -0.846311       -23.0293
 128   2.0000      -0.843094       -22.9418
 129   2.0000      -0.842018       -22.9125
 130   2.0000      -0.834580       -22.7101
 131   2.0000      -0.831146       -22.6166
 132   2.0000      -0.829155       -22.5625
 133   2.0000      -0.824855       -22.4454
 134   2.0000      -0.819607       -22.3026
 135   2.0000      -0.815245       -22.1839
 136   2.0000      -0.806105       -21.9352
 137   2.0000      -0.793120       -21.5819
 138   2.0000      -0.787615       -21.4321
 139   2.0000      -0.787016       -21.4158
 140   2.0000      -0.771445       -20.9921
 141   2.0000      -0.763425       -20.7738
 142   2.0000      -0.760419       -20.6920
 143   2.0000      -0.742259       -20.1979
 144   2.0000      -0.731487       -19.9048
 145   2.0000      -0.729179       -19.8420
 146   2.0000      -0.717688       -19.5293
 147   2.0000      -0.709317       -19.3015
 148   2.0000      -0.699581       -19.0366
 149   2.0000      -0.695004       -18.9120
 150   2.0000      -0.688973       -18.7479
 151   2.0000      -0.685294       -18.6478
 152   2.0000      -0.677651       -18.4398
 153   2.0000      -0.675130       -18.3712
 154   2.0000      -0.667424       -18.1615
 155   2.0000      -0.663316       -18.0497
 156   2.0000      -0.653523       -17.7833
 157   2.0000      -0.651352       -17.7242
 158   2.0000      -0.646047       -17.5798
 159   2.0000      -0.640027       -17.4160
 160   2.0000      -0.636443       -17.3185
 161   2.0000      -0.628343       -17.0981
 162   2.0000      -0.624762       -17.0006
 163   2.0000      -0.620062       -16.8728
 164   2.0000      -0.616927       -16.7874
 165   2.0000      -0.612086       -16.6557
 166   2.0000      -0.602475       -16.3942
 167   2.0000      -0.601356       -16.3637
 168   2.0000      -0.596349       -16.2275
 169   2.0000      -0.594915       -16.1885
 170   2.0000      -0.589723       -16.0472
 171   2.0000      -0.584949       -15.9173
 172   2.0000      -0.579140       -15.7592
 173   2.0000      -0.576393       -15.6844
 174   2.0000      -0.574131       -15.6229
 175   2.0000      -0.570537       -15.5251
 176   2.0000      -0.564076       -15.3493
 177   2.0000      -0.558337       -15.1931
 178   2.0000      -0.550123       -14.9696
 179   2.0000      -0.544630       -14.8201
 180   2.0000      -0.541312       -14.7299
 181   2.0000      -0.538889       -14.6639
 182   2.0000      -0.534486       -14.5441
 183   2.0000      -0.530153       -14.4262
 184   2.0000      -0.528483       -14.3808
 185   2.0000      -0.524720       -14.2784
 186   2.0000      -0.518436       -14.1074
 187   2.0000      -0.515020       -14.0144
 188   2.0000      -0.514837       -14.0094
 189   2.0000      -0.513184       -13.9644
 190   2.0000      -0.511697       -13.9240
 191   2.0000      -0.503046       -13.6886
 192   2.0000      -0.500990       -13.6326
 193   2.0000      -0.498627       -13.5683
 194   2.0000      -0.496566       -13.5122
 195   2.0000      -0.494476       -13.4554
 196   2.0000      -0.493084       -13.4175
 197   2.0000      -0.492138       -13.3918
 198   2.0000      -0.489525       -13.3207
 199   2.0000      -0.486071       -13.2267
 200   2.0000      -0.483301       -13.1513
 201   2.0000      -0.483029       -13.1439
 202   2.0000      -0.482199       -13.1213
 203   2.0000      -0.480871       -13.0852
 204   2.0000      -0.478530       -13.0215
 205   2.0000      -0.475435       -12.9372
 206   2.0000      -0.470865       -12.8129
 207   2.0000      -0.469564       -12.7775
 208   2.0000      -0.464456       -12.6385
 209   2.0000      -0.462171       -12.5763
 210   2.0000      -0.461120       -12.5477
 211   2.0000      -0.460513       -12.5312
 212   2.0000      -0.458600       -12.4791
 213   2.0000      -0.458006       -12.4630
 214   2.0000      -0.452539       -12.3142
 215   2.0000      -0.451033       -12.2732
 216   2.0000      -0.450224       -12.2512
 217   2.0000      -0.446956       -12.1623
 218   2.0000      -0.444586       -12.0978
 219   2.0000      -0.438415       -11.9299
 220   2.0000      -0.437730       -11.9112
 221   2.0000      -0.432672       -11.7736
 222   2.0000      -0.432303       -11.7636
 223   2.0000      -0.430154       -11.7051
 224   2.0000      -0.429630       -11.6908
 225   2.0000      -0.427531       -11.6337
 226   2.0000      -0.426197       -11.5974
 227   2.0000      -0.422549       -11.4981
 228   2.0000      -0.419962       -11.4277
 229   2.0000      -0.419401       -11.4125
 230   2.0000      -0.417531       -11.3616
 231   2.0000      -0.415428       -11.3044
 232   2.0000      -0.414479       -11.2785
 233   2.0000      -0.412039       -11.2121
 234   2.0000      -0.409606       -11.1459
 235   2.0000      -0.401611       -10.9284
 236   2.0000      -0.400329       -10.8935
 237   2.0000      -0.395897       -10.7729
 238   2.0000      -0.394068       -10.7231
 239   2.0000      -0.387677       -10.5492
 240   2.0000      -0.386680       -10.5221
 241   2.0000      -0.382267       -10.4020
 242   2.0000      -0.377695       -10.2776
 243   2.0000      -0.376540       -10.2462
 244   2.0000      -0.367804       -10.0085
 245   2.0000      -0.354978        -9.6594
 246   2.0000      -0.352870        -9.6021
 247   2.0000      -0.347503        -9.4560
 248   2.0000      -0.338650        -9.2151
 249   2.0000      -0.335635        -9.1331
 250   2.0000      -0.334317        -9.0972
 251   2.0000      -0.325593        -8.8598
 252   2.0000      -0.319947        -8.7062
 253   2.0000      -0.317311        -8.6345
 254   2.0000      -0.311701        -8.4818
 255   2.0000      -0.309003        -8.4084
 256   2.0000      -0.291127        -7.9220
 257   2.0000      -0.290519        -7.9054
 258   2.0000      -0.287828        -7.8322
 259   2.0000      -0.279131        -7.5955
 260   2.0000      -0.276153        -7.5145
 261   2.0000      -0.265695        -7.2299
 262   2.0000      -0.246273        -6.7014
 263   2.0000      -0.215157        -5.8547
 264   2.0000      -0.208072        -5.6619
 265   0.0000      -0.077479        -2.1083
 266   0.0000      -0.072055        -1.9607
 267   0.0000      -0.041232        -1.1220
 268   0.0000      -0.026898        -0.7319
 269   0.0000      -0.008613        -0.2344

MULLIKEN ATOMIC CHARGES
-----------------------
   0 C :   -0.024657
   1 C :   -0.067589
   2 C :    0.057714
   3 C :    0.027756
   4 C :   -0.062985
   5 S :    0.087731
   6 C :   -0.054076
   7 C :    0.036566
   8 C :    0.029817
   9 C :   -0.026831
  10 S :    0.075154
  11 C :    0.011834
  12 C :   -0.216146
  13 S :    0.132981
  14 C :   -0.159022
  15 C :    0.186524
  16 C :   -0.002303
  17 S :    0.166644
  18 C :    0.055399
  19 S :   -0.153821
  20 O :   -0.156383
  21 C :    0.076012
  22 C :   -0.026427
  23 C :    0.120857
  24 C :   -0.093863
  25 C :    0.027924
  26 C :    0.097349
  27 C :   -0.048808
  28 C :   -0.017856
  29 C :    0.099576
  30 C :    0.022508
  31 C :   -0.135063
  32 C :    0.074844
  33 C :    0.030028
  34 C :    0.054054
  35 C :    0.022772
  36 C :   -0.105460
  37 C :    0.115091
  38 C :   -0.016620
  39 C :   -0.041477
  40 C :   -0.020782
  41 C :    0.075551
  42 C :   -0.190416
  43 S :    0.128083
  44 C :   -0.150303
  45 C :    0.215781
  46 C :   -0.017278
  47 S :    0.139960
  48 C :    0.058382
  49 S :   -0.146066
  50 O :   -0.147537
  51 C :    0.003766
  52 C :    0.002734
  53 C :   -0.012562
  54 C :   -0.017564
  55 C :    0.034290
  56 C :    0.027775
  57 C :   -0.047903
  58 S :    0.068721
  59 C :   -0.066051
  60 C :    0.028505
  61 C :    0.054482
  62 C :   -0.066446
  63 S :    0.080318
  64 C :   -0.028771
  65 H :    0.020971
  66 H :    0.025605
  67 H :   -0.010067
  68 H :   -0.011079
  69 H :   -0.013152
  70 H :   -0.012065
  71 H :   -0.013358
  72 H :   -0.033153
  73 H :   -0.000843
  74 H :   -0.040832
  75 H :   -0.035407
  76 H :   -0.019556
  77 H :   -0.004738
  78 H :    0.007699
  79 H :    0.001672
  80 H :    0.012984
  81 H :    0.019228
  82 H :   -0.002437
  83 H :    0.005440
  84 H :    0.020835
  85 H :    0.009725
  86 H :    0.022540
  87 H :   -0.037750
  88 H :   -0.025417
  89 H :   -0.034138
  90 H :   -0.019790
  91 H :   -0.021207
  92 H :   -0.000014
  93 H :    0.005466
  94 H :   -0.015708
  95 H :   -0.012990
  96 H :   -0.013692
  97 H :   -0.011555
  98 H :   -0.012063
  99 H :    0.019872
 100 H :    0.022558
Sum of atomic charges:   -0.0000000

LOEWDIN ATOMIC CHARGES
----------------------
   0 C :   -0.069937
   1 C :   -0.140148
   2 C :   -0.026638
   3 C :   -0.027541
   4 C :   -0.172417
   5 S :    0.357376
   6 C :   -0.183830
   7 C :   -0.030239
   8 C :   -0.035150
   9 C :   -0.145530
  10 S :    0.371518
  11 C :   -0.091076
  12 C :   -0.188642
  13 S :    0.434488
  14 C :   -0.187090
  15 C :   -0.010986
  16 C :   -0.222976
  17 S :    0.394098
  18 C :   -0.242079
  19 S :   -0.018517
  20 O :   -0.007062
  21 C :   -0.051504
  22 C :   -0.003479
  23 C :   -0.027194
  24 C :   -0.016795
  25 C :    0.004484
  26 C :   -0.014873
  27 C :   -0.019864
  28 C :   -0.012273
  29 C :   -0.016970
  30 C :    0.005840
  31 C :   -0.034252
  32 C :   -0.009649
  33 C :   -0.059652
  34 C :   -0.015113
  35 C :   -0.056702
  36 C :   -0.019681
  37 C :   -0.025560
  38 C :   -0.016258
  39 C :   -0.016205
  40 C :   -0.012141
  41 C :   -0.046643
  42 C :   -0.181495
  43 S :    0.439501
  44 C :   -0.186342
  45 C :   -0.010925
  46 C :   -0.217675
  47 S :    0.383867
  48 C :   -0.236182
  49 S :   -0.013472
  50 O :   -0.006165
  51 C :   -0.041547
  52 C :   -0.031239
  53 C :   -0.061173
  54 C :   -0.140439
  55 C :   -0.036056
  56 C :   -0.029378
  57 C :   -0.181224
  58 S :    0.364967
  59 C :   -0.176483
  60 C :   -0.026958
  61 C :   -0.030917
  62 C :   -0.139405
  63 S :    0.352212
  64 C :   -0.075739
  65 H :    0.029357
  66 H :    0.028028
  67 H :    0.034141
  68 H :    0.032501
  69 H :    0.032077
  70 H :    0.033320
  71 H :    0.034632
  72 H :    0.024879
  73 H :    0.031170
  74 H :    0.021627
  75 H :    0.027035
  76 H :    0.029738
  77 H :    0.019663
  78 H :    0.027356
  79 H :    0.019150
  80 H :    0.027916
  81 H :    0.023806
  82 H :    0.020099
  83 H :    0.019241
  84 H :    0.025181
  85 H :    0.023974
  86 H :    0.026144
  87 H :    0.024068
  88 H :    0.025588
  89 H :    0.027466
  90 H :    0.018128
  91 H :    0.028523
  92 H :    0.038983
  93 H :    0.016278
  94 H :    0.033318
  95 H :    0.033427
  96 H :    0.031444
  97 H :    0.032272
  98 H :    0.033286
  99 H :    0.028725
 100 H :    0.026589

  Mayer bond orders larger than 0.100000
B(  0-C ,  1-C ) :   1.8668 B(  0-C , 65-H ) :   0.9511 B(  0-C , 66-H ) :   0.9418
B(  1-C ,  2-C ) :   1.0767 B(  1-C ,  5-S ) :   1.0076 B(  2-C ,  3-C ) :   1.6660
B(  2-C , 67-H ) :   0.9932 B(  3-C ,  4-C ) :   1.1475 B(  3-C , 68-H ) :   0.9920
B(  4-C ,  5-S ) :   1.0495 B(  4-C ,  6-C ) :   1.5624 B(  6-C ,  7-C ) :   1.1670
B(  6-C , 10-S ) :   1.0345 B(  7-C ,  8-C ) :   1.6130 B(  7-C , 69-H ) :   0.9913
B(  8-C ,  9-C ) :   1.1327 B(  8-C , 70-H ) :   0.9982 B(  9-C , 10-S ) :   1.0328
B(  9-C , 11-C ) :   1.6189 B( 11-C , 12-C ) :   1.1593 B( 11-C , 71-H ) :   0.9467
B( 12-C , 13-S ) :   1.1056 B( 12-C , 16-C ) :   1.5102 B( 13-S , 14-C ) :   1.0952
B( 14-C , 15-C ) :   1.5109 B( 14-C , 21-C ) :   1.1203 B( 15-C , 16-C ) :   1.2628
B( 15-C , 20-O ) :   1.0685 B( 16-C , 17-S ) :   0.9890 B( 17-S , 18-C ) :   1.0524
B( 17-S , 19-S ) :   0.1183 B( 18-C , 19-S ) :   1.7559 B( 18-C , 20-O ) :   1.0875
B( 21-C , 22-C ) :   1.6706 B( 21-C , 72-H ) :   0.9515 B( 22-C , 23-C ) :   1.0747
B( 22-C , 73-H ) :   0.9805 B( 23-C , 24-C ) :   1.2917 B( 23-C , 28-C ) :   1.3335
B( 24-C , 25-C ) :   1.4190 B( 24-C , 74-H ) :   0.9915 B( 25-C , 26-C ) :   1.3681
B( 25-C , 31-C ) :   0.9195 B( 26-C , 27-C ) :   1.3424 B( 26-C , 29-C ) :   1.0030
B( 27-C , 28-C ) :   1.3743 B( 27-C , 75-H ) :   0.9908 B( 28-C , 76-H ) :   0.9953
B( 29-C , 30-C ) :   1.3763 B( 29-C , 39-C ) :   1.3278 B( 30-C , 31-C ) :   0.9268
B( 30-C , 36-C ) :   1.3833 B( 31-C , 32-C ) :   1.0171 B( 31-C , 34-C ) :   1.0286
B( 32-C , 33-C ) :   1.1153 B( 32-C , 77-H ) :   0.9362 B( 32-C , 78-H ) :   0.9401
B( 33-C , 79-H ) :   0.9626 B( 33-C , 80-H ) :   0.9593 B( 33-C , 81-H ) :   0.9606
B( 34-C , 35-C ) :   1.1033 B( 34-C , 82-H ) :   0.9398 B( 34-C , 83-H ) :   0.9390
B( 35-C , 84-H ) :   0.9634 B( 35-C , 85-H ) :   0.9646 B( 35-C , 86-H ) :   0.9653
B( 36-C , 37-C ) :   1.2900 B( 36-C , 87-H ) :   1.0100 B( 37-C , 38-C ) :   1.3445
B( 37-C , 40-C ) :   1.0780 B( 38-C , 39-C ) :   1.3987 B( 38-C , 88-H ) :   0.9842
B( 39-C , 89-H ) :   0.9899 B( 40-C , 41-C ) :   1.6805 B( 40-C , 90-H ) :   0.9741
B( 41-C , 42-C ) :   1.1470 B( 41-C , 91-H ) :   0.9536 B( 42-C , 43-S ) :   1.1104
B( 42-C , 44-C ) :   0.1013 B( 42-C , 46-C ) :   1.5347 B( 43-S , 44-C ) :   1.0804
B( 44-C , 45-C ) :   1.4780 B( 44-C , 51-C ) :   1.1718 B( 45-C , 46-C ) :   1.2589
B( 45-C , 50-O ) :   1.0867 B( 46-C , 47-S ) :   0.9966 B( 47-S , 48-C ) :   1.0518
B( 47-S , 49-S ) :   0.1171 B( 48-C , 49-S ) :   1.7601 B( 48-C , 50-O ) :   1.1018
B( 51-C , 52-C ) :   1.5884 B( 51-C , 92-H ) :   0.9900 B( 52-C , 53-C ) :   1.1703
B( 52-C , 93-H ) :   0.9694 B( 53-C , 54-C ) :   1.5598 B( 53-C , 94-H ) :   0.9838
B( 54-C , 55-C ) :   1.1393 B( 54-C , 58-S ) :   1.0346 B( 55-C , 56-C ) :   1.6017
B( 55-C , 95-H ) :   0.9988 B( 56-C , 57-C ) :   1.1749 B( 56-C , 96-H ) :   0.9932
B( 57-C , 58-S ) :   1.0368 B( 57-C , 59-C ) :   1.5513 B( 59-C , 60-C ) :   1.1539
B( 59-C , 63-S ) :   1.0465 B( 60-C , 61-C ) :   1.6607 B( 60-C , 97-H ) :   0.9919
B( 61-C , 62-C ) :   1.0808 B( 61-C , 98-H ) :   0.9927 B( 62-C , 63-S ) :   1.0076
B( 62-C , 64-C ) :   1.8630 B( 64-C , 99-H ) :   0.9506 B( 64-C ,100-H ) :   0.9418

-----------------------------------------------------------------------------
         ABSORPTION SPECTRUM VIA TRANSITION ELECTRIC DIPOLE MOMENTS
-----------------------------------------------------------------------------
State   Energy  Wavelength   fosc         T2         TX        TY        TZ
        (cm-1)    (nm)                  (au**2)     (au)      (au)      (au)
-----------------------------------------------------------------------------
   0   15677.6    637.9   1.811167358  38.03245  -0.41945   5.45531  -2.84537
   1   17507.5    571.2   1.815070382  34.13073  -5.63512  -1.16413   1.01042
   2   22716.9    440.2   0.042066609   0.60963  -0.13359   0.74022  -0.20942
   3   23318.5    428.8   0.517012668   7.29923   1.99489   1.81115   0.19850
   4   24067.9    415.5   0.018045277   0.24683   0.32815  -0.22064   0.30077
   5   25441.2    393.1   0.160347274   2.07491  -1.32982  -0.50978  -0.21591
   6   26161.2    382.2   0.657659646   8.27599  -1.86627  -2.18886   0.04333
   7   27111.4    368.8   0.292810442   3.55557  -1.59448   0.20092  -0.98633
   8   28412.9    352.0   0.245456654   2.84403   1.23618  -0.13223   1.13947
   9   28816.2    347.0   0.076026915   0.86857   0.25470   0.81987  -0.36265
  10   29538.7    338.5   0.033338443   0.37156  -0.08445   0.18553  -0.57446
  11   29864.5    334.8   0.184445307   2.03323   0.80790  -0.74135   0.91156
  12   30390.0    329.1   0.004991418   0.05407  -0.17251   0.12369  -0.09493
  13   30600.0    326.8   0.021500432   0.23131  -0.21470   0.36004  -0.23578
  14   31264.3    319.9   0.077042437   0.81125  -0.68512   0.14712  -0.56588
  15   31627.7    316.2   0.000267982   0.00279  -0.03151   0.04161  -0.00804
  16   32113.6    311.4   0.052724943   0.54051   0.25905  -0.59014   0.35374
  17   32596.7    306.8   0.146013667   1.47467  -0.88371  -0.16580  -0.81623
  18   32967.7    303.3   0.004369903   0.04364  -0.04816  -0.14764   0.13972
  19   33591.8    297.7   0.028910709   0.28334  -0.19669   0.38292  -0.31308
  20   34113.4    293.1   0.087867387   0.84797  -0.74778  -0.53507   0.04988
  21   34443.5    290.3   0.137111921   1.31052   0.51541   0.93837  -0.40539
  22   34473.7    290.1   0.004034734   0.03853  -0.09099  -0.16219   0.06282
  23   34749.4    287.8   0.013639185   0.12922   0.30400   0.10708   0.15916
  24   34997.1    285.7   0.044622367   0.41976  -0.48799  -0.38986  -0.17213
  25   35460.2    282.0   0.002516051   0.02336   0.11239   0.06633   0.07955
  26   36451.3    274.3   0.009709767   0.08769   0.05304   0.09958  -0.27380
  27   36898.9    271.0   0.005209987   0.04648   0.03482  -0.16040   0.13980
  28   37017.7    270.1   0.015185462   0.13505  -0.13868   0.20732  -0.26988
  29   37264.3    268.4   0.024885829   0.21985  -0.25259   0.08294  -0.38623
  30   37672.6    265.4   0.060058811   0.52484  -0.48024   0.42247  -0.34019
  31   37832.7    264.3   0.001467442   0.01277   0.05231   0.08101  -0.05891
  32   38121.2    262.3   0.002995427   0.02587   0.09022  -0.12072  -0.05616
  33   38179.7    261.9   0.004386434   0.03782   0.07868  -0.10039   0.14682
  34   38295.5    261.1   0.019990581   0.17185  -0.38509   0.12890  -0.08331
  35   38818.5    257.6   0.026065777   0.22106  -0.01879   0.40796  -0.23297
  36   38891.6    257.1   0.119411547   1.01080   0.40546  -0.41369   0.82175
  37   39172.6    255.3   0.058991579   0.49577  -0.09849   0.24416  -0.65304
  38   39464.2    253.4   0.009861372   0.08226  -0.06234  -0.05123   0.27523
  39   39884.8    250.7   0.028709166   0.23697   0.27709   0.28604  -0.27995
  40   40011.3    249.9   0.001775040   0.01460  -0.01434  -0.07920   0.09015
  41   40194.1    248.8   0.104853787   0.85881  -0.88732   0.09926  -0.24825
  42   40202.1    248.7   0.116709678   0.95573   0.90272  -0.19798   0.31880

FINAL SINGLE POINT ENERGY     -6169.538019121768

DIPOLE MOMENT
-------------
                                X             Y             Z
Electronic contribution:      5.37404       7.36939       3.49867
Nuclear contribution   :     -3.90195      -7.76367      -4.72607
                        -----------------------------------------
Total Dipole Moment    :      1.47209      -0.39428      -1.22740
                        -----------------------------------------
Magnitude (a.u.)       :      1.95679
Magnitude (Debye)      :      4.97376

Rotational constants in cm-1:     0.001235     0.000169     0.000154
Rotational constants in MHz :    37.029173     5.069008     4.614881

                             ****ORCA TERMINATED NORMALLY****
TOTAL RUN TIME: 0 days 0 hours 12 minutes 49 seconds 915 msec
