                         Program Version 4.2.0 -  RELEASE  -
|  1> # ORCA input file
|  2> # SCF done       -190.867252258341          0.000682004268
|  3> ! CAM-B3LYP def2-SVP def2/J RIJCOSX Grid4 TightSCF
|  4> %maxcore 5000
|  5> %tddft
|  6>     Mode sTDDFT
|  7>     Ethresh 5.0
|  8>     maxcore 5000
|  9> end
| 10>
| 11> %pal
| 12>   nprocs 6
| 13>   end
| 14> * xyz 0 1
| 15>    C       -4.05436        -1.17949         4.55200
| 16>    S       -3.62250         0.13723         3.53955
| 17>    C       -2.23362         0.48972         4.53279
| 18>    C       -2.13647        -0.39310         5.57664
| 19>    C       -3.18596        -1.35292         5.58380
| 20>    C       -3.34655        -2.40386         6.64353
| 21>    C       -4.49533        -2.01704         7.58258
| 22>    C       -2.02921        -2.59383         7.40123
| 23>    C       -1.40679        -1.25773         7.78918
| 24>    C       -0.98613        -0.47519         6.53596
| 25>    C        0.22323        -1.12300         5.91042
| 26>    C        0.28596        -1.67819         4.71579
| 27>    C       -1.38322         1.60774         4.15254
| 28>    C       -0.94760         2.54111         5.09886
| 29>    C       -0.19540         3.61579         4.68881
| 30>    C        0.13019         3.78648         3.33370
| 31>    C       -0.29169         2.86185         2.38995
| 32>    C       -1.04551         1.78361         2.80805
| 33>    C        0.83684         5.03948         3.18697
| 34>    C        0.96555         5.63665         4.45539
| 35>    C        0.39056         4.73444         5.52444
| 36>    C        1.49785         4.10991         6.40604
| 37>    C        2.36745         5.09879         7.17115
| 38>    C       -0.67342         5.44678         6.37179
| 39>    C       -1.82961         5.97245         5.52844
| 40>    C        1.49053         6.89880         4.57949
| 41>    C        1.90381         7.59685         3.43141
| 42>    C        1.79294         6.97246         2.17850
| 43>    C        1.27380         5.70282         2.04788
| 44>    C        2.35744         8.95955         3.48775
| 45>    C        2.79386         9.60839         4.59385
| 46>    C        3.11505        10.99388         4.65330
| 47>    C        3.73026        11.52971         5.81234
| 48>    C        4.01533        12.93284         5.96507
| 49>    N        4.65383        13.37338         7.04833
| 50>    C        4.99858        12.51657         7.99132
| 51>    C        4.65824        11.13592         7.87241
| 52>    N        4.05043        10.67863         6.80317
| 53>    C        4.97365        10.23445         8.91957
| 54>    N        5.23876         9.53050         9.78427
| 55>    C        5.69978        12.98812         9.12398
| 56>    N        6.26609        13.34334        10.05593
| 57>    C        3.59760        13.90096         4.99187
| 58>    C        3.01566        13.35063         3.81837
| 59>    C        2.80687        11.93273         3.63891
| 60>    N        2.27291        11.66645         2.44768
| 61>    S        2.05860        13.03837         1.63144
| 62>    N        2.63244        14.04306         2.75621
| 63>    C        3.78167        15.25517         5.26829
| 64>    C        3.28126        16.39127         4.64990
| 65>    C        3.51972        17.69682         5.13090
| 66>    C        2.81816        18.68036         4.48559
| 67>    C        1.98652        18.18251         3.47281
| 68>    S        2.17272        16.45354         3.30526
| 69>    C        1.07434        18.86726         2.67135
| 70>    C        0.81010        20.24502         2.60319
| 71>    C       -0.18966        20.56904         1.72650
| 72>    C       -0.77360        19.46336         1.07102
| 73>    S        0.02521        17.99111         1.59270
| 74>    C       -1.82890        19.51744         0.18469
| 75>    C       -2.49924        18.45481        -0.43971
| 76>    C       -2.27248        17.06979        -0.35201
| 77>    C       -3.24371        16.40494        -1.12481
| 78>    C       -3.46956        15.05866        -1.34832
| 79>    C       -4.55143        14.70640        -2.16068
| 80>    C       -5.04359        13.46707        -2.55728
| 81>    C       -6.18623        13.66489        -3.38749
| 82>    C       -6.40114        15.02979        -3.50789
| 83>    C       -5.40622        15.72254        -2.75708
| 84>    C       -5.18552        17.05768        -2.54512
| 85>    C       -4.09949        17.42021        -1.71964
| 86>    C       -3.63493        18.65027        -1.30131
| 87>    C       -6.99812        12.64293        -4.00312
| 88>    C       -6.80365        11.33117        -3.89460
| 89>    H       -4.92936        -1.75416         4.32008
| 90>    H       -3.61609        -3.35166         6.16253
| 91>    H       -4.30519        -1.05681         8.05559
| 92>    H       -4.61833        -2.76906         8.35893
| 93>    H       -5.42590        -1.93914         7.02541
| 94>    H       -1.32401        -3.13482         6.76579
| 95>    H       -2.20953        -3.19582         8.29406
| 96>    H       -0.53127        -1.42651         8.41967
| 97>    H       -2.12193        -0.66595         8.36308
| 98>    H       -0.67820         0.52865         6.84615
| 99>    H        1.09712        -1.11927         6.55049
|100>    H       -0.55975        -1.70866         4.04967
|101>    H        1.19383        -2.12730         4.35011
|102>    H       -1.24538         2.44003         6.13167
|103>    H       -0.04647         2.98578         1.34576
|104>    H       -1.39242         1.05795         2.08667
|105>    H        2.13992         3.50623         5.75883
|106>    H        1.01591         3.43206         7.11480
|107>    H        2.92719         5.73147         6.48796
|108>    H        3.08046         4.55276         7.78512
|109>    H        1.77256         5.72748         7.82829
|110>    H       -0.21136         6.28092         6.90103
|111>    H       -1.05615         4.74755         7.11847
|112>    H       -1.47076         6.68672         4.79050
|113>    H       -2.56081         6.46971         6.16192
|114>    H       -2.32483         5.15842         5.00350
|115>    H        1.53696         7.38715         5.53993
|116>    H        2.11609         7.51404         1.30092
|117>    H        1.18134         5.24329         1.07496
|118>    H        2.33297         9.50370         2.55397
|119>    H        2.93881         9.07705         5.52418
|120>    H        4.36143        15.44340         6.16495
|121>    H        4.19037        17.87440         5.95329
|122>    H        2.87194        19.72502         4.73539
|123>    H        1.35507        20.96111         3.19148
|124>    H       -0.53039        21.57315         1.54346
|125>    H       -2.20350        20.51083        -0.03321
|126>    H       -1.49868        16.58150         0.20753
|127>    H       -2.83752        14.30213        -0.90566
|128>    H       -4.63090        12.51461        -2.28056
|129>    H       -7.18833        15.49782        -4.07050
|130>    H       -5.81724        17.81703        -2.98441
|131>    H       -4.04569        19.61030        -1.55858
|132>    H       -7.82681        13.01361        -4.59377
|133>    H       -5.99503        10.91562        -3.31833
|134>    H       -7.45256        10.62387        -4.38120
|135> *
|136>
|137>                          ****END OF INPUT****

CARTESIAN COORDINATES (ANGSTROEM)
---------------------------------
  C     -4.054360   -1.179490    4.552000
  S     -3.622500    0.137230    3.539550
  C     -2.233620    0.489720    4.532790
  C     -2.136470   -0.393100    5.576640
  C     -3.185960   -1.352920    5.583800
  C     -3.346550   -2.403860    6.643530
  C     -4.495330   -2.017040    7.582580
  C     -2.029210   -2.593830    7.401230
  C     -1.406790   -1.257730    7.789180
  C     -0.986130   -0.475190    6.535960
  C      0.223230   -1.123000    5.910420
  C      0.285960   -1.678190    4.715790
  C     -1.383220    1.607740    4.152540
  C     -0.947600    2.541110    5.098860
  C     -0.195400    3.615790    4.688810
  C      0.130190    3.786480    3.333700
  C     -0.291690    2.861850    2.389950
  C     -1.045510    1.783610    2.808050
  C      0.836840    5.039480    3.186970
  C      0.965550    5.636650    4.455390
  C      0.390560    4.734440    5.524440
  C      1.497850    4.109910    6.406040
  C      2.367450    5.098790    7.171150
  C     -0.673420    5.446780    6.371790
  C     -1.829610    5.972450    5.528440
  C      1.490530    6.898800    4.579490
  C      1.903810    7.596850    3.431410
  C      1.792940    6.972460    2.178500
  C      1.273800    5.702820    2.047880
  C      2.357440    8.959550    3.487750
  C      2.793860    9.608390    4.593850
  C      3.115050   10.993880    4.653300
  C      3.730260   11.529710    5.812340
  C      4.015330   12.932840    5.965070
  N      4.653830   13.373380    7.048330
  C      4.998580   12.516570    7.991320
  C      4.658240   11.135920    7.872410
  N      4.050430   10.678630    6.803170
  C      4.973650   10.234450    8.919570
  N      5.238760    9.530500    9.784270
  C      5.699780   12.988120    9.123980
  N      6.266090   13.343340   10.055930
  C      3.597600   13.900960    4.991870
  C      3.015660   13.350630    3.818370
  C      2.806870   11.932730    3.638910
  N      2.272910   11.666450    2.447680
  S      2.058600   13.038370    1.631440
  N      2.632440   14.043060    2.756210
  C      3.781670   15.255170    5.268290
  C      3.281260   16.391270    4.649900
  C      3.519720   17.696820    5.130900
  C      2.818160   18.680360    4.485590
  C      1.986520   18.182510    3.472810
  S      2.172720   16.453540    3.305260
  C      1.074340   18.867260    2.671350
  C      0.810100   20.245020    2.603190
  C     -0.189660   20.569040    1.726500
  C     -0.773600   19.463360    1.071020
  S      0.025210   17.991110    1.592700
  C     -1.828900   19.517440    0.184690
  C     -2.499240   18.454810   -0.439710
  C     -2.272480   17.069790   -0.352010
  C     -3.243710   16.404940   -1.124810
  C     -3.469560   15.058660   -1.348320
  C     -4.551430   14.706400   -2.160680
  C     -5.043590   13.467070   -2.557280
  C     -6.186230   13.664890   -3.387490
  C     -6.401140   15.029790   -3.507890
  C     -5.406220   15.722540   -2.757080
  C     -5.185520   17.057680   -2.545120
  C     -4.099490   17.420210   -1.719640
  C     -3.634930   18.650270   -1.301310
  C     -6.998120   12.642930   -4.003120
  C     -6.803650   11.331170   -3.894600
  H     -4.929360   -1.754160    4.320080
  H     -3.616090   -3.351660    6.162530
  H     -4.305190   -1.056810    8.055590
  H     -4.618330   -2.769060    8.358930
  H     -5.425900   -1.939140    7.025410
  H     -1.324010   -3.134820    6.765790
  H     -2.209530   -3.195820    8.294060
  H     -0.531270   -1.426510    8.419670
  H     -2.121930   -0.665950    8.363080
  H     -0.678200    0.528650    6.846150
  H      1.097120   -1.119270    6.550490
  H     -0.559750   -1.708660    4.049670
  H      1.193830   -2.127300    4.350110
  H     -1.245380    2.440030    6.131670
  H     -0.046470    2.985780    1.345760
  H     -1.392420    1.057950    2.086670
  H      2.139920    3.506230    5.758830
  H      1.015910    3.432060    7.114800
  H      2.927190    5.731470    6.487960
  H      3.080460    4.552760    7.785120
  H      1.772560    5.727480    7.828290
  H     -0.211360    6.280920    6.901030
  H     -1.056150    4.747550    7.118470
  H     -1.470760    6.686720    4.790500
  H     -2.560810    6.469710    6.161920
  H     -2.324830    5.158420    5.003500
  H      1.536960    7.387150    5.539930
  H      2.116090    7.514040    1.300920
  H      1.181340    5.243290    1.074960
  H      2.332970    9.503700    2.553970
  H      2.938810    9.077050    5.524180
  H      4.361430   15.443400    6.164950
  H      4.190370   17.874400    5.953290
  H      2.871940   19.725020    4.735390
  H      1.355070   20.961110    3.191480
  H     -0.530390   21.573150    1.543460
  H     -2.203500   20.510830   -0.033210
  H     -1.498680   16.581500    0.207530
  H     -2.837520   14.302130   -0.905660
  H     -4.630900   12.514610   -2.280560
  H     -7.188330   15.497820   -4.070500
  H     -5.817240   17.817030   -2.984410
  H     -4.045690   19.610300   -1.558580
  H     -7.826810   13.013610   -4.593770
  H     -5.995030   10.915620   -3.318330
  H     -7.452560   10.623870   -4.381200

 Total Charge           Charge          ....    0
 Multiplicity           Mult            ....    1
 Number of Electrons    NEL             ....  536
 Basis Dimension        Dim             .... 1282

ORBITAL ENERGIES
----------------

  NO   OCC          E(Eh)            E(eV)
   0   2.0000     -89.024033     -2422.4671
   1   2.0000     -88.959723     -2420.7171
   2   2.0000     -88.950970     -2420.4790
   3   2.0000     -88.933270     -2419.9973
   4   2.0000     -14.442139      -392.9906
   5   2.0000     -14.441485      -392.9728
   6   2.0000     -14.436634      -392.8408
   7   2.0000     -14.432160      -392.7190
   8   2.0000     -14.411721      -392.1629
   9   2.0000     -14.407894      -392.0587
  10   2.0000     -10.359394      -281.8934
  11   2.0000     -10.353352      -281.7290
  12   2.0000     -10.328724      -281.0589
  13   2.0000     -10.326775      -281.0058
  14   2.0000     -10.326037      -280.9857
  15   2.0000     -10.324756      -280.9509
  16   2.0000     -10.323071      -280.9050
  17   2.0000     -10.316692      -280.7315
  18   2.0000     -10.314327      -280.6671
  19   2.0000     -10.314308      -280.6666
  20   2.0000     -10.312814      -280.6259
  21   2.0000     -10.305721      -280.4329
  22   2.0000     -10.305687      -280.4320
  23   2.0000     -10.303171      -280.3635
  24   2.0000     -10.301225      -280.3106
  25   2.0000     -10.301098      -280.3071
  26   2.0000     -10.299330      -280.2590
  27   2.0000     -10.299179      -280.2549
  28   2.0000     -10.297304      -280.2039
  29   2.0000     -10.293423      -280.0983
  30   2.0000     -10.291243      -280.0390
  31   2.0000     -10.287993      -279.9505
  32   2.0000     -10.287881      -279.9475
  33   2.0000     -10.284533      -279.8564
  34   2.0000     -10.284517      -279.8559
  35   2.0000     -10.281858      -279.7836
  36   2.0000     -10.280800      -279.7548
  37   2.0000     -10.280363      -279.7429
  38   2.0000     -10.278917      -279.7035
  39   2.0000     -10.278202      -279.6841
  40   2.0000     -10.277992      -279.6784
  41   2.0000     -10.277870      -279.6751
  42   2.0000     -10.277456      -279.6638
  43   2.0000     -10.276508      -279.6380
  44   2.0000     -10.269511      -279.4476
  45   2.0000     -10.267312      -279.3878
  46   2.0000     -10.267007      -279.3795
  47   2.0000     -10.266411      -279.3633
  48   2.0000     -10.263393      -279.2811
  49   2.0000     -10.261667      -279.2342
  50   2.0000     -10.259658      -279.1795
  51   2.0000     -10.258873      -279.1581
  52   2.0000     -10.258142      -279.1382
  53   2.0000     -10.257700      -279.1262
  54   2.0000     -10.257444      -279.1192
  55   2.0000     -10.256713      -279.0993
  56   2.0000     -10.256181      -279.0849
  57   2.0000     -10.255927      -279.0780
  58   2.0000     -10.255592      -279.0688
  59   2.0000     -10.255556      -279.0679
  60   2.0000     -10.255524      -279.0670
  61   2.0000     -10.254775      -279.0466
  62   2.0000     -10.254095      -279.0281
  63   2.0000     -10.254065      -279.0273
  64   2.0000     -10.253445      -279.0104
  65   2.0000     -10.252794      -278.9927
  66   2.0000     -10.252476      -278.9840
  67   2.0000     -10.252023      -278.9717
  68   2.0000     -10.251748      -278.9642
  69   2.0000     -10.246242      -278.8144
  70   2.0000     -10.244736      -278.7734
  71   2.0000     -10.241788      -278.6932
  72   2.0000     -10.238511      -278.6041
  73   2.0000     -10.236260      -278.5428
  74   2.0000      -8.115727      -220.8402
  75   2.0000      -8.055522      -219.2019
  76   2.0000      -8.045454      -218.9279
  77   2.0000      -8.029018      -218.4807
  78   2.0000      -6.087089      -165.6381
  79   2.0000      -6.079317      -165.4266
  80   2.0000      -6.077864      -165.3871
  81   2.0000      -6.025107      -163.9515
  82   2.0000      -6.021024      -163.8404
  83   2.0000      -6.016856      -163.7270
  84   2.0000      -6.015181      -163.6814
  85   2.0000      -6.010717      -163.5599
  86   2.0000      -6.006851      -163.4547
  87   2.0000      -5.998198      -163.2193
  88   2.0000      -5.994049      -163.1064
  89   2.0000      -5.991403      -163.0344
  90   2.0000      -1.124143       -30.5895
  91   2.0000      -1.097086       -29.8532
  92   2.0000      -1.023745       -27.8575
  93   2.0000      -1.005095       -27.3500
  94   2.0000      -0.999310       -27.1926
  95   2.0000      -0.994203       -27.0536
  96   2.0000      -0.986516       -26.8445
  97   2.0000      -0.982939       -26.7471
  98   2.0000      -0.976746       -26.5786
  99   2.0000      -0.976093       -26.5608
 100   2.0000      -0.972235       -26.4559
 101   2.0000      -0.967851       -26.3366
 102   2.0000      -0.955715       -26.0063
 103   2.0000      -0.930458       -25.3191
 104   2.0000      -0.914110       -24.8742
 105   2.0000      -0.910274       -24.7698
 106   2.0000      -0.901823       -24.5398
 107   2.0000      -0.897321       -24.4173
 108   2.0000      -0.887879       -24.1604
 109   2.0000      -0.884331       -24.0639
 110   2.0000      -0.877041       -23.8655
 111   2.0000      -0.876269       -23.8445
 112   2.0000      -0.869263       -23.6538
 113   2.0000      -0.862025       -23.4569
 114   2.0000      -0.851328       -23.1658
 115   2.0000      -0.849866       -23.1260
 116   2.0000      -0.834768       -22.7152
 117   2.0000      -0.828140       -22.5348
 118   2.0000      -0.824937       -22.4477
 119   2.0000      -0.821802       -22.3624
 120   2.0000      -0.818650       -22.2766
 121   2.0000      -0.817983       -22.2584
 122   2.0000      -0.811517       -22.0825
 123   2.0000      -0.811301       -22.0766
 124   2.0000      -0.803154       -21.8549
 125   2.0000      -0.801805       -21.8182
 126   2.0000      -0.796508       -21.6741
 127   2.0000      -0.779203       -21.2032
 128   2.0000      -0.770583       -20.9686
 129   2.0000      -0.763869       -20.7859
 130   2.0000      -0.754847       -20.5404
 131   2.0000      -0.751249       -20.4425
 132   2.0000      -0.747807       -20.3489
 133   2.0000      -0.739317       -20.1178
 134   2.0000      -0.723291       -19.6818
 135   2.0000      -0.714812       -19.4510
 136   2.0000      -0.709772       -19.3139
 137   2.0000      -0.696316       -18.9477
 138   2.0000      -0.688357       -18.7311
 139   2.0000      -0.687786       -18.7156
 140   2.0000      -0.683422       -18.5969
 141   2.0000      -0.680252       -18.5106
 142   2.0000      -0.679821       -18.4989
 143   2.0000      -0.677496       -18.4356
 144   2.0000      -0.664802       -18.0902
 145   2.0000      -0.662908       -18.0386
 146   2.0000      -0.660040       -17.9606
 147   2.0000      -0.653190       -17.7742
 148   2.0000      -0.647849       -17.6289
 149   2.0000      -0.645324       -17.5601
 150   2.0000      -0.640583       -17.4311
 151   2.0000      -0.637587       -17.3496
 152   2.0000      -0.632505       -17.2113
 153   2.0000      -0.630302       -17.1514
 154   2.0000      -0.625335       -17.0162
 155   2.0000      -0.622731       -16.9454
 156   2.0000      -0.617255       -16.7964
 157   2.0000      -0.610617       -16.6157
 158   2.0000      -0.607188       -16.5224
 159   2.0000      -0.604270       -16.4430
 160   2.0000      -0.600695       -16.3458
 161   2.0000      -0.590852       -16.0779
 162   2.0000      -0.584434       -15.9033
 163   2.0000      -0.578776       -15.7493
 164   2.0000      -0.575770       -15.6675
 165   2.0000      -0.568373       -15.4662
 166   2.0000      -0.564653       -15.3650
 167   2.0000      -0.560223       -15.2444
 168   2.0000      -0.558676       -15.2023
 169   2.0000      -0.554775       -15.0962
 170   2.0000      -0.548772       -14.9329
 171   2.0000      -0.546086       -14.8598
 172   2.0000      -0.543741       -14.7960
 173   2.0000      -0.538906       -14.6644
 174   2.0000      -0.533736       -14.5237
 175   2.0000      -0.529113       -14.3979
 176   2.0000      -0.526982       -14.3399
 177   2.0000      -0.525045       -14.2872
 178   2.0000      -0.523984       -14.2583
 179   2.0000      -0.520824       -14.1723
 180   2.0000      -0.520130       -14.1535
 181   2.0000      -0.515438       -14.0258
 182   2.0000      -0.512961       -13.9584
 183   2.0000      -0.509386       -13.8611
 184   2.0000      -0.508756       -13.8440
 185   2.0000      -0.507182       -13.8011
 186   2.0000      -0.504893       -13.7388
 187   2.0000      -0.503442       -13.6994
 188   2.0000      -0.502265       -13.6673
 189   2.0000      -0.499660       -13.5964
 190   2.0000      -0.497634       -13.5413
 191   2.0000      -0.493364       -13.4251
 192   2.0000      -0.490463       -13.3462
 193   2.0000      -0.489057       -13.3079
 194   2.0000      -0.486399       -13.2356
 195   2.0000      -0.484373       -13.1805
 196   2.0000      -0.482290       -13.1238
 197   2.0000      -0.478503       -13.0207
 198   2.0000      -0.476690       -12.9714
 199   2.0000      -0.472822       -12.8661
 200   2.0000      -0.471473       -12.8294
 201   2.0000      -0.470341       -12.7986
 202   2.0000      -0.468409       -12.7461
 203   2.0000      -0.466575       -12.6961
 204   2.0000      -0.465882       -12.6773
 205   2.0000      -0.462964       -12.5979
 206   2.0000      -0.461643       -12.5620
 207   2.0000      -0.460405       -12.5282
 208   2.0000      -0.458861       -12.4862
 209   2.0000      -0.455531       -12.3956
 210   2.0000      -0.452416       -12.3109
 211   2.0000      -0.450149       -12.2492
 212   2.0000      -0.447071       -12.1654
 213   2.0000      -0.444482       -12.0950
 214   2.0000      -0.443095       -12.0572
 215   2.0000      -0.442620       -12.0443
 216   2.0000      -0.438576       -11.9343
 217   2.0000      -0.436658       -11.8821
 218   2.0000      -0.435085       -11.8393
 219   2.0000      -0.434054       -11.8112
 220   2.0000      -0.431261       -11.7352
 221   2.0000      -0.430588       -11.7169
 222   2.0000      -0.429811       -11.6957
 223   2.0000      -0.429171       -11.6783
 224   2.0000      -0.425849       -11.5879
 225   2.0000      -0.424811       -11.5597
 226   2.0000      -0.420793       -11.4504
 227   2.0000      -0.420235       -11.4352
 228   2.0000      -0.418917       -11.3993
 229   2.0000      -0.416165       -11.3244
 230   2.0000      -0.413170       -11.2429
 231   2.0000      -0.411114       -11.1870
 232   2.0000      -0.410141       -11.1605
 233   2.0000      -0.408843       -11.1252
 234   2.0000      -0.404354       -11.0030
 235   2.0000      -0.402095       -10.9416
 236   2.0000      -0.399604       -10.8738
 237   2.0000      -0.397025       -10.8036
 238   2.0000      -0.390166       -10.6170
 239   2.0000      -0.388195       -10.5633
 240   2.0000      -0.383423       -10.4335
 241   2.0000      -0.382041       -10.3959
 242   2.0000      -0.381841       -10.3904
 243   2.0000      -0.380705       -10.3595
 244   2.0000      -0.379745       -10.3334
 245   2.0000      -0.377478       -10.2717
 246   2.0000      -0.372175       -10.1274
 247   2.0000      -0.369934       -10.0664
 248   2.0000      -0.366764        -9.9801
 249   2.0000      -0.366341        -9.9687
 250   2.0000      -0.354107        -9.6357
 251   2.0000      -0.349078        -9.4989
 252   2.0000      -0.343270        -9.3409
 253   2.0000      -0.338425        -9.2090
 254   2.0000      -0.332419        -9.0456
 255   2.0000      -0.331356        -9.0167
 256   2.0000      -0.325651        -8.8614
 257   2.0000      -0.318838        -8.6760
 258   2.0000      -0.313574        -8.5328
 259   2.0000      -0.307037        -8.3549
 260   2.0000      -0.301243        -8.1972
 261   2.0000      -0.291935        -7.9439
 262   2.0000      -0.289164        -7.8686
 263   2.0000      -0.281918        -7.6714
 264   2.0000      -0.274119        -7.4592
 265   2.0000      -0.255726        -6.9587
 266   2.0000      -0.240159        -6.5351
 267   2.0000      -0.199258        -5.4221
 268   0.0000      -0.119835        -3.2609
 269   0.0000      -0.104893        -2.8543
 270   0.0000      -0.064716        -1.7610
 271   0.0000      -0.032243        -0.8774
 272   0.0000      -0.022864        -0.6222

MULLIKEN ATOMIC CHARGES
-----------------------
   0 C :   -0.150981
   1 S :    0.111681
   2 C :   -0.184901
   3 C :   -0.009329
   4 C :   -0.004296
   5 C :   -0.014241
   6 C :    0.069698
   7 C :    0.066326
   8 C :    0.047544
   9 C :    0.095960
  10 C :   -0.068581
  11 C :    0.011090
  12 C :    0.085298
  13 C :   -0.088687
  14 C :    0.009589
  15 C :    0.104514
  16 C :   -0.052184
  17 C :   -0.010425
  18 C :    0.103980
  19 C :    0.015753
  20 C :   -0.129508
  21 C :    0.077723
  22 C :    0.029696
  23 C :    0.053875
  24 C :    0.024930
  25 C :   -0.093097
  26 C :    0.128040
  27 C :   -0.014451
  28 C :   -0.053307
  29 C :   -0.003872
  30 C :   -0.074647
  31 C :    0.067150
  32 C :   -0.046761
  33 C :   -0.052328
  34 N :    0.046755
  35 C :   -0.151114
  36 C :   -0.135809
  37 N :    0.037668
  38 C :   -0.210259
  39 N :    0.224939
  40 C :   -0.214303
  41 N :    0.219464
  42 C :    0.107266
  43 C :    0.039216
  44 C :    0.028583
  45 N :   -0.299050
  46 S :    0.509824
  47 N :   -0.328258
  48 C :   -0.124160
  49 C :    0.013316
  50 C :    0.015895
  51 C :    0.040420
  52 C :   -0.039149
  53 S :    0.125467
  54 C :   -0.022027
  55 C :    0.017699
  56 C :    0.045267
  57 C :   -0.035518
  58 S :    0.068859
  59 C :    0.009512
  60 C :    0.046558
  61 C :   -0.029251
  62 C :    0.043552
  63 C :    0.013805
  64 C :    0.043192
  65 C :   -0.010344
  66 C :    0.060509
  67 C :   -0.021618
  68 C :    0.058130
  69 C :    0.005996
  70 C :    0.057829
  71 C :   -0.030315
  72 C :    0.009622
  73 C :   -0.021087
  74 H :    0.002303
  75 H :   -0.010586
  76 H :    0.006075
  77 H :    0.005251
  78 H :    0.002444
  79 H :    0.003186
  80 H :   -0.010927
  81 H :   -0.006592
  82 H :   -0.002585
  83 H :   -0.008484
  84 H :   -0.008341
  85 H :    0.026902
  86 H :    0.009525
  87 H :   -0.032827
  88 H :   -0.039353
  89 H :   -0.027805
  90 H :    0.004855
  91 H :   -0.007318
  92 H :    0.023715
  93 H :    0.013006
  94 H :    0.005009
  95 H :    0.006097
  96 H :   -0.004650
  97 H :    0.020292
  98 H :    0.005828
  99 H :    0.020276
 100 H :   -0.036492
 101 H :   -0.032583
 102 H :   -0.040655
 103 H :   -0.004990
 104 H :   -0.008963
 105 H :    0.003351
 106 H :   -0.003650
 107 H :   -0.013540
 108 H :   -0.010461
 109 H :   -0.007975
 110 H :   -0.016895
 111 H :   -0.009228
 112 H :   -0.019301
 113 H :   -0.017090
 114 H :   -0.021330
 115 H :   -0.022160
 116 H :   -0.020791
 117 H :   -0.016834
 118 H :    0.011111
 119 H :    0.024848
Sum of atomic charges:   -0.0000000

LOEWDIN ATOMIC CHARGES
----------------------
   0 C :   -0.202902
   1 S :    0.428322
   2 C :   -0.168879
   3 C :   -0.057996
   4 C :   -0.055513
   5 C :   -0.026890
   6 C :   -0.043188
   7 C :   -0.026621
   8 C :   -0.019202
   9 C :   -0.026958
  10 C :   -0.014351
  11 C :   -0.056618
  12 C :   -0.035375
  13 C :   -0.020103
  14 C :    0.007107
  15 C :   -0.020547
  16 C :   -0.018838
  17 C :   -0.026832
  18 C :   -0.015023
  19 C :    0.002286
  20 C :   -0.034531
  21 C :   -0.009814
  22 C :   -0.058690
  23 C :   -0.015708
  24 C :   -0.057105
  25 C :   -0.015044
  26 C :   -0.025962
  27 C :   -0.016648
  28 C :   -0.023997
  29 C :   -0.007487
  30 C :   -0.027575
  31 C :   -0.056539
  32 C :   -0.003724
  33 C :   -0.012014
  34 N :   -0.002570
  35 C :   -0.052464
  36 C :   -0.029856
  37 N :   -0.010112
  38 C :   -0.033008
  39 N :   -0.017600
  40 C :   -0.038458
  41 N :   -0.026746
  42 C :   -0.033027
  43 C :   -0.041355
  44 C :   -0.032678
  45 N :   -0.287094
  46 S :    0.629730
  47 N :   -0.290068
  48 C :   -0.041170
  49 C :   -0.131293
  50 C :   -0.037526
  51 C :   -0.025631
  52 C :   -0.203018
  53 S :    0.444407
  54 C :   -0.152737
  55 C :   -0.049471
  56 C :   -0.013391
  57 C :   -0.165106
  58 S :    0.405000
  59 C :   -0.016736
  60 C :   -0.074314
  61 C :    0.009238
  62 C :   -0.058751
  63 C :    0.080686
  64 C :   -0.063165
  65 C :    0.057529
  66 C :   -0.056507
  67 C :    0.023855
  68 C :   -0.058300
  69 C :    0.075026
  70 C :   -0.065773
  71 C :    0.043981
  72 C :   -0.023080
  73 C :   -0.047046
  74 H :    0.016528
  75 H :    0.027273
  76 H :    0.020755
  77 H :    0.019759
  78 H :    0.021751
  79 H :    0.023553
  80 H :    0.019908
  81 H :    0.021912
  82 H :    0.019203
  83 H :    0.031558
  84 H :    0.021981
  85 H :    0.023485
  86 H :    0.021779
  87 H :    0.023827
  88 H :    0.025231
  89 H :    0.021074
  90 H :    0.026437
  91 H :    0.017852
  92 H :    0.025799
  93 H :    0.027756
  94 H :    0.020397
  95 H :    0.020150
  96 H :    0.019099
  97 H :    0.025501
  98 H :    0.022394
  99 H :    0.024966
 100 H :    0.024432
 101 H :    0.025097
 102 H :    0.024657
 103 H :    0.024057
 104 H :    0.027000
 105 H :    0.040801
 106 H :    0.035682
 107 H :    0.031204
 108 H :    0.033391
 109 H :    0.035222
 110 H :    0.036987
 111 H :    0.012861
 112 H :    0.037327
 113 H :    0.027989
 114 H :    0.026550
 115 H :    0.036265
 116 H :    0.026400
 117 H :    0.030140
 118 H :    0.019003
 119 H :    0.026563

  Mayer bond orders larger than 0.100000
B(  0-C ,  1-S ) :   1.1458 B(  0-C ,  4-C ) :   1.5738 B(  0-C , 74-H ) :   0.9697
B(  1-S ,  2-C ) :   1.1501 B(  2-C ,  3-C ) :   1.5716 B(  2-C , 12-C ) :   0.9838
B(  3-C ,  4-C ) :   1.2903 B(  3-C ,  9-C ) :   1.0061 B(  4-C ,  5-C ) :   0.9797
B(  5-C ,  6-C ) :   1.0723 B(  5-C ,  7-C ) :   1.0662 B(  5-C , 75-H ) :   0.9059
B(  6-C , 76-H ) :   0.9617 B(  6-C , 77-H ) :   0.9648 B(  6-C , 78-H ) :   0.9644
B(  7-C ,  8-C ) :   1.0585 B(  7-C , 79-H ) :   0.9365 B(  7-C , 80-H ) :   0.9332
B(  8-C ,  9-C ) :   1.0546 B(  8-C , 81-H ) :   0.9318 B(  8-C , 82-H ) :   0.9447
B(  9-C , 10-C ) :   0.9908 B(  9-C , 83-H ) :   0.8785 B( 10-C , 11-C ) :   2.0237
B( 10-C , 84-H ) :   0.9683 B( 11-C , 85-H ) :   0.9336 B( 11-C , 86-H ) :   0.9515
B( 12-C , 13-C ) :   1.3388 B( 12-C , 17-C ) :   1.3666 B( 13-C , 14-C ) :   1.3965
B( 13-C , 87-H ) :   0.9970 B( 14-C , 15-C ) :   1.3763 B( 14-C , 20-C ) :   0.9224
B( 15-C , 16-C ) :   1.3395 B( 15-C , 18-C ) :   0.9957 B( 16-C , 17-C ) :   1.3737
B( 16-C , 88-H ) :   0.9931 B( 17-C , 89-H ) :   0.9862 B( 18-C , 19-C ) :   1.3732
B( 18-C , 28-C ) :   1.3379 B( 19-C , 20-C ) :   0.9161 B( 19-C , 25-C ) :   1.4078
B( 20-C , 21-C ) :   1.0098 B( 20-C , 23-C ) :   1.0397 B( 21-C , 22-C ) :   1.1130
B( 21-C , 90-H ) :   0.9385 B( 21-C , 91-H ) :   0.9376 B( 22-C , 92-H ) :   0.9615
B( 22-C , 93-H ) :   0.9596 B( 22-C , 94-H ) :   0.9635 B( 23-C , 24-C ) :   1.1035
B( 23-C , 95-H ) :   0.9369 B( 23-C , 96-H ) :   0.9379 B( 24-C , 97-H ) :   0.9646
B( 24-C , 98-H ) :   0.9650 B( 24-C , 99-H ) :   0.9634 B( 25-C , 26-C ) :   1.2961
B( 25-C ,100-H ) :   0.9960 B( 26-C , 27-C ) :   1.3310 B( 26-C , 29-C ) :   1.0547
B( 27-C , 28-C ) :   1.3732 B( 27-C ,101-H ) :   0.9945 B( 28-C ,102-H ) :   0.9915
B( 29-C , 30-C ) :   1.6072 B( 29-C ,103-H ) :   0.9646 B( 30-C , 31-C ) :   1.1963
B( 30-C ,104-H ) :   0.9558 B( 31-C , 32-C ) :   1.2352 B( 31-C , 42-C ) :   0.1050
B( 31-C , 44-C ) :   1.1681 B( 32-C , 33-C ) :   1.1119 B( 32-C , 37-N ) :   1.4387
B( 33-C , 34-N ) :   1.5172 B( 33-C , 42-C ) :   1.1595 B( 34-N , 35-C ) :   1.6722
B( 35-C , 36-C ) :   1.2341 B( 35-C , 40-C ) :   1.1611 B( 36-C , 37-N ) :   1.7305
B( 36-C , 38-C ) :   1.1517 B( 38-C , 39-N ) :   3.0515 B( 40-C , 41-N ) :   3.0422
B( 42-C , 43-C ) :   1.1238 B( 42-C , 48-C ) :   1.3554 B( 43-C , 44-C ) :   1.1182
B( 43-C , 47-N ) :   1.5024 B( 44-C , 45-N ) :   1.5158 B( 45-N , 46-S ) :   1.2383
B( 45-N , 47-N ) :   0.1359 B( 46-S , 47-N ) :   1.2374 B( 48-C , 49-C ) :   1.3787
B( 48-C ,105-H ) :   0.9431 B( 49-C , 50-C ) :   1.2113 B( 49-C , 53-S ) :   1.0889
B( 50-C , 51-C ) :   1.5071 B( 50-C ,106-H ) :   1.0026 B( 51-C , 52-C ) :   1.2454
B( 51-C ,107-H ) :   0.9946 B( 52-C , 53-S ) :   1.0331 B( 52-C , 54-C ) :   1.4035
B( 54-C , 55-C ) :   1.2374 B( 54-C , 58-S ) :   1.0793 B( 55-C , 56-C ) :   1.5318
B( 55-C ,108-H ) :   0.9952 B( 56-C , 57-C ) :   1.1799 B( 56-C ,109-H ) :   0.9997
B( 57-C , 58-S ) :   1.0335 B( 57-C , 59-C ) :   1.5136 B( 59-C , 60-C ) :   1.1754
B( 59-C ,110-H ) :   0.9706 B( 60-C , 61-C ) :   1.3852 B( 60-C , 71-C ) :   1.1302
B( 61-C , 62-C ) :   1.1841 B( 61-C ,111-H ) :   0.9929 B( 62-C , 63-C ) :   1.3820
B( 62-C , 70-C ) :   1.1313 B( 63-C , 64-C ) :   1.1756 B( 63-C ,112-H ) :   1.0034
B( 64-C , 65-C ) :   1.3895 B( 64-C , 68-C ) :   1.1206 B( 65-C , 66-C ) :   1.1742
B( 65-C ,113-H ) :   1.0092 B( 66-C , 67-C ) :   1.4770 B( 66-C , 72-C ) :   1.0824
B( 67-C , 68-C ) :   1.0998 B( 67-C ,114-H ) :   1.0168 B( 68-C , 69-C ) :   1.4610
B( 69-C , 70-C ) :   1.1239 B( 69-C ,115-H ) :   1.0048 B( 70-C , 71-C ) :   1.4321
B( 71-C ,116-H ) :   1.0164 B( 72-C , 73-C ) :   1.9358 B( 72-C ,117-H ) :   0.9667
B( 73-C ,118-H ) :   0.9533 B( 73-C ,119-H ) :   0.9496

-----------------------------------------------------------------------------
         ABSORPTION SPECTRUM VIA TRANSITION ELECTRIC DIPOLE MOMENTS
-----------------------------------------------------------------------------
State   Energy  Wavelength   fosc         T2         TX        TY        TZ
        (cm-1)    (nm)                  (au**2)     (au)      (au)      (au)
-----------------------------------------------------------------------------
   0    3850.6   2597.0   0.171490074  14.66162  -1.98952   2.64172  -1.92997
   1    6284.4   1591.2   0.103472064   5.42041  -0.42556   2.23380  -0.49944
   2   11386.4    878.2   0.018988687   0.54902   0.29013   0.66746   0.13906
   3   15037.7    665.0   0.628803941  13.76602  -2.73798  -1.11888  -2.24000
   4   15293.8    653.9   0.292064133   6.28692   1.69788  -0.80360   1.66083
   5   18564.2    538.7   0.004032504   0.07151  -0.10389   0.15750  -0.18950
   6   20903.8    478.4   0.001858136   0.02926  -0.00643  -0.16087   0.05782
   7   21507.6    465.0   0.019567706   0.29952  -0.20029   0.49928  -0.10063
   8   21778.2    459.2   0.248580404   3.75768  -1.07524  -0.91435  -1.32872
   9   21951.3    455.6   0.171977175   2.57921   0.74465   1.09648   0.90688
  10   23172.2    431.6   0.135261510   1.92169   0.61076   1.22830   0.19987
  11   23717.8    421.6   0.018891180   0.26222  -0.35733  -0.12658  -0.34426
  12   24896.0    401.7   0.535782968   7.08492   1.42305   2.00335   1.02295
  13   25692.6    389.2   1.111709460  14.24487   1.38061   3.45344   0.64227
  14   25853.9    386.8   0.469909285   5.98361  -1.17248  -1.95940  -0.87731
  15   26543.9    376.7   0.049383967   0.61249   0.01970   0.77460   0.10996
  16   27063.8    369.5   0.008267451   0.10057  -0.16725  -0.26429  -0.05240
  17   27629.1    361.9   0.004555012   0.05427  -0.10556   0.04957   0.20168
  18   28168.6    355.0   0.013787095   0.16113   0.13107   0.37275   0.07079
  19   28271.1    353.7   0.050860477   0.59226   0.26752   0.70528  -0.15256
  20   29449.1    339.6   0.031830588   0.35583   0.23948  -0.54606  -0.01736
  21   29844.6    335.1   0.042786120   0.47197   0.21646  -0.57823   0.30128
  22   30169.2    331.5   0.014206560   0.15502  -0.09331   0.38250  -0.00370
  23   30418.2    328.8   0.020730782   0.22437  -0.03747   0.34052   0.32713
  24   30670.9    326.0   0.138494591   1.48656   0.47380   0.92334   0.63994
  25   31162.5    320.9   0.109712209   1.15904   0.37023  -0.40825   0.92483
  26   31345.5    319.0   0.201086233   2.11194  -0.17999   0.79718  -1.20169
  27   31784.6    314.6   0.129245409   1.33867   0.47776   0.99087   0.35859
  28   32016.0    312.3   0.033602270   0.34552   0.36559   0.45693  -0.05551
  29   32272.0    309.9   0.115745930   1.18074  -0.74026  -0.28748  -0.74170
  30   33067.6    302.4   0.055183127   0.54939  -0.26744  -0.66738  -0.18019
  31   33434.1    299.1   0.134825724   1.32757   0.55173   0.92575   0.40761
  32   33718.3    296.6   0.173356087   1.69258   0.46023  -0.46228   1.12564
  33   33815.3    295.7   0.138181682   1.34528   0.61818   0.33415   0.92276
  34   33944.5    294.6   0.011109082   0.10774   0.08615   0.31225  -0.05309
  35   34017.9    294.0   0.052669695   0.50972  -0.35500  -0.39786  -0.47476
  36   34299.1    291.6   0.008788798   0.08436   0.12462   0.24363   0.09732
  37   35002.7    285.7   0.047018521   0.44222   0.15075  -0.37928  -0.52502
  38   35409.8    282.4   0.210216776   1.95443   0.47895   1.19506  -0.54486
  39   35520.7    281.5   0.006919233   0.06413   0.05919  -0.10193   0.22413
  40   35637.5    280.6   0.001641057   0.01516   0.02733  -0.08471   0.08508
  41   36254.0    275.8   0.026533522   0.24094   0.26901   0.39910  -0.09641
  42   36375.6    274.9   0.093132348   0.84288  -0.50973  -0.75868   0.08633
  43   36804.6    271.7   0.092061462   0.82348  -0.44776  -0.69078   0.38186
  44   36942.6    270.7   0.064207044   0.57218   0.43140   0.61902   0.05375
  45   37200.3    268.8   0.079144685   0.70041  -0.40489  -0.63262   0.36913
  46   37446.0    267.1   0.100907698   0.88715  -0.04587   0.89136  -0.30085
  47   37761.1    264.8   0.000808047   0.00704   0.01905  -0.03621  -0.07328
  48   37917.8    263.7   0.243130128   2.11092  -0.35650  -1.40813   0.03150
  49   38197.9    261.8   0.002992421   0.02579  -0.08141   0.00799  -0.13820
  50   38282.9    261.2   0.350668823   3.01556   0.88431   0.80687   1.25798
  51   38434.0    260.2   0.090054033   0.77137   0.30754  -0.05733   0.82067
  52   38665.7    258.6   0.026484995   0.22550   0.27958   0.00299   0.38383
  53   38935.9    256.8   0.009698296   0.08200  -0.04621   0.20936  -0.18983
  54   38994.5    256.4   0.042365026   0.35767   0.09549  -0.57646  -0.12743
  55   39253.0    254.8   0.009709887   0.08144   0.00825   0.25129   0.13499
  56   39436.5    253.6   0.070937750   0.59218  -0.19925   0.46001  -0.58384
  57   39580.4    252.7   0.006251192   0.05199  -0.14208  -0.17637  -0.02649
  58   39790.2    251.3   0.001018594   0.00843  -0.01803  -0.06518   0.06209

FINAL SINGLE POINT ENERGY     -4383.524143809607

DIPOLE MOMENT
-------------
                                X             Y             Z
Electronic contribution:     49.45297     129.17590     -18.69588
Nuclear contribution   :    -52.94769    -125.98303      14.63273
                        -----------------------------------------
Total Dipole Moment    :     -3.49471       3.19287      -4.06315
                        -----------------------------------------
Magnitude (a.u.)       :      6.23832
Magnitude (Debye)      :     15.85655

Rotational constants in cm-1:     0.000857     0.000314     0.000239
Rotational constants in MHz :    25.698194     9.409353     7.161596

                             ****ORCA TERMINATED NORMALLY****
TOTAL RUN TIME: 0 days 0 hours 15 minutes 59 seconds 986 msec
