                         Program Version 4.2.0 -  RELEASE  -
|  1> # ORCA input file
|  2> # SCF done       -183.073808944340          0.000485400619
|  3> ! CAM-B3LYP def2-SVP def2/J RIJCOSX Grid4 TightSCF
|  4> %maxcore 5000
|  5> %tddft
|  6>     Mode sTDDFT
|  7>     Ethresh 5.0
|  8>     maxcore 5000
|  9> end
| 10>
| 11> %pal
| 12>   nprocs 6
| 13>   end
| 14> * xyz 0 1
| 15>    C      -10.09766        -2.37970        -1.94228
| 16>    S      -11.49617        -3.17170        -2.56972
| 17>    C      -11.29023        -4.84257        -2.05383
| 18>    C      -12.28650        -5.75776        -2.20691
| 19>    S      -11.84490        -7.30736        -1.61755
| 20>    C      -10.29965        -6.71712        -1.14971
| 21>    C      -10.13574        -5.39740        -1.44058
| 22>    S       -8.61845        -4.58215        -1.08286
| 23>    C       -8.98004        -2.86095        -1.35382
| 24>    C       -7.96687        -1.95296        -0.92093
| 25>    C       -6.80657        -2.30270        -0.31214
| 26>    C       -5.86266        -1.32761         0.09774
| 27>    N       -6.06458        -0.02953        -0.11236
| 28>    C       -5.00185         0.59817         0.41656
| 29>    C       -4.05344        -0.35306         1.01444
| 30>    C       -2.90887         0.36506         1.59246
| 31>    O       -1.94706        -0.08763         2.18357
| 32>    C       -3.21861         1.77244         1.29050
| 33>    C       -4.50381         1.87295         0.57805
| 34>    N       -4.79751         3.16406         0.29630
| 35>    C       -3.79000         3.85623         0.77864
| 36>    C       -2.77023         3.05144         1.41024
| 37>    C       -4.59009        -1.60246         0.80686
| 38>    C       -4.10610        -2.89437         1.15553
| 39>    C       -2.96306        -3.07540         1.85684
| 40>    C       -2.38655        -4.32327         2.27070
| 41>    C       -1.28548        -4.28175         3.10460
| 42>    C       -0.68855        -5.46914         3.55926
| 43>    C        0.40426        -5.68207         4.39748
| 44>    C        1.22069        -4.62597         5.04874
| 45>    C        0.97965        -4.58982         6.58417
| 46>    N       -0.33206        -4.13806         6.97662
| 47>    C        2.72304        -4.76241         4.74531
| 48>    N        3.42074        -3.58333         5.22401
| 49>    C        0.55943        -7.11010         4.52252
| 50>    C        1.39783        -7.86488         5.26007
| 51>    C        1.41511        -9.35120         5.14342
| 52>    C        0.30497        -9.92898         4.32730
| 53>    C       -0.56530        -9.16408         3.64044
| 54>    C       -0.47638        -7.75342         3.69400
| 55>    C       -1.23187        -6.74759         3.12437
| 56>    C       -2.35021        -6.76478         2.25842
| 57>    C       -2.90591        -5.59424         1.85503
| 58>    C        2.73934        -9.65893         4.47499
| 59>    C        2.99191        -9.31823         3.20314
| 60>    C        4.25742        -9.54856         2.58290
| 61>    N        5.26149       -10.13029         3.22315
| 62>    C        6.29639       -10.13282         2.35950
| 63>    C        5.93131        -9.50304         1.08349
| 64>    C        7.07538        -9.51014         0.16060
| 65>    O        7.13809        -9.07404        -0.97063
| 66>    C        8.12623       -10.17367         0.95291
| 67>    C        7.61089       -10.53500         2.28730
| 68>    N        8.57116       -11.14487         3.02276
| 69>    C        9.62602       -11.18421         2.24196
| 70>    C        9.41766       -10.59695         0.93667
| 71>    C        4.61497        -9.12899         1.20921
| 72>    C        3.73359        -8.47731         0.30145
| 73>    C        4.11199        -8.05402        -0.92641
| 74>    C        3.26501        -7.38808        -1.87055
| 75>    S        3.83385        -7.67955        -3.54137
| 76>    C        2.31583        -7.74131        -4.42076
| 77>    C        2.12011        -8.49579        -5.53481
| 78>    S        0.53595        -8.29876        -6.17695
| 79>    C        0.12299        -7.20437        -4.91658
| 80>    C        1.16144        -6.99582        -4.06375
| 81>    S        1.08655        -5.87883        -2.70850
| 82>    C        2.20279        -6.60382        -1.54319
| 83>    C        1.95439        -6.15073        -0.18537
| 84>    C        0.77420        -5.76114         0.28657
| 85>    H      -10.18533        -1.31149        -2.07948
| 86>    H      -13.25340        -5.59492        -2.63774
| 87>    H       -9.58673        -7.37085        -0.69029
| 88>    H       -8.14334        -0.89996        -1.09094
| 89>    H       -6.58462        -3.34183        -0.11640
| 90>    H       -3.77544         4.92841         0.68549
| 91>    H       -1.87170         3.42311         1.86223
| 92>    H       -4.70336        -3.73850         0.84096
| 93>    H       -2.41554        -2.19312         2.16265
| 94>    H       -0.89266        -3.32212         3.40908
| 95>    H        0.90379        -3.65305         4.65333
| 96>    H        1.72170        -3.91670         7.01809
| 97>    H        1.12564        -5.58957         6.99915
| 98>    H       -0.49560        -3.18615         6.66846
| 99>    H       -1.05483        -4.72782         6.57780
|100>    H        2.84660        -4.93731         3.66144
|101>    H        3.13986        -5.62385         5.27044
|102>    H        3.12122        -2.76042         4.71110
|103>    H        4.42080        -3.68261         5.09360
|104>    H        2.13924        -7.43445         5.91659
|105>    H        1.41836        -9.80357         6.14138
|106>    H        0.26185       -11.00614         4.28460
|107>    H       -1.35035        -9.61616         3.05149
|108>    H       -2.75180        -7.71188         1.92846
|109>    H       -3.75737        -5.61087         1.19267
|110>    H        3.51255       -10.14267         5.05288
|111>    H        2.22756        -8.82843         2.61487
|112>    H       10.54320       -11.62567         2.59151
|113>    H       10.15052       -10.53056         0.15697
|114>    H        2.70698        -8.35326         0.61734
|115>    H        5.11270        -8.27972        -1.27641
|116>    H        2.82583        -9.13811        -6.02030
|117>    H       -0.85083        -6.76042        -4.88119
|118>    H        2.83181        -6.10812         0.44793
|119>    H       -0.12501        -5.81096        -0.30384
|120>    H        0.66735        -5.38874         1.28959
|121> *
|122>
|123>                          ****END OF INPUT****

CARTESIAN COORDINATES (ANGSTROEM)
---------------------------------
  C    -10.097660   -2.379700   -1.942280
  S    -11.496170   -3.171700   -2.569720
  C    -11.290230   -4.842570   -2.053830
  C    -12.286500   -5.757760   -2.206910
  S    -11.844900   -7.307360   -1.617550
  C    -10.299650   -6.717120   -1.149710
  C    -10.135740   -5.397400   -1.440580
  S     -8.618450   -4.582150   -1.082860
  C     -8.980040   -2.860950   -1.353820
  C     -7.966870   -1.952960   -0.920930
  C     -6.806570   -2.302700   -0.312140
  C     -5.862660   -1.327610    0.097740
  N     -6.064580   -0.029530   -0.112360
  C     -5.001850    0.598170    0.416560
  C     -4.053440   -0.353060    1.014440
  C     -2.908870    0.365060    1.592460
  O     -1.947060   -0.087630    2.183570
  C     -3.218610    1.772440    1.290500
  C     -4.503810    1.872950    0.578050
  N     -4.797510    3.164060    0.296300
  C     -3.790000    3.856230    0.778640
  C     -2.770230    3.051440    1.410240
  C     -4.590090   -1.602460    0.806860
  C     -4.106100   -2.894370    1.155530
  C     -2.963060   -3.075400    1.856840
  C     -2.386550   -4.323270    2.270700
  C     -1.285480   -4.281750    3.104600
  C     -0.688550   -5.469140    3.559260
  C      0.404260   -5.682070    4.397480
  C      1.220690   -4.625970    5.048740
  C      0.979650   -4.589820    6.584170
  N     -0.332060   -4.138060    6.976620
  C      2.723040   -4.762410    4.745310
  N      3.420740   -3.583330    5.224010
  C      0.559430   -7.110100    4.522520
  C      1.397830   -7.864880    5.260070
  C      1.415110   -9.351200    5.143420
  C      0.304970   -9.928980    4.327300
  C     -0.565300   -9.164080    3.640440
  C     -0.476380   -7.753420    3.694000
  C     -1.231870   -6.747590    3.124370
  C     -2.350210   -6.764780    2.258420
  C     -2.905910   -5.594240    1.855030
  C      2.739340   -9.658930    4.474990
  C      2.991910   -9.318230    3.203140
  C      4.257420   -9.548560    2.582900
  N      5.261490  -10.130290    3.223150
  C      6.296390  -10.132820    2.359500
  C      5.931310   -9.503040    1.083490
  C      7.075380   -9.510140    0.160600
  O      7.138090   -9.074040   -0.970630
  C      8.126230  -10.173670    0.952910
  C      7.610890  -10.535000    2.287300
  N      8.571160  -11.144870    3.022760
  C      9.626020  -11.184210    2.241960
  C      9.417660  -10.596950    0.936670
  C      4.614970   -9.128990    1.209210
  C      3.733590   -8.477310    0.301450
  C      4.111990   -8.054020   -0.926410
  C      3.265010   -7.388080   -1.870550
  S      3.833850   -7.679550   -3.541370
  C      2.315830   -7.741310   -4.420760
  C      2.120110   -8.495790   -5.534810
  S      0.535950   -8.298760   -6.176950
  C      0.122990   -7.204370   -4.916580
  C      1.161440   -6.995820   -4.063750
  S      1.086550   -5.878830   -2.708500
  C      2.202790   -6.603820   -1.543190
  C      1.954390   -6.150730   -0.185370
  C      0.774200   -5.761140    0.286570
  H    -10.185330   -1.311490   -2.079480
  H    -13.253400   -5.594920   -2.637740
  H     -9.586730   -7.370850   -0.690290
  H     -8.143340   -0.899960   -1.090940
  H     -6.584620   -3.341830   -0.116400
  H     -3.775440    4.928410    0.685490
  H     -1.871700    3.423110    1.862230
  H     -4.703360   -3.738500    0.840960
  H     -2.415540   -2.193120    2.162650
  H     -0.892660   -3.322120    3.409080
  H      0.903790   -3.653050    4.653330
  H      1.721700   -3.916700    7.018090
  H      1.125640   -5.589570    6.999150
  H     -0.495600   -3.186150    6.668460
  H     -1.054830   -4.727820    6.577800
  H      2.846600   -4.937310    3.661440
  H      3.139860   -5.623850    5.270440
  H      3.121220   -2.760420    4.711100
  H      4.420800   -3.682610    5.093600
  H      2.139240   -7.434450    5.916590
  H      1.418360   -9.803570    6.141380
  H      0.261850  -11.006140    4.284600
  H     -1.350350   -9.616160    3.051490
  H     -2.751800   -7.711880    1.928460
  H     -3.757370   -5.610870    1.192670
  H      3.512550  -10.142670    5.052880
  H      2.227560   -8.828430    2.614870
  H     10.543200  -11.625670    2.591510
  H     10.150520  -10.530560    0.156970
  H      2.706980   -8.353260    0.617340
  H      5.112700   -8.279720   -1.276410
  H      2.825830   -9.138110   -6.020300
  H     -0.850830   -6.760420   -4.881190
  H      2.831810   -6.108120    0.447930
  H     -0.125010   -5.810960   -0.303840
  H      0.667350   -5.388740    1.289590

 Total Charge           Charge          ....    0
 Multiplicity           Mult            ....    1
 Number of Electrons    NEL             ....  526
 Basis Dimension        Dim             .... 1184

ORBITAL ENERGIES
----------------

  NO   OCC          E(Eh)            E(eV)
   0   2.0000     -88.973462     -2421.0910
   1   2.0000     -88.968108     -2420.9453
   2   2.0000     -88.956734     -2420.6358
   3   2.0000     -88.954250     -2420.5682
   4   2.0000     -88.939760     -2420.1739
   5   2.0000     -88.931790     -2419.9570
   6   2.0000     -19.205381      -522.6050
   7   2.0000     -19.200019      -522.4591
   8   2.0000     -14.404669      -391.9710
   9   2.0000     -14.398770      -391.8104
  10   2.0000     -14.396680      -391.7536
  11   2.0000     -14.390793      -391.5934
  12   2.0000     -14.380950      -391.3256
  13   2.0000     -14.365614      -390.9082
  14   2.0000     -10.365145      -282.0499
  15   2.0000     -10.359925      -281.9079
  16   2.0000     -10.339527      -281.3528
  17   2.0000     -10.333455      -281.1876
  18   2.0000     -10.330123      -281.0969
  19   2.0000     -10.327509      -281.0258
  20   2.0000     -10.326055      -280.9862
  21   2.0000     -10.322953      -280.9018
  22   2.0000     -10.322175      -280.8807
  23   2.0000     -10.320752      -280.8419
  24   2.0000     -10.317220      -280.7458
  25   2.0000     -10.315271      -280.6928
  26   2.0000     -10.313079      -280.6331
  27   2.0000     -10.312661      -280.6218
  28   2.0000     -10.311531      -280.5910
  29   2.0000     -10.310001      -280.5494
  30   2.0000     -10.309374      -280.5323
  31   2.0000     -10.307912      -280.4925
  32   2.0000     -10.307374      -280.4779
  33   2.0000     -10.306645      -280.4581
  34   2.0000     -10.305258      -280.4203
  35   2.0000     -10.302615      -280.3484
  36   2.0000     -10.301041      -280.3056
  37   2.0000     -10.300415      -280.2885
  38   2.0000     -10.299754      -280.2706
  39   2.0000     -10.295680      -280.1597
  40   2.0000     -10.295098      -280.1439
  41   2.0000     -10.293703      -280.1059
  42   2.0000     -10.289619      -279.9948
  43   2.0000     -10.285917      -279.8940
  44   2.0000     -10.285823      -279.8915
  45   2.0000     -10.283622      -279.8316
  46   2.0000     -10.283020      -279.8152
  47   2.0000     -10.281832      -279.7829
  48   2.0000     -10.281712      -279.7796
  49   2.0000     -10.281279      -279.7678
  50   2.0000     -10.280529      -279.7474
  51   2.0000     -10.279794      -279.7274
  52   2.0000     -10.279433      -279.7176
  53   2.0000     -10.278702      -279.6977
  54   2.0000     -10.276407      -279.6352
  55   2.0000     -10.275751      -279.6174
  56   2.0000     -10.275424      -279.6085
  57   2.0000     -10.275230      -279.6032
  58   2.0000     -10.275085      -279.5993
  59   2.0000     -10.274258      -279.5768
  60   2.0000     -10.273792      -279.5641
  61   2.0000     -10.273218      -279.5485
  62   2.0000     -10.272569      -279.5308
  63   2.0000     -10.269673      -279.4520
  64   2.0000     -10.269565      -279.4491
  65   2.0000     -10.269243      -279.4403
  66   2.0000     -10.268713      -279.4259
  67   2.0000     -10.268309      -279.4149
  68   2.0000     -10.263256      -279.2774
  69   2.0000     -10.262528      -279.2576
  70   2.0000      -8.069412      -219.5799
  71   2.0000      -8.063857      -219.4287
  72   2.0000      -8.052855      -219.1293
  73   2.0000      -8.049447      -219.0366
  74   2.0000      -8.035079      -218.6456
  75   2.0000      -8.027407      -218.4368
  76   2.0000      -6.038798      -164.3240
  77   2.0000      -6.034442      -164.2055
  78   2.0000      -6.034041      -164.1946
  79   2.0000      -6.031526      -164.1262
  80   2.0000      -6.029570      -164.0729
  81   2.0000      -6.024290      -163.9293
  82   2.0000      -6.022228      -163.8732
  83   2.0000      -6.019876      -163.8092
  84   2.0000      -6.017876      -163.7547
  85   2.0000      -6.015764      -163.6972
  86   2.0000      -6.014948      -163.6750
  87   2.0000      -6.009117      -163.5164
  88   2.0000      -6.005376      -163.4146
  89   2.0000      -6.001149      -163.2996
  90   2.0000      -5.997829      -163.2092
  91   2.0000      -5.995094      -163.1348
  92   2.0000      -5.993856      -163.1011
  93   2.0000      -5.986884      -162.9114
  94   2.0000      -1.119203       -30.4550
  95   2.0000      -1.113144       -30.2902
  96   2.0000      -1.072432       -29.1824
  97   2.0000      -1.065230       -28.9864
  98   2.0000      -1.052543       -28.6411
  99   2.0000      -1.044391       -28.4193
 100   2.0000      -1.013280       -27.5728
 101   2.0000      -0.994705       -27.0673
 102   2.0000      -0.990809       -26.9613
 103   2.0000      -0.966631       -26.3034
 104   2.0000      -0.964892       -26.2560
 105   2.0000      -0.957071       -26.0432
 106   2.0000      -0.952240       -25.9118
 107   2.0000      -0.945378       -25.7250
 108   2.0000      -0.932897       -25.3854
 109   2.0000      -0.927366       -25.2349
 110   2.0000      -0.923503       -25.1298
 111   2.0000      -0.913981       -24.8707
 112   2.0000      -0.909179       -24.7400
 113   2.0000      -0.899018       -24.4635
 114   2.0000      -0.889591       -24.2070
 115   2.0000      -0.887251       -24.1433
 116   2.0000      -0.884033       -24.0558
 117   2.0000      -0.871655       -23.7189
 118   2.0000      -0.867163       -23.5967
 119   2.0000      -0.860150       -23.4059
 120   2.0000      -0.851133       -23.1605
 121   2.0000      -0.845117       -22.9968
 122   2.0000      -0.842892       -22.9363
 123   2.0000      -0.840546       -22.8724
 124   2.0000      -0.834366       -22.7043
 125   2.0000      -0.829022       -22.5588
 126   2.0000      -0.818208       -22.2646
 127   2.0000      -0.809527       -22.0284
 128   2.0000      -0.803238       -21.8572
 129   2.0000      -0.791895       -21.5486
 130   2.0000      -0.784779       -21.3549
 131   2.0000      -0.768482       -20.9115
 132   2.0000      -0.761149       -20.7119
 133   2.0000      -0.759665       -20.6715
 134   2.0000      -0.753462       -20.5027
 135   2.0000      -0.746630       -20.3168
 136   2.0000      -0.742967       -20.2172
 137   2.0000      -0.730482       -19.8774
 138   2.0000      -0.716244       -19.4900
 139   2.0000      -0.712145       -19.3784
 140   2.0000      -0.710519       -19.3342
 141   2.0000      -0.706942       -19.2369
 142   2.0000      -0.694706       -18.9039
 143   2.0000      -0.687436       -18.7061
 144   2.0000      -0.680668       -18.5219
 145   2.0000      -0.673975       -18.3398
 146   2.0000      -0.668158       -18.1815
 147   2.0000      -0.665397       -18.1064
 148   2.0000      -0.656688       -17.8694
 149   2.0000      -0.655275       -17.8309
 150   2.0000      -0.651645       -17.7321
 151   2.0000      -0.648523       -17.6472
 152   2.0000      -0.642587       -17.4857
 153   2.0000      -0.637162       -17.3381
 154   2.0000      -0.630544       -17.1580
 155   2.0000      -0.627789       -17.0830
 156   2.0000      -0.617876       -16.8133
 157   2.0000      -0.611867       -16.6497
 158   2.0000      -0.608435       -16.5564
 159   2.0000      -0.604685       -16.4543
 160   2.0000      -0.602274       -16.3887
 161   2.0000      -0.599126       -16.3031
 162   2.0000      -0.591377       -16.0922
 163   2.0000      -0.586911       -15.9707
 164   2.0000      -0.583751       -15.8847
 165   2.0000      -0.580209       -15.7883
 166   2.0000      -0.577619       -15.7178
 167   2.0000      -0.573743       -15.6123
 168   2.0000      -0.566022       -15.4022
 169   2.0000      -0.560207       -15.2440
 170   2.0000      -0.556902       -15.1541
 171   2.0000      -0.555855       -15.1256
 172   2.0000      -0.555207       -15.1080
 173   2.0000      -0.546664       -14.8755
 174   2.0000      -0.543537       -14.7904
 175   2.0000      -0.540494       -14.7076
 176   2.0000      -0.538115       -14.6429
 177   2.0000      -0.536945       -14.6110
 178   2.0000      -0.534338       -14.5401
 179   2.0000      -0.533203       -14.5092
 180   2.0000      -0.532055       -14.4780
 181   2.0000      -0.530496       -14.4355
 182   2.0000      -0.525634       -14.3032
 183   2.0000      -0.524193       -14.2640
 184   2.0000      -0.521836       -14.1999
 185   2.0000      -0.516595       -14.0573
 186   2.0000      -0.514579       -14.0024
 187   2.0000      -0.510788       -13.8993
 188   2.0000      -0.510176       -13.8826
 189   2.0000      -0.506473       -13.7818
 190   2.0000      -0.502907       -13.6848
 191   2.0000      -0.501925       -13.6581
 192   2.0000      -0.498549       -13.5662
 193   2.0000      -0.496070       -13.4987
 194   2.0000      -0.492702       -13.4071
 195   2.0000      -0.490856       -13.3569
 196   2.0000      -0.488004       -13.2793
 197   2.0000      -0.486373       -13.2349
 198   2.0000      -0.485744       -13.2178
 199   2.0000      -0.483789       -13.1646
 200   2.0000      -0.482822       -13.1383
 201   2.0000      -0.481723       -13.1083
 202   2.0000      -0.477278       -12.9874
 203   2.0000      -0.473144       -12.8749
 204   2.0000      -0.471044       -12.8178
 205   2.0000      -0.467038       -12.7088
 206   2.0000      -0.463808       -12.6209
 207   2.0000      -0.462577       -12.5874
 208   2.0000      -0.461910       -12.5692
 209   2.0000      -0.460578       -12.5330
 210   2.0000      -0.459893       -12.5143
 211   2.0000      -0.457931       -12.4609
 212   2.0000      -0.454307       -12.3623
 213   2.0000      -0.453202       -12.3323
 214   2.0000      -0.450799       -12.2669
 215   2.0000      -0.450111       -12.2481
 216   2.0000      -0.444272       -12.0893
 217   2.0000      -0.443053       -12.0561
 218   2.0000      -0.440983       -11.9998
 219   2.0000      -0.438035       -11.9195
 220   2.0000      -0.433185       -11.7876
 221   2.0000      -0.431220       -11.7341
 222   2.0000      -0.430823       -11.7233
 223   2.0000      -0.430333       -11.7100
 224   2.0000      -0.427360       -11.6291
 225   2.0000      -0.424797       -11.5593
 226   2.0000      -0.412338       -11.2203
 227   2.0000      -0.411081       -11.1861
 228   2.0000      -0.409945       -11.1552
 229   2.0000      -0.406296       -11.0559
 230   2.0000      -0.399503       -10.8710
 231   2.0000      -0.394996       -10.7484
 232   2.0000      -0.393381       -10.7044
 233   2.0000      -0.390779       -10.6336
 234   2.0000      -0.385924       -10.5015
 235   2.0000      -0.384807       -10.4711
 236   2.0000      -0.382131       -10.3983
 237   2.0000      -0.368855       -10.0371
 238   2.0000      -0.362014        -9.8509
 239   2.0000      -0.355400        -9.6709
 240   2.0000      -0.354507        -9.6466
 241   2.0000      -0.353924        -9.6308
 242   2.0000      -0.349092        -9.4993
 243   2.0000      -0.347556        -9.4575
 244   2.0000      -0.340435        -9.2637
 245   2.0000      -0.340010        -9.2521
 246   2.0000      -0.332053        -9.0356
 247   2.0000      -0.327262        -8.9052
 248   2.0000      -0.325733        -8.8637
 249   2.0000      -0.323176        -8.7941
 250   2.0000      -0.318889        -8.6774
 251   2.0000      -0.318067        -8.6550
 252   2.0000      -0.313903        -8.5417
 253   2.0000      -0.309371        -8.4184
 254   2.0000      -0.301465        -8.2033
 255   2.0000      -0.294261        -8.0073
 256   2.0000      -0.292834        -7.9684
 257   2.0000      -0.283900        -7.7253
 258   2.0000      -0.276522        -7.5246
 259   2.0000      -0.271590        -7.3903
 260   2.0000      -0.255253        -6.9458
 261   2.0000      -0.243101        -6.6151
 262   2.0000      -0.225834        -6.1452
 263   0.0000      -0.110998        -3.0204
 264   0.0000      -0.106156        -2.8887
 265   0.0000      -0.076009        -2.0683
 266   0.0000      -0.049618        -1.3502
 267   0.0000      -0.037721        -1.0264

MULLIKEN ATOMIC CHARGES
-----------------------
   0 C :   -0.090500
   1 S :    0.123229
   2 C :   -0.027724
   3 C :   -0.114150
   4 S :    0.138602
   5 C :   -0.118614
   6 C :    0.018049
   7 S :    0.053931
   8 C :    0.023469
   9 C :    0.033826
  10 C :   -0.061535
  11 C :    0.046981
  12 N :   -0.051879
  13 C :    0.058433
  14 C :   -0.169515
  15 C :    0.216414
  16 O :   -0.159050
  17 C :   -0.008510
  18 C :   -0.040322
  19 N :   -0.056590
  20 C :    0.079745
  21 C :   -0.101734
  22 C :    0.059943
  23 C :   -0.026916
  24 C :    0.006376
  25 C :    0.120437
  26 C :   -0.114555
  27 C :    0.050637
  28 C :   -0.021772
  29 C :   -0.074862
  30 C :    0.151721
  31 N :   -0.213301
  32 C :    0.139824
  33 N :   -0.215063
  34 C :    0.098133
  35 C :   -0.132280
  36 C :    0.150097
  37 C :   -0.039393
  38 C :    0.016154
  39 C :    0.015724
  40 C :    0.034008
  41 C :    0.001194
  42 C :   -0.010051
  43 C :   -0.028659
  44 C :    0.011780
  45 C :    0.020819
  46 N :   -0.036204
  47 C :    0.066785
  48 C :   -0.164639
  49 C :    0.215978
  50 O :   -0.143819
  51 C :   -0.010405
  52 C :   -0.043514
  53 N :   -0.055447
  54 C :    0.085506
  55 C :   -0.099438
  56 C :    0.057969
  57 C :   -0.081870
  58 C :    0.061224
  59 C :   -0.085674
  60 S :    0.092974
  61 C :   -0.002115
  62 C :   -0.123000
  63 S :    0.118102
  64 C :   -0.121858
  65 C :   -0.010945
  66 S :    0.104698
  67 C :   -0.050980
  68 C :   -0.063939
  69 C :   -0.017808
  70 H :    0.059582
  71 H :    0.030603
  72 H :    0.029118
  73 H :    0.024229
  74 H :    0.008447
  75 H :    0.002468
  76 H :   -0.013551
  77 H :   -0.039735
  78 H :   -0.004834
  79 H :   -0.022776
  80 H :   -0.036228
  81 H :    0.012045
  82 H :   -0.022457
  83 H :    0.087198
  84 H :    0.090443
  85 H :   -0.005818
  86 H :   -0.021616
  87 H :    0.093503
  88 H :    0.094086
  89 H :    0.013566
  90 H :    0.024424
  91 H :   -0.004244
  92 H :   -0.032596
  93 H :   -0.039173
  94 H :   -0.030873
  95 H :    0.033311
  96 H :    0.006546
  97 H :    0.004813
  98 H :   -0.007106
  99 H :    0.009027
 100 H :    0.023047
 101 H :    0.027089
 102 H :    0.024363
 103 H :    0.026612
 104 H :    0.032418
 105 H :    0.039933
Sum of atomic charges:   -0.0000000

LOEWDIN ATOMIC CHARGES
----------------------
   0 C :   -0.166607
   1 S :    0.400169
   2 C :   -0.215186
   3 C :   -0.199795
   4 S :    0.457738
   5 C :   -0.204211
   6 C :   -0.208288
   7 S :    0.349346
   8 C :   -0.188105
   9 C :    0.044187
  10 C :   -0.074900
  11 C :    0.074963
  12 N :   -0.115635
  13 C :    0.050753
  14 C :   -0.058350
  15 C :    0.069364
  16 O :   -0.156493
  17 C :   -0.043960
  18 C :    0.006979
  19 N :   -0.100751
  20 C :    0.059915
  21 C :   -0.043357
  22 C :   -0.018818
  23 C :   -0.051996
  24 C :    0.027156
  25 C :   -0.030964
  26 C :   -0.002162
  27 C :   -0.029909
  28 C :   -0.028703
  29 C :   -0.054570
  30 C :    0.023287
  31 N :   -0.107939
  32 C :    0.025560
  33 N :   -0.113249
  34 C :   -0.021907
  35 C :    0.073299
  36 C :   -0.031211
  37 C :   -0.029862
  38 C :   -0.018892
  39 C :   -0.039266
  40 C :   -0.029709
  41 C :   -0.008441
  42 C :   -0.022870
  43 C :    0.078422
  44 C :   -0.043092
  45 C :    0.072838
  46 N :   -0.108682
  47 C :    0.049445
  48 C :   -0.055174
  49 C :    0.068313
  50 O :   -0.143958
  51 C :   -0.040446
  52 C :    0.015027
  53 N :   -0.099156
  54 C :    0.068181
  55 C :   -0.038690
  56 C :   -0.023580
  57 C :   -0.043698
  58 C :    0.004791
  59 C :   -0.185040
  60 S :    0.351095
  61 C :   -0.213820
  62 C :   -0.204123
  63 S :    0.442233
  64 C :   -0.204644
  65 C :   -0.217316
  66 S :    0.377111
  67 C :   -0.160696
  68 C :   -0.053290
  69 C :   -0.035234
  70 H :    0.041415
  71 H :    0.027719
  72 H :    0.026697
  73 H :    0.046142
  74 H :    0.021213
  75 H :    0.020261
  76 H :    0.030929
  77 H :    0.021287
  78 H :    0.032952
  79 H :    0.029713
  80 H :    0.020105
  81 H :    0.019026
  82 H :    0.010684
  83 H :    0.051013
  84 H :    0.049795
  85 H :    0.000936
  86 H :    0.012897
  87 H :    0.053923
  88 H :    0.056989
  89 H :    0.031113
  90 H :    0.054005
  91 H :    0.027427
  92 H :    0.031335
  93 H :    0.027154
  94 H :    0.024807
  95 H :    0.039278
  96 H :    0.036254
  97 H :    0.021837
  98 H :    0.033342
  99 H :    0.031487
 100 H :    0.031215
 101 H :    0.026122
 102 H :    0.024945
 103 H :    0.034396
 104 H :    0.019416
 105 H :    0.028747

  Mayer bond orders larger than 0.100000
B(  0-C ,  1-S ) :   1.0985 B(  0-C ,  8-C ) :   1.6817 B(  0-C , 70-H ) :   0.9380
B(  1-S ,  2-C ) :   0.9699 B(  2-C ,  3-C ) :   1.5985 B(  2-C ,  6-C ) :   1.2686
B(  3-C ,  4-S ) :   1.1856 B(  3-C , 71-H ) :   0.9692 B(  4-S ,  5-C ) :   1.1726
B(  5-C ,  6-C ) :   1.6024 B(  5-C , 72-H ) :   0.9682 B(  6-C ,  7-S ) :   0.9749
B(  7-S ,  8-C ) :   0.9925 B(  8-C ,  9-C ) :   1.1338 B(  9-C , 10-C ) :   1.6129
B(  9-C , 73-H ) :   0.9876 B( 10-C , 11-C ) :   1.1746 B( 10-C , 74-H ) :   0.9433
B( 11-C , 12-N ) :   1.5740 B( 11-C , 13-C ) :   0.1100 B( 11-C , 22-C ) :   0.9912
B( 12-N , 13-C ) :   1.3753 B( 13-C , 14-C ) :   1.0558 B( 13-C , 18-C ) :   1.3924
B( 14-C , 15-C ) :   0.9041 B( 14-C , 22-C ) :   1.5435 B( 15-C , 16-O ) :   2.1589
B( 15-C , 17-C ) :   0.9406 B( 16-O , 78-H ) :   0.1152 B( 17-C , 18-C ) :   1.0826
B( 17-C , 21-C ) :   1.5791 B( 18-C , 19-N ) :   1.3276 B( 19-N , 20-C ) :   1.6412
B( 20-C , 21-C ) :   1.0893 B( 20-C , 75-H ) :   0.9895 B( 21-C , 76-H ) :   1.0114
B( 22-C , 23-C ) :   1.1331 B( 23-C , 24-C ) :   1.6296 B( 23-C , 77-H ) :   0.9592
B( 24-C , 25-C ) :   1.0816 B( 24-C , 78-H ) :   0.9690 B( 25-C , 26-C ) :   1.4904
B( 25-C , 42-C ) :   1.1157 B( 26-C , 27-C ) :   1.1021 B( 26-C , 79-H ) :   1.0120
B( 27-C , 28-C ) :   1.4702 B( 27-C , 40-C ) :   1.1168 B( 28-C , 29-C ) :   1.0125
B( 28-C , 34-C ) :   1.0897 B( 29-C , 30-C ) :   0.9942 B( 29-C , 32-C ) :   1.0266
B( 29-C , 80-H ) :   0.8897 B( 30-C , 31-N ) :   1.1289 B( 30-C , 81-H ) :   0.9355
B( 30-C , 82-H ) :   0.9456 B( 31-N , 83-H ) :   0.9773 B( 31-N , 84-H ) :   0.9810
B( 32-C , 33-N ) :   1.0844 B( 32-C , 85-H ) :   0.9439 B( 32-C , 86-H ) :   0.9279
B( 33-N , 87-H ) :   0.9699 B( 33-N , 88-H ) :   0.9670 B( 34-C , 35-C ) :   1.6418
B( 34-C , 39-C ) :   1.0533 B( 35-C , 36-C ) :   0.9887 B( 35-C , 89-H ) :   0.9660
B( 36-C , 37-C ) :   0.9942 B( 36-C , 43-C ) :   0.9522 B( 36-C , 90-H ) :   0.8771
B( 37-C , 38-C ) :   1.7113 B( 37-C , 91-H ) :   0.9783 B( 38-C , 39-C ) :   1.1296
B( 38-C , 92-H ) :   0.9904 B( 39-C , 40-C ) :   1.4374 B( 40-C , 41-C ) :   1.1373
B( 41-C , 42-C ) :   1.6211 B( 41-C , 93-H ) :   0.9895 B( 42-C , 94-H ) :   0.9830
B( 43-C , 44-C ) :   1.7479 B( 43-C , 95-H ) :   0.9742 B( 44-C , 45-C ) :   1.1409
B( 44-C , 96-H ) :   0.9503 B( 45-C , 46-N ) :   1.6068 B( 45-C , 47-C ) :   0.1115
B( 45-C , 56-C ) :   1.0050 B( 46-N , 47-C ) :   1.3484 B( 47-C , 48-C ) :   1.0573
B( 47-C , 52-C ) :   1.4153 B( 48-C , 49-C ) :   0.9007 B( 48-C , 56-C ) :   1.5396
B( 49-C , 50-O ) :   2.1830 B( 49-C , 51-C ) :   0.9311 B( 50-O ,100-H ) :   0.1027
B( 51-C , 52-C ) :   1.0738 B( 51-C , 55-C ) :   1.5951 B( 52-C , 53-N ) :   1.3165
B( 53-N , 54-C ) :   1.6524 B( 54-C , 55-C ) :   1.0769 B( 54-C , 97-H ) :   0.9896
B( 55-C , 98-H ) :   1.0116 B( 56-C , 57-C ) :   1.1319 B( 57-C , 58-C ) :   1.6943
B( 57-C , 99-H ) :   0.9599 B( 58-C , 59-C ) :   1.1083 B( 58-C ,100-H ) :   0.9263
B( 59-C , 60-S ) :   0.9952 B( 59-C , 67-C ) :   1.6665 B( 60-S , 61-C ) :   0.9855
B( 61-C , 62-C ) :   1.5963 B( 61-C , 65-C ) :   1.2626 B( 62-C , 63-S ) :   1.1699
B( 62-C ,101-H ) :   0.9704 B( 63-S , 64-C ) :   1.1731 B( 64-C , 65-C ) :   1.5981
B( 64-C ,102-H ) :   0.9700 B( 65-C , 66-S ) :   0.9748 B( 66-S , 67-C ) :   1.0423
B( 67-C , 68-C ) :   1.1055 B( 68-C , 69-C ) :   1.9193 B( 68-C ,103-H ) :   0.9578
B( 69-C ,104-H ) :   0.9523 B( 69-C ,105-H ) :   0.9462

-----------------------------------------------------------------------------
         ABSORPTION SPECTRUM VIA TRANSITION ELECTRIC DIPOLE MOMENTS
-----------------------------------------------------------------------------
State   Energy  Wavelength   fosc         T2         TX        TY        TZ
        (cm-1)    (nm)                  (au**2)     (au)      (au)      (au)
-----------------------------------------------------------------------------
   0   10801.4    925.8   0.099708590   3.03897   1.60028  -0.68718   0.07644
   1   13023.2    767.9   0.078042096   1.97282  -0.57245   0.99671  -0.80727
   2   13690.2    730.5   0.091641921   2.20374   1.27632  -0.56400   0.50660
   3   14942.5    669.2   0.109380203   2.40985  -0.45421   1.44954   0.31997
   4   17909.0    558.4   0.632843568  11.63326  -2.62316  -1.86230  -1.13319
   5   19487.0    513.2   0.024879712   0.42032   0.37120   0.50473   0.16666
   6   19611.4    509.9   0.002279500   0.03827  -0.05347   0.15813  -0.10198
   7   19736.9    506.7   0.009521422   0.15882  -0.13547  -0.37445   0.01597
   8   21767.4    459.4   0.004061087   0.06142   0.15195  -0.19578   0.00113
   9   22070.2    453.1   0.000713841   0.01065  -0.06922  -0.06501   0.04038
  10   22660.5    441.3   0.020794486   0.30210  -0.43263   0.33093   0.07364
  11   23132.0    432.3   0.246069554   3.50203   1.36346  -1.19345   0.46765
  12   23575.6    424.2   0.056468239   0.78853  -0.67909   0.38714   0.42129
  13   24114.7    414.7   0.042112157   0.57491  -0.52981   0.40734   0.35817
  14   24182.5    413.5   0.127973671   1.74218   1.17633   0.44749   0.39771
  15   24597.7    406.5   0.003158809   0.04228  -0.08428   0.00404   0.18750
  16   25129.1    397.9   0.046537511   0.60968  -0.40677  -0.66609   0.02320
  17   25173.5    397.2   0.929737731  12.15883  -2.51416   2.28503  -0.78513
  18   25356.2    394.4   0.163391315   2.12139  -0.52352   1.35062  -0.15213
  19   25485.1    392.4   0.318725898   4.11724  -0.30511  -1.99993  -0.15631
  20   25755.3    388.3   0.299111452   3.82333  -1.85371   0.15497  -0.60256
  21   25855.8    386.8   0.005109914   0.06506  -0.20337  -0.14633  -0.04785
  22   25888.4    386.3   0.046659559   0.59335   0.72768   0.00317   0.25264
  23   26202.4    381.6   0.160676890   2.01878   0.92046  -0.98579   0.44692
  24   26305.9    380.1   0.105993711   1.32649   0.73656   0.67195  -0.57658
  25   27206.0    367.6   0.146944744   1.77814  -1.06803   0.01216   0.79831
  26   27588.2    362.5   0.009049291   0.10799  -0.15986   0.16119   0.23759
  27   27696.0    361.1   0.002517121   0.02992   0.07089   0.04291  -0.15184
  28   28274.6    353.7   0.030814253   0.35878  -0.56505   0.09446  -0.17486
  29   28512.3    350.7   0.117761292   1.35971  -0.53806  -1.03161  -0.07739
  30   28583.1    349.9   0.020118060   0.23171  -0.22631  -0.40264  -0.13557
  31   29578.1    338.1   0.098299722   1.09410  -0.47397   0.34871  -0.86479
  32   29624.7    337.6   0.031515953   0.35023  -0.21001   0.31310  -0.45617
  33   30590.7    326.9   0.002832038   0.03048   0.03922   0.15962   0.05883
  34   30842.7    324.2   0.176087780   1.87954  -1.01945   0.66268  -0.63334
  35   31020.8    322.4   0.015425339   0.16370  -0.37466   0.11789  -0.09714
  36   31061.2    321.9   0.000543750   0.00576  -0.05955   0.03685  -0.02930
  37   31087.2    321.7   0.045909779   0.48618   0.57700  -0.23006   0.31675
  38   31264.7    319.8   0.006772814   0.07132  -0.19442   0.18082  -0.02869
  39   31511.7    317.3   0.038822691   0.40559   0.25167  -0.53340   0.24028
  40   31628.9    316.2   0.007241987   0.07538  -0.15672  -0.15153  -0.16690
  41   31649.6    316.0   0.052992939   0.55122   0.63083  -0.26670   0.28661
  42   32177.6    310.8   0.033822864   0.34604  -0.53851   0.04183  -0.23302
  43   32440.3    308.3   0.012881000   0.13072   0.13617   0.33245   0.04067
  44   32935.7    303.6   0.039966133   0.39949  -0.47051  -0.17911  -0.38214
  45   33020.3    302.8   0.310715897   3.09783  -1.07761   1.04968  -0.91365
  46   33185.2    301.3   0.056181559   0.55735   0.70073  -0.02358   0.25646
  47   33383.6    299.5   0.010547336   0.10401   0.19892   0.16305   0.19457
  48   33670.0    297.0   0.027027305   0.26426   0.12130   0.49951   0.00584
  49   33756.9    296.2   0.035667930   0.34785  -0.04623  -0.58784  -0.01265
  50   34565.4    289.3   0.130172711   1.23981   0.20907  -1.08732  -0.11758
  51   34620.3    288.8   0.029675899   0.28219  -0.21118   0.48740  -0.00604
  52   34888.0    286.6   0.022697477   0.21418   0.18186  -0.42472  -0.02682
  53   34977.5    285.9   0.003733291   0.03514   0.01529  -0.18433   0.03044
  54   35707.1    280.1   0.347720021   3.20591  -1.39367  -1.07297  -0.33512
  55   36071.1    277.2   0.014307354   0.13058   0.00564   0.22597   0.28194
  56   36177.3    276.4   0.014862324   0.13525  -0.13486   0.33299  -0.07860
  57   36309.4    275.4   0.143133859   1.29777  -1.06058  -0.35523  -0.21621
  58   36763.1    272.0   0.048358227   0.43305  -0.63273   0.16928   0.06362
  59   36929.5    270.8   0.043396367   0.38686   0.48053   0.39459   0.01587
  60   36996.3    270.3   0.002355813   0.02096   0.13949   0.02774   0.02713
  61   37064.0    269.8   0.027668574   0.24576   0.27672   0.41119  -0.01039
  62   37270.3    268.3   0.053631652   0.47373  -0.01837   0.23683  -0.64599
  63   37406.2    267.3   0.085319278   0.75090  -0.73545  -0.33096   0.31698
  64   37500.9    266.7   0.197669257   1.73529  -1.13553   0.52693  -0.41015
  65   37811.0    264.5   0.002918503   0.02541   0.05996   0.01416   0.14702
  66   38045.9    262.8   0.262217346   2.26897  -0.57330   0.59894   1.25760
  67   38176.1    261.9   0.007524047   0.06488   0.24242   0.05480  -0.05580
  68   38340.9    260.8   0.031238828   0.26823   0.45784  -0.24012   0.03091
  69   38410.1    260.3   0.029783554   0.25527  -0.00773   0.06145   0.50144
  70   38586.7    259.2   0.108775119   0.92804   0.66590  -0.59031   0.36899
  71   38915.2    257.0   0.008016200   0.06781   0.20150  -0.13503  -0.09476
  72   38956.0    256.7   0.080046232   0.67646   0.65672  -0.02454   0.49455
  73   39139.7    255.5   0.024713570   0.20787   0.36824  -0.23093   0.13761
  74   39216.9    255.0   0.036325976   0.30494  -0.29308   0.37055  -0.28590
  75   39412.0    253.7   0.001149778   0.00960   0.06596  -0.07237   0.00403
  76   39554.7    252.8   0.071598192   0.59591  -0.60332  -0.30804   0.37017
  77   39664.9    252.1   0.025762818   0.21383  -0.23998   0.06843   0.38930
  78   39793.9    251.3   0.003536648   0.02926  -0.00702  -0.15217   0.07780
  79   39814.5    251.2   0.004019312   0.03323  -0.11597   0.10613  -0.09232
  80   40126.5    249.2   0.062731054   0.51467   0.52708   0.22831   0.42980

FINAL SINGLE POINT ENERGY     -5019.344462843745

DIPOLE MOMENT
-------------
                                X             Y             Z
Electronic contribution:    -29.95506      -3.45217     -54.71631
Nuclear contribution   :     27.82062       1.79263      54.16681
                        -----------------------------------------
Total Dipole Moment    :     -2.13444      -1.65954      -0.54951
                        -----------------------------------------
Magnitude (a.u.)       :      2.75896
Magnitude (Debye)      :      7.01272

Rotational constants in cm-1:     0.001016     0.000368     0.000337
Rotational constants in MHz :    30.468777    11.018446    10.088916

                             ****ORCA TERMINATED NORMALLY****
TOTAL RUN TIME: 0 days 0 hours 22 minutes 19 seconds 690 msec
