                         Program Version 4.2.0 -  RELEASE  -
|  1> # ORCA input file
|  2> # SCF done       -186.759433016585          0.000470076659
|  3> ! CAM-B3LYP def2-SVP def2/J RIJCOSX Grid4 TightSCF
|  4> %maxcore 5000
|  5> %tddft
|  6>     Mode sTDDFT
|  7>     Ethresh 5.0
|  8>     maxcore 5000
|  9> end
| 10>
| 11> %pal
| 12>   nprocs 6
| 13>   end
| 14> * xyz 0 1
| 15>    C        2.06591       -11.98814        -7.40371
| 16>    S        0.60172       -11.32572        -6.82297
| 17>    C        1.12180       -11.45964        -5.16364
| 18>    C        2.39477       -12.00431        -5.10930
| 19>    C        2.92318       -12.30138        -6.38360
| 20>    O        4.14730       -12.84102        -6.64138
| 21>    C        5.04971       -13.18426        -5.71170
| 22>    O        6.09720       -13.64936        -6.05808
| 23>    C        4.78768       -13.00368        -4.21540
| 24>    O        5.61667       -13.33399        -3.41514
| 25>    S        3.26958       -12.30424        -3.62060
| 26>    C        0.33124       -11.06214        -4.05838
| 27>    C       -0.91612       -10.54348        -4.14948
| 28>    C       -1.70980       -10.15028        -3.04160
| 29>    C       -3.07587        -9.63690        -3.18908
| 30>    N       -3.66340        -9.32761        -2.07116
| 31>    C       -2.75236        -9.60783        -1.09679
| 32>    C       -1.50439       -10.13392        -1.67290
| 33>    C       -0.55590       -10.38026        -0.61361
| 34>    S        1.01941       -10.84832        -0.75944
| 35>    C       -1.25840       -10.04228         0.60090
| 36>    C       -2.60164        -9.54606         0.26431
| 37>    N       -3.26948        -9.15122         1.38535
| 38>    C       -2.43441        -9.33604         2.36606
| 39>    C       -1.14135        -9.89907         1.96837
| 40>    C       -0.07141       -10.21180         2.87427
| 41>    C        0.05162        -9.51637         4.06347
| 42>    C        1.14853        -9.75982         4.90942
| 43>    C        1.53252        -9.18734         6.12460
| 44>    C        0.84848        -8.16413         6.96434
| 45>    C        0.97217        -6.73740         6.37907
| 46>    N        0.37744        -6.63900         5.06031
| 47>    C       -0.62404        -8.52031         7.23589
| 48>    N       -0.68774        -9.80668         7.90674
| 49>    C        2.78631        -9.80378         6.49319
| 50>    C        3.60745        -9.58828         7.53930
| 51>    C        4.87816       -10.34272         7.69964
| 52>    C        5.16863       -11.32195         6.60575
| 53>    C        4.33352       -11.53150         5.56963
| 54>    C        3.13571       -10.78880         5.46294
| 55>    C        2.13243       -10.75838         4.51166
| 56>    C        1.94857       -11.49148         3.31922
| 57>    C        0.87596       -11.22584         2.53015
| 58>    C        4.85705       -11.11273         8.99778
| 59>    C        5.84482       -11.05085         9.89642
| 60>    C        5.91141       -11.80963        11.10615
| 61>    C        4.94154       -12.76826        11.64545
| 62>    N        5.30069       -13.32283        12.76792
| 63>    C        6.52175       -12.79010        13.06570
| 64>    C        6.92191       -11.81859        12.03734
| 65>    C        8.21630       -11.26796        12.34854
| 66>    S        9.05065       -10.15487        11.46883
| 67>    C        8.59840       -11.92709        13.56991
| 68>    C        7.53541       -12.86071        13.98551
| 69>    N        7.88932       -13.51485        15.12731
| 70>    C        9.07118       -13.07551        15.43761
| 71>    C        9.60376       -12.06833        14.50428
| 72>    C       10.86322       -11.42476        14.60237
| 73>    S       11.34432       -10.17258        13.49697
| 74>    C       12.87441        -9.96189        14.27637
| 75>    C       13.00092       -10.83412        15.34312
| 76>    C       11.87738       -11.65121        15.53128
| 77>    O       11.73599       -12.59122        16.50539
| 78>    C       12.64696       -12.89657        17.44152
| 79>    O       12.38449       -13.74099        18.24970
| 80>    C       14.00561       -12.20533        17.51062
| 81>    O       14.80583       -12.51839        18.34544
| 82>    S       14.42966       -10.92072        16.36581
| 83>    C       13.84495        -9.00420        13.83487
| 84>    C       13.67203        -8.18827        12.79648
| 85>    H        2.23711       -12.11910        -8.45231
| 86>    H        0.79031       -11.19539        -3.08647
| 87>    H       -1.36464       -10.41539        -5.12795
| 88>    H       -3.58476        -9.51629        -4.13003
| 89>    H       -2.73072        -9.11241         3.37603
| 90>    H       -0.64632        -8.73190         4.30656
| 91>    H        1.34624        -8.14767         7.93870
| 92>    H        2.03824        -6.45690         6.39381
| 93>    H        0.43499        -6.05782         7.04525
| 94>    H        0.99939        -7.02805         4.36007
| 95>    H        0.20011        -5.67195         4.81734
| 96>    H       -1.19198        -8.47629         6.29793
| 97>    H       -1.04124        -7.77251         7.91579
| 98>    H       -0.36629       -10.54305         7.28644
| 99>    H       -1.63951       -10.01933         8.18198
|100>    H        3.37684        -8.87166         8.31558
|101>    H        5.70458        -9.61945         7.75826
|102>    H        6.09027       -11.87422         6.70498
|103>    H        4.57667       -12.25050         4.80134
|104>    H        2.66235       -12.25302         3.04440
|105>    H        0.71860       -11.78133         1.62060
|106>    H        4.00619       -11.76415         9.13203
|107>    H        6.69040       -10.39458         9.72937
|108>    H        3.99739       -13.02268        11.19718
|109>    H        9.57816       -13.43923        16.31208
|110>    H       14.75777        -8.98195        14.41637
|111>    H       12.76534        -8.20791        12.21400
|112>    H       14.42854        -7.48333        12.50298
|113> *
|114>
|115>                          ****END OF INPUT****

CARTESIAN COORDINATES (ANGSTROEM)
---------------------------------
  C      2.065910  -11.988140   -7.403710
  S      0.601720  -11.325720   -6.822970
  C      1.121800  -11.459640   -5.163640
  C      2.394770  -12.004310   -5.109300
  C      2.923180  -12.301380   -6.383600
  O      4.147300  -12.841020   -6.641380
  C      5.049710  -13.184260   -5.711700
  O      6.097200  -13.649360   -6.058080
  C      4.787680  -13.003680   -4.215400
  O      5.616670  -13.333990   -3.415140
  S      3.269580  -12.304240   -3.620600
  C      0.331240  -11.062140   -4.058380
  C     -0.916120  -10.543480   -4.149480
  C     -1.709800  -10.150280   -3.041600
  C     -3.075870   -9.636900   -3.189080
  N     -3.663400   -9.327610   -2.071160
  C     -2.752360   -9.607830   -1.096790
  C     -1.504390  -10.133920   -1.672900
  C     -0.555900  -10.380260   -0.613610
  S      1.019410  -10.848320   -0.759440
  C     -1.258400  -10.042280    0.600900
  C     -2.601640   -9.546060    0.264310
  N     -3.269480   -9.151220    1.385350
  C     -2.434410   -9.336040    2.366060
  C     -1.141350   -9.899070    1.968370
  C     -0.071410  -10.211800    2.874270
  C      0.051620   -9.516370    4.063470
  C      1.148530   -9.759820    4.909420
  C      1.532520   -9.187340    6.124600
  C      0.848480   -8.164130    6.964340
  C      0.972170   -6.737400    6.379070
  N      0.377440   -6.639000    5.060310
  C     -0.624040   -8.520310    7.235890
  N     -0.687740   -9.806680    7.906740
  C      2.786310   -9.803780    6.493190
  C      3.607450   -9.588280    7.539300
  C      4.878160  -10.342720    7.699640
  C      5.168630  -11.321950    6.605750
  C      4.333520  -11.531500    5.569630
  C      3.135710  -10.788800    5.462940
  C      2.132430  -10.758380    4.511660
  C      1.948570  -11.491480    3.319220
  C      0.875960  -11.225840    2.530150
  C      4.857050  -11.112730    8.997780
  C      5.844820  -11.050850    9.896420
  C      5.911410  -11.809630   11.106150
  C      4.941540  -12.768260   11.645450
  N      5.300690  -13.322830   12.767920
  C      6.521750  -12.790100   13.065700
  C      6.921910  -11.818590   12.037340
  C      8.216300  -11.267960   12.348540
  S      9.050650  -10.154870   11.468830
  C      8.598400  -11.927090   13.569910
  C      7.535410  -12.860710   13.985510
  N      7.889320  -13.514850   15.127310
  C      9.071180  -13.075510   15.437610
  C      9.603760  -12.068330   14.504280
  C     10.863220  -11.424760   14.602370
  S     11.344320  -10.172580   13.496970
  C     12.874410   -9.961890   14.276370
  C     13.000920  -10.834120   15.343120
  C     11.877380  -11.651210   15.531280
  O     11.735990  -12.591220   16.505390
  C     12.646960  -12.896570   17.441520
  O     12.384490  -13.740990   18.249700
  C     14.005610  -12.205330   17.510620
  O     14.805830  -12.518390   18.345440
  S     14.429660  -10.920720   16.365810
  C     13.844950   -9.004200   13.834870
  C     13.672030   -8.188270   12.796480
  H      2.237110  -12.119100   -8.452310
  H      0.790310  -11.195390   -3.086470
  H     -1.364640  -10.415390   -5.127950
  H     -3.584760   -9.516290   -4.130030
  H     -2.730720   -9.112410    3.376030
  H     -0.646320   -8.731900    4.306560
  H      1.346240   -8.147670    7.938700
  H      2.038240   -6.456900    6.393810
  H      0.434990   -6.057820    7.045250
  H      0.999390   -7.028050    4.360070
  H      0.200110   -5.671950    4.817340
  H     -1.191980   -8.476290    6.297930
  H     -1.041240   -7.772510    7.915790
  H     -0.366290  -10.543050    7.286440
  H     -1.639510  -10.019330    8.181980
  H      3.376840   -8.871660    8.315580
  H      5.704580   -9.619450    7.758260
  H      6.090270  -11.874220    6.704980
  H      4.576670  -12.250500    4.801340
  H      2.662350  -12.253020    3.044400
  H      0.718600  -11.781330    1.620600
  H      4.006190  -11.764150    9.132030
  H      6.690400  -10.394580    9.729370
  H      3.997390  -13.022680   11.197180
  H      9.578160  -13.439230   16.312080
  H     14.757770   -8.981950   14.416370
  H     12.765340   -8.207910   12.214000
  H     14.428540   -7.483330   12.502980

 Total Charge           Charge          ....    0
 Multiplicity           Mult            ....    1
 Number of Electrons    NEL             ....  526
 Basis Dimension        Dim             .... 1144

ORBITAL ENERGIES
----------------

  NO   OCC          E(Eh)            E(eV)
   0   2.0000     -88.980819     -2421.2912
   1   2.0000     -88.979718     -2421.2612
   2   2.0000     -88.979194     -2421.2470
   3   2.0000     -88.974211     -2421.1114
   4   2.0000     -88.906411     -2419.2664
   5   2.0000     -88.898670     -2419.0558
   6   2.0000     -19.319890      -525.7209
   7   2.0000     -19.306094      -525.3455
   8   2.0000     -19.250048      -523.8204
   9   2.0000     -19.243523      -523.6429
  10   2.0000     -19.240278      -523.5546
  11   2.0000     -19.229505      -523.2614
  12   2.0000     -14.419872      -392.3847
  13   2.0000     -14.419760      -392.3816
  14   2.0000     -14.414493      -392.2383
  15   2.0000     -14.413376      -392.2079
  16   2.0000     -14.388273      -391.5248
  17   2.0000     -14.373112      -391.1122
  18   2.0000     -10.443151      -284.1726
  19   2.0000     -10.432851      -283.8923
  20   2.0000     -10.417697      -283.4799
  21   2.0000     -10.410091      -283.2730
  22   2.0000     -10.378921      -282.4248
  23   2.0000     -10.368849      -282.1507
  24   2.0000     -10.349588      -281.6266
  25   2.0000     -10.343045      -281.4486
  26   2.0000     -10.338300      -281.3195
  27   2.0000     -10.337539      -281.2987
  28   2.0000     -10.334903      -281.2270
  29   2.0000     -10.334820      -281.2248
  30   2.0000     -10.333821      -281.1976
  31   2.0000     -10.332651      -281.1657
  32   2.0000     -10.332626      -281.1650
  33   2.0000     -10.331416      -281.1321
  34   2.0000     -10.331386      -281.1313
  35   2.0000     -10.329330      -281.0754
  36   2.0000     -10.326911      -281.0095
  37   2.0000     -10.326803      -281.0066
  38   2.0000     -10.325564      -280.9729
  39   2.0000     -10.323283      -280.9108
  40   2.0000     -10.318195      -280.7724
  41   2.0000     -10.309637      -280.5395
  42   2.0000     -10.308660      -280.5129
  43   2.0000     -10.306229      -280.4467
  44   2.0000     -10.303754      -280.3794
  45   2.0000     -10.302754      -280.3522
  46   2.0000     -10.302475      -280.3446
  47   2.0000     -10.301936      -280.3299
  48   2.0000     -10.301906      -280.3291
  49   2.0000     -10.296835      -280.1911
  50   2.0000     -10.295411      -280.1524
  51   2.0000     -10.295389      -280.1518
  52   2.0000     -10.293176      -280.0916
  53   2.0000     -10.290317      -280.0138
  54   2.0000     -10.290021      -280.0057
  55   2.0000     -10.289900      -280.0024
  56   2.0000     -10.289264      -279.9851
  57   2.0000     -10.287478      -279.9365
  58   2.0000     -10.280668      -279.7512
  59   2.0000     -10.278697      -279.6976
  60   2.0000     -10.278103      -279.6814
  61   2.0000     -10.277796      -279.6731
  62   2.0000     -10.276434      -279.6360
  63   2.0000     -10.273837      -279.5653
  64   2.0000     -10.271072      -279.4901
  65   2.0000     -10.269090      -279.4361
  66   2.0000     -10.267808      -279.4013
  67   2.0000     -10.267763      -279.4000
  68   2.0000     -10.267283      -279.3870
  69   2.0000     -10.264429      -279.3093
  70   2.0000      -8.076316      -219.7677
  71   2.0000      -8.076249      -219.7659
  72   2.0000      -8.073614      -219.6942
  73   2.0000      -8.070495      -219.6093
  74   2.0000      -8.002245      -217.7522
  75   2.0000      -7.994372      -217.5379
  76   2.0000      -6.045964      -164.5191
  77   2.0000      -6.045536      -164.5074
  78   2.0000      -6.042886      -164.4353
  79   2.0000      -6.041726      -164.4037
  80   2.0000      -6.041525      -164.3983
  81   2.0000      -6.040207      -164.3624
  82   2.0000      -6.038851      -164.3255
  83   2.0000      -6.038423      -164.3138
  84   2.0000      -6.037081      -164.2773
  85   2.0000      -6.035962      -164.2469
  86   2.0000      -6.035451      -164.2330
  87   2.0000      -6.031324      -164.1207
  88   2.0000      -5.971021      -162.4797
  89   2.0000      -5.970516      -162.4660
  90   2.0000      -5.963188      -162.2666
  91   2.0000      -5.962563      -162.2496
  92   2.0000      -5.961783      -162.2284
  93   2.0000      -5.953941      -162.0150
  94   2.0000      -1.247863       -33.9561
  95   2.0000      -1.235425       -33.6176
  96   2.0000      -1.175571       -31.9889
  97   2.0000      -1.167957       -31.7817
  98   2.0000      -1.142631       -31.0926
  99   2.0000      -1.132607       -30.8198
 100   2.0000      -1.088057       -29.6075
 101   2.0000      -1.081381       -29.4259
 102   2.0000      -1.068877       -29.0856
 103   2.0000      -1.062566       -28.9139
 104   2.0000      -1.019092       -27.7309
 105   2.0000      -1.014777       -27.6135
 106   2.0000      -0.991064       -26.9682
 107   2.0000      -0.970563       -26.4104
 108   2.0000      -0.968558       -26.3558
 109   2.0000      -0.960734       -26.1429
 110   2.0000      -0.953277       -25.9400
 111   2.0000      -0.951775       -25.8991
 112   2.0000      -0.941327       -25.6148
 113   2.0000      -0.929179       -25.2843
 114   2.0000      -0.927022       -25.2255
 115   2.0000      -0.922948       -25.1147
 116   2.0000      -0.913897       -24.8684
 117   2.0000      -0.904492       -24.6125
 118   2.0000      -0.883866       -24.0512
 119   2.0000      -0.879235       -23.9252
 120   2.0000      -0.875947       -23.8357
 121   2.0000      -0.869308       -23.6551
 122   2.0000      -0.861449       -23.4412
 123   2.0000      -0.857364       -23.3300
 124   2.0000      -0.851761       -23.1776
 125   2.0000      -0.847552       -23.0631
 126   2.0000      -0.840893       -22.8819
 127   2.0000      -0.837609       -22.7925
 128   2.0000      -0.832257       -22.6469
 129   2.0000      -0.819288       -22.2940
 130   2.0000      -0.814122       -22.1534
 131   2.0000      -0.800522       -21.7833
 132   2.0000      -0.782645       -21.2969
 133   2.0000      -0.778665       -21.1886
 134   2.0000      -0.775462       -21.1014
 135   2.0000      -0.768191       -20.9035
 136   2.0000      -0.762644       -20.7526
 137   2.0000      -0.754343       -20.5267
 138   2.0000      -0.747384       -20.3374
 139   2.0000      -0.742433       -20.2026
 140   2.0000      -0.735298       -20.0085
 141   2.0000      -0.727451       -19.7949
 142   2.0000      -0.725755       -19.7488
 143   2.0000      -0.722525       -19.6609
 144   2.0000      -0.720423       -19.6037
 145   2.0000      -0.705165       -19.1885
 146   2.0000      -0.702401       -19.1133
 147   2.0000      -0.692519       -18.8444
 148   2.0000      -0.682255       -18.5651
 149   2.0000      -0.674447       -18.3526
 150   2.0000      -0.666617       -18.1396
 151   2.0000      -0.663153       -18.0453
 152   2.0000      -0.659346       -17.9417
 153   2.0000      -0.656581       -17.8665
 154   2.0000      -0.653773       -17.7901
 155   2.0000      -0.643876       -17.5208
 156   2.0000      -0.642076       -17.4718
 157   2.0000      -0.628703       -17.1079
 158   2.0000      -0.625309       -17.0155
 159   2.0000      -0.618332       -16.8257
 160   2.0000      -0.614054       -16.7093
 161   2.0000      -0.605596       -16.4791
 162   2.0000      -0.605307       -16.4712
 163   2.0000      -0.599287       -16.3074
 164   2.0000      -0.594338       -16.1727
 165   2.0000      -0.593935       -16.1618
 166   2.0000      -0.586915       -15.9708
 167   2.0000      -0.583115       -15.8674
 168   2.0000      -0.580057       -15.7842
 169   2.0000      -0.578511       -15.7421
 170   2.0000      -0.576810       -15.6958
 171   2.0000      -0.572819       -15.5872
 172   2.0000      -0.569630       -15.5004
 173   2.0000      -0.566514       -15.4156
 174   2.0000      -0.561215       -15.2714
 175   2.0000      -0.555946       -15.1281
 176   2.0000      -0.552193       -15.0259
 177   2.0000      -0.549845       -14.9621
 178   2.0000      -0.547782       -14.9059
 179   2.0000      -0.544658       -14.8209
 180   2.0000      -0.541503       -14.7351
 181   2.0000      -0.540589       -14.7102
 182   2.0000      -0.538248       -14.6465
 183   2.0000      -0.535820       -14.5804
 184   2.0000      -0.533738       -14.5237
 185   2.0000      -0.531091       -14.4517
 186   2.0000      -0.529851       -14.4180
 187   2.0000      -0.527800       -14.3622
 188   2.0000      -0.524944       -14.2845
 189   2.0000      -0.520299       -14.1580
 190   2.0000      -0.519204       -14.1282
 191   2.0000      -0.516671       -14.0593
 192   2.0000      -0.513094       -13.9620
 193   2.0000      -0.511385       -13.9155
 194   2.0000      -0.510861       -13.9012
 195   2.0000      -0.509204       -13.8561
 196   2.0000      -0.505407       -13.7528
 197   2.0000      -0.503987       -13.7142
 198   2.0000      -0.501390       -13.6435
 199   2.0000      -0.500897       -13.6301
 200   2.0000      -0.497765       -13.5449
 201   2.0000      -0.497305       -13.5324
 202   2.0000      -0.494184       -13.4474
 203   2.0000      -0.493835       -13.4379
 204   2.0000      -0.492171       -13.3926
 205   2.0000      -0.491155       -13.3650
 206   2.0000      -0.489131       -13.3099
 207   2.0000      -0.482878       -13.1398
 208   2.0000      -0.481366       -13.0986
 209   2.0000      -0.476776       -12.9737
 210   2.0000      -0.473562       -12.8863
 211   2.0000      -0.468036       -12.7359
 212   2.0000      -0.463997       -12.6260
 213   2.0000      -0.458684       -12.4814
 214   2.0000      -0.458273       -12.4703
 215   2.0000      -0.450799       -12.2669
 216   2.0000      -0.450393       -12.2558
 217   2.0000      -0.448935       -12.2161
 218   2.0000      -0.446949       -12.1621
 219   2.0000      -0.443681       -12.0732
 220   2.0000      -0.442976       -12.0540
 221   2.0000      -0.438109       -11.9215
 222   2.0000      -0.435955       -11.8629
 223   2.0000      -0.435025       -11.8376
 224   2.0000      -0.432030       -11.7561
 225   2.0000      -0.430908       -11.7256
 226   2.0000      -0.429523       -11.6879
 227   2.0000      -0.424748       -11.5580
 228   2.0000      -0.418510       -11.3882
 229   2.0000      -0.416632       -11.3371
 230   2.0000      -0.414524       -11.2798
 231   2.0000      -0.405343       -11.0299
 232   2.0000      -0.401966       -10.9380
 233   2.0000      -0.401681       -10.9303
 234   2.0000      -0.397789       -10.8244
 235   2.0000      -0.397121       -10.8062
 236   2.0000      -0.393991       -10.7210
 237   2.0000      -0.392476       -10.6798
 238   2.0000      -0.389814       -10.6074
 239   2.0000      -0.372246       -10.1293
 240   2.0000      -0.361408        -9.8344
 241   2.0000      -0.358092        -9.7442
 242   2.0000      -0.356056        -9.6888
 243   2.0000      -0.354539        -9.6475
 244   2.0000      -0.354048        -9.6341
 245   2.0000      -0.351678        -9.5696
 246   2.0000      -0.350047        -9.5253
 247   2.0000      -0.348823        -9.4920
 248   2.0000      -0.340357        -9.2616
 249   2.0000      -0.334227        -9.0948
 250   2.0000      -0.325075        -8.8457
 251   2.0000      -0.317622        -8.6429
 252   2.0000      -0.315343        -8.5809
 253   2.0000      -0.314885        -8.5685
 254   2.0000      -0.311134        -8.4664
 255   2.0000      -0.298992        -8.1360
 256   2.0000      -0.294633        -8.0174
 257   2.0000      -0.291236        -7.9249
 258   2.0000      -0.289921        -7.8892
 259   2.0000      -0.282395        -7.6844
 260   2.0000      -0.275423        -7.4946
 261   2.0000      -0.269589        -7.3359
 262   2.0000      -0.226987        -6.1766
 263   0.0000      -0.116211        -3.1622
 264   0.0000      -0.113220        -3.0809
 265   0.0000      -0.088962        -2.4208
 266   0.0000      -0.086050        -2.3415
 267   0.0000      -0.065433        -1.7805

MULLIKEN ATOMIC CHARGES
-----------------------
   0 C :   -0.115411
   1 S :    0.150010
   2 C :   -0.137340
   3 C :   -0.048166
   4 C :    0.206727
   5 O :   -0.191207
   6 C :    0.202552
   7 O :   -0.114462
   8 C :    0.004000
   9 O :   -0.121144
  10 S :    0.128890
  11 C :    0.042693
  12 C :   -0.031498
  13 C :    0.011565
  14 C :    0.052816
  15 N :   -0.027098
  16 C :   -0.001594
  17 C :   -0.006512
  18 C :   -0.004944
  19 S :   -0.125175
  20 C :   -0.027289
  21 C :    0.010367
  22 N :   -0.026215
  23 C :    0.054590
  24 C :    0.005517
  25 C :    0.084958
  26 C :   -0.134555
  27 C :    0.031957
  28 C :   -0.089111
  29 C :    0.020682
  30 C :    0.138017
  31 N :   -0.228525
  32 C :    0.129701
  33 N :   -0.227119
  34 C :    0.114892
  35 C :   -0.133475
  36 C :    0.128421
  37 C :   -0.036577
  38 C :    0.024109
  39 C :    0.011532
  40 C :    0.045303
  41 C :   -0.018198
  42 C :    0.023983
  43 C :   -0.037926
  44 C :   -0.004510
  45 C :    0.000480
  46 C :    0.057747
  47 N :   -0.023354
  48 C :    0.021068
  49 C :   -0.006198
  50 C :   -0.004168
  51 S :   -0.136043
  52 C :   -0.040295
  53 C :   -0.007887
  54 N :   -0.012585
  55 C :    0.059465
  56 C :    0.007980
  57 C :   -0.149293
  58 S :    0.202930
  59 C :   -0.129545
  60 C :   -0.040336
  61 C :    0.181315
  62 O :   -0.214308
  63 C :    0.215294
  64 O :   -0.113264
  65 C :    0.005908
  66 O :   -0.117242
  67 S :    0.114957
  68 C :   -0.006884
  69 C :   -0.012069
  70 H :    0.037136
  71 H :   -0.009010
  72 H :   -0.020164
  73 H :    0.003827
  74 H :    0.009786
  75 H :   -0.011420
  76 H :   -0.024811
  77 H :   -0.014608
  78 H :   -0.004887
  79 H :    0.109195
  80 H :    0.098828
  81 H :   -0.007668
  82 H :   -0.014152
  83 H :    0.097945
  84 H :    0.090474
  85 H :    0.000552
  86 H :    0.037544
  87 H :   -0.007291
  88 H :   -0.029419
  89 H :   -0.033846
  90 H :   -0.028765
  91 H :    0.013992
  92 H :   -0.005507
  93 H :    0.011431
  94 H :    0.027048
  95 H :    0.008489
  96 H :    0.037558
  97 H :    0.038838
Sum of atomic charges:   -0.0000000

LOEWDIN ATOMIC CHARGES
----------------------
   0 C :   -0.189728
   1 S :    0.466120
   2 C :   -0.190350
   3 C :   -0.218276
   4 C :   -0.009893
   5 O :   -0.021003
   6 C :    0.046514
   7 O :   -0.092836
   8 C :   -0.107255
   9 O :   -0.096716
  10 S :    0.400806
  11 C :   -0.009290
  12 C :   -0.038378
  13 C :   -0.034858
  14 C :    0.078033
  15 N :   -0.076934
  16 C :    0.029680
  17 C :   -0.043029
  18 C :   -0.130585
  19 S :    0.076307
  20 C :   -0.054804
  21 C :    0.039154
  22 N :   -0.079203
  23 C :    0.088239
  24 C :   -0.016089
  25 C :   -0.032063
  26 C :   -0.002197
  27 C :   -0.028466
  28 C :   -0.029406
  29 C :   -0.041157
  30 C :    0.029046
  31 N :   -0.110312
  32 C :    0.028644
  33 N :   -0.123508
  34 C :   -0.016369
  35 C :    0.070187
  36 C :   -0.028903
  37 C :   -0.031030
  38 C :   -0.012580
  39 C :   -0.037931
  40 C :   -0.028649
  41 C :   -0.009659
  42 C :   -0.018405
  43 C :    0.021233
  44 C :   -0.035120
  45 C :   -0.030151
  46 C :    0.089254
  47 N :   -0.076646
  48 C :    0.036295
  49 C :   -0.042461
  50 C :   -0.139383
  51 S :    0.037767
  52 C :   -0.049811
  53 C :    0.037450
  54 N :   -0.071573
  55 C :    0.091082
  56 C :   -0.047441
  57 C :   -0.191134
  58 S :    0.507708
  59 C :   -0.183256
  60 C :   -0.228538
  61 C :    0.003407
  62 O :   -0.017635
  63 C :    0.049924
  64 O :   -0.089140
  65 C :   -0.106422
  66 O :   -0.093839
  67 S :    0.384262
  68 C :   -0.046687
  69 C :   -0.019369
  70 H :    0.036439
  71 H :    0.005157
  72 H :    0.023019
  73 H :    0.024084
  74 H :    0.026048
  75 H :    0.023350
  76 H :    0.026613
  77 H :    0.001000
  78 H :    0.017487
  79 H :    0.057769
  80 H :    0.058603
  81 H :   -0.000595
  82 H :    0.016074
  83 H :    0.051207
  84 H :    0.053649
  85 H :    0.032603
  86 H :    0.059368
  87 H :    0.027005
  88 H :    0.032544
  89 H :    0.029186
  90 H :    0.015211
  91 H :    0.028937
  92 H :    0.028374
  93 H :    0.025538
  94 H :    0.027958
  95 H :    0.032778
  96 H :    0.024601
  97 H :    0.033353

  Mayer bond orders larger than 0.100000
B(  0-C ,  1-S ) :   1.1550 B(  0-C ,  4-C ) :   1.5687 B(  0-C , 70-H ) :   0.9703
B(  1-S ,  2-C ) :   1.1310 B(  2-C ,  3-C ) :   1.5135 B(  2-C , 11-C ) :   1.1805
B(  3-C ,  4-C ) :   1.2417 B(  3-C , 10-S ) :   0.9843 B(  4-C ,  5-O ) :   1.0492
B(  5-O ,  6-C ) :   1.0968 B(  6-C ,  7-O ) :   2.2402 B(  6-C ,  8-C ) :   0.7978
B(  8-C ,  9-O ) :   2.1642 B(  8-C , 10-S ) :   1.0458 B(  9-O , 10-S ) :   0.1367
B( 11-C , 12-C ) :   1.6367 B( 11-C , 71-H ) :   0.9300 B( 12-C , 13-C ) :   1.1428
B( 12-C , 72-H ) :   0.9687 B( 13-C , 14-C ) :   1.0214 B( 13-C , 17-C ) :   1.4612
B( 14-C , 15-N ) :   1.7232 B( 14-C , 73-H ) :   0.9922 B( 15-N , 16-C ) :   1.2665
B( 16-C , 17-C ) :   1.0806 B( 16-C , 21-C ) :   1.5138 B( 17-C , 18-C ) :   1.0591
B( 18-C , 19-S ) :   1.6605 B( 18-C , 20-C ) :   1.0401 B( 19-S , 71-H ) :   0.1310
B( 20-C , 21-C ) :   1.0701 B( 20-C , 24-C ) :   1.5246 B( 21-C , 22-N ) :   1.2609
B( 22-N , 23-C ) :   1.7264 B( 23-C , 24-C ) :   1.0358 B( 23-C , 74-H ) :   0.9872
B( 24-C , 25-C ) :   1.0199 B( 25-C , 26-C ) :   1.4687 B( 25-C , 42-C ) :   1.1436
B( 26-C , 27-C ) :   1.1410 B( 26-C , 75-H ) :   0.9813 B( 27-C , 28-C ) :   1.4438
B( 27-C , 40-C ) :   1.1232 B( 28-C , 29-C ) :   1.0431 B( 28-C , 34-C ) :   1.1156
B( 29-C , 30-C ) :   1.0330 B( 29-C , 32-C ) :   1.0285 B( 29-C , 76-H ) :   0.8733
B( 30-C , 31-N ) :   1.1068 B( 30-C , 77-H ) :   0.9424 B( 30-C , 78-H ) :   0.9405
B( 31-N , 79-H ) :   0.9571 B( 31-N , 80-H ) :   0.9693 B( 32-C , 33-N ) :   1.0923
B( 32-C , 81-H ) :   0.9433 B( 32-C , 82-H ) :   0.9370 B( 33-N , 83-H ) :   0.9705
B( 33-N , 84-H ) :   0.9686 B( 34-C , 35-C ) :   1.6414 B( 34-C , 39-C ) :   1.0471
B( 35-C , 36-C ) :   0.9625 B( 35-C , 85-H ) :   0.9792 B( 36-C , 37-C ) :   0.9900
B( 36-C , 43-C ) :   0.9571 B( 36-C , 86-H ) :   0.8714 B( 37-C , 38-C ) :   1.7021
B( 37-C , 87-H ) :   0.9732 B( 38-C , 39-C ) :   1.1349 B( 38-C , 88-H ) :   0.9902
B( 39-C , 40-C ) :   1.4323 B( 40-C , 41-C ) :   1.1398 B( 41-C , 42-C ) :   1.6066
B( 41-C , 89-H ) :   0.9950 B( 42-C , 90-H ) :   0.9706 B( 43-C , 44-C ) :   1.7585
B( 43-C , 91-H ) :   0.9667 B( 44-C , 45-C ) :   1.0876 B( 44-C , 92-H ) :   0.9670
B( 45-C , 46-C ) :   1.0111 B( 45-C , 49-C ) :   1.5368 B( 46-C , 47-N ) :   1.7310
B( 46-C , 93-H ) :   0.9896 B( 47-N , 48-C ) :   1.2606 B( 48-C , 49-C ) :   1.0702
B( 48-C , 53-C ) :   1.5257 B( 49-C , 50-C ) :   1.0362 B( 50-C , 51-S ) :   1.6859
B( 50-C , 52-C ) :   1.0401 B( 52-C , 53-C ) :   1.0788 B( 52-C , 56-C ) :   1.5101
B( 53-C , 54-N ) :   1.2685 B( 54-N , 55-C ) :   1.7221 B( 55-C , 56-C ) :   1.0279
B( 55-C , 94-H ) :   0.9880 B( 56-C , 57-C ) :   1.1412 B( 57-C , 58-S ) :   1.1321
B( 57-C , 59-C ) :   0.1100 B( 57-C , 61-C ) :   1.4744 B( 58-S , 59-C ) :   1.1242
B( 59-C , 60-C ) :   1.5229 B( 59-C , 68-C ) :   1.1306 B( 60-C , 61-C ) :   1.2862
B( 60-C , 67-S ) :   0.9531 B( 61-C , 62-O ) :   1.0685 B( 62-O , 63-C ) :   1.0692
B( 63-C , 64-O ) :   2.2336 B( 63-C , 65-C ) :   0.8043 B( 65-C , 66-O ) :   2.1680
B( 65-C , 67-S ) :   1.0510 B( 66-O , 67-S ) :   0.1416 B( 68-C , 69-C ) :   1.9174
B( 68-C , 95-H ) :   0.9591 B( 69-C , 96-H ) :   0.9586 B( 69-C , 97-H ) :   0.9490

-----------------------------------------------------------------------------
         ABSORPTION SPECTRUM VIA TRANSITION ELECTRIC DIPOLE MOMENTS
-----------------------------------------------------------------------------
State   Energy  Wavelength   fosc         T2         TX        TY        TZ
        (cm-1)    (nm)                  (au**2)     (au)      (au)      (au)
-----------------------------------------------------------------------------
   0   10010.9    998.9   0.145812630   4.79509  -0.66607  -0.29524  -2.06501
   1   12624.5    792.1   0.039556618   1.03152   0.53769   0.00480   0.86162
   2   13827.3    723.2   0.047276321   1.12560  -0.85425   0.55492  -0.29653
   3   15766.8    634.2   0.050194967   1.04808   0.31570   0.05332   0.97240
   4   16346.4    611.8   0.000186899   0.00376  -0.03928  -0.03396   0.03268
   5   16894.3    591.9   0.193484261   3.77034  -0.36419   0.46982   1.84850
   6   17181.3    582.0   0.224222036   4.29634  -1.81508  -0.15415  -0.98898
   7   17459.2    572.8   0.024141480   0.45521  -0.19519   0.45018  -0.46309
   8   18360.5    544.6   0.112757235   2.02178   1.07925  -0.21978   0.89928
   9   18546.1    539.2   0.008018977   0.14234   0.30530  -0.05902   0.21366
  10   18996.9    526.4   0.081772532   1.41710   0.57962  -0.07446   1.03711
  11   20020.3    499.5   0.023879067   0.39267   0.17337  -0.22329   0.55924
  12   20122.3    497.0   0.015700313   0.25687  -0.36788  -0.07813  -0.33974
  13   22567.3    443.1   0.479721551   6.99820   0.85469  -0.77319  -2.38115
  14   23049.2    433.9   0.317543007   4.53546   1.91966   0.42672   0.81747
  15   23491.8    425.7   0.040498676   0.56754   0.15535   0.14204   0.72335
  16   24595.1    406.6   0.184259050   2.46635   0.02421   0.32494   1.53629
  17   25380.7    394.0   0.123966301   1.60796   1.14431   0.26496   0.47782
  18   25807.8    387.5   0.004288367   0.05470   0.08131   0.15623   0.15390
  19   25932.5    385.6   0.040263287   0.51114  -0.64222   0.05841   0.30867
  20   26218.9    381.4   0.007849753   0.09856   0.21132   0.13068   0.19191
  21   26281.8    380.5   0.006957443   0.08715  -0.25062   0.13846  -0.07191
  22   26519.2    377.1   0.430337132   5.34226  -0.96720  -0.12770  -2.09535
  23   26929.1    371.3   0.163354889   1.99703   0.54164   0.17798   1.29305
  24   27001.8    370.3   0.106399336   1.29724  -0.71642   0.07088  -0.88259
  25   27678.5    361.3   0.001078527   0.01283   0.01682   0.05916   0.09511
  26   27908.0    358.3   0.002413614   0.02847   0.16601   0.00578   0.02966
  27   28257.5    353.9   0.003608748   0.04204   0.08523   0.00386   0.18645
  28   28347.8    352.8   0.263706123   3.06251   1.37507  -0.19821   1.06415
  29   28597.9    349.7   0.151487055   1.74388   0.81347   0.02015   1.04007
  30   28715.2    348.2   0.020951373   0.24020   0.18453  -0.00822   0.45396
  31   28846.3    346.7   0.034639515   0.39533  -0.49631  -0.23038   0.30973
  32   29001.6    344.8   0.007225475   0.08202  -0.20953  -0.11693  -0.15635
  33   29120.3    343.4   0.147222882   1.66439  -1.01038  -0.02786  -0.80172
  34   30031.9    333.0   0.009208567   0.10094   0.21246  -0.19508   0.13323
  35   30062.1    332.6   0.002900525   0.03176  -0.03801   0.01863   0.17312
  36   30263.6    330.4   0.009765967   0.10624   0.00276   0.10872   0.30726
  37   30448.4    328.4   0.005218446   0.05642  -0.05829  -0.00317   0.23025
  38   30511.1    327.7   0.013640746   0.14718   0.35459  -0.07469   0.12598
  39   31182.8    320.7   0.010860414   0.11466   0.05137   0.01341   0.33443
  40   31236.1    320.1   0.006625741   0.06983  -0.08508   0.01347  -0.24982
  41   31715.0    315.3   0.069126699   0.71756  -0.54686   0.05237  -0.64480
  42   31860.6    313.9   0.024484601   0.25300  -0.14575   0.11887   0.46650
  43   32118.2    311.4   0.027588172   0.28278   0.04944   0.10709   0.51852
  44   32415.4    308.5   0.211549174   2.14850  -0.81840   0.22854  -1.19436
  45   32564.4    307.1   0.027069691   0.27366   0.12454   0.38913  -0.32670
  46   32632.5    306.4   0.000658451   0.00664   0.02780  -0.04458   0.06231
  47   32707.0    305.7   0.006567487   0.06611  -0.03816  -0.05951  -0.24720
  48   32776.3    305.1   0.002337245   0.02348  -0.08791  -0.03659  -0.12004
  49   32979.0    303.2   0.002759931   0.02755  -0.02510   0.13622   0.09146
  50   33154.6    301.6   0.484961234   4.81548  -1.69408   0.10524  -1.39086
  51   33506.0    298.5   0.008042361   0.07902  -0.27399  -0.06068   0.01635
  52   33805.0    295.8   0.012915763   0.12578  -0.33812  -0.00192  -0.10701
  53   33830.3    295.6   0.008198938   0.07979   0.14921  -0.07530  -0.22771
  54   34010.6    294.0   0.047329442   0.45813   0.30444  -0.07670   0.59964
  55   34188.9    292.5   0.004992101   0.04807  -0.16634   0.05163  -0.13318
  56   34297.6    291.6   0.045513075   0.43687   0.63401  -0.15660  -0.10187
  57   34321.2    291.4   0.053413986   0.51235   0.24093  -0.32390  -0.59109
  58   34503.2    289.8   0.008154283   0.07780   0.22203  -0.16699  -0.02489
  59   34670.4    288.4   0.011792187   0.11197   0.20066  -0.09523   0.25028
  60   34739.8    287.9   0.015462451   0.14653   0.34803   0.05311   0.15028
  61   34785.5    287.5   0.034614331   0.32759  -0.10871   0.11426  -0.55020
  62   34936.7    286.2   0.006592998   0.06213   0.06688  -0.09765   0.21936
  63   34994.6    285.8   0.130743002   1.22997  -0.01905   0.22933  -1.08490
  64   35278.8    283.5   0.107111691   0.99954  -0.53731  -0.27908  -0.79558
  65   35577.9    281.1   0.005442472   0.05036   0.05174  -0.10697  -0.19037
  66   35616.6    280.8   0.001377163   0.01273   0.08380   0.01915  -0.07308
  67   35803.2    279.3   0.150149665   1.38063  -0.35876   0.73995  -0.83929
  68   35970.9    278.0   0.001896932   0.01736   0.10778   0.01126  -0.07495
  69   36054.3    277.4   0.011365925   0.10378   0.15246  -0.04652   0.27995
  70   36167.3    276.5   0.002582817   0.02351  -0.08088   0.07848   0.10397
  71   36219.4    276.1   0.136706403   1.24258   0.89622  -0.42004  -0.51278
  72   36351.4    275.1   0.004053358   0.03671   0.10284  -0.13739   0.08518
  73   36714.8    272.4   0.053886492   0.48319  -0.46159   0.07340  -0.51452
  74   36886.8    271.1   0.014546548   0.12983  -0.05634   0.11640  -0.33631
  75   37046.2    269.9   0.046354837   0.41193  -0.61766   0.16611  -0.05332
  76   37111.5    269.5   0.044438316   0.39421   0.57568  -0.14263   0.20605
  77   37375.7    267.6   0.658433154   5.79960  -2.36641   0.44686  -0.00508
  78   37608.0    265.9   0.117190345   1.02586   0.99050   0.02302   0.21033
  79   37701.2    265.2   0.320517347   2.79880  -0.45431  -1.40564   0.78522
  80   38025.3    263.0   0.057505005   0.49786   0.60900   0.34742  -0.07922
  81   38274.1    261.3   0.007497321   0.06449  -0.16579  -0.11769   0.15215
  82   38291.3    261.2   0.071349462   0.61343   0.60151  -0.33630   0.37219
  83   38449.1    260.1   0.005522423   0.04728  -0.21530   0.02925   0.00863
  84   38621.7    258.9   0.021792713   0.18576  -0.07999  -0.26157   0.33309
  85   38698.4    258.4   0.000037601   0.00032   0.00748   0.01130  -0.01167
  86   38750.7    258.1   0.001355055   0.01151  -0.10338   0.02450  -0.01499
  87   39159.9    255.4   0.077117670   0.64832  -0.47265   0.18154  -0.62607
  88   39415.1    253.7   0.020624261   0.17226  -0.34943  -0.06612   0.21399
  89   39512.3    253.1   0.072895212   0.60735   0.02870  -0.61765   0.47438
  90   39726.8    251.7   0.048754823   0.40403   0.16420   0.44648  -0.42157
  91   39817.3    251.1   0.339727792   2.80889   0.56172   1.19739  -1.02937
  92   39904.8    250.6   0.198791667   1.64002  -1.23336   0.31601   0.13775
  93   40041.3    249.7   0.014062108   0.11562  -0.19253  -0.17257   0.22083

FINAL SINGLE POINT ENERGY     -5162.928974620588

DIPOLE MOMENT
-------------
                                X             Y             Z
Electronic contribution:     45.24384     -31.04166      -5.58470
Nuclear contribution   :    -45.82150      33.75224       4.07561
                        -----------------------------------------
Total Dipole Moment    :     -0.57766       2.71058      -1.50909
                        -----------------------------------------
Magnitude (a.u.)       :      3.15567
Magnitude (Debye)      :      8.02109

Rotational constants in cm-1:     0.001454     0.000197     0.000180
Rotational constants in MHz :    43.603284     5.907845     5.393215

                             ****ORCA TERMINATED NORMALLY****
TOTAL RUN TIME: 0 days 0 hours 9 minutes 32 seconds 432 msec
