                         Program Version 4.2.0 -  RELEASE  -
|  1> # ORCA input file
|  2> # SCF done       -159.799844284876          0.000288861452
|  3> ! CAM-B3LYP def2-SVP def2/J RIJCOSX Grid4 TightSCF
|  4> %maxcore 5000
|  5> %tddft
|  6>     Mode sTDDFT
|  7>     Ethresh 5.0
|  8>     maxcore 5000
|  9> end
| 10>
| 11> %pal
| 12>   nprocs 6
| 13>   end
| 14> * xyz 0 1
| 15>    C        2.98338        -5.95451        -2.82099
| 16>    C        2.88010        -6.81172        -1.74050
| 17>    C        1.74540        -6.77951        -0.95245
| 18>    F        1.64134        -7.66348         0.05537
| 19>    C        0.68764        -5.90102        -1.20406
| 20>    C        0.79029        -5.06096        -2.31212
| 21>    C        1.92896        -5.09814        -3.09152
| 22>    F        2.01600        -4.27191        -4.15148
| 23>    C       -0.48155        -5.86094        -0.34813
| 24>    C       -1.86635        -5.78903        -0.80511
| 25>    N       -2.74902        -5.79025         0.15679
| 26>    C       -2.02998        -5.85033         1.30901
| 27>    C       -0.58517        -5.90765         1.01670
| 28>    C        0.16892        -5.86168         2.25015
| 29>    S        1.79374        -5.64659         2.39834
| 30>    C       -0.83396        -5.87149         3.28254
| 31>    C       -2.17503        -5.83994         2.67294
| 32>    N       -3.13894        -5.75691         3.63224
| 33>    C       -2.49657        -5.68987         4.76383
| 34>    C       -1.04046        -5.74462         4.64232
| 35>    C       -0.09862        -5.69443         5.72393
| 36>    C        1.15585        -6.25487         5.57030
| 37>    C        2.09636        -6.15953         6.60628
| 38>    C        3.41291        -6.61088         6.68350
| 39>    C        4.15000        -7.35232         5.62514
| 40>    C        5.41132        -6.59037         5.16560
| 41>    N        5.74778        -7.00327         3.82407
| 42>    C        4.47945        -8.78254         6.09286
| 43>    N        5.01589        -9.57020         4.99446
| 44>    C        3.91389        -6.20139         7.97407
| 45>    C        5.12124        -6.34007         8.55647
| 46>    C        5.40692        -5.79565         9.91180
| 47>    C        4.25585        -5.09924        10.56298
| 48>    C        3.05073        -4.97410         9.97455
| 49>    C        2.83221        -5.49392         8.67821
| 50>    C        1.73397        -5.47759         7.83799
| 51>    C        0.43365        -4.94367         7.98015
| 52>    C       -0.45140        -5.05470         6.95522
| 53>    C        5.86651        -6.91727        10.81052
| 54>    C        7.07383        -6.94961        11.38242
| 55>    C        7.54936        -7.97567        12.25849
| 56>    C        6.84569        -9.15999        12.75158
| 57>    N        7.54918        -9.91235        13.55169
| 58>    C        8.76366        -9.30084        13.65423
| 59>    C        8.79346        -8.07880        12.83526
| 60>    C       10.06875        -7.42384        12.95657
| 61>    S       10.50813        -5.99974        12.26144
| 62>    C       10.81979        -8.27020        13.85707
| 63>    C        9.97870        -9.41499        14.27724
| 64>    N       10.64553       -10.19962        15.16369
| 65>    C       11.79830        -9.61924        15.34639
| 66>    C       11.98868        -8.39470        14.56544
| 67>    C       13.17926        -7.57114        14.56281
| 68>    C       13.55979        -6.87498        13.41328
| 69>    C       14.70150        -6.10067        13.42434
| 70>    F       15.05781        -5.45190        12.30139
| 71>    C       15.49865        -5.97333        14.55030
| 72>    C       15.13031        -6.65114        15.69822
| 73>    C       13.99441        -7.43773        15.69241
| 74>    F       13.66048        -8.06767        16.83662
| 75>    H        3.85767        -5.94863        -3.45120
| 76>    H        3.66951        -7.50548        -1.50009
| 77>    H       -0.00152        -4.36728        -2.54712
| 78>    H       -2.17611        -5.76844        -1.83533
| 79>    H       -3.04334        -5.64340         5.68982
| 80>    H        1.40521        -6.77184         4.65821
| 81>    H        3.50971        -7.42809         4.74115
| 82>    H        6.22279        -6.75703         5.89309
| 83>    H        5.18971        -5.51813         5.14653
| 84>    H        5.95446        -7.99724         3.81788
| 85>    H        6.54009        -6.48631         3.46387
| 86>    H        3.56439        -9.21888         6.53080
| 87>    H        5.23873        -8.75237         6.87939
| 88>    H        4.31855        -9.66096         4.26181
| 89>    H        5.25252       -10.50361         5.31399
| 90>    H        5.93829        -6.85804         8.07602
| 91>    H        6.24304        -5.08642         9.81887
| 92>    H        4.44227        -4.70789        11.55127
| 93>    H        2.24256        -4.46349        10.47758
| 94>    H        0.15836        -4.44358         8.89689
| 95>    H       -1.43909        -4.62948         7.04665
| 96>    H        5.13806        -7.69698        10.97871
| 97>    H        7.78409        -6.15414        11.19179
| 98>    H        5.83634        -9.43742        12.50293
| 99>    H       12.52689       -10.05459        16.00636
|100>    H       12.96981        -6.94385        12.51413
|101>    H       16.38181        -5.35624        14.52131
|102>    H       15.71432        -6.57768        16.60174
|103> *
|104>
|105>                          ****END OF INPUT****

CARTESIAN COORDINATES (ANGSTROEM)
---------------------------------
  C      2.983380   -5.954510   -2.820990
  C      2.880100   -6.811720   -1.740500
  C      1.745400   -6.779510   -0.952450
  F      1.641340   -7.663480    0.055370
  C      0.687640   -5.901020   -1.204060
  C      0.790290   -5.060960   -2.312120
  C      1.928960   -5.098140   -3.091520
  F      2.016000   -4.271910   -4.151480
  C     -0.481550   -5.860940   -0.348130
  C     -1.866350   -5.789030   -0.805110
  N     -2.749020   -5.790250    0.156790
  C     -2.029980   -5.850330    1.309010
  C     -0.585170   -5.907650    1.016700
  C      0.168920   -5.861680    2.250150
  S      1.793740   -5.646590    2.398340
  C     -0.833960   -5.871490    3.282540
  C     -2.175030   -5.839940    2.672940
  N     -3.138940   -5.756910    3.632240
  C     -2.496570   -5.689870    4.763830
  C     -1.040460   -5.744620    4.642320
  C     -0.098620   -5.694430    5.723930
  C      1.155850   -6.254870    5.570300
  C      2.096360   -6.159530    6.606280
  C      3.412910   -6.610880    6.683500
  C      4.150000   -7.352320    5.625140
  C      5.411320   -6.590370    5.165600
  N      5.747780   -7.003270    3.824070
  C      4.479450   -8.782540    6.092860
  N      5.015890   -9.570200    4.994460
  C      3.913890   -6.201390    7.974070
  C      5.121240   -6.340070    8.556470
  C      5.406920   -5.795650    9.911800
  C      4.255850   -5.099240   10.562980
  C      3.050730   -4.974100    9.974550
  C      2.832210   -5.493920    8.678210
  C      1.733970   -5.477590    7.837990
  C      0.433650   -4.943670    7.980150
  C     -0.451400   -5.054700    6.955220
  C      5.866510   -6.917270   10.810520
  C      7.073830   -6.949610   11.382420
  C      7.549360   -7.975670   12.258490
  C      6.845690   -9.159990   12.751580
  N      7.549180   -9.912350   13.551690
  C      8.763660   -9.300840   13.654230
  C      8.793460   -8.078800   12.835260
  C     10.068750   -7.423840   12.956570
  S     10.508130   -5.999740   12.261440
  C     10.819790   -8.270200   13.857070
  C      9.978700   -9.414990   14.277240
  N     10.645530  -10.199620   15.163690
  C     11.798300   -9.619240   15.346390
  C     11.988680   -8.394700   14.565440
  C     13.179260   -7.571140   14.562810
  C     13.559790   -6.874980   13.413280
  C     14.701500   -6.100670   13.424340
  F     15.057810   -5.451900   12.301390
  C     15.498650   -5.973330   14.550300
  C     15.130310   -6.651140   15.698220
  C     13.994410   -7.437730   15.692410
  F     13.660480   -8.067670   16.836620
  H      3.857670   -5.948630   -3.451200
  H      3.669510   -7.505480   -1.500090
  H     -0.001520   -4.367280   -2.547120
  H     -2.176110   -5.768440   -1.835330
  H     -3.043340   -5.643400    5.689820
  H      1.405210   -6.771840    4.658210
  H      3.509710   -7.428090    4.741150
  H      6.222790   -6.757030    5.893090
  H      5.189710   -5.518130    5.146530
  H      5.954460   -7.997240    3.817880
  H      6.540090   -6.486310    3.463870
  H      3.564390   -9.218880    6.530800
  H      5.238730   -8.752370    6.879390
  H      4.318550   -9.660960    4.261810
  H      5.252520  -10.503610    5.313990
  H      5.938290   -6.858040    8.076020
  H      6.243040   -5.086420    9.818870
  H      4.442270   -4.707890   11.551270
  H      2.242560   -4.463490   10.477580
  H      0.158360   -4.443580    8.896890
  H     -1.439090   -4.629480    7.046650
  H      5.138060   -7.696980   10.978710
  H      7.784090   -6.154140   11.191790
  H      5.836340   -9.437420   12.502930
  H     12.526890  -10.054590   16.006360
  H     12.969810   -6.943850   12.514130
  H     16.381810   -5.356240   14.521310
  H     15.714320   -6.577680   16.601740

 Total Charge           Charge          ....    0
 Multiplicity           Mult            ....    1
 Number of Electrons    NEL             ....  426
 Basis Dimension        Dim             ....  988

ORBITAL ENERGIES
----------------

  NO   OCC          E(Eh)            E(eV)
   0   2.0000     -88.905626     -2419.2451
   1   2.0000     -88.889930     -2418.8180
   2   2.0000     -24.793968      -674.6782
   3   2.0000     -24.778296      -674.2517
   4   2.0000     -24.776334      -674.1983
   5   2.0000     -24.774351      -674.1444
   6   2.0000     -14.420760      -392.4088
   7   2.0000     -14.417314      -392.3151
   8   2.0000     -14.409359      -392.0986
   9   2.0000     -14.406468      -392.0199
  10   2.0000     -14.388746      -391.5377
  11   2.0000     -14.354466      -390.6049
  12   2.0000     -10.368731      -282.1475
  13   2.0000     -10.360664      -281.9280
  14   2.0000     -10.357177      -281.8331
  15   2.0000     -10.355686      -281.7925
  16   2.0000     -10.349029      -281.6114
  17   2.0000     -10.340259      -281.3727
  18   2.0000     -10.336586      -281.2728
  19   2.0000     -10.335354      -281.2393
  20   2.0000     -10.334724      -281.2221
  21   2.0000     -10.332143      -281.1519
  22   2.0000     -10.329572      -281.0820
  23   2.0000     -10.326638      -281.0021
  24   2.0000     -10.325459      -280.9700
  25   2.0000     -10.320643      -280.8390
  26   2.0000     -10.314074      -280.6602
  27   2.0000     -10.308608      -280.5115
  28   2.0000     -10.308037      -280.4959
  29   2.0000     -10.307103      -280.4705
  30   2.0000     -10.303001      -280.3589
  31   2.0000     -10.300541      -280.2920
  32   2.0000     -10.299852      -280.2732
  33   2.0000     -10.298725      -280.2426
  34   2.0000     -10.298387      -280.2334
  35   2.0000     -10.297164      -280.2001
  36   2.0000     -10.296858      -280.1917
  37   2.0000     -10.293950      -280.1126
  38   2.0000     -10.293368      -280.0968
  39   2.0000     -10.289735      -279.9979
  40   2.0000     -10.289280      -279.9855
  41   2.0000     -10.289146      -279.9819
  42   2.0000     -10.287047      -279.9248
  43   2.0000     -10.286873      -279.9200
  44   2.0000     -10.285755      -279.8896
  45   2.0000     -10.284608      -279.8584
  46   2.0000     -10.284311      -279.8503
  47   2.0000     -10.280988      -279.7599
  48   2.0000     -10.279166      -279.7103
  49   2.0000     -10.276008      -279.6244
  50   2.0000     -10.273131      -279.5461
  51   2.0000     -10.272759      -279.5360
  52   2.0000     -10.271406      -279.4992
  53   2.0000     -10.271319      -279.4968
  54   2.0000     -10.270520      -279.4751
  55   2.0000     -10.266599      -279.3684
  56   2.0000     -10.264687      -279.3163
  57   2.0000     -10.264636      -279.3149
  58   2.0000     -10.264021      -279.2982
  59   2.0000     -10.261614      -279.2327
  60   2.0000      -8.001285      -217.7260
  61   2.0000      -7.985401      -217.2938
  62   2.0000      -5.970138      -162.4557
  63   2.0000      -5.969727      -162.4445
  64   2.0000      -5.960628      -162.1969
  65   2.0000      -5.954361      -162.0264
  66   2.0000      -5.953952      -162.0153
  67   2.0000      -5.944515      -161.7585
  68   2.0000      -1.307892       -35.5895
  69   2.0000      -1.293747       -35.2047
  70   2.0000      -1.290757       -35.1233
  71   2.0000      -1.289266       -35.0827
  72   2.0000      -1.087910       -29.6035
  73   2.0000      -1.076604       -29.2959
  74   2.0000      -1.068634       -29.0790
  75   2.0000      -1.057565       -28.7778
  76   2.0000      -0.986475       -26.8434
  77   2.0000      -0.976737       -26.5784
  78   2.0000      -0.971566       -26.4377
  79   2.0000      -0.968269       -26.3479
  80   2.0000      -0.966896       -26.3106
  81   2.0000      -0.954537       -25.9743
  82   2.0000      -0.950163       -25.8552
  83   2.0000      -0.936991       -25.4968
  84   2.0000      -0.924661       -25.1613
  85   2.0000      -0.904096       -24.6017
  86   2.0000      -0.903249       -24.5787
  87   2.0000      -0.893172       -24.3044
  88   2.0000      -0.878400       -23.9025
  89   2.0000      -0.867528       -23.6066
  90   2.0000      -0.858259       -23.3544
  91   2.0000      -0.848282       -23.0829
  92   2.0000      -0.847259       -23.0551
  93   2.0000      -0.841366       -22.8947
  94   2.0000      -0.838913       -22.8280
  95   2.0000      -0.836451       -22.7610
  96   2.0000      -0.832230       -22.6461
  97   2.0000      -0.825925       -22.4746
  98   2.0000      -0.821862       -22.3640
  99   2.0000      -0.798051       -21.7161
 100   2.0000      -0.780359       -21.2346
 101   2.0000      -0.772455       -21.0196
 102   2.0000      -0.755918       -20.5696
 103   2.0000      -0.749713       -20.4007
 104   2.0000      -0.740955       -20.1624
 105   2.0000      -0.734452       -19.9854
 106   2.0000      -0.729453       -19.8494
 107   2.0000      -0.720813       -19.6143
 108   2.0000      -0.717328       -19.5195
 109   2.0000      -0.711350       -19.3568
 110   2.0000      -0.706929       -19.2365
 111   2.0000      -0.704896       -19.1812
 112   2.0000      -0.690773       -18.7969
 113   2.0000      -0.688869       -18.7451
 114   2.0000      -0.674770       -18.3614
 115   2.0000      -0.669712       -18.2238
 116   2.0000      -0.663617       -18.0579
 117   2.0000      -0.657805       -17.8998
 118   2.0000      -0.653187       -17.7741
 119   2.0000      -0.649873       -17.6839
 120   2.0000      -0.640010       -17.4156
 121   2.0000      -0.632794       -17.2192
 122   2.0000      -0.627564       -17.0769
 123   2.0000      -0.620947       -16.8968
 124   2.0000      -0.616260       -16.7693
 125   2.0000      -0.614599       -16.7241
 126   2.0000      -0.607956       -16.5433
 127   2.0000      -0.604388       -16.4462
 128   2.0000      -0.596966       -16.2443
 129   2.0000      -0.592672       -16.1274
 130   2.0000      -0.586710       -15.9652
 131   2.0000      -0.581044       -15.8110
 132   2.0000      -0.577209       -15.7067
 133   2.0000      -0.573164       -15.5966
 134   2.0000      -0.566815       -15.4238
 135   2.0000      -0.563944       -15.3457
 136   2.0000      -0.561541       -15.2803
 137   2.0000      -0.559937       -15.2367
 138   2.0000      -0.554076       -15.0772
 139   2.0000      -0.548603       -14.9283
 140   2.0000      -0.547774       -14.9057
 141   2.0000      -0.547077       -14.8867
 142   2.0000      -0.545999       -14.8574
 143   2.0000      -0.544023       -14.8036
 144   2.0000      -0.539872       -14.6907
 145   2.0000      -0.538353       -14.6493
 146   2.0000      -0.534996       -14.5580
 147   2.0000      -0.533692       -14.5225
 148   2.0000      -0.529863       -14.4183
 149   2.0000      -0.528846       -14.3906
 150   2.0000      -0.523192       -14.2368
 151   2.0000      -0.522574       -14.2200
 152   2.0000      -0.516620       -14.0579
 153   2.0000      -0.513961       -13.9856
 154   2.0000      -0.513634       -13.9767
 155   2.0000      -0.512696       -13.9512
 156   2.0000      -0.511305       -13.9133
 157   2.0000      -0.504433       -13.7263
 158   2.0000      -0.500712       -13.6251
 159   2.0000      -0.499522       -13.5927
 160   2.0000      -0.496538       -13.5115
 161   2.0000      -0.494093       -13.4449
 162   2.0000      -0.491134       -13.3644
 163   2.0000      -0.489337       -13.3155
 164   2.0000      -0.488569       -13.2946
 165   2.0000      -0.484377       -13.1806
 166   2.0000      -0.481314       -13.0972
 167   2.0000      -0.476595       -12.9688
 168   2.0000      -0.474077       -12.9003
 169   2.0000      -0.469067       -12.7640
 170   2.0000      -0.466738       -12.7006
 171   2.0000      -0.465930       -12.6786
 172   2.0000      -0.460179       -12.5221
 173   2.0000      -0.457508       -12.4494
 174   2.0000      -0.451003       -12.2724
 175   2.0000      -0.449747       -12.2382
 176   2.0000      -0.447760       -12.1842
 177   2.0000      -0.444040       -12.0830
 178   2.0000      -0.438412       -11.9298
 179   2.0000      -0.436822       -11.8865
 180   2.0000      -0.435262       -11.8441
 181   2.0000      -0.432780       -11.7765
 182   2.0000      -0.430988       -11.7278
 183   2.0000      -0.423109       -11.5134
 184   2.0000      -0.418600       -11.3907
 185   2.0000      -0.414499       -11.2791
 186   2.0000      -0.411619       -11.2007
 187   2.0000      -0.408305       -11.1105
 188   2.0000      -0.403083       -10.9684
 189   2.0000      -0.396052       -10.7771
 190   2.0000      -0.385755       -10.4969
 191   2.0000      -0.376396       -10.2423
 192   2.0000      -0.369532       -10.0555
 193   2.0000      -0.363946        -9.9035
 194   2.0000      -0.358702        -9.7608
 195   2.0000      -0.356291        -9.6952
 196   2.0000      -0.352038        -9.5794
 197   2.0000      -0.346969        -9.4415
 198   2.0000      -0.343111        -9.3365
 199   2.0000      -0.330983        -9.0065
 200   2.0000      -0.327166        -8.9026
 201   2.0000      -0.320972        -8.7341
 202   2.0000      -0.319770        -8.7014
 203   2.0000      -0.310378        -8.4458
 204   2.0000      -0.305994        -8.3265
 205   2.0000      -0.304940        -8.2978
 206   2.0000      -0.295095        -8.0300
 207   2.0000      -0.294347        -8.0096
 208   2.0000      -0.291258        -7.9255
 209   2.0000      -0.283452        -7.7131
 210   2.0000      -0.282069        -7.6755
 211   2.0000      -0.273639        -7.4461
 212   2.0000      -0.222565        -6.0563
 213   0.0000      -0.114106        -3.1050
 214   0.0000      -0.106097        -2.8871
 215   0.0000      -0.085545        -2.3278
 216   0.0000      -0.075897        -2.0653
 217   0.0000      -0.059045        -1.6067

MULLIKEN ATOMIC CHARGES
-----------------------
   0 C :   -0.037180
   1 C :   -0.043133
   2 C :    0.272957
   3 F :   -0.182258
   4 C :   -0.018038
   5 C :   -0.080669
   6 C :    0.297733
   7 F :   -0.199474
   8 C :   -0.020783
   9 C :    0.054128
  10 N :   -0.032785
  11 C :   -0.000797
  12 C :    0.012531
  13 C :   -0.018310
  14 S :   -0.111975
  15 C :   -0.027309
  16 C :    0.009475
  17 N :   -0.027797
  18 C :    0.051705
  19 C :    0.010640
  20 C :    0.067109
  21 C :   -0.041079
  22 C :    0.044108
  23 C :   -0.011946
  24 C :   -0.065675
  25 C :    0.156926
  26 N :   -0.221364
  27 C :    0.139126
  28 N :   -0.217373
  29 C :    0.106810
  30 C :   -0.138558
  31 C :    0.140938
  32 C :   -0.047328
  33 C :    0.024337
  34 C :    0.002140
  35 C :    0.042559
  36 C :   -0.004809
  37 C :   -0.020894
  38 C :   -0.042312
  39 C :   -0.005161
  40 C :    0.002171
  41 C :    0.057876
  42 N :   -0.028709
  43 C :    0.034533
  44 C :   -0.005000
  45 C :   -0.001736
  46 S :   -0.122993
  47 C :   -0.011632
  48 C :   -0.011809
  49 N :   -0.028425
  50 C :    0.065409
  51 C :   -0.007781
  52 C :   -0.006599
  53 C :   -0.048940
  54 C :    0.293470
  55 F :   -0.193994
  56 C :   -0.039194
  57 C :   -0.041341
  58 C :    0.236884
  59 F :   -0.191054
  60 H :    0.003985
  61 H :    0.003692
  62 H :   -0.009266
  63 H :    0.005487
  64 H :    0.008936
  65 H :   -0.031838
  66 H :   -0.014886
  67 H :   -0.033977
  68 H :    0.001954
  69 H :    0.080730
  70 H :    0.082061
  71 H :   -0.004466
  72 H :   -0.018771
  73 H :    0.105460
  74 H :    0.096454
  75 H :   -0.001141
  76 H :    0.039896
  77 H :   -0.010281
  78 H :   -0.033562
  79 H :   -0.037927
  80 H :   -0.031750
  81 H :    0.008606
  82 H :   -0.004956
  83 H :    0.010358
  84 H :    0.016318
  85 H :   -0.010078
  86 H :    0.007018
  87 H :    0.004592
Sum of atomic charges:   -0.0000000

LOEWDIN ATOMIC CHARGES
----------------------
   0 C :   -0.035447
   1 C :   -0.032204
   2 C :    0.089254
   3 F :   -0.059170
   4 C :   -0.046346
   5 C :   -0.034725
   6 C :    0.077589
   7 F :   -0.073067
   8 C :   -0.038506
   9 C :    0.081064
  10 N :   -0.086411
  11 C :    0.028778
  12 C :   -0.021499
  13 C :   -0.143272
  14 S :    0.080692
  15 C :   -0.047661
  16 C :    0.045773
  17 N :   -0.083232
  18 C :    0.088929
  19 C :   -0.024672
  20 C :   -0.042065
  21 C :    0.026449
  22 C :   -0.022306
  23 C :   -0.012930
  24 C :   -0.040723
  25 C :    0.031570
  26 N :   -0.123645
  27 C :    0.025706
  28 N :   -0.103810
  29 C :   -0.015912
  30 C :    0.067767
  31 C :   -0.028414
  32 C :   -0.037188
  33 C :   -0.012722
  34 C :   -0.038716
  35 C :   -0.028461
  36 C :   -0.011424
  37 C :   -0.028135
  38 C :    0.017562
  39 C :   -0.035034
  40 C :   -0.033782
  41 C :    0.091215
  42 N :   -0.079267
  43 C :    0.039329
  44 C :   -0.039218
  45 C :   -0.138231
  46 S :    0.061685
  47 C :   -0.031361
  48 C :    0.038338
  49 N :   -0.081179
  50 C :    0.091923
  51 C :   -0.026343
  52 C :   -0.052100
  53 C :   -0.016720
  54 C :    0.077728
  55 F :   -0.068654
  56 C :   -0.029842
  57 C :   -0.038749
  58 C :    0.083495
  59 F :   -0.064879
  60 H :    0.041130
  61 H :    0.042623
  62 H :    0.039661
  63 H :    0.024497
  64 H :    0.024817
  65 H :    0.017107
  66 H :    0.027642
  67 H :   -0.007421
  68 H :    0.019285
  69 H :    0.035266
  70 H :    0.049239
  71 H :    0.003368
  72 H :    0.011358
  73 H :    0.058493
  74 H :    0.057348
  75 H :    0.027631
  76 H :    0.060732
  77 H :    0.025728
  78 H :    0.030912
  79 H :    0.027062
  80 H :    0.024144
  81 H :    0.026922
  82 H :    0.028644
  83 H :    0.025206
  84 H :    0.026305
  85 H :    0.030383
  86 H :    0.042370
  87 H :    0.042724

  Mayer bond orders larger than 0.100000
B(  0-C ,  1-C ) :   1.3277 B(  0-C ,  6-C ) :   1.3683 B(  0-C , 60-H ) :   0.9975
B(  1-C ,  2-C ) :   1.3739 B(  1-C , 61-H ) :   0.9918 B(  2-C ,  3-F ) :   1.1299
B(  2-C ,  4-C ) :   1.3505 B(  4-C ,  5-C ) :   1.3215 B(  4-C ,  8-C ) :   0.9616
B(  5-C ,  6-C ) :   1.3603 B(  5-C , 62-H ) :   1.0004 B(  6-C ,  7-F ) :   1.0789
B(  8-C ,  9-C ) :   1.0588 B(  8-C , 12-C ) :   1.6015 B(  9-C , 10-N ) :   1.7035
B(  9-C , 63-H ) :   0.9931 B( 10-N , 11-C ) :   1.2793 B( 11-C , 12-C ) :   1.0630
B( 11-C , 16-C ) :   1.5133 B( 12-C , 13-C ) :   1.0207 B( 13-C , 14-S ) :   1.6870
B( 13-C , 15-C ) :   1.0439 B( 15-C , 16-C ) :   1.0616 B( 15-C , 19-C ) :   1.5289
B( 16-C , 17-N ) :   1.2689 B( 17-N , 18-C ) :   1.7168 B( 18-C , 19-C ) :   1.0347
B( 18-C , 64-H ) :   0.9886 B( 19-C , 20-C ) :   1.0231 B( 20-C , 21-C ) :   1.5096
B( 20-C , 37-C ) :   1.1166 B( 21-C , 22-C ) :   1.1641 B( 21-C , 65-H ) :   0.9789
B( 22-C , 23-C ) :   1.4761 B( 22-C , 35-C ) :   1.1108 B( 23-C , 24-C ) :   1.0332
B( 23-C , 29-C ) :   1.0863 B( 24-C , 25-C ) :   1.0236 B( 24-C , 27-C ) :   1.0454
B( 24-C , 66-H ) :   0.8776 B( 25-C , 26-N ) :   1.1153 B( 25-C , 67-H ) :   0.9223
B( 25-C , 68-H ) :   0.9464 B( 26-N , 69-H ) :   0.9433 B( 26-N , 70-H ) :   0.9675
B( 27-C , 28-N ) :   1.0838 B( 27-C , 71-H ) :   0.9454 B( 27-C , 72-H ) :   0.9314
B( 28-N , 73-H ) :   0.9613 B( 28-N , 74-H ) :   0.9672 B( 29-C , 30-C ) :   1.6327
B( 29-C , 34-C ) :   1.0439 B( 30-C , 31-C ) :   0.9706 B( 30-C , 75-H ) :   0.9720
B( 31-C , 32-C ) :   0.9849 B( 31-C , 38-C ) :   0.9557 B( 31-C , 76-H ) :   0.8681
B( 32-C , 33-C ) :   1.7006 B( 32-C , 77-H ) :   0.9766 B( 33-C , 34-C ) :   1.1373
B( 33-C , 78-H ) :   0.9897 B( 34-C , 35-C ) :   1.4358 B( 35-C , 36-C ) :   1.1450
B( 36-C , 37-C ) :   1.6112 B( 36-C , 79-H ) :   0.9905 B( 37-C , 80-H ) :   0.9836
B( 38-C , 39-C ) :   1.7622 B( 38-C , 81-H ) :   0.9674 B( 39-C , 40-C ) :   1.0825
B( 39-C , 82-H ) :   0.9672 B( 40-C , 41-C ) :   1.0178 B( 40-C , 44-C ) :   1.5338
B( 41-C , 42-N ) :   1.7219 B( 41-C , 83-H ) :   0.9898 B( 42-N , 43-C ) :   1.2658
B( 43-C , 44-C ) :   1.0597 B( 43-C , 48-C ) :   1.5187 B( 44-C , 45-C ) :   1.0322
B( 45-C , 46-S ) :   1.6928 B( 45-C , 47-C ) :   1.0205 B( 47-C , 48-C ) :   1.0618
B( 47-C , 51-C ) :   1.5863 B( 48-C , 49-N ) :   1.2807 B( 49-N , 50-C ) :   1.7022
B( 50-C , 51-C ) :   1.0418 B( 50-C , 84-H ) :   0.9907 B( 51-C , 52-C ) :   0.9890
B( 52-C , 53-C ) :   1.3229 B( 52-C , 58-C ) :   1.3217 B( 53-C , 54-C ) :   1.3668
B( 53-C , 85-H ) :   0.9841 B( 54-C , 55-F ) :   1.0852 B( 54-C , 56-C ) :   1.3598
B( 56-C , 57-C ) :   1.3258 B( 56-C , 86-H ) :   0.9984 B( 57-C , 58-C ) :   1.3829
B( 57-C , 87-H ) :   0.9910 B( 58-C , 59-F ) :   1.1058

-----------------------------------------------------------------------------
         ABSORPTION SPECTRUM VIA TRANSITION ELECTRIC DIPOLE MOMENTS
-----------------------------------------------------------------------------
State   Energy  Wavelength   fosc         T2         TX        TY        TZ
        (cm-1)    (nm)                  (au**2)     (au)      (au)      (au)
-----------------------------------------------------------------------------
   0    9844.7   1015.8   0.083853403   2.80411  -1.11356   0.29707  -1.21484
   1   12086.3    827.4   0.031533424   0.85892  -0.77468   0.31729  -0.39766
   2   13995.8    714.5   0.033851659   0.79626   0.05477   0.33434   0.82552
   3   15069.1    663.6   0.000791983   0.01730   0.02313   0.02605  -0.12684
   4   16907.5    591.5   0.000564053   0.01098  -0.08615  -0.05935  -0.00625
   5   17127.0    583.9   0.088060636   1.69268  -0.34839  -0.21748  -1.23451
   6   18032.6    554.6   0.066353964   1.21139  -0.57997   0.00949  -0.93538
   7   18624.9    536.9   0.012484881   0.22068  -0.33879  -0.07264  -0.31722
   8   18751.0    533.3   0.000523412   0.00919   0.05156   0.02580   0.07658
   9   19144.6    522.3   0.183488790   3.15528  -1.23492   0.04521  -1.27601
  10   19277.0    518.8   0.062813022   1.07272  -0.02871   0.03058   1.03487
  11   21451.0    466.2   0.004358171   0.06689  -0.14774  -0.21227  -0.00050
  12   21563.5    463.7   0.016349094   0.24960   0.49937  -0.01424   0.00563
  13   23313.7    428.9   0.031523794   0.44515   0.49455  -0.06401   0.44325
  14   24273.2    412.0   0.145608751   1.97486  -0.16133   0.01323  -1.39594
  15   25208.5    396.7   0.053117075   0.69369   0.68099   0.10568   0.46773
  16   25376.3    394.1   0.024810258   0.32187  -0.35591  -0.10816  -0.42836
  17   25972.2    385.0   0.000119176   0.00151  -0.03213   0.00354  -0.02159
  18   26030.9    384.2   0.002505549   0.03169  -0.17030   0.02679   0.04436
  19   26414.6    378.6   0.010199840   0.12712  -0.32956  -0.05303  -0.12530
  20   26535.5    376.9   0.403062454   5.00058   1.35200  -0.14213   1.77552
  21   26776.6    373.5   0.023284980   0.28628   0.44709  -0.16114  -0.24583
  22   27018.8    370.1   0.128563928   1.56649  -1.02392   0.09209  -0.71386
  23   27142.5    368.4   0.011636042   0.14113   0.30561   0.19516  -0.09823
  24   27542.3    363.1   0.002702669   0.03230   0.07546  -0.04133   0.15780
  25   27661.0    361.5   0.002900854   0.03452  -0.16829  -0.00766   0.07839
  26   28151.4    355.2   0.089046625   1.04134   0.86797  -0.28753   0.45310
  27   28395.4    352.2   0.042700567   0.49506   0.37174  -0.27189   0.53193
  28   28792.1    347.3   0.163618510   1.87083  -0.82189   0.02658  -1.09299
  29   29695.8    336.7   0.025001756   0.27717  -0.12509  -0.01214  -0.51125
  30   29899.4    334.5   0.415762047   4.57781  -0.96384   0.03523  -1.90986
  31   30273.5    330.3   0.148311987   1.61283  -1.25845  -0.02146  -0.16933
  32   30697.2    325.8   0.588520067   6.31159   2.50475  -0.13195   0.14292
  33   31016.0    322.4   0.305339362   3.24095   0.99953   0.04079   1.49674
  34   31522.0    317.2   0.002500473   0.02611   0.12192  -0.01728   0.10465
  35   31694.3    315.5   0.000710003   0.00737   0.07853  -0.01337  -0.03207
  36   31835.3    314.1   0.001415444   0.01464   0.10596  -0.01307  -0.05692
  37   32410.5    308.5   0.026075284   0.26486   0.26068  -0.00115   0.44374
  38   32570.9    307.0   0.005218725   0.05275   0.10209  -0.04611  -0.20050
  39   32907.0    303.9   0.092433870   0.92474  -0.04237   0.07082   0.95808
  40   32965.8    303.3   0.000841118   0.00840   0.00592   0.03214   0.08563
  41   33110.0    302.0   0.012075986   0.12007   0.34063  -0.00669   0.06323
  42   33257.7    300.7   0.105252036   1.04187   0.27871   0.07291   0.97922
  43   33520.8    298.3   0.007034523   0.06909  -0.19871   0.07992   0.15236
  44   34403.8    290.7   0.005298686   0.05070  -0.06792  -0.02485  -0.21324
  45   34440.6    290.4   0.017393601   0.16626   0.26670   0.02709   0.30725
  46   34567.9    289.3   0.051259431   0.48818   0.50010  -0.06108   0.48409
  47   34889.1    286.6   0.025550471   0.24109   0.26616  -0.10733   0.39841
  48   35132.6    284.6   0.082422779   0.77235   0.02674   0.04398   0.87732
  49   35563.6    281.2   0.049366839   0.45699   0.31606   0.46325  -0.37748
  50   35753.6    279.7   0.007188452   0.06619  -0.23804  -0.00073  -0.09759
  51   35807.4    279.3   0.287260431   2.64106  -1.58441  -0.05131  -0.35787
  52   35988.5    277.9   0.010726094   0.09812   0.28403  -0.13033  -0.02141
  53   36465.9    274.2   0.152585049   1.37753  -0.83163  -0.80951   0.17497
  54   36540.4    273.7   0.050689425   0.45669   0.36431  -0.38509   0.41913
  55   36586.5    273.3   0.107688219   0.96900   0.40453   0.82231  -0.35938
  56   36846.1    271.4   0.001269206   0.01134  -0.00507   0.10609   0.00773
  57   37250.6    268.5   0.064865772   0.57327   0.55905  -0.20623   0.46711
  58   37379.3    267.5   0.027353590   0.24091  -0.04659   0.11922  -0.47384
  59   37749.3    264.9   0.127265439   1.10988   0.95389  -0.03440   0.44587
  60   37861.8    264.1   0.007564418   0.06577   0.21364  -0.01073   0.14148
  61   38219.6    261.6   0.047486137   0.40903   0.28622  -0.03543   0.57084
  62   38528.4    259.5   0.020872793   0.17835  -0.04300   0.29428  -0.29984
  63   38584.1    259.2   0.003957435   0.03377   0.15646  -0.04944   0.08272
  64   38662.5    258.6   0.110337855   0.93953   0.52133  -0.71537   0.39494
  65   38703.2    258.4   0.040772002   0.34681   0.15287  -0.34589   0.45144
  66   38995.5    256.4   0.259455323   2.19040  -0.91300  -0.02567   1.16455
  67   39308.0    254.4   0.009564610   0.08011   0.15272  -0.14942  -0.18562
  68   39491.9    253.2   0.017997488   0.15003  -0.00514   0.34653  -0.17297
  69   39725.6    251.7   0.268311403   2.22354  -1.04017  -0.14042  -1.05918
  70   39961.6    250.2   0.052694639   0.43411  -0.41460  -0.02252   0.51157

FINAL SINGLE POINT ENERGY     -3366.569870970240

DIPOLE MOMENT
-------------
                                X             Y             Z
Electronic contribution:     13.40078       4.62291       3.21807
Nuclear contribution   :    -11.64874      -4.87808      -2.31564
                        -----------------------------------------
Total Dipole Moment    :      1.75204      -0.25517       0.90244
                        -----------------------------------------
Magnitude (a.u.)       :      1.98725
Magnitude (Debye)      :      5.05118

Rotational constants in cm-1:     0.002795     0.000338     0.000316
Rotational constants in MHz :    83.777291    10.143301     9.468911

                             ****ORCA TERMINATED NORMALLY****
TOTAL RUN TIME: 0 days 0 hours 11 minutes 12 seconds 57 msec
