                         Program Version 4.2.0 -  RELEASE  -
|  1> # ORCA input file
|  2> # SCF done       -173.699980114523          0.000780350248
|  3> ! CAM-B3LYP def2-SVP def2/J RIJCOSX Grid4 TightSCF
|  4> %maxcore 5000
|  5> %tddft
|  6>     Mode sTDDFT
|  7>     Ethresh 5.0
|  8>     maxcore 5000
|  9> end
| 10>
| 11> %pal
| 12>   nprocs 6
| 13>   end
| 14> * xyz 0 1
| 15>    C        1.85725         1.72839        -3.69944
| 16>    C        1.33194         0.80145        -4.54268
| 17>    C        0.05408         0.39360        -4.11692
| 18>    C       -0.36763         1.02596        -2.94790
| 19>    S        0.82410         2.13220        -2.37125
| 20>    C       -1.64299         0.60421        -2.54617
| 21>    C       -2.18247        -0.34789        -3.41470
| 22>    S       -1.11801        -0.73276        -4.73768
| 23>    C       -3.45629        -0.78938        -3.04605
| 24>    C       -3.89618        -0.17697        -1.89457
| 25>    S       -2.72249         0.96210        -1.25140
| 26>    C       -5.13434        -0.36762        -1.22592
| 27>    C       -5.57224         0.24960        -0.07082
| 28>    C       -6.84941        -0.17765         0.29828
| 29>    C       -7.38491        -1.12846        -0.58440
| 30>    S       -6.31842        -1.49717        -1.86774
| 31>    C       -8.67626        -1.49592        -0.12701
| 32>    C       -8.95795        -0.77436         1.04450
| 33>    C       -7.81789         0.07520         1.35358
| 34>    C       -7.68458         0.92181         2.41413
| 35>    C       -8.70030         1.07540         3.38129
| 36>    N       -9.52403         1.20144         4.16917
| 37>    C       -6.52257         1.69550         2.61905
| 38>    N       -5.58068         2.32603         2.79211
| 39>    C      -10.21404        -1.06789         1.57529
| 40>    C      -10.88789        -2.00905         0.81963
| 41>    S       -9.95363        -2.53804        -0.57409
| 42>    C      -12.17395        -2.55317         1.06328
| 43>    C      -12.82804        -3.53590         0.34358
| 44>    C      -14.07690        -3.83674         0.88786
| 45>    C      -14.37624        -3.07105         2.02692
| 46>    S      -13.12198        -1.98452         2.43133
| 47>    C      -15.65157        -3.45745         2.50994
| 48>    C      -16.15685        -4.47260         1.68074
| 49>    C      -15.18737        -4.74034         0.62986
| 50>    C      -15.29682        -5.64631        -0.38372
| 51>    C      -16.42987        -6.47374        -0.53103
| 52>    N      -17.34998        -7.14699        -0.65337
| 53>    C      -14.28517        -5.81426        -1.35241
| 54>    N      -13.46443        -5.95274        -2.14101
| 55>    C      -17.40955        -4.93314         2.08726
| 56>    C      -17.86219        -4.27237         3.21407
| 57>    S      -16.72046        -3.06058         3.78156
| 58>    C      -19.07619        -4.48230         3.91540
| 59>    C      -19.55576        -3.77400         5.00118
| 60>    C      -20.77866        -4.27234         5.45063
| 61>    C      -21.22990        -5.37219         4.70289
| 62>    S      -20.15752        -5.78591         3.43940
| 63>    C      -22.45949        -5.81782         5.25187
| 64>    C      -22.78752        -4.99821         6.34296
| 65>    C      -21.74805        -3.99277         6.49897
| 66>    C      -21.69460        -2.99434         7.42612
| 67>    C      -22.70257        -2.81329         8.39674
| 68>    N      -23.51918        -2.66025         9.18687
| 69>    C      -20.62872        -2.07105         7.47160
| 70>    N      -19.76321        -1.31977         7.50749
| 71>    C      -23.97805        -5.37447         6.96824
| 72>    C      -24.55469        -6.47383         6.36333
| 73>    S      -23.61624        -7.04875         4.99269
| 74>    C      -25.74773        -7.14476         6.74149
| 75>    C      -26.31922        -8.24796         6.14914
| 76>    C      -27.48357        -8.64773         6.81086
| 77>    C      -27.80730        -7.85141         7.91228
| 78>    S      -26.65991        -6.58511         8.13570
| 79>    C      -28.97408        -8.28660         8.55650
| 80>    C      -29.52931        -9.40881         7.94268
| 81>    S      -28.61991        -9.94253         6.55834
| 82>    C      -30.69983        -9.86898         8.57408
| 83>    C      -31.01393        -9.09732         9.64754
| 84>    S      -29.90607        -7.79690         9.92347
| 85>    H        2.80944         2.21485        -3.77232
| 86>    H        1.82681         0.42867        -5.41990
| 87>    H       -4.03195        -1.51728        -3.58808
| 88>    H       -4.97967         0.97148         0.46189
| 89>    H      -10.62938        -0.63054         2.46549
| 90>    H      -12.40095        -4.00208        -0.52620
| 91>    H      -17.97498        -5.70711         1.59990
| 92>    H      -19.02909        -2.94103         5.43131
| 93>    H      -24.41280        -4.88749         7.82257
| 94>    H      -25.90893        -8.73642         5.28417
| 95>    H      -31.26970       -10.71957         8.24984
| 96>    H      -31.84577        -9.20978        10.31393
| 97> *
| 98>
| 99>                          ****END OF INPUT****

CARTESIAN COORDINATES (ANGSTROEM)
---------------------------------
  C      1.857250    1.728390   -3.699440
  C      1.331940    0.801450   -4.542680
  C      0.054080    0.393600   -4.116920
  C     -0.367630    1.025960   -2.947900
  S      0.824100    2.132200   -2.371250
  C     -1.642990    0.604210   -2.546170
  C     -2.182470   -0.347890   -3.414700
  S     -1.118010   -0.732760   -4.737680
  C     -3.456290   -0.789380   -3.046050
  C     -3.896180   -0.176970   -1.894570
  S     -2.722490    0.962100   -1.251400
  C     -5.134340   -0.367620   -1.225920
  C     -5.572240    0.249600   -0.070820
  C     -6.849410   -0.177650    0.298280
  C     -7.384910   -1.128460   -0.584400
  S     -6.318420   -1.497170   -1.867740
  C     -8.676260   -1.495920   -0.127010
  C     -8.957950   -0.774360    1.044500
  C     -7.817890    0.075200    1.353580
  C     -7.684580    0.921810    2.414130
  C     -8.700300    1.075400    3.381290
  N     -9.524030    1.201440    4.169170
  C     -6.522570    1.695500    2.619050
  N     -5.580680    2.326030    2.792110
  C    -10.214040   -1.067890    1.575290
  C    -10.887890   -2.009050    0.819630
  S     -9.953630   -2.538040   -0.574090
  C    -12.173950   -2.553170    1.063280
  C    -12.828040   -3.535900    0.343580
  C    -14.076900   -3.836740    0.887860
  C    -14.376240   -3.071050    2.026920
  S    -13.121980   -1.984520    2.431330
  C    -15.651570   -3.457450    2.509940
  C    -16.156850   -4.472600    1.680740
  C    -15.187370   -4.740340    0.629860
  C    -15.296820   -5.646310   -0.383720
  C    -16.429870   -6.473740   -0.531030
  N    -17.349980   -7.146990   -0.653370
  C    -14.285170   -5.814260   -1.352410
  N    -13.464430   -5.952740   -2.141010
  C    -17.409550   -4.933140    2.087260
  C    -17.862190   -4.272370    3.214070
  S    -16.720460   -3.060580    3.781560
  C    -19.076190   -4.482300    3.915400
  C    -19.555760   -3.774000    5.001180
  C    -20.778660   -4.272340    5.450630
  C    -21.229900   -5.372190    4.702890
  S    -20.157520   -5.785910    3.439400
  C    -22.459490   -5.817820    5.251870
  C    -22.787520   -4.998210    6.342960
  C    -21.748050   -3.992770    6.498970
  C    -21.694600   -2.994340    7.426120
  C    -22.702570   -2.813290    8.396740
  N    -23.519180   -2.660250    9.186870
  C    -20.628720   -2.071050    7.471600
  N    -19.763210   -1.319770    7.507490
  C    -23.978050   -5.374470    6.968240
  C    -24.554690   -6.473830    6.363330
  S    -23.616240   -7.048750    4.992690
  C    -25.747730   -7.144760    6.741490
  C    -26.319220   -8.247960    6.149140
  C    -27.483570   -8.647730    6.810860
  C    -27.807300   -7.851410    7.912280
  S    -26.659910   -6.585110    8.135700
  C    -28.974080   -8.286600    8.556500
  C    -29.529310   -9.408810    7.942680
  S    -28.619910   -9.942530    6.558340
  C    -30.699830   -9.868980    8.574080
  C    -31.013930   -9.097320    9.647540
  S    -29.906070   -7.796900    9.923470
  H      2.809440    2.214850   -3.772320
  H      1.826810    0.428670   -5.419900
  H     -4.031950   -1.517280   -3.588080
  H     -4.979670    0.971480    0.461890
  H    -10.629380   -0.630540    2.465490
  H    -12.400950   -4.002080   -0.526200
  H    -17.974980   -5.707110    1.599900
  H    -19.029090   -2.941030    5.431310
  H    -24.412800   -4.887490    7.822570
  H    -25.908930   -8.736420    5.284170
  H    -31.269700  -10.719570    8.249840
  H    -31.845770   -9.209780   10.313930

 Total Charge           Charge          ....    0
 Multiplicity           Mult            ....    1
 Number of Electrons    NEL             ....  558
 Basis Dimension        Dim             .... 1088

ORBITAL ENERGIES
----------------

  NO   OCC          E(Eh)            E(eV)
   0   2.0000     -88.992224     -2421.6015
   1   2.0000     -88.992127     -2421.5989
   2   2.0000     -88.991393     -2421.5789
   3   2.0000     -88.991318     -2421.5769
   4   2.0000     -88.988589     -2421.5026
   5   2.0000     -88.988515     -2421.5006
   6   2.0000     -88.966719     -2420.9075
   7   2.0000     -88.966618     -2420.9048
   8   2.0000     -88.960841     -2420.7475
   9   2.0000     -88.960686     -2420.7433
  10   2.0000     -88.959014     -2420.6978
  11   2.0000     -88.958894     -2420.6946
  12   2.0000     -14.433240      -392.7484
  13   2.0000     -14.433174      -392.7466
  14   2.0000     -14.430741      -392.6804
  15   2.0000     -14.430662      -392.6783
  16   2.0000     -14.429769      -392.6540
  17   2.0000     -14.429690      -392.6518
  18   2.0000     -10.367223      -282.1065
  19   2.0000     -10.364649      -282.0364
  20   2.0000     -10.364578      -282.0345
  21   2.0000     -10.354518      -281.7608
  22   2.0000     -10.351612      -281.6817
  23   2.0000     -10.351600      -281.6814
  24   2.0000     -10.333623      -281.1922
  25   2.0000     -10.333567      -281.1906
  26   2.0000     -10.333363      -281.1851
  27   2.0000     -10.333152      -281.1794
  28   2.0000     -10.332600      -281.1643
  29   2.0000     -10.332535      -281.1626
  30   2.0000     -10.331089      -281.1232
  31   2.0000     -10.331036      -281.1218
  32   2.0000     -10.331026      -281.1215
  33   2.0000     -10.330938      -281.1191
  34   2.0000     -10.329984      -281.0932
  35   2.0000     -10.329895      -281.0907
  36   2.0000     -10.329451      -281.0786
  37   2.0000     -10.329433      -281.0781
  38   2.0000     -10.329428      -281.0780
  39   2.0000     -10.329367      -281.0764
  40   2.0000     -10.326523      -280.9990
  41   2.0000     -10.326500      -280.9983
  42   2.0000     -10.318368      -280.7771
  43   2.0000     -10.318339      -280.7763
  44   2.0000     -10.309523      -280.5364
  45   2.0000     -10.309452      -280.5345
  46   2.0000     -10.305135      -280.4170
  47   2.0000     -10.305026      -280.4140
  48   2.0000     -10.304872      -280.4098
  49   2.0000     -10.304830      -280.4087
  50   2.0000     -10.304827      -280.4086
  51   2.0000     -10.304774      -280.4072
  52   2.0000     -10.303515      -280.3729
  53   2.0000     -10.303501      -280.3725
  54   2.0000     -10.302875      -280.3555
  55   2.0000     -10.302856      -280.3550
  56   2.0000     -10.302431      -280.3434
  57   2.0000     -10.302413      -280.3429
  58   2.0000     -10.301810      -280.3265
  59   2.0000     -10.301766      -280.3253
  60   2.0000     -10.301749      -280.3249
  61   2.0000     -10.301641      -280.3219
  62   2.0000     -10.299412      -280.2613
  63   2.0000     -10.299312      -280.2585
  64   2.0000     -10.298098      -280.2255
  65   2.0000     -10.298088      -280.2252
  66   2.0000     -10.291757      -280.0529
  67   2.0000     -10.291740      -280.0525
  68   2.0000     -10.283525      -279.8289
  69   2.0000     -10.283487      -279.8279
  70   2.0000      -8.086657      -220.0491
  71   2.0000      -8.086590      -220.0473
  72   2.0000      -8.085811      -220.0261
  73   2.0000      -8.085792      -220.0256
  74   2.0000      -8.083077      -219.9517
  75   2.0000      -8.083044      -219.9508
  76   2.0000      -8.061632      -219.3681
  77   2.0000      -8.061581      -219.3668
  78   2.0000      -8.056311      -219.2234
  79   2.0000      -8.056227      -219.2211
  80   2.0000      -8.054228      -219.1667
  81   2.0000      -8.054162      -219.1649
  82   2.0000      -6.055954      -164.7909
  83   2.0000      -6.055920      -164.7900
  84   2.0000      -6.055136      -164.7686
  85   2.0000      -6.055099      -164.7676
  86   2.0000      -6.052409      -164.6944
  87   2.0000      -6.052366      -164.6933
  88   2.0000      -6.051759      -164.6767
  89   2.0000      -6.051745      -164.6763
  90   2.0000      -6.050945      -164.6546
  91   2.0000      -6.050941      -164.6545
  92   2.0000      -6.048876      -164.5983
  93   2.0000      -6.048847      -164.5975
  94   2.0000      -6.048207      -164.5801
  95   2.0000      -6.048177      -164.5793
  96   2.0000      -6.048052      -164.5759
  97   2.0000      -6.048019      -164.5750
  98   2.0000      -6.045331      -164.5018
  99   2.0000      -6.045289      -164.5007
 100   2.0000      -6.031275      -164.1193
 101   2.0000      -6.031215      -164.1177
 102   2.0000      -6.027192      -164.0082
 103   2.0000      -6.027146      -164.0070
 104   2.0000      -6.025922      -163.9737
 105   2.0000      -6.025827      -163.9711
 106   2.0000      -6.023972      -163.9206
 107   2.0000      -6.023897      -163.9186
 108   2.0000      -6.023061      -163.8958
 109   2.0000      -6.022996      -163.8941
 110   2.0000      -6.021566      -163.8551
 111   2.0000      -6.021485      -163.8529
 112   2.0000      -6.020120      -163.8158
 113   2.0000      -6.020057      -163.8141
 114   2.0000      -6.018042      -163.7592
 115   2.0000      -6.017943      -163.7566
 116   2.0000      -6.015207      -163.6821
 117   2.0000      -6.015128      -163.6799
 118   2.0000      -1.047822       -28.5127
 119   2.0000      -1.044341       -28.4180
 120   2.0000      -1.043041       -28.3826
 121   2.0000      -1.025016       -27.8921
 122   2.0000      -1.022488       -27.8233
 123   2.0000      -1.022268       -27.8173
 124   2.0000      -1.019993       -27.7554
 125   2.0000      -1.019525       -27.7427
 126   2.0000      -1.011039       -27.5118
 127   2.0000      -1.008548       -27.4440
 128   2.0000      -1.007804       -27.4237
 129   2.0000      -1.006942       -27.4003
 130   2.0000      -0.999548       -27.1991
 131   2.0000      -0.991256       -26.9735
 132   2.0000      -0.978848       -26.6358
 133   2.0000      -0.976131       -26.5619
 134   2.0000      -0.963219       -26.2105
 135   2.0000      -0.956198       -26.0195
 136   2.0000      -0.953901       -25.9570
 137   2.0000      -0.927211       -25.2307
 138   2.0000      -0.926174       -25.2025
 139   2.0000      -0.919351       -25.0168
 140   2.0000      -0.908676       -24.7263
 141   2.0000      -0.900317       -24.4989
 142   2.0000      -0.873826       -23.7780
 143   2.0000      -0.872280       -23.7360
 144   2.0000      -0.869257       -23.6537
 145   2.0000      -0.866602       -23.5814
 146   2.0000      -0.862927       -23.4814
 147   2.0000      -0.860532       -23.4163
 148   2.0000      -0.854379       -23.2488
 149   2.0000      -0.850063       -23.1314
 150   2.0000      -0.844384       -22.9768
 151   2.0000      -0.835061       -22.7232
 152   2.0000      -0.832762       -22.6606
 153   2.0000      -0.824282       -22.4299
 154   2.0000      -0.807086       -21.9619
 155   2.0000      -0.790731       -21.5169
 156   2.0000      -0.788722       -21.4622
 157   2.0000      -0.787879       -21.4393
 158   2.0000      -0.780323       -21.2337
 159   2.0000      -0.774094       -21.0642
 160   2.0000      -0.770357       -20.9625
 161   2.0000      -0.759614       -20.6701
 162   2.0000      -0.742339       -20.2001
 163   2.0000      -0.723898       -19.6983
 164   2.0000      -0.710400       -19.3310
 165   2.0000      -0.706600       -19.2276
 166   2.0000      -0.698885       -19.0176
 167   2.0000      -0.691345       -18.8124
 168   2.0000      -0.688716       -18.7409
 169   2.0000      -0.683006       -18.5855
 170   2.0000      -0.677013       -18.4224
 171   2.0000      -0.676942       -18.4205
 172   2.0000      -0.654620       -17.8131
 173   2.0000      -0.652948       -17.7676
 174   2.0000      -0.650049       -17.6887
 175   2.0000      -0.648404       -17.6440
 176   2.0000      -0.634067       -17.2538
 177   2.0000      -0.633214       -17.2306
 178   2.0000      -0.631566       -17.1858
 179   2.0000      -0.629919       -17.1410
 180   2.0000      -0.624082       -16.9821
 181   2.0000      -0.621222       -16.9043
 182   2.0000      -0.617387       -16.8000
 183   2.0000      -0.616678       -16.7807
 184   2.0000      -0.616493       -16.7756
 185   2.0000      -0.614330       -16.7168
 186   2.0000      -0.605847       -16.4859
 187   2.0000      -0.604554       -16.4507
 188   2.0000      -0.576643       -15.6912
 189   2.0000      -0.573223       -15.5982
 190   2.0000      -0.565301       -15.3826
 191   2.0000      -0.562366       -15.3028
 192   2.0000      -0.557686       -15.1754
 193   2.0000      -0.551231       -14.9998
 194   2.0000      -0.547375       -14.8948
 195   2.0000      -0.546535       -14.8720
 196   2.0000      -0.545303       -14.8384
 197   2.0000      -0.539556       -14.6821
 198   2.0000      -0.529070       -14.3967
 199   2.0000      -0.525467       -14.2987
 200   2.0000      -0.520592       -14.1660
 201   2.0000      -0.519311       -14.1312
 202   2.0000      -0.518776       -14.1166
 203   2.0000      -0.518730       -14.1153
 204   2.0000      -0.510442       -13.8898
 205   2.0000      -0.508695       -13.8423
 206   2.0000      -0.507254       -13.8031
 207   2.0000      -0.503024       -13.6880
 208   2.0000      -0.500740       -13.6258
 209   2.0000      -0.500367       -13.6157
 210   2.0000      -0.499477       -13.5915
 211   2.0000      -0.499114       -13.5816
 212   2.0000      -0.494905       -13.4671
 213   2.0000      -0.493835       -13.4379
 214   2.0000      -0.489121       -13.3097
 215   2.0000      -0.486325       -13.2336
 216   2.0000      -0.485680       -13.2160
 217   2.0000      -0.483687       -13.1618
 218   2.0000      -0.479644       -13.0518
 219   2.0000      -0.476831       -12.9752
 220   2.0000      -0.476375       -12.9628
 221   2.0000      -0.474477       -12.9112
 222   2.0000      -0.472158       -12.8481
 223   2.0000      -0.467253       -12.7146
 224   2.0000      -0.464472       -12.6389
 225   2.0000      -0.463564       -12.6142
 226   2.0000      -0.462707       -12.5909
 227   2.0000      -0.461446       -12.5566
 228   2.0000      -0.461366       -12.5544
 229   2.0000      -0.460368       -12.5272
 230   2.0000      -0.458022       -12.4634
 231   2.0000      -0.457161       -12.4400
 232   2.0000      -0.456180       -12.4133
 233   2.0000      -0.454970       -12.3804
 234   2.0000      -0.451788       -12.2938
 235   2.0000      -0.449955       -12.2439
 236   2.0000      -0.445599       -12.1254
 237   2.0000      -0.443470       -12.0674
 238   2.0000      -0.443098       -12.0573
 239   2.0000      -0.441079       -12.0024
 240   2.0000      -0.440444       -11.9851
 241   2.0000      -0.440310       -11.9814
 242   2.0000      -0.439467       -11.9585
 243   2.0000      -0.437953       -11.9173
 244   2.0000      -0.437576       -11.9070
 245   2.0000      -0.437364       -11.9013
 246   2.0000      -0.436807       -11.8861
 247   2.0000      -0.430964       -11.7271
 248   2.0000      -0.428860       -11.6699
 249   2.0000      -0.426277       -11.5996
 250   2.0000      -0.425589       -11.5809
 251   2.0000      -0.421368       -11.4660
 252   2.0000      -0.421350       -11.4655
 253   2.0000      -0.417138       -11.3509
 254   2.0000      -0.411673       -11.2022
 255   2.0000      -0.411672       -11.2022
 256   2.0000      -0.409106       -11.1324
 257   2.0000      -0.400441       -10.8966
 258   2.0000      -0.400419       -10.8960
 259   2.0000      -0.391235       -10.6460
 260   2.0000      -0.382590       -10.4108
 261   2.0000      -0.372620       -10.1395
 262   2.0000      -0.358741        -9.7618
 263   2.0000      -0.353484        -9.6188
 264   2.0000      -0.349641        -9.5142
 265   2.0000      -0.347524        -9.4566
 266   2.0000      -0.342430        -9.3180
 267   2.0000      -0.334466        -9.1013
 268   2.0000      -0.333462        -9.0740
 269   2.0000      -0.324894        -8.8408
 270   2.0000      -0.322898        -8.7865
 271   2.0000      -0.321713        -8.7542
 272   2.0000      -0.314578        -8.5601
 273   2.0000      -0.290565        -7.9067
 274   2.0000      -0.285497        -7.7688
 275   2.0000      -0.285472        -7.7681
 276   2.0000      -0.266547        -7.2531
 277   2.0000      -0.244436        -6.6514
 278   2.0000      -0.230128        -6.2621
 279   0.0000      -0.109601        -2.9824
 280   0.0000      -0.103507        -2.8166
 281   0.0000      -0.102871        -2.7993
 282   0.0000      -0.052686        -1.4337
 283   0.0000      -0.042880        -1.1668

MULLIKEN ATOMIC CHARGES
-----------------------
   0 C :   -0.078123
   1 C :    0.021995
   2 C :   -0.055592
   3 C :   -0.100448
   4 S :    0.146482
   5 C :   -0.068988
   6 C :   -0.027522
   7 S :    0.149250
   8 C :   -0.069473
   9 C :   -0.051651
  10 S :    0.152578
  11 C :   -0.036552
  12 C :   -0.072884
  13 C :    0.019321
  14 C :   -0.102073
  15 S :    0.183354
  16 C :   -0.099140
  17 C :    0.013395
  18 C :    0.299189
  19 C :   -0.296916
  20 C :   -0.186867
  21 N :    0.171814
  22 C :   -0.189254
  23 N :    0.175853
  24 C :   -0.065767
  25 C :   -0.052352
  26 S :    0.191525
  27 C :   -0.050003
  28 C :   -0.067895
  29 C :    0.015905
  30 C :   -0.100564
  31 S :    0.196151
  32 C :   -0.098686
  33 C :    0.018470
  34 C :    0.298689
  35 C :   -0.296488
  36 C :   -0.188604
  37 N :    0.172500
  38 C :   -0.187636
  39 N :    0.172610
  40 C :   -0.070648
  41 C :   -0.049517
  42 S :    0.196568
  43 C :   -0.053127
  44 C :   -0.066364
  45 C :    0.015963
  46 C :   -0.098518
  47 S :    0.192122
  48 C :   -0.105130
  49 C :    0.018817
  50 C :    0.297144
  51 C :   -0.296139
  52 C :   -0.189695
  53 N :    0.176407
  54 C :   -0.189561
  55 N :    0.174087
  56 C :   -0.068085
  57 C :   -0.038442
  58 S :    0.183264
  59 C :   -0.053601
  60 C :   -0.064541
  61 C :   -0.029690
  62 C :   -0.070915
  63 S :    0.152317
  64 C :   -0.098266
  65 C :   -0.056733
  66 S :    0.149631
  67 C :    0.022149
  68 C :   -0.078460
  69 S :    0.146590
  70 H :    0.030956
  71 H :   -0.008799
  72 H :   -0.009230
  73 H :    0.014469
  74 H :    0.010859
  75 H :    0.009923
  76 H :    0.010485
  77 H :    0.011229
  78 H :    0.014048
  79 H :   -0.009841
  80 H :   -0.008772
  81 H :    0.031445
Sum of atomic charges:   -0.0000000

LOEWDIN ATOMIC CHARGES
----------------------
   0 C :   -0.172799
   1 C :   -0.072285
   2 C :   -0.195970
   3 C :   -0.224333
   4 S :    0.428164
   5 C :   -0.212952
   6 C :   -0.194604
   7 S :    0.403952
   8 C :   -0.071518
   9 C :   -0.181342
  10 S :    0.434822
  11 C :   -0.171720
  12 C :   -0.041019
  13 C :   -0.067750
  14 C :   -0.185098
  15 S :    0.474895
  16 C :   -0.177141
  17 C :   -0.071311
  18 C :    0.083405
  19 C :   -0.101046
  20 C :   -0.015783
  21 N :   -0.033709
  22 C :   -0.016918
  23 N :   -0.030518
  24 C :   -0.038514
  25 C :   -0.182979
  26 S :    0.480929
  27 C :   -0.178334
  28 C :   -0.040866
  29 C :   -0.069593
  30 C :   -0.180599
  31 S :    0.485196
  32 C :   -0.180293
  33 C :   -0.069660
  34 C :    0.084066
  35 C :   -0.102174
  36 C :   -0.015979
  37 N :   -0.033472
  38 C :   -0.016018
  39 N :   -0.033482
  40 C :   -0.041114
  41 C :   -0.178393
  42 S :    0.485201
  43 C :   -0.183032
  44 C :   -0.038575
  45 C :   -0.071352
  46 C :   -0.176873
  47 S :    0.480880
  48 C :   -0.185267
  49 C :   -0.067756
  50 C :    0.083344
  51 C :   -0.101173
  52 C :   -0.016965
  53 N :   -0.030565
  54 C :   -0.015939
  55 N :   -0.033530
  56 C :   -0.040713
  57 C :   -0.171715
  58 S :    0.474808
  59 C :   -0.181320
  60 C :   -0.071222
  61 C :   -0.194677
  62 C :   -0.213015
  63 S :    0.434731
  64 C :   -0.224137
  65 C :   -0.195895
  66 S :    0.403861
  67 C :   -0.072337
  68 C :   -0.172796
  69 S :    0.428022
  70 H :    0.025220
  71 H :    0.034511
  72 H :    0.029165
  73 H :    0.036588
  74 H :    0.035188
  75 H :    0.035169
  76 H :    0.035304
  77 H :    0.035317
  78 H :    0.036542
  79 H :    0.029088
  80 H :    0.034530
  81 H :    0.025245

  Mayer bond orders larger than 0.100000
B(  0-C ,  1-C ) :   1.5937 B(  0-C ,  4-S ) :   1.1436 B(  0-C , 70-H ) :   0.9684
B(  1-C ,  2-C ) :   1.2582 B(  1-C , 71-H ) :   1.0011 B(  2-C ,  3-C ) :   1.4775
B(  2-C ,  7-S ) :   1.0546 B(  3-C ,  4-S ) :   1.0799 B(  3-C ,  5-C ) :   1.3021
B(  5-C ,  6-C ) :   1.4779 B(  5-C , 10-S ) :   1.0713 B(  6-C ,  7-S ) :   1.0524
B(  6-C ,  8-C ) :   1.2646 B(  8-C ,  9-C ) :   1.5194 B(  8-C , 72-H ) :   0.9947
B(  9-C , 10-S ) :   1.0964 B(  9-C , 11-C ) :   1.1674 B( 11-C , 12-C ) :   1.4687
B( 11-C , 15-S ) :   1.1068 B( 12-C , 13-C ) :   1.2879 B( 12-C , 73-H ) :   0.9891
B( 13-C , 14-C ) :   1.4512 B( 13-C , 18-C ) :   0.9956 B( 14-C , 15-S ) :   1.1147
B( 14-C , 16-C ) :   1.1861 B( 16-C , 17-C ) :   1.4503 B( 16-C , 26-S ) :   1.1196
B( 17-C , 18-C ) :   0.9934 B( 17-C , 24-C ) :   1.2960 B( 18-C , 19-C ) :   1.7152
B( 19-C , 20-C ) :   1.1318 B( 19-C , 22-C ) :   1.1341 B( 20-C , 21-N ) :   2.9914
B( 22-C , 23-N ) :   2.9935 B( 24-C , 25-C ) :   1.4614 B( 24-C , 74-H ) :   0.9870
B( 25-C , 26-S ) :   1.1039 B( 25-C , 27-C ) :   1.1681 B( 27-C , 28-C ) :   1.4613
B( 27-C , 31-S ) :   1.1080 B( 28-C , 29-C ) :   1.2950 B( 28-C , 75-H ) :   0.9880
B( 29-C , 30-C ) :   1.4488 B( 29-C , 34-C ) :   0.9944 B( 30-C , 31-S ) :   1.1187
B( 30-C , 32-C ) :   1.1861 B( 32-C , 33-C ) :   1.4467 B( 32-C , 42-S ) :   1.1196
B( 33-C , 34-C ) :   0.9953 B( 33-C , 40-C ) :   1.2955 B( 34-C , 35-C ) :   1.7134
B( 35-C , 36-C ) :   1.1342 B( 35-C , 38-C ) :   1.1329 B( 36-C , 37-N ) :   2.9921
B( 38-C , 39-N ) :   2.9925 B( 40-C , 41-C ) :   1.4623 B( 40-C , 76-H ) :   0.9877
B( 41-C , 42-S ) :   1.1071 B( 41-C , 43-C ) :   1.1670 B( 43-C , 44-C ) :   1.4627
B( 43-C , 47-S ) :   1.1033 B( 44-C , 45-C ) :   1.2967 B( 44-C , 77-H ) :   0.9866
B( 45-C , 46-C ) :   1.4485 B( 45-C , 50-C ) :   0.9955 B( 46-C , 47-S ) :   1.1200
B( 46-C , 48-C ) :   1.1874 B( 48-C , 49-C ) :   1.4529 B( 48-C , 58-S ) :   1.1144
B( 49-C , 50-C ) :   0.9955 B( 49-C , 56-C ) :   1.2883 B( 50-C , 51-C ) :   1.7138
B( 51-C , 52-C ) :   1.1339 B( 51-C , 54-C ) :   1.1339 B( 52-C , 53-N ) :   2.9944
B( 54-C , 55-N ) :   2.9926 B( 56-C , 57-C ) :   1.4694 B( 56-C , 78-H ) :   0.9887
B( 57-C , 58-S ) :   1.1069 B( 57-C , 59-C ) :   1.1666 B( 59-C , 60-C ) :   1.5202
B( 59-C , 63-S ) :   1.0964 B( 60-C , 61-C ) :   1.2653 B( 60-C , 79-H ) :   0.9940
B( 61-C , 62-C ) :   1.4789 B( 61-C , 66-S ) :   1.0521 B( 62-C , 63-S ) :   1.0709
B( 62-C , 64-C ) :   1.3028 B( 64-C , 65-C ) :   1.4776 B( 64-C , 69-S ) :   1.0796
B( 65-C , 66-S ) :   1.0545 B( 65-C , 67-C ) :   1.2581 B( 67-C , 68-C ) :   1.5935
B( 67-C , 80-H ) :   1.0011 B( 68-C , 69-S ) :   1.1434 B( 68-C , 81-H ) :   0.9686

-----------------------------------------------------------------------------
         ABSORPTION SPECTRUM VIA TRANSITION ELECTRIC DIPOLE MOMENTS
-----------------------------------------------------------------------------
State   Energy  Wavelength   fosc         T2         TX        TY        TZ
        (cm-1)    (nm)                  (au**2)     (au)      (au)      (au)
-----------------------------------------------------------------------------
   0   10048.0    995.2   0.479030673  15.69488   3.53840   1.12054  -1.38529
   1   10927.1    915.2   0.013166724   0.39669  -0.48976  -0.22658   0.32479
   2   10929.3    915.0   0.041468442   1.24911  -1.01060  -0.31428   0.35919
   3   18038.1    554.4   0.000630390   0.01151   0.04564  -0.02784   0.09299
   4   19505.5    512.7   0.062834712   1.06052   0.93707   0.26392  -0.33581
   5   19828.5    504.3   0.000169225   0.00281   0.00960   0.04700   0.02256
   6   21915.1    456.3   1.463720472  21.98823   4.16837   1.35018  -1.67031
   7   23945.9    417.6   0.910405818  12.51641  -3.14405  -1.02171   1.25995
   8   24103.9    414.9   0.000990679   0.01353   0.06486  -0.09545  -0.01459
   9   24671.7    405.3   1.394391620  18.60635   3.84648   1.22572  -1.51938
  10   26259.6    380.8   0.005592483   0.07011  -0.10398   0.21563  -0.11315
  11   26317.7    380.0   0.008851949   0.11073   0.30091   0.08854  -0.11111
  12   26358.7    379.4   0.006049368   0.07555   0.10729  -0.04466   0.24910
  13   27936.8    358.0   0.001562651   0.01841   0.06007  -0.03369   0.11692
  14   28700.1    348.4   0.004821987   0.05531   0.18380   0.09407  -0.11260
  15   29086.6    343.8   0.000098389   0.00111  -0.00312  -0.02928   0.01571
  16   29599.9    337.8   0.427683758   4.75672   1.79302   0.80642  -0.94419
  17   31387.5    318.6   0.813907585   8.53679  -0.19339  -1.99362  -2.12717
  18   31596.3    316.5   0.026570084   0.27684  -0.47489  -0.12215   0.19078
  19   31684.9    315.6   0.000301190   0.00313  -0.03397  -0.03604  -0.02601
  20   31700.2    315.5   0.309010154   3.20913  -0.11198  -1.23034  -1.29724
  21   31799.0    314.5   0.048165416   0.49865  -0.56803  -0.00943   0.41941
  22   31817.8    314.3   0.784471271   8.11676   0.24171   1.98172   2.03252
  23   32212.3    310.4   0.049734960   0.50829   0.69980  -0.01437  -0.13552
  24   32876.8    304.2   0.332717349   3.33166   0.19574   1.17614   1.38204
  25   33378.4    299.6   0.359100570   3.54182   1.65896   0.55529  -0.69376
  26   33682.2    296.9   0.000330596   0.00323   0.04357   0.03032  -0.02034
  27   33724.9    296.5   0.034997019   0.34163  -0.06244  -0.41753  -0.40422
  28   33864.0    295.3   0.044092897   0.42865  -0.54873  -0.22275   0.27916
  29   34006.6    294.1   0.022112556   0.21407   0.03264   0.32572   0.32697
  30   34783.7    287.5   0.140035889   1.32538  -1.04228  -0.34514   0.34628
  31   34795.8    287.4   0.013018611   0.12317  -0.19421   0.05068   0.28790
  32   34851.0    286.9   0.083898089   0.79252  -0.80147  -0.23734   0.30634
  33   34911.9    286.4   0.030576191   0.28833   0.06044   0.27690   0.45607
  34   35088.4    285.0   0.090590260   0.84995  -0.83546  -0.22201   0.32043
  35   35509.2    281.6   0.013113431   0.12158  -0.02022  -0.24516  -0.24711
  36   35762.3    279.6   0.002959096   0.02724   0.14922   0.04537  -0.05400
  37   36705.0    272.4   0.007299951   0.06547  -0.03961  -0.16224  -0.19386
  38   36905.6    271.0   0.049182906   0.43873  -0.46255  -0.44146  -0.17289
  39   36928.1    270.8   0.051091731   0.45548   0.33594  -0.26622  -0.52130
  40   37012.7    270.2   0.000626449   0.00557  -0.03312  -0.03967  -0.05387
  41   37846.4    264.2   0.007136593   0.06208  -0.01778   0.18095   0.17035
  42   38002.2    263.1   0.408809191   3.54151   0.08082   1.25658   1.39857
  43   39106.4    255.7   0.005508571   0.04637   0.18264   0.06980  -0.09023
  44   39178.6    255.2   0.006082600   0.05111  -0.02152  -0.14710  -0.17032
  45   39217.9    255.0   0.031577441   0.26507  -0.43812  -0.17685   0.20457
  46   39585.1    252.6   0.032666134   0.27167   0.03996   0.35320   0.38122
  47   39739.9    251.6   0.000165373   0.00137  -0.01598  -0.03204  -0.00938
  48   39768.9    251.5   0.002443176   0.02022  -0.12484  -0.04756   0.04877
  49   40048.8    249.7   0.006377355   0.05242   0.01583   0.15958   0.16343
  50   40287.5    248.2   0.033171607   0.27106  -0.46037  -0.14680   0.19383

FINAL SINGLE POINT ENERGY     -7090.988168977698

DIPOLE MOMENT
-------------
                                X             Y             Z
Electronic contribution:     -0.47836       2.28924       0.75713
Nuclear contribution   :      0.42319      -3.88460      -2.23109
                        -----------------------------------------
Total Dipole Moment    :     -0.05517      -1.59536      -1.47396
                        -----------------------------------------
Magnitude (a.u.)       :      2.17274
Magnitude (Debye)      :      5.52266

Rotational constants in cm-1:     0.003174     0.000134     0.000129
Rotational constants in MHz :    95.160616     4.019836     3.864726

                             ****ORCA TERMINATED NORMALLY****
TOTAL RUN TIME: 0 days 0 hours 7 minutes 56 seconds 800 msec
