                         Program Version 4.2.0 -  RELEASE  -
|  1> # ORCA input file
|  2> # SCF done       -211.932896057466          0.000614771373
|  3> ! CAM-B3LYP def2-SVP def2/J RIJCOSX Grid4 TightSCF
|  4> %maxcore 5000
|  5> %tddft
|  6>     Mode sTDDFT
|  7>     Ethresh 5.0
|  8>     maxcore 5000
|  9> end
| 10>
| 11> %pal
| 12>   nprocs 6
| 13>   end
| 14> * xyz 0 1
| 15>    C        9.29913         1.19226         6.77409
| 16>    C        9.16252         0.83888         8.08829
| 17>    F        9.85494         1.50365         9.02670
| 18>    C        8.31889        -0.20179         8.50355
| 19>    C        7.60525        -0.89059         7.56321
| 20>    C        7.70833        -0.56866         6.19361
| 21>    C        8.57091         0.49469         5.79106
| 22>    C        8.68474         0.84123         4.42480
| 23>    C        7.96041         0.14570         3.49423
| 24>    C        7.11023        -0.92697         3.90089
| 25>    C        6.97919        -1.27825         5.21511
| 26>    C        6.47076        -1.52582         2.71839
| 27>    O        5.62031        -2.37878         2.66396
| 28>    C        7.14494        -0.86540         1.55303
| 29>    C        7.85500         0.30142         2.04914
| 30>    C        8.14915         1.42107         1.32524
| 31>    C        8.75804         2.56963         1.87404
| 32>    N        9.24689         3.52091         2.28773
| 33>    C        7.76015         1.57642        -0.02262
| 34>    N        7.38319         1.75564        -1.09151
| 35>    C        7.14375        -1.44888         0.33446
| 36>    C        8.01491        -1.14133        -0.75530
| 37>    N        9.24400        -0.68945        -0.58352
| 38>    C        9.79708        -0.64515        -1.81446
| 39>    C        8.85346        -1.13318        -2.83738
| 40>    C        9.45302        -1.05388        -4.18534
| 41>    O        8.96932        -1.37443        -5.24302
| 42>    C       10.78301        -0.47543        -3.90085
| 43>    C       10.94946        -0.25395        -2.44032
| 44>    N       12.15834         0.30214        -2.17775
| 45>    C       12.72865         0.44959        -3.34496
| 46>    C       11.91944        -0.00528        -4.46668
| 47>    C        7.69761        -1.42432        -2.17417
| 48>    C        6.43487        -1.88089        -2.66599
| 49>    C        5.26579        -1.50361        -2.11864
| 50>    C        3.97630        -1.97140        -2.54055
| 51>    S        2.64398        -0.87410        -2.63582
| 52>    C        1.55668        -2.11455        -3.19766
| 53>    C        2.21893        -3.32941        -3.31313
| 54>    C        3.58454        -3.23867        -2.93456
| 55>    N        4.42001        -4.40248        -2.86950
| 56>    O        5.29714        -4.41342        -2.03193
| 57>    O        4.17307        -5.29822        -3.64245
| 58>    C        1.61394        -4.52823        -3.74273
| 59>    N        1.09720        -5.49124        -4.08639
| 60>    C        0.20043        -1.75836        -3.45405
| 61>    C       -0.83103        -2.61850        -3.60570
| 62>    C       -2.18128        -2.20457        -3.82032
| 63>    N       -3.17841        -2.92063        -3.33574
| 64>    C       -4.30477        -2.23543        -3.62104
| 65>    C       -4.00166        -0.98922        -4.34619
| 66>    C       -5.24485        -0.26701        -4.66807
| 67>    O       -5.37599         0.81034        -5.21072
| 68>    C       -6.28499        -1.16578        -4.14539
| 69>    C       -5.66601        -2.34652        -3.49496
| 70>    N       -6.62086        -3.18720        -3.02942
| 71>    C       -7.75935        -2.63194        -3.35953
| 72>    C       -7.62278        -1.37305        -4.07224
| 73>    C       -2.64001        -0.97886        -4.52590
| 74>    C       -1.83528        -0.11781        -5.32518
| 75>    C       -2.34377         0.97625        -5.94130
| 76>    C       -1.60652         1.80092        -6.83036
| 77>    C       -2.15640         2.67916        -7.70861
| 78>    C       -1.34612         3.77017        -8.32035
| 79>    O       -0.13982         3.84553        -8.34781
| 80>    C       -2.33548         4.74823        -8.80980
| 81>    C       -2.12260         5.98349        -9.35208
| 82>    C       -3.23203         6.77136        -9.73019
| 83>    C       -4.54984         6.26471        -9.52974
| 84>    C       -5.65140         7.06021        -9.90054
| 85>    C       -5.43425         8.29472       -10.44645
| 86>    C       -4.14677         8.80910       -10.65453
| 87>    C       -3.06622         8.05142       -10.29848
| 88>    F       -6.48441         9.05551       -10.80166
| 89>    C       -4.74168         4.97922        -8.97236
| 90>    C       -3.65106         4.22864        -8.62530
| 91>    C       -3.54373         2.87667        -8.08515
| 92>    C       -4.51205         1.91211        -8.13997
| 93>    C       -4.27595         0.53799        -7.91281
| 94>    N       -4.12253        -0.59543        -7.82075
| 95>    C       -5.83782         2.15776        -8.55669
| 96>    N       -6.92709         2.31401        -8.88100
| 97>    H        9.95587         2.00012         6.49177
| 98>    H        8.25239        -0.43553         9.55423
| 99>    H        6.94961        -1.69570         7.85850
|100>    H        9.35095         1.64140         4.14298
|101>    H        6.32759        -2.08946         5.50337
|102>    H        6.47248        -2.28957         0.18757
|103>    H       13.71569         0.87256        -3.41829
|104>    H       12.20717         0.03790        -5.49829
|105>    H        6.46891        -2.51630        -3.54070
|106>    H        5.25628        -0.73955        -1.35144
|107>    H        0.00898        -0.69254        -3.44642
|108>    H       -0.69243        -3.68244        -3.47736
|109>    H       -8.69049        -3.10298        -3.09613
|110>    H       -8.43149        -0.77164        -4.43737
|111>    H       -0.81520        -0.42085        -5.51977
|112>    H       -3.37405         1.24711        -5.75251
|113>    H       -0.52301         1.78024        -6.78173
|114>    H       -1.11844         6.35536        -9.49085
|115>    H       -6.65637         6.69480        -9.75822
|116>    H       -4.03752         9.78961       -11.09006
|117>    H       -2.06492         8.42599       -10.44879
|118>    H       -5.74835         4.62167        -8.82412
|119> *
|120>
|121>                          ****END OF INPUT****

CARTESIAN COORDINATES (ANGSTROEM)
---------------------------------
  C      9.299130    1.192260    6.774090
  C      9.162520    0.838880    8.088290
  F      9.854940    1.503650    9.026700
  C      8.318890   -0.201790    8.503550
  C      7.605250   -0.890590    7.563210
  C      7.708330   -0.568660    6.193610
  C      8.570910    0.494690    5.791060
  C      8.684740    0.841230    4.424800
  C      7.960410    0.145700    3.494230
  C      7.110230   -0.926970    3.900890
  C      6.979190   -1.278250    5.215110
  C      6.470760   -1.525820    2.718390
  O      5.620310   -2.378780    2.663960
  C      7.144940   -0.865400    1.553030
  C      7.855000    0.301420    2.049140
  C      8.149150    1.421070    1.325240
  C      8.758040    2.569630    1.874040
  N      9.246890    3.520910    2.287730
  C      7.760150    1.576420   -0.022620
  N      7.383190    1.755640   -1.091510
  C      7.143750   -1.448880    0.334460
  C      8.014910   -1.141330   -0.755300
  N      9.244000   -0.689450   -0.583520
  C      9.797080   -0.645150   -1.814460
  C      8.853460   -1.133180   -2.837380
  C      9.453020   -1.053880   -4.185340
  O      8.969320   -1.374430   -5.243020
  C     10.783010   -0.475430   -3.900850
  C     10.949460   -0.253950   -2.440320
  N     12.158340    0.302140   -2.177750
  C     12.728650    0.449590   -3.344960
  C     11.919440   -0.005280   -4.466680
  C      7.697610   -1.424320   -2.174170
  C      6.434870   -1.880890   -2.665990
  C      5.265790   -1.503610   -2.118640
  C      3.976300   -1.971400   -2.540550
  S      2.643980   -0.874100   -2.635820
  C      1.556680   -2.114550   -3.197660
  C      2.218930   -3.329410   -3.313130
  C      3.584540   -3.238670   -2.934560
  N      4.420010   -4.402480   -2.869500
  O      5.297140   -4.413420   -2.031930
  O      4.173070   -5.298220   -3.642450
  C      1.613940   -4.528230   -3.742730
  N      1.097200   -5.491240   -4.086390
  C      0.200430   -1.758360   -3.454050
  C     -0.831030   -2.618500   -3.605700
  C     -2.181280   -2.204570   -3.820320
  N     -3.178410   -2.920630   -3.335740
  C     -4.304770   -2.235430   -3.621040
  C     -4.001660   -0.989220   -4.346190
  C     -5.244850   -0.267010   -4.668070
  O     -5.375990    0.810340   -5.210720
  C     -6.284990   -1.165780   -4.145390
  C     -5.666010   -2.346520   -3.494960
  N     -6.620860   -3.187200   -3.029420
  C     -7.759350   -2.631940   -3.359530
  C     -7.622780   -1.373050   -4.072240
  C     -2.640010   -0.978860   -4.525900
  C     -1.835280   -0.117810   -5.325180
  C     -2.343770    0.976250   -5.941300
  C     -1.606520    1.800920   -6.830360
  C     -2.156400    2.679160   -7.708610
  C     -1.346120    3.770170   -8.320350
  O     -0.139820    3.845530   -8.347810
  C     -2.335480    4.748230   -8.809800
  C     -2.122600    5.983490   -9.352080
  C     -3.232030    6.771360   -9.730190
  C     -4.549840    6.264710   -9.529740
  C     -5.651400    7.060210   -9.900540
  C     -5.434250    8.294720  -10.446450
  C     -4.146770    8.809100  -10.654530
  C     -3.066220    8.051420  -10.298480
  F     -6.484410    9.055510  -10.801660
  C     -4.741680    4.979220   -8.972360
  C     -3.651060    4.228640   -8.625300
  C     -3.543730    2.876670   -8.085150
  C     -4.512050    1.912110   -8.139970
  C     -4.275950    0.537990   -7.912810
  N     -4.122530   -0.595430   -7.820750
  C     -5.837820    2.157760   -8.556690
  N     -6.927090    2.314010   -8.881000
  H      9.955870    2.000120    6.491770
  H      8.252390   -0.435530    9.554230
  H      6.949610   -1.695700    7.858500
  H      9.350950    1.641400    4.142980
  H      6.327590   -2.089460    5.503370
  H      6.472480   -2.289570    0.187570
  H     13.715690    0.872560   -3.418290
  H     12.207170    0.037900   -5.498290
  H      6.468910   -2.516300   -3.540700
  H      5.256280   -0.739550   -1.351440
  H      0.008980   -0.692540   -3.446420
  H     -0.692430   -3.682440   -3.477360
  H     -8.690490   -3.102980   -3.096130
  H     -8.431490   -0.771640   -4.437370
  H     -0.815200   -0.420850   -5.519770
  H     -3.374050    1.247110   -5.752510
  H     -0.523010    1.780240   -6.781730
  H     -1.118440    6.355360   -9.490850
  H     -6.656370    6.694800   -9.758220
  H     -4.037520    9.789610  -11.090060
  H     -2.064920    8.425990  -10.448790
  H     -5.748350    4.621670   -8.824120

 Total Charge           Charge          ....    0
 Multiplicity           Mult            ....    1
 Number of Electrons    NEL             ....  552
 Basis Dimension        Dim             .... 1262

ORBITAL ENERGIES
----------------

  NO   OCC          E(Eh)            E(eV)
   0   2.0000     -89.008692     -2422.0496
   1   2.0000     -24.795514      -674.7203
   2   2.0000     -24.786684      -674.4800
   3   2.0000     -19.263035      -524.1738
   4   2.0000     -19.258650      -524.0545
   5   2.0000     -19.234252      -523.3906
   6   2.0000     -19.223278      -523.0920
   7   2.0000     -19.222981      -523.0839
   8   2.0000     -19.216451      -522.9062
   9   2.0000     -14.670354      -399.2006
  10   2.0000     -14.431296      -392.6955
  11   2.0000     -14.430344      -392.6696
  12   2.0000     -14.429835      -392.6558
  13   2.0000     -14.421949      -392.4412
  14   2.0000     -14.421889      -392.4396
  15   2.0000     -14.419179      -392.3658
  16   2.0000     -14.416140      -392.2831
  17   2.0000     -14.413497      -392.2112
  18   2.0000     -14.412702      -392.1896
  19   2.0000     -10.384540      -282.5777
  20   2.0000     -10.384526      -282.5773
  21   2.0000     -10.382350      -282.5181
  22   2.0000     -10.380327      -282.4631
  23   2.0000     -10.370423      -282.1936
  24   2.0000     -10.367640      -282.1178
  25   2.0000     -10.361886      -281.9612
  26   2.0000     -10.361606      -281.9536
  27   2.0000     -10.361136      -281.9408
  28   2.0000     -10.360909      -281.9347
  29   2.0000     -10.358831      -281.8781
  30   2.0000     -10.355242      -281.7805
  31   2.0000     -10.352693      -281.7111
  32   2.0000     -10.351927      -281.6903
  33   2.0000     -10.347282      -281.5639
  34   2.0000     -10.346294      -281.5370
  35   2.0000     -10.345311      -281.5102
  36   2.0000     -10.344231      -281.4808
  37   2.0000     -10.340787      -281.3871
  38   2.0000     -10.340103      -281.3685
  39   2.0000     -10.334560      -281.2177
  40   2.0000     -10.334227      -281.2086
  41   2.0000     -10.333802      -281.1971
  42   2.0000     -10.330804      -281.1155
  43   2.0000     -10.330757      -281.1142
  44   2.0000     -10.329997      -281.0935
  45   2.0000     -10.327431      -281.0237
  46   2.0000     -10.323237      -280.9096
  47   2.0000     -10.320206      -280.8271
  48   2.0000     -10.319320      -280.8030
  49   2.0000     -10.318294      -280.7751
  50   2.0000     -10.317899      -280.7643
  51   2.0000     -10.317629      -280.7570
  52   2.0000     -10.316641      -280.7301
  53   2.0000     -10.316017      -280.7131
  54   2.0000     -10.315810      -280.7075
  55   2.0000     -10.314675      -280.6766
  56   2.0000     -10.313730      -280.6509
  57   2.0000     -10.313087      -280.6334
  58   2.0000     -10.312824      -280.6262
  59   2.0000     -10.310786      -280.5707
  60   2.0000     -10.308838      -280.5177
  61   2.0000     -10.308080      -280.4971
  62   2.0000     -10.307200      -280.4732
  63   2.0000     -10.307173      -280.4724
  64   2.0000     -10.307084      -280.4700
  65   2.0000     -10.305986      -280.4401
  66   2.0000     -10.304752      -280.4066
  67   2.0000     -10.304720      -280.4057
  68   2.0000     -10.304595      -280.4023
  69   2.0000     -10.302121      -280.3350
  70   2.0000     -10.301990      -280.3314
  71   2.0000     -10.301242      -280.3110
  72   2.0000     -10.301065      -280.3062
  73   2.0000     -10.299077      -280.2521
  74   2.0000     -10.298658      -280.2407
  75   2.0000     -10.298613      -280.2395
  76   2.0000     -10.298340      -280.2321
  77   2.0000     -10.297035      -280.1966
  78   2.0000     -10.295242      -280.1478
  79   2.0000     -10.295033      -280.1421
  80   2.0000     -10.291359      -280.0421
  81   2.0000     -10.289601      -279.9943
  82   2.0000      -8.104486      -220.5343
  83   2.0000      -6.073616      -165.2715
  84   2.0000      -6.069493      -165.1593
  85   2.0000      -6.066743      -165.0845
  86   2.0000      -1.344244       -36.5787
  87   2.0000      -1.311418       -35.6855
  88   2.0000      -1.301866       -35.4256
  89   2.0000      -1.163568       -31.6623
  90   2.0000      -1.149890       -31.2901
  91   2.0000      -1.139397       -31.0046
  92   2.0000      -1.137107       -30.9423
  93   2.0000      -1.131466       -30.7887
  94   2.0000      -1.096706       -29.8429
  95   2.0000      -1.087186       -29.5838
  96   2.0000      -1.077630       -29.3238
  97   2.0000      -1.068225       -29.0679
  98   2.0000      -1.047897       -28.5147
  99   2.0000      -1.033274       -28.1168
 100   2.0000      -1.018846       -27.7242
 101   2.0000      -1.014611       -27.6090
 102   2.0000      -1.008707       -27.4483
 103   2.0000      -1.003445       -27.3051
 104   2.0000      -1.000729       -27.2312
 105   2.0000      -0.993115       -27.0240
 106   2.0000      -0.990016       -26.9397
 107   2.0000      -0.977461       -26.5981
 108   2.0000      -0.957808       -26.0633
 109   2.0000      -0.954758       -25.9803
 110   2.0000      -0.946319       -25.7506
 111   2.0000      -0.941604       -25.6224
 112   2.0000      -0.939277       -25.5590
 113   2.0000      -0.935901       -25.4672
 114   2.0000      -0.925366       -25.1805
 115   2.0000      -0.920068       -25.0363
 116   2.0000      -0.915222       -24.9044
 117   2.0000      -0.901877       -24.5413
 118   2.0000      -0.899166       -24.4676
 119   2.0000      -0.893434       -24.3116
 120   2.0000      -0.888727       -24.1835
 121   2.0000      -0.887037       -24.1375
 122   2.0000      -0.877341       -23.8737
 123   2.0000      -0.871896       -23.7255
 124   2.0000      -0.866731       -23.5849
 125   2.0000      -0.853851       -23.2345
 126   2.0000      -0.847020       -23.0486
 127   2.0000      -0.839278       -22.8379
 128   2.0000      -0.833350       -22.6766
 129   2.0000      -0.825425       -22.4610
 130   2.0000      -0.820395       -22.3241
 131   2.0000      -0.797149       -21.6915
 132   2.0000      -0.790587       -21.5130
 133   2.0000      -0.781582       -21.2679
 134   2.0000      -0.769519       -20.9397
 135   2.0000      -0.768709       -20.9176
 136   2.0000      -0.766229       -20.8502
 137   2.0000      -0.760241       -20.6872
 138   2.0000      -0.747433       -20.3387
 139   2.0000      -0.743932       -20.2434
 140   2.0000      -0.738247       -20.0887
 141   2.0000      -0.728129       -19.8134
 142   2.0000      -0.724739       -19.7211
 143   2.0000      -0.720965       -19.6185
 144   2.0000      -0.715062       -19.4578
 145   2.0000      -0.709573       -19.3085
 146   2.0000      -0.701959       -19.1013
 147   2.0000      -0.696434       -18.9509
 148   2.0000      -0.689906       -18.7733
 149   2.0000      -0.688513       -18.7354
 150   2.0000      -0.681342       -18.5402
 151   2.0000      -0.673977       -18.3398
 152   2.0000      -0.671337       -18.2680
 153   2.0000      -0.663651       -18.0589
 154   2.0000      -0.659632       -17.9495
 155   2.0000      -0.655047       -17.8247
 156   2.0000      -0.648783       -17.6543
 157   2.0000      -0.646777       -17.5997
 158   2.0000      -0.643500       -17.5105
 159   2.0000      -0.641026       -17.4432
 160   2.0000      -0.639349       -17.3976
 161   2.0000      -0.633957       -17.2508
 162   2.0000      -0.632467       -17.2103
 163   2.0000      -0.630121       -17.1465
 164   2.0000      -0.629715       -17.1354
 165   2.0000      -0.621065       -16.9000
 166   2.0000      -0.615343       -16.7443
 167   2.0000      -0.611979       -16.6528
 168   2.0000      -0.608183       -16.5495
 169   2.0000      -0.604246       -16.4424
 170   2.0000      -0.597414       -16.2565
 171   2.0000      -0.595763       -16.2115
 172   2.0000      -0.586255       -15.9528
 173   2.0000      -0.584371       -15.9015
 174   2.0000      -0.579823       -15.7778
 175   2.0000      -0.576871       -15.6975
 176   2.0000      -0.573911       -15.6169
 177   2.0000      -0.569595       -15.4995
 178   2.0000      -0.568329       -15.4650
 179   2.0000      -0.567310       -15.4373
 180   2.0000      -0.564805       -15.3691
 181   2.0000      -0.560354       -15.2480
 182   2.0000      -0.559300       -15.2193
 183   2.0000      -0.558256       -15.1909
 184   2.0000      -0.557710       -15.1760
 185   2.0000      -0.554652       -15.0928
 186   2.0000      -0.552445       -15.0328
 187   2.0000      -0.548882       -14.9358
 188   2.0000      -0.548076       -14.9139
 189   2.0000      -0.546006       -14.8576
 190   2.0000      -0.545767       -14.8511
 191   2.0000      -0.541381       -14.7317
 192   2.0000      -0.537098       -14.6152
 193   2.0000      -0.536009       -14.5856
 194   2.0000      -0.534438       -14.5428
 195   2.0000      -0.532637       -14.4938
 196   2.0000      -0.529609       -14.4114
 197   2.0000      -0.526826       -14.3357
 198   2.0000      -0.524377       -14.2690
 199   2.0000      -0.521653       -14.1949
 200   2.0000      -0.519370       -14.1328
 201   2.0000      -0.517806       -14.0902
 202   2.0000      -0.516685       -14.0597
 203   2.0000      -0.514697       -14.0056
 204   2.0000      -0.512330       -13.9412
 205   2.0000      -0.507648       -13.8138
 206   2.0000      -0.503477       -13.7003
 207   2.0000      -0.502062       -13.6618
 208   2.0000      -0.498988       -13.5782
 209   2.0000      -0.497163       -13.5285
 210   2.0000      -0.496595       -13.5130
 211   2.0000      -0.494749       -13.4628
 212   2.0000      -0.492175       -13.3928
 213   2.0000      -0.488324       -13.2880
 214   2.0000      -0.486724       -13.2444
 215   2.0000      -0.485749       -13.2179
 216   2.0000      -0.484281       -13.1780
 217   2.0000      -0.483899       -13.1676
 218   2.0000      -0.480326       -13.0703
 219   2.0000      -0.478957       -13.0331
 220   2.0000      -0.477205       -12.9854
 221   2.0000      -0.473829       -12.8935
 222   2.0000      -0.471861       -12.8400
 223   2.0000      -0.468892       -12.7592
 224   2.0000      -0.467667       -12.7259
 225   2.0000      -0.464644       -12.6436
 226   2.0000      -0.458761       -12.4835
 227   2.0000      -0.457684       -12.4542
 228   2.0000      -0.456410       -12.4195
 229   2.0000      -0.454605       -12.3704
 230   2.0000      -0.451298       -12.2804
 231   2.0000      -0.449908       -12.2426
 232   2.0000      -0.447812       -12.1856
 233   2.0000      -0.446271       -12.1436
 234   2.0000      -0.442566       -12.0428
 235   2.0000      -0.440993       -12.0000
 236   2.0000      -0.440698       -11.9920
 237   2.0000      -0.437848       -11.9145
 238   2.0000      -0.436011       -11.8645
 239   2.0000      -0.434980       -11.8364
 240   2.0000      -0.429213       -11.6795
 241   2.0000      -0.428028       -11.6472
 242   2.0000      -0.427379       -11.6296
 243   2.0000      -0.423125       -11.5138
 244   2.0000      -0.417440       -11.3591
 245   2.0000      -0.412032       -11.2120
 246   2.0000      -0.407153       -11.0792
 247   2.0000      -0.404201       -10.9989
 248   2.0000      -0.400067       -10.8864
 249   2.0000      -0.393227       -10.7003
 250   2.0000      -0.390993       -10.6395
 251   2.0000      -0.390229       -10.6187
 252   2.0000      -0.388757       -10.5786
 253   2.0000      -0.380938       -10.3658
 254   2.0000      -0.380126       -10.3438
 255   2.0000      -0.372006       -10.1228
 256   2.0000      -0.369081       -10.0432
 257   2.0000      -0.367739       -10.0067
 258   2.0000      -0.363003        -9.8778
 259   2.0000      -0.361414        -9.8346
 260   2.0000      -0.359193        -9.7741
 261   2.0000      -0.355910        -9.6848
 262   2.0000      -0.352561        -9.5937
 263   2.0000      -0.350022        -9.5246
 264   2.0000      -0.342897        -9.3307
 265   2.0000      -0.342534        -9.3208
 266   2.0000      -0.339958        -9.2507
 267   2.0000      -0.336629        -9.1601
 268   2.0000      -0.332516        -9.0482
 269   2.0000      -0.325201        -8.8492
 270   2.0000      -0.322144        -8.7660
 271   2.0000      -0.314728        -8.5642
 272   2.0000      -0.308578        -8.3968
 273   2.0000      -0.301586        -8.2066
 274   2.0000      -0.295871        -8.0511
 275   2.0000      -0.285581        -7.7710
 276   0.0000      -0.137952        -3.7539
 277   0.0000      -0.127455        -3.4682
 278   0.0000      -0.100069        -2.7230
 279   0.0000      -0.092227        -2.5096
 280   0.0000      -0.077943        -2.1209

MULLIKEN ATOMIC CHARGES
-----------------------
   0 C :   -0.095540
   1 C :    0.303856
   2 F :   -0.184482
   3 C :   -0.027754
   4 C :   -0.005150
   5 C :    0.096333
   6 C :    0.101043
   7 C :   -0.080488
   8 C :    0.053084
   9 C :   -0.001079
  10 C :   -0.069765
  11 C :    0.139959
  12 O :   -0.122949
  13 C :   -0.075959
  14 C :    0.269686
  15 C :   -0.282677
  16 C :   -0.184382
  17 N :    0.167126
  18 C :   -0.176007
  19 N :    0.154572
  20 C :   -0.030905
  21 C :   -0.012605
  22 N :   -0.033051
  23 C :    0.072711
  24 C :   -0.102156
  25 C :    0.212249
  26 O :   -0.110267
  27 C :   -0.043053
  28 C :   -0.002492
  29 N :   -0.052379
  30 C :    0.103018
  31 C :   -0.087119
  32 C :    0.011641
  33 C :    0.049831
  34 C :   -0.008755
  35 C :   -0.173877
  36 S :    0.214370
  37 C :   -0.112045
  38 C :   -0.051498
  39 C :    0.223306
  40 N :    0.240497
  41 O :   -0.226008
  42 O :   -0.200100
  43 C :   -0.233489
  44 N :    0.190370
  45 C :    0.048919
  46 C :   -0.000042
  47 C :    0.025033
  48 N :   -0.021828
  49 C :    0.071650
  50 C :   -0.148113
  51 C :    0.245969
  52 O :   -0.151518
  53 C :   -0.014441
  54 C :   -0.014851
  55 N :   -0.049544
  56 C :    0.096974
  57 C :   -0.086982
  58 C :    0.041201
  59 C :   -0.035350
  60 C :    0.021141
  61 C :    0.033425
  62 C :   -0.105159
  63 C :    0.145795
  64 O :   -0.138935
  65 C :    0.000376
  66 C :   -0.082739
  67 C :    0.104901
  68 C :    0.107117
  69 C :   -0.102749
  70 C :    0.305835
  71 C :   -0.025109
  72 C :   -0.013054
  73 F :   -0.188818
  74 C :   -0.091415
  75 C :    0.049598
  76 C :    0.264604
  77 C :   -0.298338
  78 C :   -0.201681
  79 N :    0.158280
  80 C :   -0.174097
  81 N :    0.154607
  82 H :    0.000677
  83 H :    0.008588
  84 H :   -0.004383
  85 H :    0.002371
  86 H :   -0.005375
  87 H :    0.056001
  88 H :    0.019327
  89 H :    0.004472
  90 H :    0.029366
  91 H :    0.033689
  92 H :    0.009804
  93 H :    0.045553
  94 H :    0.016434
  95 H :    0.003266
  96 H :   -0.004023
  97 H :    0.042899
  98 H :    0.014023
  99 H :   -0.011099
 100 H :   -0.001743
 101 H :    0.003276
 102 H :   -0.008903
 103 H :   -0.002504
Sum of atomic charges:   -0.0000000

LOEWDIN ATOMIC CHARGES
----------------------
   0 C :   -0.040879
   1 C :    0.096159
   2 F :   -0.059206
   3 C :   -0.032848
   4 C :    0.007117
   5 C :   -0.017225
   6 C :    0.006275
   7 C :    0.015967
   8 C :   -0.015301
   9 C :   -0.063141
  10 C :    0.040770
  11 C :    0.083757
  12 O :   -0.124054
  13 C :   -0.030122
  14 C :    0.071955
  15 C :   -0.105491
  16 C :   -0.017207
  17 N :   -0.035734
  18 C :   -0.011116
  19 N :   -0.051973
  20 C :    0.031868
  21 C :    0.061301
  22 N :   -0.086962
  23 C :    0.040853
  24 C :   -0.021461
  25 C :    0.066117
  26 O :   -0.123989
  27 C :   -0.035246
  28 C :    0.046699
  29 N :   -0.093122
  30 C :    0.093660
  31 C :   -0.026314
  32 C :   -0.025427
  33 C :    0.027776
  34 C :   -0.046596
  35 C :   -0.138913
  36 S :    0.508271
  37 C :   -0.140488
  38 C :   -0.080514
  39 C :   -0.048333
  40 N :    0.281101
  41 O :   -0.196140
  42 O :   -0.162681
  43 C :   -0.040314
  44 N :   -0.019470
  45 C :   -0.021896
  46 C :    0.002481
  47 C :    0.065559
  48 N :   -0.083236
  49 C :    0.045354
  50 C :   -0.027974
  51 C :    0.079218
  52 O :   -0.139339
  53 C :   -0.034999
  54 C :    0.038083
  55 N :   -0.089972
  56 C :    0.085720
  57 C :   -0.025069
  58 C :   -0.031005
  59 C :   -0.001376
  60 C :    0.001547
  61 C :    0.060863
  62 C :   -0.073815
  63 C :    0.081805
  64 O :   -0.140703
  65 C :   -0.060845
  66 C :    0.035519
  67 C :   -0.018574
  68 C :    0.004389
  69 C :   -0.041967
  70 C :    0.093587
  71 C :   -0.036352
  72 C :    0.005051
  73 F :   -0.063703
  74 C :    0.011621
  75 C :   -0.015875
  76 C :    0.066722
  77 C :   -0.116208
  78 C :   -0.015993
  79 N :   -0.052143
  80 C :   -0.013045
  81 N :   -0.046845
  82 H :    0.044491
  83 H :    0.043889
  84 H :    0.037526
  85 H :    0.041501
  86 H :    0.042138
  87 H :    0.057763
  88 H :    0.028098
  89 H :    0.038408
  90 H :    0.044353
  91 H :    0.038876
  92 H :    0.035949
  93 H :    0.054321
  94 H :    0.026693
  95 H :    0.037956
  96 H :    0.031966
  97 H :    0.034745
  98 H :    0.044154
  99 H :    0.039932
 100 H :    0.043444
 101 H :    0.042041
 102 H :    0.035888
 103 H :    0.039907

  Mayer bond orders larger than 0.100000
B(  0-C ,  1-C ) :   1.4416 B(  0-C ,  6-C ) :   1.2021 B(  0-C , 82-H ) :   1.0068
B(  1-C ,  2-F ) :   1.0951 B(  1-C ,  3-C ) :   1.2515 B(  3-C ,  4-C ) :   1.4637
B(  3-C , 83-H ) :   0.9931 B(  4-C ,  5-C ) :   1.2325 B(  4-C , 84-H ) :   0.9977
B(  5-C ,  6-C ) :   1.2488 B(  5-C , 10-C ) :   1.2028 B(  6-C ,  7-C ) :   1.2104
B(  7-C ,  8-C ) :   1.4572 B(  7-C , 85-H ) :   0.9953 B(  8-C ,  9-C ) :   1.2091
B(  8-C , 14-C ) :   1.0045 B(  9-C , 10-C ) :   1.4631 B(  9-C , 11-C ) :   0.9216
B( 10-C , 86-H ) :   1.0151 B( 11-C , 12-O ) :   2.2929 B( 11-C , 13-C ) :   0.9101
B( 13-C , 14-C ) :   1.0098 B( 13-C , 20-C ) :   1.7345 B( 14-C , 15-C ) :   1.7034
B( 15-C , 16-C ) :   1.1343 B( 15-C , 18-C ) :   1.1597 B( 16-C , 17-N ) :   2.9914
B( 18-C , 19-N ) :   2.9684 B( 20-C , 21-C ) :   1.0248 B( 20-C , 87-H ) :   0.9439
B( 21-C , 22-N ) :   1.5993 B( 21-C , 23-C ) :   0.1100 B( 21-C , 32-C ) :   1.0407
B( 22-N , 23-C ) :   1.3123 B( 23-C , 24-C ) :   1.0482 B( 23-C , 28-C ) :   1.4398
B( 24-C , 25-C ) :   0.8827 B( 24-C , 32-C ) :   1.5803 B( 25-C , 26-O ) :   2.3153
B( 25-C , 27-C ) :   0.8862 B( 27-C , 28-C ) :   1.0360 B( 27-C , 31-C ) :   1.6434
B( 28-C , 29-N ) :   1.3023 B( 29-N , 30-C ) :   1.6686 B( 30-C , 31-C ) :   1.0511
B( 30-C , 88-H ) :   0.9880 B( 31-C , 89-H ) :   1.0099 B( 32-C , 33-C ) :   1.1308
B( 33-C , 34-C ) :   1.7334 B( 33-C , 90-H ) :   0.9567 B( 34-C , 35-C ) :   1.0580
B( 34-C , 91-H ) :   0.9431 B( 35-C , 36-S ) :   1.1754 B( 35-C , 39-C ) :   1.4879
B( 36-S , 37-C ) :   1.1193 B( 37-C , 38-C ) :   1.5068 B( 37-C , 45-C ) :   1.1431
B( 38-C , 39-C ) :   1.2871 B( 38-C , 43-C ) :   1.1299 B( 39-C , 40-N ) :   0.8986
B( 40-N , 41-O ) :   1.5293 B( 40-N , 42-O ) :   1.5388 B( 41-O , 42-O ) :   0.2764
B( 43-C , 44-N ) :   2.9771 B( 45-C , 46-C ) :   1.6866 B( 45-C , 92-H ) :   0.9404
B( 46-C , 47-C ) :   1.1076 B( 46-C , 93-H ) :   0.9460 B( 47-C , 48-N ) :   1.6163
B( 47-C , 49-C ) :   0.1072 B( 47-C , 58-C ) :   1.0128 B( 48-N , 49-C ) :   1.3291
B( 49-C , 50-C ) :   1.0615 B( 49-C , 54-C ) :   1.4310 B( 50-C , 51-C ) :   0.8949
B( 50-C , 58-C ) :   1.5623 B( 51-C , 52-O ) :   2.1452 B( 51-C , 53-C ) :   0.9365
B( 52-O , 97-H ) :   0.1022 B( 53-C , 54-C ) :   1.0588 B( 53-C , 57-C ) :   1.6154
B( 54-C , 55-N ) :   1.3097 B( 55-N , 56-C ) :   1.6610 B( 56-C , 57-C ) :   1.0586
B( 56-C , 94-H ) :   0.9889 B( 57-C , 95-H ) :   1.0110 B( 58-C , 59-C ) :   1.0922
B( 59-C , 60-C ) :   1.6771 B( 59-C , 96-H ) :   0.9759 B( 60-C , 61-C ) :   1.0965
B( 60-C , 97-H ) :   0.9253 B( 61-C , 62-C ) :   1.6617 B( 61-C , 98-H ) :   0.9606
B( 62-C , 63-C ) :   0.9298 B( 62-C , 76-C ) :   1.0239 B( 63-C , 64-O ) :   2.2802
B( 63-C , 65-C ) :   0.9227 B( 65-C , 66-C ) :   1.4652 B( 65-C , 75-C ) :   1.2167
B( 66-C , 67-C ) :   1.1937 B( 66-C , 99-H ) :   1.0165 B( 67-C , 68-C ) :   1.2550
B( 67-C , 72-C ) :   1.2316 B( 68-C , 69-C ) :   1.1999 B( 68-C , 74-C ) :   1.2016
B( 69-C , 70-C ) :   1.4407 B( 69-C ,100-H ) :   1.0081 B( 70-C , 71-C ) :   1.2532
B( 70-C , 73-F ) :   1.0906 B( 71-C , 72-C ) :   1.4625 B( 71-C ,101-H ) :   0.9922
B( 72-C ,102-H ) :   0.9978 B( 74-C , 75-C ) :   1.4591 B( 74-C ,103-H ) :   0.9957
B( 75-C , 76-C ) :   0.9998 B( 76-C , 77-C ) :   1.6740 B( 77-C , 78-C ) :   1.1561
B( 77-C , 80-C ) :   1.1377 B( 78-C , 79-N ) :   2.9850 B( 80-C , 81-N ) :   2.9848

-----------------------------------------------------------------------------
         ABSORPTION SPECTRUM VIA TRANSITION ELECTRIC DIPOLE MOMENTS
-----------------------------------------------------------------------------
State   Energy  Wavelength   fosc         T2         TX        TY        TZ
        (cm-1)    (nm)                  (au**2)     (au)      (au)      (au)
-----------------------------------------------------------------------------
   0   17343.7    576.6   0.084436841   1.60275  -0.72913  -0.71756   0.74581
   1   18162.1    550.6   0.056610765   1.02614  -0.83827  -0.04780   0.56671
   2   20324.1    492.0   0.019529987   0.31635  -0.41952   0.20010   0.31672
   3   21166.9    472.4   0.046063733   0.71644   0.36437  -0.37715  -0.66441
   4   21431.9    466.6   0.325303072   4.99692   2.22845  -0.06524   0.16334
   5   22014.5    454.2   0.797570422  11.92712  -3.38121   0.18449  -0.67858
   6   22701.6    440.5   0.338247104   4.90517  -0.01894  -1.43974   1.68284
   7   23539.8    424.8   0.007901380   0.11050   0.25285  -0.18929  -0.10362
   8   24027.6    416.2   0.063869032   0.87510  -0.55499   0.00243   0.75304
   9   24325.3    411.1   0.126356746   1.71008   0.35222   1.00843  -0.75438
  10   24560.3    407.2   0.016316757   0.21871  -0.28060   0.19152   0.32141
  11   24955.7    400.7   0.072311245   0.95392   0.67443  -0.29122   0.64363
  12   25011.3    399.8   0.085993995   1.13190  -0.68362   0.13947   0.80319
  13   25346.9    394.5   0.000825712   0.01072  -0.05797   0.04012  -0.07586
  14   25504.1    392.1   0.268766854   3.46930  -0.97019   0.14353   1.58349
  15   26243.5    381.0   0.075264717   0.94416   0.07210   0.05385   0.96750
  16   26313.4    380.0   0.018652943   0.23337  -0.07538  -0.40667   0.24962
  17   26410.4    378.6   0.143703447   1.79130  -0.45728  -0.22398  -1.23775
  18   26829.4    372.7   0.044260227   0.54310  -0.61431  -0.17567   0.36723
  19   27036.3    369.9   0.157909839   1.92282   1.29905   0.48018  -0.06855
  20   27626.4    362.0   0.340589898   4.05866  -1.92424  -0.05205   0.59433
  21   27882.6    358.6   0.027174024   0.32085   0.44345   0.29032  -0.19978
  22   28798.1    347.2   0.136853500   1.56447   0.29053  -1.15854   0.37128
  23   28939.5    345.5   0.001101660   0.01253  -0.04484  -0.00702   0.10233
  24   29204.1    342.4   0.024660127   0.27799  -0.05506   0.48418  -0.20131
  25   29472.2    339.3   0.006818386   0.07616  -0.23491   0.13222  -0.05914
  26   29982.7    333.5   0.054346825   0.59673  -0.62348   0.40566  -0.20844
  27   30372.9    329.2   0.042105433   0.45638  -0.47583  -0.01357  -0.47936
  28   30441.5    328.5   0.038724187   0.41879   0.37714   0.19528  -0.48828
  29   30652.3    326.2   0.078997206   0.84845  -0.18409  -0.35975   0.82773
  30   30897.8    323.6   0.013135868   0.13996  -0.02165  -0.06247   0.36822
  31   31131.8    321.2   0.077125650   0.81559  -0.13348  -0.16794  -0.87725
  32   31422.2    318.2   0.423631523   4.43840  -0.95497  -1.67720   0.84466
  33   31525.1    317.2   0.072240818   0.75440  -0.40436  -0.69633   0.32561
  34   31922.1    313.3   0.004949357   0.05104  -0.10166  -0.18209   0.08690
  35   32117.4    311.4   0.049943211   0.51193  -0.06629  -0.17999   0.68931
  36   33104.4    302.1   0.094007989   0.93488   0.53204   0.36860   0.71829
  37   33283.8    300.4   0.402405432   3.98021  -0.25519  -1.77698   0.87030
  38   33719.4    296.6   0.337923475   3.29925  -1.78232   0.17837  -0.30126
  39   33975.2    294.3   0.071356397   0.69143  -0.13620  -0.81594   0.08436
  40   34089.0    293.3   0.042446633   0.40993   0.41995   0.48007  -0.05570
  41   34354.4    291.1   0.145233469   1.39175  -0.52265  -0.89408   0.56499
  42   34444.6    290.3   0.004217175   0.04031  -0.09338   0.13852  -0.11136
  43   34520.5    289.7   0.136627748   1.30298  -0.13434  -0.41213   1.05597
  44   34728.7    287.9   0.016712766   0.15843  -0.29522  -0.02988   0.26529
  45   34872.4    286.8   0.008764111   0.08274   0.10827   0.26578  -0.01935
  46   34976.8    285.9   0.257750231   2.42602   0.36550   0.06529   1.51267
  47   35179.9    284.3   0.033276269   0.31140   0.29345  -0.25352  -0.40127
  48   35287.3    283.4   0.163704801   1.52728  -0.49066   1.08340  -0.33583
  49   35516.8    281.6   0.007016137   0.06503   0.03411   0.16799  -0.18881
  50   35629.9    280.7   0.068599495   0.63384   0.36975  -0.67158   0.21475
  51   35655.6    280.5   0.005077568   0.04688  -0.07068   0.14886  -0.14045
  52   35913.9    278.4   0.303958701   2.78630  -1.08072  -0.58308   1.13065
  53   36161.8    276.5   0.126092821   1.14793  -0.97695  -0.10859  -0.42627
  54   36331.3    275.2   0.034426850   0.31196   0.09544  -0.13602  -0.53324
  55   36364.7    275.0   0.044467731   0.40257  -0.13483  -0.44739   0.42923
  56   36575.7    273.4   0.026563066   0.23909   0.11101  -0.22146  -0.42157
  57   36657.7    272.8   0.023880761   0.21447   0.37728   0.26852  -0.00437
  58   36720.2    272.3   0.277136247   2.48464  -0.17002  -0.73103   1.38612
  59   36782.7    271.9   0.000205031   0.00184  -0.01244   0.03367  -0.02338
  60   36901.2    271.0   0.012070537   0.10769  -0.17693   0.26042  -0.09253
  61   37160.6    269.1   0.027485650   0.24350  -0.33562   0.34521  -0.10813
  62   37428.7    267.2   0.083711024   0.73630   0.10915   0.63406  -0.56776
  63   37583.9    266.1   0.081208651   0.71134  -0.24572   0.79929  -0.10999
  64   37688.7    265.3   0.014883439   0.13001   0.17059  -0.30280   0.09603
  65   37732.5    265.0   0.013239467   0.11551   0.32975   0.07774   0.02704
  66   37882.5    264.0   0.036203570   0.31462   0.53309   0.17286   0.02363
  67   38120.2    262.3   0.076511830   0.66077  -0.08120   0.72183  -0.36488
  68   38171.6    262.0   0.013178007   0.11365  -0.30247  -0.13758  -0.05690
  69   38236.8    261.5   0.001698668   0.01463  -0.00474  -0.00067  -0.12084
  70   38389.4    260.5   0.035913489   0.30798   0.17917   0.51486  -0.10390
  71   38467.8    260.0   0.043657858   0.37363  -0.56038   0.00070   0.24413
  72   38532.6    259.5   0.188130567   1.60733  -0.89371  -0.30642   0.84541
  73   38544.9    259.4   0.002697938   0.02304   0.05335   0.14179  -0.00954
  74   39041.9    256.1   0.110646552   0.93300  -0.38941  -0.57233  -0.67365
  75   39204.0    255.1   0.007107559   0.05969   0.20158  -0.13333  -0.03569
  76   39241.0    254.8   0.040345764   0.33848   0.10839   0.38342   0.42393
  77   39411.7    253.7   0.051939110   0.43386   0.17123   0.15590   0.61663
  78   39603.9    252.5   0.032069592   0.26658  -0.46665  -0.21858   0.03226
  79   39781.7    251.4   0.233491758   1.93225   1.30862   0.45876   0.09638
  80   39835.3    251.0   0.073921058   0.61091   0.53127   0.52240  -0.23614
  81   39975.6    250.2   0.047192168   0.38864  -0.33171  -0.12937   0.51174
  82   39994.5    250.0   0.015980447   0.13154  -0.24836  -0.15969   0.21062
  83   40121.2    249.2   0.023799108   0.19528   0.15301   0.09071   0.40453
  84   40245.0    248.5   0.009201493   0.07527   0.23150   0.12529  -0.07734

FINAL SINGLE POINT ENERGY     -4005.695043946167

DIPOLE MOMENT
-------------
                                X             Y             Z
Electronic contribution:      6.82675      -3.90900       4.29709
Nuclear contribution   :     -5.31089       6.34027      -1.91316
                        -----------------------------------------
Total Dipole Moment    :      1.51585       2.43127       2.38393
                        -----------------------------------------
Magnitude (a.u.)       :      3.72720
Magnitude (Debye)      :      9.47378

Rotational constants in cm-1:     0.000888     0.000252     0.000236
Rotational constants in MHz :    26.623976     7.543695     7.072553

                             ****ORCA TERMINATED NORMALLY****
TOTAL RUN TIME: 0 days 0 hours 10 minutes 53 seconds 361 msec
