                         Program Version 4.2.0 -  RELEASE  -
|  1> # ORCA input file
|  2> # SCF done       -188.320432059418          0.000667463424
|  3> ! CAM-B3LYP def2-SVP def2/J RIJCOSX Grid4 TightSCF
|  4> %maxcore 5000
|  5> %tddft
|  6>     Mode sTDDFT
|  7>     Ethresh 5.0
|  8>     maxcore 5000
|  9> end
| 10>
| 11> %pal
| 12>   nprocs 6
| 13>   end
| 14> * xyz 0 1
| 15>    C       -5.47083         3.72780        -7.17027
| 16>    C       -4.45005         3.65415        -6.28559
| 17>    C       -3.82038         2.44886        -5.91515
| 18>    C       -4.33624         1.17170        -6.43296
| 19>    C       -5.33576         1.04854        -7.33505
| 20>    S       -6.17841         2.38490        -8.00252
| 21>    C       -3.56862         0.16164        -5.79006
| 22>    C       -2.64213         0.75476        -4.93799
| 23>    C       -1.84242        -0.19874        -4.27169
| 24>    C       -2.17953        -1.46647        -4.62770
| 25>    S       -3.46799        -1.55557        -5.77991
| 26>    C       -2.77089         2.19168        -5.02392
| 27>    C       -1.91001         3.05998        -4.30506
| 28>    C       -1.68040         4.37795        -4.53822
| 29>    C       -0.77633         5.17290        -3.79069
| 30>    C       -0.01501         4.84110        -2.67866
| 31>    C        0.78116         5.89884        -2.24998
| 32>    C        0.63170         7.05785        -3.03168
| 33>    S       -0.49914         6.83672        -4.29452
| 34>    C        1.50091         8.05465        -2.53135
| 35>    C        2.20156         7.53077        -1.42853
| 36>    C        1.76944         6.16288        -1.21196
| 37>    C        2.20361         5.29758        -0.24986
| 38>    C        1.71755         3.97757        -0.15560
| 39>    N        1.32862         2.90090        -0.08220
| 40>    C        3.17005         5.66496         0.70921
| 41>    N        3.95439         5.96057         1.49193
| 42>    C        3.11549         8.43494        -0.88615
| 43>    C        3.12042         9.63823        -1.56503
| 44>    S        1.96144         9.65932        -2.89286
| 45>    C        3.95215        10.76208        -1.33873
| 46>    C        3.98490        11.94344        -2.05737
| 47>    C        4.98031        12.80563        -1.59920
| 48>    C        5.70746        12.27944        -0.51814
| 49>    S        5.16019        10.72539        -0.06041
| 50>    C        6.72311        13.20152        -0.16529
| 51>    C        6.64258        14.30925        -1.02693
| 52>    C        5.53299        14.10635        -1.94327
| 53>    C        5.10082        14.95520        -2.92038
| 54>    C        4.00333        14.64702        -3.75072
| 55>    N        3.11069        14.40027        -4.42718
| 56>    C        5.72089        16.19848        -3.16254
| 57>    N        6.22158        17.21080        -3.36204
| 58>    C        7.64189        15.25398        -0.79328
| 59>    C        8.47853        14.87775         0.24068
| 60>    S        8.01454        13.33337         0.94620
| 61>    C        9.62827        15.55779         0.71380
| 62>    C       10.42716        15.22580         1.79142
| 63>    C       11.51166        16.09356         1.92578
| 64>    C       11.54012        17.09114         0.93549
| 65>    S       10.22251        16.97452        -0.14627
| 66>    C       12.69244        17.88902         1.13098
| 67>    C       13.39180        17.40439         2.24789
| 68>    C       12.66622        16.26517         2.79113
| 69>    C       13.00180        15.51621         3.88108
| 70>    C       12.21457        14.42900         4.31425
| 71>    N       11.57724        13.54357         4.66742
| 72>    C       14.15583        15.78038         4.64758
| 73>    N       15.09180        15.99400         5.27466
| 74>    C       14.56747        18.10921         2.50317
| 75>    C       14.77959        19.12305         1.58588
| 76>    S       13.48501        19.21185         0.39393
| 77>    C       15.88599        20.01849         1.51387
| 78>    C       16.03486        20.93820         0.50728
| 79>    C       17.11244        21.81610         0.37474
| 80>    C       18.20765        21.81369         1.35603
| 81>    C       18.26356        20.99967         2.43072
| 82>    S       17.06366        19.83547         2.81438
| 83>    C       19.11194        22.80800         0.90086
| 84>    C       18.62914        23.39136        -0.27627
| 85>    C       19.51215        24.38787        -0.75551
| 86>    C       20.60211        24.52611         0.04219
| 87>    S       20.61570        23.46354         1.40867
| 88>    C       17.37376        22.77480        -0.61382
| 89>    C       16.51709        23.04589        -1.73115
| 90>    C       16.74062        23.91854        -2.71492
| 91>    H       -5.93787         4.66228        -7.43145
| 92>    H       -4.12849         4.57516        -5.82319
| 93>    H       -5.66874         0.08952        -7.69908
| 94>    H       -1.06276         0.02899        -3.56760
| 95>    H       -1.74447        -2.38341        -4.28100
| 96>    H       -1.34420         2.57776        -3.51885
| 97>    H       -2.16021         4.87677        -5.36682
| 98>    H       -0.04412         3.87408        -2.21247
| 99>    H        3.75815         8.23857        -0.04656
|100>    H        3.31912        12.14377        -2.87768
|101>    H        7.77110        16.16936        -1.34260
|102>    H       10.21866        14.38885         2.43359
|103>    H       15.24920        17.89779         3.30711
|104>    H       15.25184        20.96566        -0.23972
|105>    H       19.08020        21.02083         3.13516
|106>    H       19.36746        24.98216        -1.63834
|107>    H       21.42495        25.20246        -0.08432
|108>    H       15.60262        22.46655        -1.75599
|109>    H       17.62622        24.52459        -2.76210
|110>    H       16.03169        24.04819        -3.51417
|111> *
|112>
|113>                          ****END OF INPUT****

CARTESIAN COORDINATES (ANGSTROEM)
---------------------------------
  C     -5.470830    3.727800   -7.170270
  C     -4.450050    3.654150   -6.285590
  C     -3.820380    2.448860   -5.915150
  C     -4.336240    1.171700   -6.432960
  C     -5.335760    1.048540   -7.335050
  S     -6.178410    2.384900   -8.002520
  C     -3.568620    0.161640   -5.790060
  C     -2.642130    0.754760   -4.937990
  C     -1.842420   -0.198740   -4.271690
  C     -2.179530   -1.466470   -4.627700
  S     -3.467990   -1.555570   -5.779910
  C     -2.770890    2.191680   -5.023920
  C     -1.910010    3.059980   -4.305060
  C     -1.680400    4.377950   -4.538220
  C     -0.776330    5.172900   -3.790690
  C     -0.015010    4.841100   -2.678660
  C      0.781160    5.898840   -2.249980
  C      0.631700    7.057850   -3.031680
  S     -0.499140    6.836720   -4.294520
  C      1.500910    8.054650   -2.531350
  C      2.201560    7.530770   -1.428530
  C      1.769440    6.162880   -1.211960
  C      2.203610    5.297580   -0.249860
  C      1.717550    3.977570   -0.155600
  N      1.328620    2.900900   -0.082200
  C      3.170050    5.664960    0.709210
  N      3.954390    5.960570    1.491930
  C      3.115490    8.434940   -0.886150
  C      3.120420    9.638230   -1.565030
  S      1.961440    9.659320   -2.892860
  C      3.952150   10.762080   -1.338730
  C      3.984900   11.943440   -2.057370
  C      4.980310   12.805630   -1.599200
  C      5.707460   12.279440   -0.518140
  S      5.160190   10.725390   -0.060410
  C      6.723110   13.201520   -0.165290
  C      6.642580   14.309250   -1.026930
  C      5.532990   14.106350   -1.943270
  C      5.100820   14.955200   -2.920380
  C      4.003330   14.647020   -3.750720
  N      3.110690   14.400270   -4.427180
  C      5.720890   16.198480   -3.162540
  N      6.221580   17.210800   -3.362040
  C      7.641890   15.253980   -0.793280
  C      8.478530   14.877750    0.240680
  S      8.014540   13.333370    0.946200
  C      9.628270   15.557790    0.713800
  C     10.427160   15.225800    1.791420
  C     11.511660   16.093560    1.925780
  C     11.540120   17.091140    0.935490
  S     10.222510   16.974520   -0.146270
  C     12.692440   17.889020    1.130980
  C     13.391800   17.404390    2.247890
  C     12.666220   16.265170    2.791130
  C     13.001800   15.516210    3.881080
  C     12.214570   14.429000    4.314250
  N     11.577240   13.543570    4.667420
  C     14.155830   15.780380    4.647580
  N     15.091800   15.994000    5.274660
  C     14.567470   18.109210    2.503170
  C     14.779590   19.123050    1.585880
  S     13.485010   19.211850    0.393930
  C     15.885990   20.018490    1.513870
  C     16.034860   20.938200    0.507280
  C     17.112440   21.816100    0.374740
  C     18.207650   21.813690    1.356030
  C     18.263560   20.999670    2.430720
  S     17.063660   19.835470    2.814380
  C     19.111940   22.808000    0.900860
  C     18.629140   23.391360   -0.276270
  C     19.512150   24.387870   -0.755510
  C     20.602110   24.526110    0.042190
  S     20.615700   23.463540    1.408670
  C     17.373760   22.774800   -0.613820
  C     16.517090   23.045890   -1.731150
  C     16.740620   23.918540   -2.714920
  H     -5.937870    4.662280   -7.431450
  H     -4.128490    4.575160   -5.823190
  H     -5.668740    0.089520   -7.699080
  H     -1.062760    0.028990   -3.567600
  H     -1.744470   -2.383410   -4.281000
  H     -1.344200    2.577760   -3.518850
  H     -2.160210    4.876770   -5.366820
  H     -0.044120    3.874080   -2.212470
  H      3.758150    8.238570   -0.046560
  H      3.319120   12.143770   -2.877680
  H      7.771100   16.169360   -1.342600
  H     10.218660   14.388850    2.433590
  H     15.249200   17.897790    3.307110
  H     15.251840   20.965660   -0.239720
  H     19.080200   21.020830    3.135160
  H     19.367460   24.982160   -1.638340
  H     21.424950   25.202460   -0.084320
  H     15.602620   22.466550   -1.755990
  H     17.626220   24.524590   -2.762100
  H     16.031690   24.048190   -3.514170

 Total Charge           Charge          ....    0
 Multiplicity           Mult            ....    1
 Number of Electrons    NEL             ....  582
 Basis Dimension        Dim             .... 1204

ORBITAL ENERGIES
----------------

  NO   OCC          E(Eh)            E(eV)
   0   2.0000     -88.991151     -2421.5723
   1   2.0000     -88.990826     -2421.5635
   2   2.0000     -88.989880     -2421.5377
   3   2.0000     -88.988723     -2421.5063
   4   2.0000     -88.987302     -2421.4676
   5   2.0000     -88.980579     -2421.2846
   6   2.0000     -88.975867     -2421.1564
   7   2.0000     -88.971653     -2421.0418
   8   2.0000     -88.952903     -2420.5316
   9   2.0000     -88.952664     -2420.5250
  10   2.0000     -14.431735      -392.7075
  11   2.0000     -14.431587      -392.7035
  12   2.0000     -14.430519      -392.6744
  13   2.0000     -14.429906      -392.6577
  14   2.0000     -14.427382      -392.5890
  15   2.0000     -14.427086      -392.5810
  16   2.0000     -10.365449      -282.0582
  17   2.0000     -10.364549      -282.0337
  18   2.0000     -10.360172      -281.9146
  19   2.0000     -10.352718      -281.7118
  20   2.0000     -10.351574      -281.6806
  21   2.0000     -10.347816      -281.5784
  22   2.0000     -10.332540      -281.1627
  23   2.0000     -10.332155      -281.1522
  24   2.0000     -10.332007      -281.1482
  25   2.0000     -10.331910      -281.1456
  26   2.0000     -10.330845      -281.1166
  27   2.0000     -10.330249      -281.1004
  28   2.0000     -10.330145      -281.0975
  29   2.0000     -10.330115      -281.0967
  30   2.0000     -10.329748      -281.0867
  31   2.0000     -10.329245      -281.0731
  32   2.0000     -10.329015      -281.0668
  33   2.0000     -10.328931      -281.0645
  34   2.0000     -10.327951      -281.0378
  35   2.0000     -10.327818      -281.0342
  36   2.0000     -10.326441      -280.9968
  37   2.0000     -10.325753      -280.9780
  38   2.0000     -10.324972      -280.9568
  39   2.0000     -10.324493      -280.9437
  40   2.0000     -10.324276      -280.9378
  41   2.0000     -10.320171      -280.8261
  42   2.0000     -10.316090      -280.7151
  43   2.0000     -10.313613      -280.6477
  44   2.0000     -10.302907      -280.3564
  45   2.0000     -10.302843      -280.3546
  46   2.0000     -10.302660      -280.3496
  47   2.0000     -10.302233      -280.3380
  48   2.0000     -10.301972      -280.3309
  49   2.0000     -10.301595      -280.3207
  50   2.0000     -10.300352      -280.2868
  51   2.0000     -10.299507      -280.2638
  52   2.0000     -10.298585      -280.2388
  53   2.0000     -10.297371      -280.2057
  54   2.0000     -10.297309      -280.2040
  55   2.0000     -10.297239      -280.2021
  56   2.0000     -10.295967      -280.1675
  57   2.0000     -10.295539      -280.1559
  58   2.0000     -10.293002      -280.0868
  59   2.0000     -10.292718      -280.0791
  60   2.0000     -10.291892      -280.0566
  61   2.0000     -10.289488      -279.9912
  62   2.0000     -10.284842      -279.8648
  63   2.0000     -10.282760      -279.8081
  64   2.0000     -10.282680      -279.8059
  65   2.0000     -10.281389      -279.7708
  66   2.0000     -10.281085      -279.7625
  67   2.0000     -10.279772      -279.7268
  68   2.0000     -10.271981      -279.5148
  69   2.0000     -10.270907      -279.4856
  70   2.0000     -10.270688      -279.4796
  71   2.0000     -10.270491      -279.4743
  72   2.0000     -10.269965      -279.4600
  73   2.0000     -10.269409      -279.4448
  74   2.0000     -10.268888      -279.4307
  75   2.0000     -10.256563      -279.0953
  76   2.0000      -8.085434      -220.0158
  77   2.0000      -8.085182      -220.0090
  78   2.0000      -8.084152      -219.9810
  79   2.0000      -8.082967      -219.9487
  80   2.0000      -8.081669      -219.9134
  81   2.0000      -8.075234      -219.7383
  82   2.0000      -8.071721      -219.6427
  83   2.0000      -8.066828      -219.5095
  84   2.0000      -8.048190      -219.0024
  85   2.0000      -8.048078      -218.9993
  86   2.0000      -6.054733      -164.7577
  87   2.0000      -6.054478      -164.7507
  88   2.0000      -6.053470      -164.7233
  89   2.0000      -6.052288      -164.6911
  90   2.0000      -6.050988      -164.6557
  91   2.0000      -6.050580      -164.6447
  92   2.0000      -6.050343      -164.6382
  93   2.0000      -6.049299      -164.6098
  94   2.0000      -6.048156      -164.5787
  95   2.0000      -6.047730      -164.5671
  96   2.0000      -6.047448      -164.5594
  97   2.0000      -6.046836      -164.5428
  98   2.0000      -6.046446      -164.5322
  99   2.0000      -6.045208      -164.4985
 100   2.0000      -6.044418      -164.4770
 101   2.0000      -6.043924      -164.4635
 102   2.0000      -6.041189      -164.3891
 103   2.0000      -6.040347      -164.3662
 104   2.0000      -6.037679      -164.2936
 105   2.0000      -6.036558      -164.2631
 106   2.0000      -6.036521      -164.2621
 107   2.0000      -6.033884      -164.1903
 108   2.0000      -6.031927      -164.1371
 109   2.0000      -6.028490      -164.0436
 110   2.0000      -6.017669      -163.7491
 111   2.0000      -6.017499      -163.7445
 112   2.0000      -6.013415      -163.6333
 113   2.0000      -6.013272      -163.6295
 114   2.0000      -6.010222      -163.5464
 115   2.0000      -6.010163      -163.5449
 116   2.0000      -1.046023       -28.4637
 117   2.0000      -1.043129       -28.3850
 118   2.0000      -1.038617       -28.2622
 119   2.0000      -1.023357       -27.8470
 120   2.0000      -1.021788       -27.8043
 121   2.0000      -1.018452       -27.7135
 122   2.0000      -1.009430       -27.4680
 123   2.0000      -1.008207       -27.4347
 124   2.0000      -1.006664       -27.3927
 125   2.0000      -1.004843       -27.3432
 126   2.0000      -1.002433       -27.2776
 127   2.0000      -1.001596       -27.2548
 128   2.0000      -0.995064       -27.0771
 129   2.0000      -0.985889       -26.8274
 130   2.0000      -0.970021       -26.3956
 131   2.0000      -0.966484       -26.2994
 132   2.0000      -0.960134       -26.1266
 133   2.0000      -0.953633       -25.9497
 134   2.0000      -0.951490       -25.8914
 135   2.0000      -0.925455       -25.1829
 136   2.0000      -0.924696       -25.1622
 137   2.0000      -0.918995       -25.0071
 138   2.0000      -0.911364       -24.7995
 139   2.0000      -0.903157       -24.5762
 140   2.0000      -0.886134       -24.1129
 141   2.0000      -0.884925       -24.0800
 142   2.0000      -0.873645       -23.7731
 143   2.0000      -0.870292       -23.6819
 144   2.0000      -0.869486       -23.6599
 145   2.0000      -0.863247       -23.4901
 146   2.0000      -0.862110       -23.4592
 147   2.0000      -0.856676       -23.3113
 148   2.0000      -0.850766       -23.1505
 149   2.0000      -0.846767       -23.0417
 150   2.0000      -0.842780       -22.9332
 151   2.0000      -0.833948       -22.6929
 152   2.0000      -0.827331       -22.5128
 153   2.0000      -0.814582       -22.1659
 154   2.0000      -0.802615       -21.8403
 155   2.0000      -0.799479       -21.7549
 156   2.0000      -0.787634       -21.4326
 157   2.0000      -0.782327       -21.2882
 158   2.0000      -0.778602       -21.1868
 159   2.0000      -0.771498       -20.9935
 160   2.0000      -0.767563       -20.8864
 161   2.0000      -0.757982       -20.6257
 162   2.0000      -0.744257       -20.2523
 163   2.0000      -0.729343       -19.8464
 164   2.0000      -0.717633       -19.5278
 165   2.0000      -0.713544       -19.4165
 166   2.0000      -0.709736       -19.3129
 167   2.0000      -0.705511       -19.1979
 168   2.0000      -0.697234       -18.9727
 169   2.0000      -0.692760       -18.8510
 170   2.0000      -0.687380       -18.7046
 171   2.0000      -0.682000       -18.5582
 172   2.0000      -0.679046       -18.4778
 173   2.0000      -0.674307       -18.3488
 174   2.0000      -0.664751       -18.0888
 175   2.0000      -0.656613       -17.8673
 176   2.0000      -0.650752       -17.7079
 177   2.0000      -0.647960       -17.6319
 178   2.0000      -0.644657       -17.5420
 179   2.0000      -0.633342       -17.2341
 180   2.0000      -0.630299       -17.1513
 181   2.0000      -0.629086       -17.1183
 182   2.0000      -0.624362       -16.9898
 183   2.0000      -0.622520       -16.9396
 184   2.0000      -0.619509       -16.8577
 185   2.0000      -0.617219       -16.7954
 186   2.0000      -0.614952       -16.7337
 187   2.0000      -0.611673       -16.6445
 188   2.0000      -0.607573       -16.5329
 189   2.0000      -0.605413       -16.4741
 190   2.0000      -0.591285       -16.0897
 191   2.0000      -0.586466       -15.9586
 192   2.0000      -0.582792       -15.8586
 193   2.0000      -0.570360       -15.5203
 194   2.0000      -0.564560       -15.3625
 195   2.0000      -0.561116       -15.2687
 196   2.0000      -0.556867       -15.1531
 197   2.0000      -0.554308       -15.0835
 198   2.0000      -0.549586       -14.9550
 199   2.0000      -0.547232       -14.8909
 200   2.0000      -0.545846       -14.8532
 201   2.0000      -0.545242       -14.8368
 202   2.0000      -0.541440       -14.7333
 203   2.0000      -0.539356       -14.6766
 204   2.0000      -0.533811       -14.5257
 205   2.0000      -0.528860       -14.3910
 206   2.0000      -0.521010       -14.1774
 207   2.0000      -0.516892       -14.0653
 208   2.0000      -0.513180       -13.9643
 209   2.0000      -0.510568       -13.8933
 210   2.0000      -0.509442       -13.8626
 211   2.0000      -0.508938       -13.8489
 212   2.0000      -0.507345       -13.8056
 213   2.0000      -0.506505       -13.7827
 214   2.0000      -0.504626       -13.7316
 215   2.0000      -0.500605       -13.6222
 216   2.0000      -0.500051       -13.6071
 217   2.0000      -0.498897       -13.5757
 218   2.0000      -0.498071       -13.5532
 219   2.0000      -0.495624       -13.4866
 220   2.0000      -0.495170       -13.4743
 221   2.0000      -0.491978       -13.3874
 222   2.0000      -0.488279       -13.2868
 223   2.0000      -0.485888       -13.2217
 224   2.0000      -0.484626       -13.1873
 225   2.0000      -0.481594       -13.1048
 226   2.0000      -0.479709       -13.0535
 227   2.0000      -0.472094       -12.8463
 228   2.0000      -0.470759       -12.8100
 229   2.0000      -0.469215       -12.7680
 230   2.0000      -0.466169       -12.6851
 231   2.0000      -0.462974       -12.5982
 232   2.0000      -0.461350       -12.5540
 233   2.0000      -0.459139       -12.4938
 234   2.0000      -0.458864       -12.4863
 235   2.0000      -0.458679       -12.4813
 236   2.0000      -0.457887       -12.4598
 237   2.0000      -0.457548       -12.4505
 238   2.0000      -0.454895       -12.3783
 239   2.0000      -0.454865       -12.3775
 240   2.0000      -0.452448       -12.3117
 241   2.0000      -0.448151       -12.1948
 242   2.0000      -0.447003       -12.1636
 243   2.0000      -0.443699       -12.0737
 244   2.0000      -0.441902       -12.0248
 245   2.0000      -0.441669       -12.0184
 246   2.0000      -0.441360       -12.0100
 247   2.0000      -0.440363       -11.9829
 248   2.0000      -0.439495       -11.9593
 249   2.0000      -0.437921       -11.9164
 250   2.0000      -0.437693       -11.9102
 251   2.0000      -0.437051       -11.8928
 252   2.0000      -0.434855       -11.8330
 253   2.0000      -0.433619       -11.7994
 254   2.0000      -0.432744       -11.7756
 255   2.0000      -0.432211       -11.7611
 256   2.0000      -0.431219       -11.7341
 257   2.0000      -0.427904       -11.6439
 258   2.0000      -0.425896       -11.5892
 259   2.0000      -0.424015       -11.5380
 260   2.0000      -0.421814       -11.4781
 261   2.0000      -0.420936       -11.4542
 262   2.0000      -0.418774       -11.3954
 263   2.0000      -0.412241       -11.2177
 264   2.0000      -0.410523       -11.1709
 265   2.0000      -0.408743       -11.1225
 266   2.0000      -0.408221       -11.1083
 267   2.0000      -0.408030       -11.1031
 268   2.0000      -0.404606       -11.0099
 269   2.0000      -0.394769       -10.7422
 270   2.0000      -0.388942       -10.5836
 271   2.0000      -0.382918       -10.4197
 272   2.0000      -0.378773       -10.3070
 273   2.0000      -0.361125        -9.8267
 274   2.0000      -0.355158        -9.6643
 275   2.0000      -0.351284        -9.5589
 276   2.0000      -0.347436        -9.4542
 277   2.0000      -0.343904        -9.3581
 278   2.0000      -0.340433        -9.2636
 279   2.0000      -0.327906        -8.9228
 280   2.0000      -0.322480        -8.7751
 281   2.0000      -0.321935        -8.7603
 282   2.0000      -0.320502        -8.7213
 283   2.0000      -0.317936        -8.6515
 284   2.0000      -0.303674        -8.2634
 285   2.0000      -0.283138        -7.7046
 286   2.0000      -0.277725        -7.5573
 287   2.0000      -0.268214        -7.2985
 288   2.0000      -0.249140        -6.7794
 289   2.0000      -0.228227        -6.2104
 290   2.0000      -0.220025        -5.9872
 291   0.0000      -0.108297        -2.9469
 292   0.0000      -0.103203        -2.8083
 293   0.0000      -0.099747        -2.7143
 294   0.0000      -0.057720        -1.5706
 295   0.0000      -0.054131        -1.4730

MULLIKEN ATOMIC CHARGES
-----------------------
   0 C :   -0.103734
   1 C :    0.032938
   2 C :    0.010875
   3 C :    0.063706
   4 C :   -0.146463
   5 S :    0.131518
   6 C :   -0.110980
   7 C :    0.050054
   8 C :    0.002994
   9 C :   -0.067330
  10 S :    0.123297
  11 C :    0.077985
  12 C :   -0.017196
  13 C :    0.022958
  14 C :   -0.072704
  15 C :   -0.042208
  16 C :    0.010980
  17 C :   -0.111279
  18 S :    0.177277
  19 C :   -0.092647
  20 C :    0.005646
  21 C :    0.302970
  22 C :   -0.298987
  23 C :   -0.182273
  24 N :    0.166388
  25 C :   -0.189114
  26 N :    0.167088
  27 C :   -0.062947
  28 C :   -0.055955
  29 S :    0.185458
  30 C :   -0.046751
  31 C :   -0.070869
  32 C :    0.015657
  33 C :   -0.100113
  34 S :    0.194962
  35 C :   -0.098122
  36 C :    0.011169
  37 C :    0.300303
  38 C :   -0.296349
  39 C :   -0.188792
  40 N :    0.170070
  41 C :   -0.187065
  42 N :    0.172072
  43 C :   -0.063206
  44 C :   -0.052289
  45 S :    0.195937
  46 C :   -0.051275
  47 C :   -0.064113
  48 C :    0.011577
  49 C :   -0.096211
  50 S :    0.190801
  51 C :   -0.094958
  52 C :    0.013326
  53 C :    0.301865
  54 C :   -0.296951
  55 C :   -0.187635
  56 N :    0.171703
  57 C :   -0.187010
  58 N :    0.173740
  59 C :   -0.058027
  60 C :   -0.061933
  61 S :    0.169184
  62 C :   -0.018903
  63 C :   -0.089107
  64 C :    0.049651
  65 C :    0.068803
  66 C :   -0.121784
  67 S :    0.120650
  68 C :   -0.116691
  69 C :    0.051931
  70 C :   -0.001732
  71 C :   -0.071508
  72 S :    0.125740
  73 C :    0.062433
  74 C :   -0.016543
  75 C :   -0.024214
  76 H :    0.044244
  77 H :   -0.013256
  78 H :    0.035097
  79 H :   -0.011631
  80 H :    0.025986
  81 H :   -0.018063
  82 H :   -0.028399
  83 H :    0.003815
  84 H :    0.009070
  85 H :    0.009844
  86 H :    0.009472
  87 H :    0.010139
  88 H :    0.021064
  89 H :   -0.010036
  90 H :    0.036986
  91 H :   -0.016478
  92 H :    0.023903
  93 H :   -0.034868
  94 H :   -0.002203
  95 H :    0.017577
Sum of atomic charges:   -0.0000000

LOEWDIN ATOMIC CHARGES
----------------------
   0 C :   -0.183786
   1 C :   -0.029742
   2 C :   -0.020679
   3 C :   -0.042655
   4 C :   -0.145112
   5 S :    0.455787
   6 C :   -0.209416
   7 C :   -0.038495
   8 C :   -0.065023
   9 C :   -0.164620
  10 S :    0.417231
  11 C :   -0.060027
  12 C :    0.001627
  13 C :   -0.069118
  14 C :   -0.150403
  15 C :   -0.038786
  16 C :   -0.062167
  17 C :   -0.201015
  18 S :    0.466405
  19 C :   -0.168435
  20 C :   -0.078432
  21 C :    0.085263
  22 C :   -0.105527
  23 C :   -0.014840
  24 N :   -0.037470
  25 C :   -0.016237
  26 N :   -0.036345
  27 C :   -0.036584
  28 C :   -0.187307
  29 S :    0.476952
  30 C :   -0.175451
  31 C :   -0.044139
  32 C :   -0.068062
  33 C :   -0.183976
  34 S :    0.482762
  35 C :   -0.177376
  36 C :   -0.071993
  37 C :    0.084490
  38 C :   -0.102764
  39 C :   -0.015994
  40 N :   -0.034059
  41 C :   -0.016133
  42 N :   -0.034176
  43 C :   -0.039792
  44 C :   -0.181299
  45 S :    0.483581
  46 C :   -0.180149
  47 C :   -0.039524
  48 C :   -0.070601
  49 C :   -0.178423
  50 S :    0.480860
  51 C :   -0.182202
  52 C :   -0.068559
  53 C :    0.083710
  54 C :   -0.101078
  55 C :   -0.016191
  56 N :   -0.033095
  57 C :   -0.016575
  58 N :   -0.031290
  59 C :   -0.043888
  60 C :   -0.174485
  61 S :    0.475022
  62 C :   -0.186325
  63 C :   -0.030012
  64 C :   -0.026923
  65 C :   -0.050925
  66 C :   -0.138868
  67 S :    0.450218
  68 C :   -0.199900
  69 C :   -0.036810
  70 C :   -0.064141
  71 C :   -0.167639
  72 S :    0.420748
  73 C :   -0.045047
  74 C :   -0.023549
  75 C :   -0.054746
  76 H :    0.031103
  77 H :    0.037035
  78 H :    0.035147
  79 H :    0.031463
  80 H :    0.023249
  81 H :    0.031566
  82 H :    0.022151
  83 H :    0.037046
  84 H :    0.035121
  85 H :    0.034537
  86 H :    0.035002
  87 H :    0.035625
  88 H :    0.034778
  89 H :    0.025146
  90 H :    0.036961
  91 H :    0.028824
  92 H :    0.022829
  93 H :    0.025108
  94 H :    0.017330
  95 H :    0.023704

  Mayer bond orders larger than 0.100000
B(  0-C ,  1-C ) :   1.6491 B(  0-C ,  5-S ) :   1.1061 B(  0-C , 76-H ) :   0.9410
B(  1-C ,  2-C ) :   1.2016 B(  1-C , 77-H ) :   0.9701 B(  2-C ,  3-C ) :   1.0596
B(  2-C , 11-C ) :   1.4280 B(  3-C ,  4-C ) :   1.5985 B(  3-C ,  6-C ) :   1.1844
B(  4-C ,  5-S ) :   1.1435 B(  4-C , 78-H ) :   0.9428 B(  6-C ,  7-C ) :   1.4529
B(  6-C , 10-S ) :   1.0688 B(  7-C ,  8-C ) :   1.2201 B(  7-C , 11-C ) :   1.0954
B(  8-C ,  9-C ) :   1.5842 B(  8-C , 79-H ) :   0.9989 B(  9-C , 10-S ) :   1.1578
B(  9-C , 80-H ) :   0.9659 B( 11-C , 12-C ) :   1.1558 B( 12-C , 13-C ) :   1.6485
B( 12-C , 81-H ) :   0.9615 B( 13-C , 14-C ) :   1.1257 B( 13-C , 82-H ) :   0.9595
B( 14-C , 15-C ) :   1.4432 B( 14-C , 18-S ) :   1.1118 B( 15-C , 16-C ) :   1.3086
B( 15-C , 83-H ) :   0.9884 B( 16-C , 17-C ) :   1.4364 B( 16-C , 21-C ) :   0.9946
B( 17-C , 18-S ) :   1.1039 B( 17-C , 19-C ) :   1.1984 B( 19-C , 20-C ) :   1.4381
B( 19-C , 29-S ) :   1.1250 B( 20-C , 21-C ) :   0.9993 B( 20-C , 27-C ) :   1.2950
B( 21-C , 22-C ) :   1.7082 B( 22-C , 23-C ) :   1.1348 B( 22-C , 25-C ) :   1.1307
B( 23-C , 24-N ) :   2.9852 B( 25-C , 26-N ) :   2.9922 B( 27-C , 28-C ) :   1.4643
B( 27-C , 84-H ) :   0.9876 B( 28-C , 29-S ) :   1.0944 B( 28-C , 30-C ) :   1.1713
B( 30-C , 31-C ) :   1.4556 B( 30-C , 34-S ) :   1.1104 B( 31-C , 32-C ) :   1.2994
B( 31-C , 85-H ) :   0.9874 B( 32-C , 33-C ) :   1.4495 B( 32-C , 37-C ) :   0.9929
B( 33-C , 34-S ) :   1.1136 B( 33-C , 35-C ) :   1.1876 B( 35-C , 36-C ) :   1.4462
B( 35-C , 45-S ) :   1.1212 B( 36-C , 37-C ) :   0.9959 B( 36-C , 43-C ) :   1.2998
B( 37-C , 38-C ) :   1.7126 B( 38-C , 39-C ) :   1.1330 B( 38-C , 41-C ) :   1.1325
B( 39-C , 40-N ) :   2.9913 B( 41-C , 42-N ) :   2.9917 B( 43-C , 44-C ) :   1.4599
B( 43-C , 86-H ) :   0.9868 B( 44-C , 45-S ) :   1.1041 B( 44-C , 46-C ) :   1.1680
B( 46-C , 47-C ) :   1.4603 B( 46-C , 50-S ) :   1.1039 B( 47-C , 48-C ) :   1.2975
B( 47-C , 87-H ) :   0.9884 B( 48-C , 49-C ) :   1.4458 B( 48-C , 53-C ) :   0.9952
B( 49-C , 50-S ) :   1.1186 B( 49-C , 51-C ) :   1.1856 B( 51-C , 52-C ) :   1.4533
B( 51-C , 61-S ) :   1.1168 B( 52-C , 53-C ) :   1.0000 B( 52-C , 59-C ) :   1.2960
B( 53-C , 54-C ) :   1.7108 B( 54-C , 55-C ) :   1.1340 B( 54-C , 57-C ) :   1.1326
B( 55-C , 56-N ) :   2.9911 B( 57-C , 58-N ) :   2.9910 B( 59-C , 60-C ) :   1.4625
B( 59-C , 88-H ) :   0.9799 B( 60-C , 61-S ) :   1.1063 B( 60-C , 62-C ) :   1.1619
B( 62-C , 63-C ) :   1.5448 B( 62-C , 67-S ) :   1.0457 B( 63-C , 64-C ) :   1.2326
B( 63-C , 89-H ) :   0.9580 B( 64-C , 65-C ) :   1.0405 B( 64-C , 73-C ) :   1.4302
B( 65-C , 66-C ) :   1.6192 B( 65-C , 68-C ) :   1.1816 B( 66-C , 67-S ) :   1.1306
B( 66-C , 90-H ) :   0.9404 B( 68-C , 69-C ) :   1.4477 B( 68-C , 72-S ) :   1.0785
B( 69-C , 70-C ) :   1.2060 B( 69-C , 73-C ) :   1.0886 B( 70-C , 71-C ) :   1.5905
B( 70-C , 91-H ) :   1.0017 B( 71-C , 72-S ) :   1.1523 B( 71-C , 92-H ) :   0.9650
B( 73-C , 74-C ) :   1.1408 B( 74-C , 75-C ) :   1.9092 B( 74-C , 93-H ) :   0.9502
B( 75-C , 94-H ) :   0.9572 B( 75-C , 95-H ) :   0.9428

-----------------------------------------------------------------------------
         ABSORPTION SPECTRUM VIA TRANSITION ELECTRIC DIPOLE MOMENTS
-----------------------------------------------------------------------------
State   Energy  Wavelength   fosc         T2         TX        TY        TZ
        (cm-1)    (nm)                  (au**2)     (au)      (au)      (au)
-----------------------------------------------------------------------------
   0    9264.2   1079.4   0.514004353  18.26564  -3.00705  -2.83318  -1.09380
   1    9815.7   1018.8   0.054699005   1.83458   1.07258   0.80342  -0.19663
   2   10224.3    978.1   0.002607629   0.08396  -0.01969  -0.15006  -0.24709
   3   15870.3    630.1   0.028293622   0.58692   0.38708   0.34933   0.56130
   4   16804.5    595.1   0.001870533   0.03665   0.11654  -0.11958  -0.09362
   5   18155.3    550.8   0.007161291   0.12986  -0.25630  -0.13388  -0.21504
   6   19088.1    523.9   0.602391039  10.38940   2.33540   2.13945   0.59837
   7   20069.2    498.3   0.019299205   0.31658  -0.43027  -0.23635  -0.27493
   8   20820.5    480.3   1.190595432  18.82558  -3.29031  -2.42218  -1.46032
   9   21541.1    464.2   0.412272534   6.30076  -1.41665  -1.81337   1.00277
  10   22038.7    453.7   0.018652088   0.27862   0.44427   0.11573   0.26049
  11   23391.2    427.5   0.136992016   1.92805  -0.89702  -1.04168  -0.19572
  12   23550.9    424.6   1.181190281  16.51156  -2.78482  -2.89553  -0.61011
  13   24332.9    411.0   0.015549252   0.21037  -0.17158  -0.00920   0.42526
  14   24904.0    401.5   0.183801327   2.42972  -0.45111  -0.98738  -1.11861
  15   25557.5    391.3   0.059189648   0.76243   0.42206   0.55646   0.52406
  16   26559.4    376.5   0.012949840   0.16052  -0.05568   0.21526  -0.33328
  17   26935.1    371.3   0.001546114   0.01890  -0.03892  -0.12819  -0.03082
  18   27199.6    367.7   0.004071485   0.04928   0.04330  -0.16791   0.13861
  19   28337.7    352.9   0.003901608   0.04533   0.05901   0.20393  -0.01603
  20   28710.9    348.3   0.045654191   0.52349  -0.07166   0.65141  -0.30662
  21   29341.4    340.8   0.068943888   0.77355   0.46552  -0.08616   0.74123
  22   29934.2    334.1   0.425960321   4.68464   0.99335  -1.16627   1.52896
  23   30439.4    328.5   0.021858124   0.23640  -0.28997   0.18693  -0.34261
  24   30665.2    326.1   0.041305613   0.44344  -0.23716   0.41117  -0.46706
  25   31051.6    322.0   0.046815520   0.49634  -0.51661  -0.45621  -0.14604
  26   31301.6    319.5   0.252512863   2.65579   0.50710  -0.93488   1.23476
  27   31483.4    317.6   0.194965917   2.03870  -1.03925   0.05455  -0.97759
  28   31686.5    315.6   0.094116344   0.97784   0.59587   0.21236   0.76005
  29   31785.8    314.6   0.376991917   3.90458  -1.34404   0.21313  -1.43273
  30   32098.5    311.5   0.099378817   1.01926  -0.46050   0.05756  -0.89660
  31   32465.5    308.0   0.820883679   8.32405  -0.29203  -2.33037   1.67576
  32   32497.2    307.7   0.615969054   6.24005   0.37436  -1.71179   1.78036
  33   32882.1    304.1   0.103468447   1.03591   0.45363   0.88442   0.21893
  34   32994.0    303.1   0.159998943   1.59646   0.81359  -0.05186   0.96532
  35   33172.5    301.5   0.012413515   0.12319  -0.03546  -0.21279  -0.27687
  36   33422.6    299.2   0.075402249   0.74271   0.75566   0.41270   0.03698
  37   33694.0    296.8   0.038325323   0.37446  -0.19643   0.47478  -0.33236
  38   33799.9    295.9   0.100266335   0.97660  -0.65228  -0.72982  -0.13600
  39   33996.0    294.2   0.024152586   0.23389  -0.26042   0.25684  -0.31639
  40   34059.1    293.6   0.055769033   0.53906  -0.19790  -0.51917   0.47995
  41   34338.5    291.2   0.150657418   1.44439  -0.90129  -0.74576  -0.27552
  42   34682.6    288.3   0.021643913   0.20545  -0.41032  -0.07764  -0.17623
  43   35160.5    284.4   0.021770833   0.20384  -0.36534  -0.26429   0.02281
  44   35582.5    281.0   0.244888706   2.26573  -0.86788  -1.07388   0.59942
  45   35626.0    280.7   0.051667635   0.47745  -0.53155  -0.43882   0.04833
  46   35906.0    278.5   0.055121932   0.50540  -0.37349  -0.59167   0.12581
  47   36049.8    277.4   0.020167463   0.18417  -0.20042  -0.37817   0.03151
  48   36715.8    272.4   0.015247874   0.13672   0.15928   0.01790  -0.33321
  49   36987.9    270.4   0.017040006   0.15167   0.27511   0.27555   0.00727
  50   37228.6    268.6   0.013055520   0.11545   0.32799   0.07268  -0.05090
  51   37408.8    267.3   0.018047110   0.15882  -0.17419  -0.13835  -0.33066
  52   37706.2    265.2   0.046542493   0.40636  -0.25271  -0.36284   0.45918
  53   37818.6    264.4   0.010780279   0.09384  -0.18339  -0.03049  -0.24348
  54   38327.6    260.9   0.255182882   2.19187  -0.55226  -1.31019   0.41265
  55   38559.0    259.3   0.006301182   0.05380   0.14727  -0.08339   0.15861
  56   38972.9    256.6   0.046778952   0.39515   0.46983   0.36598  -0.20118
  57   39165.0    255.3   0.006743391   0.05668   0.08389   0.18261  -0.12768
  58   39437.5    253.6   0.068744908   0.57386   0.44774   0.40415  -0.45831
  59   39490.6    253.2   0.010670810   0.08896  -0.06141  -0.26470   0.12296
  60   39738.7    251.6   0.018313599   0.15172  -0.15400  -0.35750  -0.01396
  61   39883.6    250.7   0.025807863   0.21303  -0.20877   0.28470  -0.29730
  62   40137.0    249.1   0.003066381   0.02515   0.11598  -0.07814   0.07480
  63   40240.1    248.5   0.039173228   0.32048  -0.27832   0.22911  -0.43649

FINAL SINGLE POINT ENERGY     -6604.016253646603

DIPOLE MOMENT
-------------
                                X             Y             Z
Electronic contribution:     -7.31097      -6.87067      17.16290
Nuclear contribution   :      6.01082       6.99655     -19.39548
                        -----------------------------------------
Total Dipole Moment    :     -1.30015       0.12588      -2.23257
                        -----------------------------------------
Magnitude (a.u.)       :      2.58663
Magnitude (Debye)      :      6.57468

Rotational constants in cm-1:     0.002130     0.000123     0.000119
Rotational constants in MHz :    63.844026     3.685173     3.558173

                             ****ORCA TERMINATED NORMALLY****
TOTAL RUN TIME: 0 days 0 hours 13 minutes 53 seconds 998 msec
