                         Program Version 4.2.0 -  RELEASE  -
|  1> # ORCA input file
|  2> # SCF done       -181.773303579471          0.002360310158
|  3> ! CAM-B3LYP def2-SVP def2/J RIJCOSX Grid4 TightSCF
|  4> %maxcore 5000
|  5> %tddft
|  6>     Mode sTDDFT
|  7>     Ethresh 5.0
|  8>     maxcore 5000
|  9> end
| 10>
| 11> %pal
| 12>   nprocs 6
| 13>   end
| 14> * xyz 0 1
| 15>    C        2.30532        12.55783        -5.50780
| 16>    C        2.54285        11.72058        -4.47388
| 17>    C        3.77809        11.07610        -4.26303
| 18>    C        4.89472        11.28787        -5.19171
| 19>    C        4.84733        12.07832        -6.28607
| 20>    S        3.45159        12.97168        -6.74452
| 21>    C        5.95814        10.49328        -4.67991
| 22>    C        5.54795         9.83164        -3.52337
| 23>    C        6.59612         9.07378        -2.95204
| 24>    C        7.73694         9.16622        -3.68461
| 25>    S        7.59835        10.17285        -5.08647
| 26>    C        4.16758        10.18052        -3.26034
| 27>    C        3.34007         9.71339        -2.21256
| 28>    C        3.62243         8.66052        -1.39925
| 29>    C        2.77044         8.21555        -0.36621
| 30>    S        1.36720         9.16426         0.02985
| 31>    C        0.78796         8.02136         1.19056
| 32>    C        1.62814         6.90008         1.22137
| 33>    C        2.80346         7.04033         0.40662
| 34>    C        3.77295         5.99304         0.42870
| 35>    C        5.12174         6.07517        -0.15435
| 36>    O        5.80285         7.06825        -0.27491
| 37>    O        5.60612         4.86778        -0.50468
| 38>    C        3.48630         4.83910         1.13272
| 39>    C        2.28508         4.65948         1.81385
| 40>    C        1.35028         5.66678         1.86581
| 41>    O        0.15343         5.50092         2.46660
| 42>    C       -0.39379         8.33052         1.90701
| 43>    S       -1.62993         9.22881         1.07991
| 44>    C       -2.71487         9.17829         2.42908
| 45>    C       -2.14622         8.44080         3.47522
| 46>    C       -0.79065         8.05208         3.21967
| 47>    C       -0.03413         7.47488         4.27457
| 48>    C        1.43214         7.31409         4.25047
| 49>    O        2.03116         6.38883         4.74427
| 50>    O        2.07022         8.35133         3.68634
| 51>    C       -0.67916         7.11223         5.43532
| 52>    C       -2.04751         7.32766         5.61213
| 53>    C       -2.78505         7.99575         4.66284
| 54>    O       -4.11279         8.20866         4.80267
| 55>    C       -3.95553         9.85504         2.32360
| 56>    S       -4.72578         9.88820         0.76870
| 57>    C       -6.11069        10.75978         1.35005
| 58>    C       -5.98472        10.98189         2.72783
| 59>    C       -4.72093        10.55513         3.25933
| 60>    C       -4.38462        10.89611         4.59769
| 61>    C       -3.02132        10.82195         5.15952
| 62>    O       -2.76509        10.53058         6.30315
| 63>    O       -2.06993        11.19441         4.29147
| 64>    C       -5.35525        11.42583         5.41466
| 65>    C       -6.64952        11.66907         4.94666
| 66>    C       -6.97080        11.47160         3.62546
| 67>    O       -8.22539        11.68014         3.16038
| 68>    C       -7.06207        11.20508         0.38112
| 69>    C       -7.18316        10.56808        -0.83141
| 70>    C       -7.96825        10.99619        -1.90241
| 71>    C       -8.76061        12.22952        -1.80562
| 72>    C       -8.78945        13.01961        -0.71117
| 73>    S       -7.92022        12.70194         0.73031
| 74>    C       -9.40430        12.35509        -3.06195
| 75>    C       -9.04309        11.28803        -3.89275
| 76>    C       -9.64906        11.40122        -5.16690
| 77>    C      -10.43273        12.50540        -5.26137
| 78>    S      -10.46889        13.47008        -3.82325
| 79>    C       -8.14634        10.42618        -3.17134
| 80>    C       -7.51495         9.21940        -3.61919
| 81>    C       -7.70580         8.60320        -4.78759
| 82>    H        1.35719        13.04744        -5.65163
| 83>    H        1.73952        11.54514        -3.77200
| 84>    H        5.68532        12.19944        -6.95371
| 85>    H        6.53520         8.50589        -2.04154
| 86>    H        8.68202         8.69810        -3.48976
| 87>    H        2.39146        10.22214        -2.08404
| 88>    H        4.52979         8.10932        -1.55762
| 89>    H        6.51713         4.96515        -0.82377
| 90>    H        4.21763         4.04722         1.15643
| 91>    H        2.09026         3.72396         2.31803
| 92>    H        0.12829         4.64415         2.91262
| 93>    H        3.02921         8.20491         3.71295
| 94>    H       -0.10368         6.66018         6.22852
| 95>    H       -2.52661         6.99712         6.52247
| 96>    H       -4.39646         7.92141         5.68037
| 97>    H       -1.19758        11.15252         4.71468
| 98>    H       -5.10218        11.66482         6.43616
| 99>    H       -7.40288        12.03749         5.62936
|100>    H       -8.78603        12.02954         3.86508
|101>    H       -6.60995         9.65769        -0.95039
|102>    H       -9.37963        13.92154        -0.66358
|103>    H       -9.52237        10.71546        -5.98398
|104>    H      -11.00637        12.83215        -6.10693
|105>    H       -6.81761         8.78250        -2.91498
|106>    H       -8.38767         8.97011        -5.53246
|107>    H       -7.17580         7.69888        -5.03244
|108> *
|109>
|110>                          ****END OF INPUT****

CARTESIAN COORDINATES (ANGSTROEM)
---------------------------------
  C      2.305320   12.557830   -5.507800
  C      2.542850   11.720580   -4.473880
  C      3.778090   11.076100   -4.263030
  C      4.894720   11.287870   -5.191710
  C      4.847330   12.078320   -6.286070
  S      3.451590   12.971680   -6.744520
  C      5.958140   10.493280   -4.679910
  C      5.547950    9.831640   -3.523370
  C      6.596120    9.073780   -2.952040
  C      7.736940    9.166220   -3.684610
  S      7.598350   10.172850   -5.086470
  C      4.167580   10.180520   -3.260340
  C      3.340070    9.713390   -2.212560
  C      3.622430    8.660520   -1.399250
  C      2.770440    8.215550   -0.366210
  S      1.367200    9.164260    0.029850
  C      0.787960    8.021360    1.190560
  C      1.628140    6.900080    1.221370
  C      2.803460    7.040330    0.406620
  C      3.772950    5.993040    0.428700
  C      5.121740    6.075170   -0.154350
  O      5.802850    7.068250   -0.274910
  O      5.606120    4.867780   -0.504680
  C      3.486300    4.839100    1.132720
  C      2.285080    4.659480    1.813850
  C      1.350280    5.666780    1.865810
  O      0.153430    5.500920    2.466600
  C     -0.393790    8.330520    1.907010
  S     -1.629930    9.228810    1.079910
  C     -2.714870    9.178290    2.429080
  C     -2.146220    8.440800    3.475220
  C     -0.790650    8.052080    3.219670
  C     -0.034130    7.474880    4.274570
  C      1.432140    7.314090    4.250470
  O      2.031160    6.388830    4.744270
  O      2.070220    8.351330    3.686340
  C     -0.679160    7.112230    5.435320
  C     -2.047510    7.327660    5.612130
  C     -2.785050    7.995750    4.662840
  O     -4.112790    8.208660    4.802670
  C     -3.955530    9.855040    2.323600
  S     -4.725780    9.888200    0.768700
  C     -6.110690   10.759780    1.350050
  C     -5.984720   10.981890    2.727830
  C     -4.720930   10.555130    3.259330
  C     -4.384620   10.896110    4.597690
  C     -3.021320   10.821950    5.159520
  O     -2.765090   10.530580    6.303150
  O     -2.069930   11.194410    4.291470
  C     -5.355250   11.425830    5.414660
  C     -6.649520   11.669070    4.946660
  C     -6.970800   11.471600    3.625460
  O     -8.225390   11.680140    3.160380
  C     -7.062070   11.205080    0.381120
  C     -7.183160   10.568080   -0.831410
  C     -7.968250   10.996190   -1.902410
  C     -8.760610   12.229520   -1.805620
  C     -8.789450   13.019610   -0.711170
  S     -7.920220   12.701940    0.730310
  C     -9.404300   12.355090   -3.061950
  C     -9.043090   11.288030   -3.892750
  C     -9.649060   11.401220   -5.166900
  C    -10.432730   12.505400   -5.261370
  S    -10.468890   13.470080   -3.823250
  C     -8.146340   10.426180   -3.171340
  C     -7.514950    9.219400   -3.619190
  C     -7.705800    8.603200   -4.787590
  H      1.357190   13.047440   -5.651630
  H      1.739520   11.545140   -3.772000
  H      5.685320   12.199440   -6.953710
  H      6.535200    8.505890   -2.041540
  H      8.682020    8.698100   -3.489760
  H      2.391460   10.222140   -2.084040
  H      4.529790    8.109320   -1.557620
  H      6.517130    4.965150   -0.823770
  H      4.217630    4.047220    1.156430
  H      2.090260    3.723960    2.318030
  H      0.128290    4.644150    2.912620
  H      3.029210    8.204910    3.712950
  H     -0.103680    6.660180    6.228520
  H     -2.526610    6.997120    6.522470
  H     -4.396460    7.921410    5.680370
  H     -1.197580   11.152520    4.714680
  H     -5.102180   11.664820    6.436160
  H     -7.402880   12.037490    5.629360
  H     -8.786030   12.029540    3.865080
  H     -6.609950    9.657690   -0.950390
  H     -9.379630   13.921540   -0.663580
  H     -9.522370   10.715460   -5.983980
  H    -11.006370   12.832150   -6.106930
  H     -6.817610    8.782500   -2.914980
  H     -8.387670    8.970110   -5.532460
  H     -7.175800    7.698880   -5.032440

 Total Charge           Charge          ....    0
 Multiplicity           Mult            ....    1
 Number of Electrons    NEL             ....  516
 Basis Dimension        Dim             .... 1096

ORBITAL ENERGIES
----------------

  NO   OCC          E(Eh)            E(eV)
   0   2.0000     -88.964047     -2420.8348
   1   2.0000     -88.959577     -2420.7131
   2   2.0000     -88.959138     -2420.7012
   3   2.0000     -88.958374     -2420.6804
   4   2.0000     -88.951942     -2420.5054
   5   2.0000     -88.944144     -2420.2932
   6   2.0000     -88.939269     -2420.1605
   7   2.0000     -19.260631      -524.1084
   8   2.0000     -19.253353      -523.9104
   9   2.0000     -19.252252      -523.8804
  10   2.0000     -19.251145      -523.8503
  11   2.0000     -19.250388      -523.8297
  12   2.0000     -19.247741      -523.7577
  13   2.0000     -19.194512      -522.3092
  14   2.0000     -19.192229      -522.2471
  15   2.0000     -19.189294      -522.1672
  16   2.0000     -10.395362      -282.8722
  17   2.0000     -10.392991      -282.8077
  18   2.0000     -10.389470      -282.7119
  19   2.0000     -10.348487      -281.5966
  20   2.0000     -10.342314      -281.4287
  21   2.0000     -10.340261      -281.3728
  22   2.0000     -10.314444      -280.6703
  23   2.0000     -10.313947      -280.6568
  24   2.0000     -10.313222      -280.6370
  25   2.0000     -10.310503      -280.5631
  26   2.0000     -10.307635      -280.4850
  27   2.0000     -10.305765      -280.4341
  28   2.0000     -10.301946      -280.3302
  29   2.0000     -10.301423      -280.3160
  30   2.0000     -10.297251      -280.2025
  31   2.0000     -10.292116      -280.0627
  32   2.0000     -10.288275      -279.9582
  33   2.0000     -10.288074      -279.9527
  34   2.0000     -10.284301      -279.8500
  35   2.0000     -10.284181      -279.8468
  36   2.0000     -10.282715      -279.8069
  37   2.0000     -10.281876      -279.7841
  38   2.0000     -10.281715      -279.7797
  39   2.0000     -10.281205      -279.7658
  40   2.0000     -10.280841      -279.7559
  41   2.0000     -10.280394      -279.7437
  42   2.0000     -10.279835      -279.7285
  43   2.0000     -10.278786      -279.7000
  44   2.0000     -10.277725      -279.6711
  45   2.0000     -10.276455      -279.6366
  46   2.0000     -10.276380      -279.6345
  47   2.0000     -10.274338      -279.5789
  48   2.0000     -10.273576      -279.5582
  49   2.0000     -10.272494      -279.5288
  50   2.0000     -10.270999      -279.4881
  51   2.0000     -10.270783      -279.4822
  52   2.0000     -10.269187      -279.4388
  53   2.0000     -10.268530      -279.4209
  54   2.0000     -10.266133      -279.3557
  55   2.0000     -10.262977      -279.2698
  56   2.0000     -10.262613      -279.2599
  57   2.0000     -10.261265      -279.2232
  58   2.0000     -10.260662      -279.2068
  59   2.0000     -10.260100      -279.1915
  60   2.0000     -10.259342      -279.1709
  61   2.0000     -10.258665      -279.1525
  62   2.0000     -10.256680      -279.0984
  63   2.0000     -10.255741      -279.0729
  64   2.0000     -10.253373      -279.0085
  65   2.0000     -10.252752      -278.9916
  66   2.0000     -10.246574      -278.8235
  67   2.0000      -8.059302      -219.3048
  68   2.0000      -8.054951      -219.1863
  69   2.0000      -8.054296      -219.1685
  70   2.0000      -8.054270      -219.1678
  71   2.0000      -8.047249      -218.9768
  72   2.0000      -8.039613      -218.7690
  73   2.0000      -8.034701      -218.6353
  74   2.0000      -6.028414      -164.0415
  75   2.0000      -6.024224      -163.9275
  76   2.0000      -6.024002      -163.9214
  77   2.0000      -6.023893      -163.9185
  78   2.0000      -6.023848      -163.9172
  79   2.0000      -6.021807      -163.8617
  80   2.0000      -6.019866      -163.8089
  81   2.0000      -6.019197      -163.7907
  82   2.0000      -6.019190      -163.7905
  83   2.0000      -6.017539      -163.7455
  84   2.0000      -6.016223      -163.7098
  85   2.0000      -6.016215      -163.7095
  86   2.0000      -6.016119      -163.7069
  87   2.0000      -6.012205      -163.6004
  88   2.0000      -6.009908      -163.5379
  89   2.0000      -6.009062      -163.5149
  90   2.0000      -6.004856      -163.4004
  91   2.0000      -6.004129      -163.3807
  92   2.0000      -6.001611      -163.3121
  93   2.0000      -5.999931      -163.2664
  94   2.0000      -5.996750      -163.1799
  95   2.0000      -1.179434       -32.0940
  96   2.0000      -1.178686       -32.0737
  97   2.0000      -1.175495       -31.9868
  98   2.0000      -1.158329       -31.5197
  99   2.0000      -1.151474       -31.3332
 100   2.0000      -1.149698       -31.2849
 101   2.0000      -1.081332       -29.4245
 102   2.0000      -1.080915       -29.4132
 103   2.0000      -1.077708       -29.3259
 104   2.0000      -1.005570       -27.3630
 105   2.0000      -0.994654       -27.0659
 106   2.0000      -0.989121       -26.9154
 107   2.0000      -0.986960       -26.8566
 108   2.0000      -0.978259       -26.6198
 109   2.0000      -0.956975       -26.0406
 110   2.0000      -0.950166       -25.8553
 111   2.0000      -0.933136       -25.3919
 112   2.0000      -0.928829       -25.2747
 113   2.0000      -0.923227       -25.1223
 114   2.0000      -0.911704       -24.8087
 115   2.0000      -0.908064       -24.7097
 116   2.0000      -0.893133       -24.3034
 117   2.0000      -0.880815       -23.9682
 118   2.0000      -0.867314       -23.6008
 119   2.0000      -0.862569       -23.4717
 120   2.0000      -0.855008       -23.2660
 121   2.0000      -0.852104       -23.1869
 122   2.0000      -0.847154       -23.0522
 123   2.0000      -0.838758       -22.8238
 124   2.0000      -0.833376       -22.6773
 125   2.0000      -0.824450       -22.4344
 126   2.0000      -0.823105       -22.3978
 127   2.0000      -0.819715       -22.3056
 128   2.0000      -0.815785       -22.1986
 129   2.0000      -0.805965       -21.9314
 130   2.0000      -0.791811       -21.5463
 131   2.0000      -0.786175       -21.3929
 132   2.0000      -0.775383       -21.0993
 133   2.0000      -0.761817       -20.7301
 134   2.0000      -0.755239       -20.5511
 135   2.0000      -0.744186       -20.2503
 136   2.0000      -0.739632       -20.1264
 137   2.0000      -0.733830       -19.9685
 138   2.0000      -0.719790       -19.5865
 139   2.0000      -0.713526       -19.4160
 140   2.0000      -0.709516       -19.3069
 141   2.0000      -0.704534       -19.1713
 142   2.0000      -0.700204       -19.0535
 143   2.0000      -0.692553       -18.8453
 144   2.0000      -0.690742       -18.7960
 145   2.0000      -0.688522       -18.7356
 146   2.0000      -0.682085       -18.5605
 147   2.0000      -0.664971       -18.0948
 148   2.0000      -0.658374       -17.9153
 149   2.0000      -0.651800       -17.7364
 150   2.0000      -0.647446       -17.6179
 151   2.0000      -0.639264       -17.3953
 152   2.0000      -0.639007       -17.3883
 153   2.0000      -0.635998       -17.3064
 154   2.0000      -0.631996       -17.1975
 155   2.0000      -0.621180       -16.9032
 156   2.0000      -0.616891       -16.7865
 157   2.0000      -0.615037       -16.7360
 158   2.0000      -0.606886       -16.5142
 159   2.0000      -0.603646       -16.4260
 160   2.0000      -0.600908       -16.3515
 161   2.0000      -0.587122       -15.9764
 162   2.0000      -0.575963       -15.6727
 163   2.0000      -0.572809       -15.5869
 164   2.0000      -0.571064       -15.5395
 165   2.0000      -0.565469       -15.3872
 166   2.0000      -0.562271       -15.3002
 167   2.0000      -0.560415       -15.2497
 168   2.0000      -0.555922       -15.1274
 169   2.0000      -0.552239       -15.0272
 170   2.0000      -0.549537       -14.9537
 171   2.0000      -0.547316       -14.8932
 172   2.0000      -0.545926       -14.8554
 173   2.0000      -0.544846       -14.8260
 174   2.0000      -0.543635       -14.7931
 175   2.0000      -0.541246       -14.7280
 176   2.0000      -0.538745       -14.6600
 177   2.0000      -0.535940       -14.5837
 178   2.0000      -0.531563       -14.4646
 179   2.0000      -0.529715       -14.4143
 180   2.0000      -0.525504       -14.2997
 181   2.0000      -0.524647       -14.2764
 182   2.0000      -0.520504       -14.1636
 183   2.0000      -0.516747       -14.0614
 184   2.0000      -0.514007       -13.9869
 185   2.0000      -0.509937       -13.8761
 186   2.0000      -0.508560       -13.8386
 187   2.0000      -0.506800       -13.7907
 188   2.0000      -0.496894       -13.5212
 189   2.0000      -0.496135       -13.5005
 190   2.0000      -0.494051       -13.4438
 191   2.0000      -0.492399       -13.3989
 192   2.0000      -0.491321       -13.3695
 193   2.0000      -0.489811       -13.3284
 194   2.0000      -0.488664       -13.2972
 195   2.0000      -0.486928       -13.2500
 196   2.0000      -0.485561       -13.2128
 197   2.0000      -0.482225       -13.1220
 198   2.0000      -0.479257       -13.0412
 199   2.0000      -0.474594       -12.9144
 200   2.0000      -0.472773       -12.8648
 201   2.0000      -0.469935       -12.7876
 202   2.0000      -0.469397       -12.7729
 203   2.0000      -0.465758       -12.6739
 204   2.0000      -0.461869       -12.5681
 205   2.0000      -0.456953       -12.4343
 206   2.0000      -0.454166       -12.3585
 207   2.0000      -0.452192       -12.3048
 208   2.0000      -0.447889       -12.1877
 209   2.0000      -0.444913       -12.1067
 210   2.0000      -0.441920       -12.0252
 211   2.0000      -0.441853       -12.0234
 212   2.0000      -0.439381       -11.9562
 213   2.0000      -0.436729       -11.8840
 214   2.0000      -0.434039       -11.8108
 215   2.0000      -0.430357       -11.7106
 216   2.0000      -0.429601       -11.6900
 217   2.0000      -0.425688       -11.5835
 218   2.0000      -0.423330       -11.5194
 219   2.0000      -0.421404       -11.4670
 220   2.0000      -0.416516       -11.3340
 221   2.0000      -0.414401       -11.2764
 222   2.0000      -0.413866       -11.2619
 223   2.0000      -0.408463       -11.1148
 224   2.0000      -0.407889       -11.0992
 225   2.0000      -0.404739       -11.0135
 226   2.0000      -0.401602       -10.9281
 227   2.0000      -0.400519       -10.8987
 228   2.0000      -0.400147       -10.8885
 229   2.0000      -0.398653       -10.8479
 230   2.0000      -0.396741       -10.7959
 231   2.0000      -0.394371       -10.7314
 232   2.0000      -0.392553       -10.6819
 233   2.0000      -0.383548       -10.4369
 234   2.0000      -0.382146       -10.3987
 235   2.0000      -0.378003       -10.2860
 236   2.0000      -0.376855       -10.2548
 237   2.0000      -0.367597       -10.0028
 238   2.0000      -0.361610        -9.8399
 239   2.0000      -0.348213        -9.4754
 240   2.0000      -0.343806        -9.3554
 241   2.0000      -0.342257        -9.3133
 242   2.0000      -0.341830        -9.3017
 243   2.0000      -0.334577        -9.1043
 244   2.0000      -0.321844        -8.7578
 245   2.0000      -0.318457        -8.6657
 246   2.0000      -0.312763        -8.5107
 247   2.0000      -0.312078        -8.4921
 248   2.0000      -0.310701        -8.4546
 249   2.0000      -0.307784        -8.3752
 250   2.0000      -0.299128        -8.1397
 251   2.0000      -0.281839        -7.6692
 252   2.0000      -0.269512        -7.3338
 253   2.0000      -0.264838        -7.2066
 254   2.0000      -0.256687        -6.9848
 255   2.0000      -0.237258        -6.4561
 256   2.0000      -0.216362        -5.8875
 257   2.0000      -0.193698        -5.2708
 258   0.0000      -0.073688        -2.0052
 259   0.0000      -0.047807        -1.3009
 260   0.0000      -0.028223        -0.7680
 261   0.0000      -0.021657        -0.5893
 262   0.0000      -0.013461        -0.3663

MULLIKEN ATOMIC CHARGES
-----------------------
   0 C :   -0.104377
   1 C :    0.038898
   2 C :    0.010122
   3 C :    0.074493
   4 C :   -0.150278
   5 S :    0.112800
   6 C :   -0.119391
   7 C :    0.046019
   8 C :   -0.003820
   9 C :   -0.071535
  10 S :    0.111237
  11 C :    0.095211
  12 C :   -0.052154
  13 C :    0.009459
  14 C :   -0.125612
  15 S :    0.131643
  16 C :   -0.141153
  17 C :    0.086182
  18 C :    0.125924
  19 C :   -0.062009
  20 C :    0.126066
  21 O :   -0.218707
  22 O :   -0.175834
  23 C :    0.017695
  24 C :   -0.059997
  25 C :    0.126433
  26 O :   -0.160288
  27 C :   -0.169553
  28 S :    0.163358
  29 C :   -0.145098
  30 C :    0.075796
  31 C :    0.176986
  32 C :   -0.027962
  33 C :    0.078345
  34 O :   -0.213851
  35 O :   -0.166050
  36 C :   -0.011469
  37 C :   -0.053942
  38 C :    0.120007
  39 O :   -0.167326
  40 C :   -0.179860
  41 S :    0.156363
  42 C :   -0.127583
  43 C :    0.051514
  44 C :    0.205915
  45 C :   -0.006178
  46 C :    0.080521
  47 O :   -0.211728
  48 O :   -0.164102
  49 C :   -0.015428
  50 C :   -0.065891
  51 C :    0.116034
  52 O :   -0.178511
  53 C :   -0.059180
  54 C :   -0.067957
  55 C :    0.058060
  56 C :    0.063321
  57 C :   -0.133646
  58 S :    0.159245
  59 C :   -0.116522
  60 C :    0.054411
  61 C :   -0.005436
  62 C :   -0.071132
  63 S :    0.114132
  64 C :    0.058345
  65 C :   -0.018644
  66 C :   -0.028934
  67 H :    0.039417
  68 H :   -0.014667
  69 H :    0.030309
  70 H :   -0.006949
  71 H :    0.016688
  72 H :   -0.033102
  73 H :   -0.023591
  74 H :    0.187367
  75 H :   -0.003264
  76 H :   -0.041354
  77 H :    0.191500
  78 H :    0.193273
  79 H :   -0.008256
  80 H :   -0.041876
  81 H :    0.189919
  82 H :    0.194619
  83 H :   -0.006842
  84 H :   -0.041160
  85 H :    0.186441
  86 H :   -0.007288
  87 H :    0.028016
  88 H :   -0.017622
  89 H :    0.019919
  90 H :   -0.032765
  91 H :   -0.005291
  92 H :    0.013161
Sum of atomic charges:    0.0000000

LOEWDIN ATOMIC CHARGES
----------------------
   0 C :   -0.188901
   1 C :   -0.027362
   2 C :   -0.029247
   3 C :   -0.045644
   4 C :   -0.148540
   5 S :    0.436077
   6 C :   -0.205180
   7 C :   -0.037484
   8 C :   -0.063716
   9 C :   -0.172436
  10 S :    0.409053
  11 C :   -0.049925
  12 C :   -0.027416
  13 C :   -0.053685
  14 C :   -0.163435
  15 S :    0.471170
  16 C :   -0.189317
  17 C :   -0.071812
  18 C :   -0.031510
  19 C :   -0.098891
  20 C :    0.094823
  21 O :   -0.192358
  22 O :   -0.040279
  23 C :    0.022803
  24 C :   -0.096589
  25 C :    0.077451
  26 O :   -0.012251
  27 C :   -0.198089
  28 S :    0.469684
  29 C :   -0.186689
  30 C :   -0.068612
  31 C :   -0.026018
  32 C :   -0.086886
  33 C :    0.077175
  34 O :   -0.193205
  35 O :   -0.027241
  36 C :    0.013206
  37 C :   -0.092747
  38 C :    0.067258
  39 O :   -0.020642
  40 C :   -0.196936
  41 S :    0.484378
  42 C :   -0.178258
  43 C :   -0.072798
  44 C :   -0.020137
  45 C :   -0.078521
  46 C :    0.078242
  47 O :   -0.191676
  48 O :   -0.024279
  49 C :    0.012283
  50 C :   -0.102112
  51 C :    0.066865
  52 O :   -0.044198
  53 C :   -0.192477
  54 C :   -0.027302
  55 C :   -0.025783
  56 C :   -0.058173
  57 C :   -0.146889
  58 S :    0.475863
  59 C :   -0.201043
  60 C :   -0.037650
  61 C :   -0.065053
  62 C :   -0.170351
  63 S :    0.409915
  64 C :   -0.052987
  65 C :   -0.022026
  66 C :   -0.062750
  67 H :    0.029099
  68 H :    0.037702
  69 H :    0.032715
  70 H :    0.031176
  71 H :    0.019687
  72 H :    0.011655
  73 H :    0.030297
  74 H :    0.097281
  75 H :    0.034154
  76 H :    0.026745
  77 H :    0.103196
  78 H :    0.100833
  79 H :    0.035867
  80 H :    0.026333
  81 H :    0.101676
  82 H :    0.101790
  83 H :    0.036074
  84 H :    0.025193
  85 H :    0.098160
  86 H :    0.025990
  87 H :    0.033275
  88 H :    0.028093
  89 H :    0.021136
  90 H :    0.025555
  91 H :    0.015800
  92 H :    0.021781

  Mayer bond orders larger than 0.100000
B(  0-C ,  1-C ) :   1.6630 B(  0-C ,  5-S ) :   1.0906 B(  0-C , 67-H ) :   0.9393
B(  1-C ,  2-C ) :   1.2056 B(  1-C , 68-H ) :   0.9685 B(  2-C ,  3-C ) :   1.0458
B(  2-C , 11-C ) :   1.4258 B(  3-C ,  4-C ) :   1.6141 B(  3-C ,  6-C ) :   1.1789
B(  4-C ,  5-S ) :   1.1309 B(  4-C , 69-H ) :   0.9412 B(  6-C ,  7-C ) :   1.4599
B(  6-C , 10-S ) :   1.0735 B(  7-C ,  8-C ) :   1.2201 B(  7-C , 11-C ) :   1.0714
B(  8-C ,  9-C ) :   1.5798 B(  8-C , 70-H ) :   0.9869 B(  9-C , 10-S ) :   1.1486
B(  9-C , 71-H ) :   0.9650 B( 11-C , 12-C ) :   1.1759 B( 12-C , 13-C ) :   1.5977
B( 12-C , 72-H ) :   0.9520 B( 13-C , 14-C ) :   1.1829 B( 13-C , 73-H ) :   0.9694
B( 14-C , 15-S ) :   1.1172 B( 14-C , 16-C ) :   0.1173 B( 14-C , 18-C ) :   1.3636
B( 15-S , 16-C ) :   1.1651 B( 16-C , 17-C ) :   1.3711 B( 16-C , 27-C ) :   1.1416
B( 17-C , 18-C ) :   1.2179 B( 17-C , 25-C ) :   1.1770 B( 18-C , 19-C ) :   1.1684
B( 19-C , 20-C ) :   0.9429 B( 19-C , 23-C ) :   1.5057 B( 20-C , 21-O ) :   2.0412
B( 20-C , 22-O ) :   1.2687 B( 22-O , 74-H ) :   0.9448 B( 23-C , 24-C ) :   1.2286
B( 23-C , 75-H ) :   0.9808 B( 24-C , 25-C ) :   1.4333 B( 24-C , 76-H ) :   0.9841
B( 25-C , 26-O ) :   1.2464 B( 26-O , 77-H ) :   0.9476 B( 27-C , 28-S ) :   1.1358
B( 27-C , 29-C ) :   0.1310 B( 27-C , 31-C ) :   1.4092 B( 28-S , 29-C ) :   1.1638
B( 29-C , 30-C ) :   1.3660 B( 29-C , 40-C ) :   1.1416 B( 30-C , 31-C ) :   1.2334
B( 30-C , 38-C ) :   1.1696 B( 31-C , 32-C ) :   1.1621 B( 32-C , 33-C ) :   0.9259
B( 32-C , 36-C ) :   1.5440 B( 33-C , 34-O ) :   2.1396 B( 33-C , 35-O ) :   1.2512
B( 35-O , 78-H ) :   0.9409 B( 36-C , 37-C ) :   1.1960 B( 36-C , 79-H ) :   0.9896
B( 37-C , 38-C ) :   1.4514 B( 37-C , 80-H ) :   0.9844 B( 38-C , 39-O ) :   1.2358
B( 39-O , 81-H ) :   0.9493 B( 40-C , 41-S ) :   1.1458 B( 40-C , 42-C ) :   0.1191
B( 40-C , 44-C ) :   1.4153 B( 41-S , 42-C ) :   1.1631 B( 42-C , 43-C ) :   1.3415
B( 42-C , 53-C ) :   1.1376 B( 43-C , 44-C ) :   1.2201 B( 43-C , 51-C ) :   1.1787
B( 44-C , 45-C ) :   1.1576 B( 45-C , 46-C ) :   0.9260 B( 45-C , 49-C ) :   1.5640
B( 46-C , 47-O ) :   2.1397 B( 46-C , 48-O ) :   1.2554 B( 48-O , 82-H ) :   0.9400
B( 49-C , 50-C ) :   1.1854 B( 49-C , 83-H ) :   0.9878 B( 50-C , 51-C ) :   1.4604
B( 50-C , 84-H ) :   0.9840 B( 51-C , 52-O ) :   1.2274 B( 52-O , 85-H ) :   0.9521
B( 53-C , 54-C ) :   1.5165 B( 53-C , 58-S ) :   1.0635 B( 54-C , 55-C ) :   1.2251
B( 54-C , 86-H ) :   0.9609 B( 55-C , 56-C ) :   1.0485 B( 55-C , 64-C ) :   1.4115
B( 56-C , 57-C ) :   1.5919 B( 56-C , 59-C ) :   1.1912 B( 57-C , 58-S ) :   1.1599
B( 57-C , 87-H ) :   0.9389 B( 59-C , 60-C ) :   1.4392 B( 59-C , 63-S ) :   1.0716
B( 60-C , 61-C ) :   1.2012 B( 60-C , 64-C ) :   1.1006 B( 61-C , 62-C ) :   1.5961
B( 61-C , 88-H ) :   1.0006 B( 62-C , 63-S ) :   1.1464 B( 62-C , 89-H ) :   0.9647
B( 64-C , 65-C ) :   1.1422 B( 65-C , 66-C ) :   1.9066 B( 65-C , 90-H ) :   0.9512
B( 66-C , 91-H ) :   0.9570 B( 66-C , 92-H ) :   0.9433

-----------------------------------------------------------------------------
         ABSORPTION SPECTRUM VIA TRANSITION ELECTRIC DIPOLE MOMENTS
-----------------------------------------------------------------------------
State   Energy  Wavelength   fosc         T2         TX        TY        TZ
        (cm-1)    (nm)                  (au**2)     (au)      (au)      (au)
-----------------------------------------------------------------------------
   0   11886.5    841.3   0.721573215  19.98493   4.32318  -0.30244  -1.09709
   1   17097.3    584.9   0.261644557   5.03802   0.96385  -0.51778   1.95983
   2   17872.2    559.5   0.779862658  14.36533  -0.21007   1.43743  -3.50071
   3   20797.3    480.8   0.013294490   0.21045  -0.37140   0.20139  -0.17876
   4   21151.6    472.8   0.183170841   2.85094  -1.11526   1.26769  -0.00979
   5   21921.9    456.2   0.090588332   1.36041   0.01794  -0.78003  -0.86697
   6   22861.7    437.4   0.042405948   0.61065   0.34643  -0.69693  -0.07014
   7   24151.2    414.1   0.081215433   1.10707   0.64229   0.01421   0.83327
   8   24985.5    400.2   0.078454516   1.03372  -0.04639   0.68594  -0.74904
   9   26106.1    383.1   0.278807351   3.51591   0.26925   1.41298  -1.20288
  10   26846.5    372.5   0.001500925   0.01841  -0.01936  -0.03558  -0.12948
  11   27401.0    365.0   0.150589913   1.80928  -0.69993   0.74904  -0.87081
  12   27955.9    357.7   0.019971301   0.23518   0.01706  -0.04576   0.48249
  13   28522.3    350.6   0.038443549   0.44373   0.22730   0.51789  -0.35192
  14   29137.3    343.2   0.033342674   0.37673   0.08456  -0.09168  -0.60098
  15   29328.3    341.0   0.056453748   0.63370   0.07793   0.22924  -0.75834
  16   29835.0    335.2   0.036482362   0.40256  -0.04732   0.27133   0.57158
  17   30286.6    330.2   0.021963814   0.23874   0.03622   0.44709   0.19376
  18   30877.7    323.9   0.021021287   0.22412  -0.36468   0.29551   0.06171
  19   31812.7    314.3   0.007572357   0.07836   0.05217   0.17184  -0.21473
  20   32002.5    312.5   0.003832028   0.03942  -0.05537   0.06344   0.17981
  21   32252.0    310.1   0.000497813   0.00508   0.01274  -0.05093  -0.04823
  22   32403.2    308.6   0.049617326   0.50411  -0.20525   0.40746   0.54402
  23   33053.0    302.5   0.072403420   0.72115   0.60819  -0.03075   0.59187
  24   33979.6    294.3   0.087948722   0.85209   0.39089  -0.75653   0.35631
  25   34057.3    293.6   0.015709812   0.15186  -0.34283  -0.13803   0.12359
  26   34550.3    289.4   0.005484391   0.05226  -0.14293   0.05121   0.17090
  27   34653.9    288.6   0.049446410   0.46974   0.07941  -0.06480   0.67767
  28   34877.0    286.7   0.121216801   1.14419  -0.18685   0.31997  -1.00345
  29   35128.0    284.7   0.052840129   0.49521   0.01190  -0.59713   0.37216
  30   35347.7    282.9   0.042845085   0.39904   0.45683  -0.42633   0.09270
  31   35494.1    281.7   0.009306385   0.08632   0.27258   0.06289  -0.08979
  32   35673.7    280.3   0.005277680   0.04870   0.15689  -0.03165   0.15195
  33   36039.5    277.5   0.143943757   1.31489  -0.14444  -1.06168  -0.40849
  34   36246.5    275.9   0.441533401   4.01027  -0.09536  -0.38935  -1.96203
  35   36956.7    270.6   0.090779440   0.80867  -0.05412  -0.12447   0.88896
  36   37332.8    267.9   0.057903050   0.51061  -0.05393   0.66147   0.26487
  37   37753.2    264.9   0.008354434   0.07285   0.01509   0.13876  -0.23102
  38   37905.7    263.8   0.099997573   0.86848  -0.19473   0.50845  -0.75633
  39   38165.4    262.0   0.290010588   2.50161  -0.71034   0.29408  -1.38222
  40   38698.4    258.4   0.016436255   0.13983   0.09167   0.15741   0.32657
  41   38769.2    257.9   0.115183458   0.97809   0.03521   0.61885   0.77064
  42   39122.5    255.6   0.011126646   0.09363  -0.17464   0.22776   0.10610
  43   39188.1    255.2   0.128768259   1.08176  -0.07889   0.88551   0.53982
  44   39665.2    252.1   0.040306960   0.33454   0.12983   0.56208   0.04176
  45   39790.8    251.3   0.034078686   0.28195  -0.15686   0.15222  -0.48392
  46   40063.3    249.6   0.064958379   0.53378  -0.22107   0.32770  -0.61443
  47   40197.5    248.8   0.033461321   0.27404   0.01738   0.34716  -0.39144

FINAL SINGLE POINT ENERGY     -5419.309077338089

DIPOLE MOMENT
-------------
                                X             Y             Z
Electronic contribution:      2.92552      12.57480       3.48177
Nuclear contribution   :     -4.37540     -12.56223      -2.71555
                        -----------------------------------------
Total Dipole Moment    :     -1.44988       0.01258       0.76622
                        -----------------------------------------
Magnitude (a.u.)       :      1.63994
Magnitude (Debye)      :      4.16839

Rotational constants in cm-1:     0.001015     0.000516     0.000376
Rotational constants in MHz :    30.414750    15.462054    11.279585

                             ****ORCA TERMINATED NORMALLY****
TOTAL RUN TIME: 0 days 0 hours 9 minutes 26 seconds 715 msec
