                         Program Version 4.2.0 -  RELEASE  -
|  1> # ORCA input file
|  2> # SCF done       -143.248621406235          0.000295016402
|  3> ! CAM-B3LYP def2-SVP def2/J RIJCOSX Grid4 TightSCF
|  4> %maxcore 5000
|  5> %tddft
|  6>     Mode sTDDFT
|  7>     Ethresh 5.0
|  8>     maxcore 5000
|  9> end
| 10>
| 11> %pal
| 12>   nprocs 6
| 13>   end
| 14> * xyz 0 1
| 15>    C        1.01292        -2.67622         4.13513
| 16>    O        0.87587        -3.97954         4.39466
| 17>    C        0.84688        -4.62359         3.21357
| 18>    C        0.96465        -3.74625         2.18667
| 19>    C        1.07581        -2.44920         2.77826
| 20>    C        1.21916        -1.21347         2.06569
| 21>    C        1.34183         0.00593         2.63061
| 22>    C        1.48906         1.19765         1.86659
| 23>    C        1.60670         2.42557         2.42741
| 24>    C        1.76594         3.66001         1.73945
| 25>    S        1.29088         5.11449         2.56118
| 26>    C        1.66961         6.04628         1.15450
| 27>    N        1.48126         7.43338         1.19105
| 28>    O        1.74819         8.06529         0.18434
| 29>    O        1.06134         7.90945         2.23167
| 30>    C        2.14976         5.28648         0.11935
| 31>    C        2.22781         3.91878         0.43908
| 32>    C        2.81322         2.92699        -0.42354
| 33>    C        2.92535         3.03978        -1.75978
| 34>    C        3.54053         2.05907        -2.59435
| 35>    C        3.70876         2.12702        -3.94850
| 36>    C        4.36331         1.00064        -4.50259
| 37>    C        4.69661         0.03961        -3.50969
| 38>    S        4.18622         0.56490        -1.92875
| 39>    C        5.34437        -1.13751        -3.80420
| 40>    C        5.68151        -1.37973        -5.13793
| 41>    C        5.34475        -0.42066        -6.12895
| 42>    C        4.69557         0.75611        -5.83530
| 43>    S        5.86092        -0.94468        -7.70684
| 44>    C        6.53143        -2.43251        -7.04877
| 45>    C        6.34914        -2.49465        -5.68908
| 46>    C        7.19397        -3.42260        -7.82644
| 47>    S        7.93310        -4.73630        -6.95003
| 48>    C        8.47873        -5.43292        -8.43388
| 49>    N        9.21106        -6.62898        -8.38021
| 50>    O        9.59822        -7.10206        -9.43202
| 51>    O        9.40584        -7.10757        -7.27677
| 52>    C        8.11703        -4.71103        -9.53490
| 53>    C        7.37568        -3.54888        -9.21750
| 54>    C        6.87119        -2.64379       -10.19758
| 55>    C        7.02262        -2.77221       -11.54338
| 56>    C        6.49263        -1.84711       -12.46096
| 57>    C        6.60719        -1.95344       -13.82184
| 58>    C        6.09106        -1.05156       -14.79012
| 59>    C        6.34334        -1.40443       -16.07667
| 60>    C        7.07626        -2.61094       -16.21071
| 61>    S        7.43534        -3.27657       -14.62841
| 62>    C        7.47682        -3.22894       -17.37058
| 63>    C        7.24261        -2.79130       -18.70602
| 64>    C        7.75136        -3.60558       -19.65546
| 65>    C        8.43389        -4.76015       -19.14328
| 66>    S        8.37923        -4.72946       -17.37324
| 67>    C        9.03222        -5.73496       -19.84027
| 68>    H        1.05260        -2.01168         4.97496
| 69>    H        0.74066        -5.68982         3.23880
| 70>    H        0.97424        -3.97045         1.14006
| 71>    H        1.23067        -1.29754         0.98646
| 72>    H        1.33947         0.10396         3.70710
| 73>    H        1.47134         1.08942         0.79169
| 74>    H        1.51803         2.50806         3.50381
| 75>    H        2.46095         5.72011        -0.81337
| 76>    H        3.21275         2.04583         0.06038
| 77>    H        2.52247         3.89914        -2.27813
| 78>    H        3.37953         2.96397        -4.53861
| 79>    H        5.59112        -1.85345        -3.03661
| 80>    H        4.45128         1.47175        -6.60407
| 81>    H        6.68612        -3.32657        -5.09558
| 82>    H        8.38208        -5.01779       -10.52965
| 83>    H        6.31551        -1.79081        -9.84074
| 84>    H        7.56474        -3.60888       -11.96192
| 85>    H        5.95450        -0.99288       -12.07137
| 86>    H        5.54865        -0.17072       -14.49449
| 87>    H        6.02550        -0.83716       -16.93301
| 88>    H        6.70224        -1.88418       -18.91087
| 89>    H        7.67406        -3.44019       -20.71541
| 90>    H        9.04110        -5.71488       -20.91579
| 91>    H        9.51744        -6.56161       -19.35466
| 92> *
| 93>
| 94>                          ****END OF INPUT****

CARTESIAN COORDINATES (ANGSTROEM)
---------------------------------
  C      1.012920   -2.676220    4.135130
  O      0.875870   -3.979540    4.394660
  C      0.846880   -4.623590    3.213570
  C      0.964650   -3.746250    2.186670
  C      1.075810   -2.449200    2.778260
  C      1.219160   -1.213470    2.065690
  C      1.341830    0.005930    2.630610
  C      1.489060    1.197650    1.866590
  C      1.606700    2.425570    2.427410
  C      1.765940    3.660010    1.739450
  S      1.290880    5.114490    2.561180
  C      1.669610    6.046280    1.154500
  N      1.481260    7.433380    1.191050
  O      1.748190    8.065290    0.184340
  O      1.061340    7.909450    2.231670
  C      2.149760    5.286480    0.119350
  C      2.227810    3.918780    0.439080
  C      2.813220    2.926990   -0.423540
  C      2.925350    3.039780   -1.759780
  C      3.540530    2.059070   -2.594350
  C      3.708760    2.127020   -3.948500
  C      4.363310    1.000640   -4.502590
  C      4.696610    0.039610   -3.509690
  S      4.186220    0.564900   -1.928750
  C      5.344370   -1.137510   -3.804200
  C      5.681510   -1.379730   -5.137930
  C      5.344750   -0.420660   -6.128950
  C      4.695570    0.756110   -5.835300
  S      5.860920   -0.944680   -7.706840
  C      6.531430   -2.432510   -7.048770
  C      6.349140   -2.494650   -5.689080
  C      7.193970   -3.422600   -7.826440
  S      7.933100   -4.736300   -6.950030
  C      8.478730   -5.432920   -8.433880
  N      9.211060   -6.628980   -8.380210
  O      9.598220   -7.102060   -9.432020
  O      9.405840   -7.107570   -7.276770
  C      8.117030   -4.711030   -9.534900
  C      7.375680   -3.548880   -9.217500
  C      6.871190   -2.643790  -10.197580
  C      7.022620   -2.772210  -11.543380
  C      6.492630   -1.847110  -12.460960
  C      6.607190   -1.953440  -13.821840
  C      6.091060   -1.051560  -14.790120
  C      6.343340   -1.404430  -16.076670
  C      7.076260   -2.610940  -16.210710
  S      7.435340   -3.276570  -14.628410
  C      7.476820   -3.228940  -17.370580
  C      7.242610   -2.791300  -18.706020
  C      7.751360   -3.605580  -19.655460
  C      8.433890   -4.760150  -19.143280
  S      8.379230   -4.729460  -17.373240
  C      9.032220   -5.734960  -19.840270
  H      1.052600   -2.011680    4.974960
  H      0.740660   -5.689820    3.238800
  H      0.974240   -3.970450    1.140060
  H      1.230670   -1.297540    0.986460
  H      1.339470    0.103960    3.707100
  H      1.471340    1.089420    0.791690
  H      1.518030    2.508060    3.503810
  H      2.460950    5.720110   -0.813370
  H      3.212750    2.045830    0.060380
  H      2.522470    3.899140   -2.278130
  H      3.379530    2.963970   -4.538610
  H      5.591120   -1.853450   -3.036610
  H      4.451280    1.471750   -6.604070
  H      6.686120   -3.326570   -5.095580
  H      8.382080   -5.017790  -10.529650
  H      6.315510   -1.790810   -9.840740
  H      7.564740   -3.608880  -11.961920
  H      5.954500   -0.992880  -12.071370
  H      5.548650   -0.170720  -14.494490
  H      6.025500   -0.837160  -16.933010
  H      6.702240   -1.884180  -18.910870
  H      7.674060   -3.440190  -20.715410
  H      9.041100   -5.714880  -20.915790
  H      9.517440   -6.561610  -19.354660

 Total Charge           Charge          ....    0
 Multiplicity           Mult            ....    1
 Number of Electrons    NEL             ....  414
 Basis Dimension        Dim             ....  886

ORBITAL ENERGIES
----------------

  NO   OCC          E(Eh)            E(eV)
   0   2.0000     -88.975708     -2421.1521
   1   2.0000     -88.974041     -2421.1067
   2   2.0000     -88.959977     -2420.7240
   3   2.0000     -88.952871     -2420.5307
   4   2.0000     -88.943636     -2420.2794
   5   2.0000     -88.939692     -2420.1721
   6   2.0000     -19.295395      -525.0544
   7   2.0000     -19.236175      -523.4429
   8   2.0000     -19.235629      -523.4281
   9   2.0000     -19.234766      -523.4046
  10   2.0000     -19.233951      -523.3824
  11   2.0000     -14.646797      -398.5596
  12   2.0000     -14.645589      -398.5267
  13   2.0000     -10.341393      -281.4036
  14   2.0000     -10.340415      -281.3770
  15   2.0000     -10.327390      -281.0226
  16   2.0000     -10.326899      -281.0092
  17   2.0000     -10.324772      -280.9513
  18   2.0000     -10.322887      -280.9000
  19   2.0000     -10.322057      -280.8775
  20   2.0000     -10.312278      -280.6113
  21   2.0000     -10.311605      -280.5930
  22   2.0000     -10.309546      -280.5370
  23   2.0000     -10.308997      -280.5221
  24   2.0000     -10.307724      -280.4874
  25   2.0000     -10.307708      -280.4870
  26   2.0000     -10.307095      -280.4703
  27   2.0000     -10.302654      -280.3495
  28   2.0000     -10.301087      -280.3068
  29   2.0000     -10.300712      -280.2966
  30   2.0000     -10.298462      -280.2354
  31   2.0000     -10.293380      -280.0971
  32   2.0000     -10.292311      -280.0680
  33   2.0000     -10.291870      -280.0560
  34   2.0000     -10.291106      -280.0352
  35   2.0000     -10.291047      -280.0336
  36   2.0000     -10.290864      -280.0287
  37   2.0000     -10.290408      -280.0162
  38   2.0000     -10.290333      -280.0142
  39   2.0000     -10.289650      -279.9956
  40   2.0000     -10.288269      -279.9580
  41   2.0000     -10.288118      -279.9539
  42   2.0000     -10.286840      -279.9191
  43   2.0000     -10.286133      -279.8999
  44   2.0000     -10.285042      -279.8702
  45   2.0000     -10.283072      -279.8166
  46   2.0000     -10.281627      -279.7773
  47   2.0000     -10.281167      -279.7648
  48   2.0000     -10.280715      -279.7525
  49   2.0000     -10.279430      -279.7175
  50   2.0000     -10.277591      -279.6675
  51   2.0000     -10.271922      -279.5132
  52   2.0000     -10.271540      -279.5028
  53   2.0000      -8.071342      -219.6324
  54   2.0000      -8.069313      -219.5772
  55   2.0000      -8.054993      -219.1875
  56   2.0000      -8.048603      -219.0136
  57   2.0000      -8.039905      -218.7769
  58   2.0000      -8.036461      -218.6832
  59   2.0000      -6.040717      -164.3763
  60   2.0000      -6.038866      -164.3259
  61   2.0000      -6.036401      -164.2588
  62   2.0000      -6.034500      -164.2071
  63   2.0000      -6.033300      -164.1744
  64   2.0000      -6.030998      -164.1118
  65   2.0000      -6.024785      -163.9427
  66   2.0000      -6.020619      -163.8294
  67   2.0000      -6.018193      -163.7634
  68   2.0000      -6.016165      -163.7082
  69   2.0000      -6.014300      -163.6574
  70   2.0000      -6.009853      -163.5364
  71   2.0000      -6.009675      -163.5316
  72   2.0000      -6.006279      -163.4392
  73   2.0000      -6.005749      -163.4247
  74   2.0000      -6.002372      -163.3328
  75   2.0000      -6.000652      -163.2860
  76   2.0000      -5.996973      -163.1859
  77   2.0000      -1.316842       -35.8331
  78   2.0000      -1.314946       -35.7815
  79   2.0000      -1.214294       -33.0426
  80   2.0000      -1.135640       -30.9023
  81   2.0000      -1.133627       -30.8476
  82   2.0000      -1.014422       -27.6038
  83   2.0000      -1.010018       -27.4840
  84   2.0000      -1.002349       -27.2753
  85   2.0000      -0.993615       -27.0376
  86   2.0000      -0.980762       -26.6879
  87   2.0000      -0.970788       -26.4165
  88   2.0000      -0.934133       -25.4191
  89   2.0000      -0.929238       -25.2859
  90   2.0000      -0.919455       -25.0196
  91   2.0000      -0.914860       -24.8946
  92   2.0000      -0.903284       -24.5796
  93   2.0000      -0.891612       -24.2620
  94   2.0000      -0.884190       -24.0600
  95   2.0000      -0.880881       -23.9700
  96   2.0000      -0.876066       -23.8390
  97   2.0000      -0.860844       -23.4248
  98   2.0000      -0.853380       -23.2217
  99   2.0000      -0.846995       -23.0479
 100   2.0000      -0.846067       -23.0227
 101   2.0000      -0.836671       -22.7670
 102   2.0000      -0.829434       -22.5701
 103   2.0000      -0.826828       -22.4991
 104   2.0000      -0.817906       -22.2564
 105   2.0000      -0.811519       -22.0826
 106   2.0000      -0.789034       -21.4707
 107   2.0000      -0.785126       -21.3644
 108   2.0000      -0.776630       -21.1332
 109   2.0000      -0.764333       -20.7986
 110   2.0000      -0.743938       -20.2436
 111   2.0000      -0.728212       -19.8156
 112   2.0000      -0.713127       -19.4052
 113   2.0000      -0.693489       -18.8708
 114   2.0000      -0.692165       -18.8348
 115   2.0000      -0.683214       -18.5912
 116   2.0000      -0.682020       -18.5587
 117   2.0000      -0.674083       -18.3427
 118   2.0000      -0.668002       -18.1772
 119   2.0000      -0.654986       -17.8231
 120   2.0000      -0.652342       -17.7511
 121   2.0000      -0.646559       -17.5938
 122   2.0000      -0.640376       -17.4255
 123   2.0000      -0.633663       -17.2429
 124   2.0000      -0.632271       -17.2050
 125   2.0000      -0.629886       -17.1401
 126   2.0000      -0.627914       -17.0864
 127   2.0000      -0.627231       -17.0678
 128   2.0000      -0.626726       -17.0541
 129   2.0000      -0.624187       -16.9850
 130   2.0000      -0.620185       -16.8761
 131   2.0000      -0.616017       -16.7627
 132   2.0000      -0.602825       -16.4037
 133   2.0000      -0.598791       -16.2939
 134   2.0000      -0.598455       -16.2848
 135   2.0000      -0.586303       -15.9541
 136   2.0000      -0.577501       -15.7146
 137   2.0000      -0.576059       -15.6754
 138   2.0000      -0.573836       -15.6149
 139   2.0000      -0.566973       -15.4281
 140   2.0000      -0.560280       -15.2460
 141   2.0000      -0.556109       -15.1325
 142   2.0000      -0.552364       -15.0306
 143   2.0000      -0.550287       -14.9741
 144   2.0000      -0.541708       -14.7406
 145   2.0000      -0.538780       -14.6609
 146   2.0000      -0.533287       -14.5115
 147   2.0000      -0.527621       -14.3573
 148   2.0000      -0.524823       -14.2812
 149   2.0000      -0.519665       -14.1408
 150   2.0000      -0.515273       -14.0213
 151   2.0000      -0.509841       -13.8735
 152   2.0000      -0.508938       -13.8489
 153   2.0000      -0.502524       -13.6744
 154   2.0000      -0.498666       -13.5694
 155   2.0000      -0.498022       -13.5519
 156   2.0000      -0.496372       -13.5070
 157   2.0000      -0.495848       -13.4927
 158   2.0000      -0.493499       -13.4288
 159   2.0000      -0.491465       -13.3734
 160   2.0000      -0.485411       -13.2087
 161   2.0000      -0.480851       -13.0846
 162   2.0000      -0.477776       -13.0009
 163   2.0000      -0.473452       -12.8833
 164   2.0000      -0.469944       -12.7878
 165   2.0000      -0.469573       -12.7777
 166   2.0000      -0.466466       -12.6932
 167   2.0000      -0.465497       -12.6668
 168   2.0000      -0.463350       -12.6084
 169   2.0000      -0.456444       -12.4205
 170   2.0000      -0.454327       -12.3629
 171   2.0000      -0.448299       -12.1988
 172   2.0000      -0.444970       -12.1083
 173   2.0000      -0.440979       -11.9997
 174   2.0000      -0.437884       -11.9154
 175   2.0000      -0.433143       -11.7864
 176   2.0000      -0.430284       -11.7086
 177   2.0000      -0.427908       -11.6440
 178   2.0000      -0.420859       -11.4522
 179   2.0000      -0.419234       -11.4079
 180   2.0000      -0.416470       -11.3327
 181   2.0000      -0.415285       -11.3005
 182   2.0000      -0.406128       -11.0513
 183   2.0000      -0.397141       -10.8067
 184   2.0000      -0.389159       -10.5895
 185   2.0000      -0.387637       -10.5481
 186   2.0000      -0.382659       -10.4127
 187   2.0000      -0.382030       -10.3956
 188   2.0000      -0.381745       -10.3878
 189   2.0000      -0.378735       -10.3059
 190   2.0000      -0.374436       -10.1889
 191   2.0000      -0.373111       -10.1529
 192   2.0000      -0.362909        -9.8753
 193   2.0000      -0.361701        -9.8424
 194   2.0000      -0.346383        -9.4256
 195   2.0000      -0.343167        -9.3380
 196   2.0000      -0.342512        -9.3202
 197   2.0000      -0.338779        -9.2187
 198   2.0000      -0.335749        -9.1362
 199   2.0000      -0.323570        -8.8048
 200   2.0000      -0.315653        -8.5893
 201   2.0000      -0.305293        -8.3075
 202   2.0000      -0.289464        -7.8767
 203   2.0000      -0.282316        -7.6822
 204   2.0000      -0.265730        -7.2309
 205   2.0000      -0.248382        -6.7588
 206   2.0000      -0.216298        -5.8858
 207   0.0000      -0.081834        -2.2268
 208   0.0000      -0.070032        -1.9057
 209   0.0000      -0.061148        -1.6639
 210   0.0000      -0.040680        -1.1070
 211   0.0000      -0.018331        -0.4988

MULLIKEN ATOMIC CHARGES
-----------------------
   0 C :    0.073555
   1 O :   -0.173591
   2 C :    0.133873
   3 C :   -0.042208
   4 C :    0.038176
   5 C :    0.034952
   6 C :    0.006596
   7 C :    0.013668
   8 C :    0.010704
   9 C :   -0.106399
  10 S :    0.190507
  11 C :   -0.012587
  12 N :    0.276727
  13 O :   -0.251451
  14 O :   -0.259382
  15 C :   -0.001359
  16 C :    0.113963
  17 C :   -0.047970
  18 C :    0.019289
  19 C :   -0.021926
  20 C :   -0.037136
  21 C :    0.118629
  22 C :   -0.041021
  23 S :    0.083460
  24 C :   -0.053146
  25 C :    0.127220
  26 C :   -0.027341
  27 C :   -0.051794
  28 S :    0.086429
  29 C :   -0.046254
  30 C :   -0.063202
  31 C :   -0.078620
  32 S :    0.166152
  33 C :    0.019792
  34 N :    0.270737
  35 O :   -0.243877
  36 O :   -0.257169
  37 C :   -0.012157
  38 C :    0.126348
  39 C :   -0.053965
  40 C :    0.015259
  41 C :   -0.024761
  42 C :   -0.009987
  43 C :    0.032635
  44 C :    0.031628
  45 C :   -0.048577
  46 S :    0.068865
  47 C :   -0.065636
  48 C :    0.030726
  49 C :    0.053665
  50 C :   -0.067482
  51 S :    0.084936
  52 C :   -0.026770
  53 H :    0.008929
  54 H :    0.014854
  55 H :   -0.010139
  56 H :   -0.012233
  57 H :   -0.013802
  58 H :    0.008608
  59 H :   -0.006371
  60 H :    0.006168
  61 H :    0.016938
  62 H :   -0.008568
  63 H :   -0.022304
  64 H :   -0.030009
  65 H :   -0.031469
  66 H :   -0.003587
  67 H :    0.008495
  68 H :   -0.009144
  69 H :   -0.001471
  70 H :   -0.016828
  71 H :   -0.013944
  72 H :   -0.013041
  73 H :   -0.011876
  74 H :   -0.009442
  75 H :    0.022456
  76 H :    0.025053
Sum of atomic charges:   -0.0000000

LOEWDIN ATOMIC CHARGES
----------------------
   0 C :    0.040837
   1 O :    0.031675
   2 C :    0.032409
   3 C :   -0.067077
   4 C :   -0.084305
   5 C :    0.002968
   6 C :   -0.032391
   7 C :    0.002832
   8 C :   -0.062894
   9 C :   -0.141097
  10 S :    0.480328
  11 C :   -0.203338
  12 N :    0.273671
  13 O :   -0.217367
  14 O :   -0.225666
  15 C :   -0.005676
  16 C :   -0.066168
  17 C :   -0.023970
  18 C :   -0.036437
  19 C :   -0.144669
  20 C :   -0.053514
  21 C :   -0.042358
  22 C :   -0.149766
  23 S :    0.382680
  24 C :   -0.034253
  25 C :   -0.044635
  26 C :   -0.152379
  27 C :   -0.035540
  28 S :    0.410971
  29 C :   -0.170748
  30 C :   -0.054244
  31 C :   -0.160074
  32 S :    0.476556
  33 C :   -0.193972
  34 N :    0.273268
  35 O :   -0.210935
  36 O :   -0.223575
  37 C :   -0.004173
  38 C :   -0.056780
  39 C :   -0.040872
  40 C :   -0.015101
  41 C :   -0.064954
  42 C :   -0.137121
  43 C :   -0.037021
  44 C :   -0.026157
  45 C :   -0.182867
  46 S :    0.363789
  47 C :   -0.173625
  48 C :   -0.027208
  49 C :   -0.028303
  50 C :   -0.139992
  51 S :    0.355342
  52 C :   -0.071769
  53 H :    0.021222
  54 H :    0.023897
  55 H :    0.030706
  56 H :    0.032082
  57 H :    0.026650
  58 H :    0.032818
  59 H :    0.029764
  60 H :    0.041893
  61 H :    0.026419
  62 H :    0.034192
  63 H :    0.030902
  64 H :    0.031697
  65 H :    0.031251
  66 H :    0.025929
  67 H :    0.042823
  68 H :    0.010536
  69 H :    0.021472
  70 H :    0.032500
  71 H :    0.033180
  72 H :    0.031921
  73 H :    0.032296
  74 H :    0.034160
  75 H :    0.029635
  76 H :    0.027720

  Mayer bond orders larger than 0.100000
B(  0-C ,  1-O ) :   1.1845 B(  0-C ,  4-C ) :   1.4989 B(  0-C , 53-H ) :   1.0031
B(  1-O ,  2-C ) :   1.1424 B(  2-C ,  3-C ) :   1.5764 B(  2-C , 54-H ) :   1.0017
B(  3-C ,  4-C ) :   1.2083 B(  3-C , 55-H ) :   1.0100 B(  4-C ,  5-C ) :   1.0753
B(  5-C ,  6-C ) :   1.6877 B(  5-C , 56-H ) :   0.9798 B(  6-C ,  7-C ) :   1.1375
B(  6-C , 57-H ) :   0.9844 B(  7-C ,  8-C ) :   1.6593 B(  7-C , 58-H ) :   0.9832
B(  8-C ,  9-C ) :   1.1183 B(  8-C , 59-H ) :   0.9567 B(  9-C , 10-S ) :   1.1406
B(  9-C , 16-C ) :   1.4140 B( 10-S , 11-C ) :   1.1138 B( 11-C , 12-N ) :   0.9606
B( 11-C , 15-C ) :   1.4818 B( 12-N , 13-O ) :   1.5335 B( 12-N , 14-O ) :   1.5172
B( 13-O , 14-O ) :   0.2632 B( 15-C , 16-C ) :   1.2372 B( 15-C , 60-H ) :   0.9982
B( 16-C , 17-C ) :   1.0836 B( 17-C , 18-C ) :   1.7011 B( 17-C , 61-H ) :   0.9580
B( 18-C , 19-C ) :   1.1352 B( 18-C , 62-H ) :   0.9791 B( 19-C , 20-C ) :   1.5532
B( 19-C , 23-S ) :   1.0613 B( 20-C , 21-C ) :   1.1397 B( 20-C , 63-H ) :   1.0068
B( 21-C , 22-C ) :   1.2766 B( 21-C , 27-C ) :   1.3200 B( 22-C , 23-S ) :   1.0377
B( 22-C , 24-C ) :   1.3991 B( 24-C , 25-C ) :   1.3047 B( 24-C , 64-H ) :   1.0015
B( 25-C , 26-C ) :   1.2808 B( 25-C , 30-C ) :   1.1755 B( 26-C , 27-C ) :   1.3803
B( 26-C , 28-S ) :   1.0365 B( 27-C , 65-H ) :   1.0018 B( 28-S , 29-C ) :   1.0720
B( 29-C , 30-C ) :   1.5432 B( 29-C , 31-C ) :   1.1763 B( 30-C , 66-H ) :   0.9876
B( 31-C , 32-S ) :   1.1279 B( 31-C , 38-C ) :   1.4147 B( 32-S , 33-C ) :   1.1087
B( 33-C , 34-N ) :   0.9519 B( 33-C , 37-C ) :   1.5134 B( 34-N , 35-O ) :   1.5367
B( 34-N , 36-O ) :   1.5197 B( 35-O , 36-O ) :   0.2663 B( 37-C , 38-C ) :   1.1954
B( 37-C , 67-H ) :   0.9971 B( 38-C , 39-C ) :   1.0833 B( 39-C , 40-C ) :   1.6640
B( 39-C , 68-H ) :   0.9694 B( 40-C , 41-C ) :   1.1450 B( 40-C , 69-H ) :   0.9717
B( 41-C , 42-C ) :   1.5659 B( 41-C , 70-H ) :   0.9866 B( 42-C , 43-C ) :   1.1311
B( 42-C , 46-S ) :   1.0344 B( 43-C , 44-C ) :   1.6070 B( 43-C , 71-H ) :   0.9994
B( 44-C , 45-C ) :   1.1712 B( 44-C , 72-H ) :   0.9930 B( 45-C , 46-S ) :   1.0333
B( 45-C , 47-C ) :   1.5583 B( 47-C , 48-C ) :   1.1497 B( 47-C , 51-S ) :   1.0483
B( 48-C , 49-C ) :   1.6645 B( 48-C , 73-H ) :   0.9915 B( 49-C , 50-C ) :   1.0785
B( 49-C , 74-H ) :   0.9931 B( 50-C , 51-S ) :   1.0065 B( 50-C , 52-C ) :   1.8674
B( 52-C , 75-H ) :   0.9506 B( 52-C , 76-H ) :   0.9411

-----------------------------------------------------------------------------
         ABSORPTION SPECTRUM VIA TRANSITION ELECTRIC DIPOLE MOMENTS
-----------------------------------------------------------------------------
State   Energy  Wavelength   fosc         T2         TX        TY        TZ
        (cm-1)    (nm)                  (au**2)     (au)      (au)      (au)
-----------------------------------------------------------------------------
   0   16383.5    610.4   1.759737055  35.36033   1.30525  -1.51454  -5.60025
   1   20027.7    499.3   0.473447383   7.78244   0.18896  -0.19942  -2.77614
   2   22730.5    439.9   0.443537273   6.42387  -1.30936  -0.62937   2.07686
   3   23898.7    418.4   0.449843675   6.19674  -0.77075   2.15422   0.98083
   4   25589.1    390.8   0.453802630   5.83832   0.01113  -2.40110   0.27001
   5   26732.1    374.1   0.029150879   0.35900  -0.39805  -0.04243   0.44582
   6   27531.5    363.2   0.015568260   0.18616   0.22407  -0.36833   0.01679
   7   28635.6    349.2   0.504610430   5.80130   0.61237  -2.30195  -0.35685
   8   29029.8    344.5   0.171387923   1.94362   0.56622  -1.23458   0.31435
   9   29480.2    339.2   0.210816463   2.35423   0.57912  -0.91245  -1.08917
  10   29748.4    336.2   0.072067737   0.79754  -0.14738  -0.88078   0.00678
  11   31993.2    312.6   0.120585110   1.24083  -0.61127   0.23341   0.90150
  12   32401.7    308.6   0.211323473   2.14712  -0.62154   1.31855  -0.14914
  13   32904.4    303.9   0.129038718   1.29105  -0.49548   0.75182  -0.69305
  14   33973.4    294.3   0.027265619   0.26421  -0.27228   0.43588  -0.00918
  15   34470.1    290.1   0.012954856   0.12373  -0.16908   0.13242  -0.27857
  16   34688.3    288.3   0.000187729   0.00178   0.03184  -0.00856  -0.02635
  17   34823.6    287.2   0.103279489   0.97637  -0.08513   0.11728  -0.97743
  18   35199.6    284.1   0.037057920   0.34659   0.11605  -0.13742  -0.56057
  19   35694.6    280.2   0.360581021   3.32565   0.61346  -1.71217   0.13331
  20   35949.2    278.2   0.024380561   0.22327   0.22087  -0.29663   0.29410
  21   36568.9    273.5   0.047684856   0.42928  -0.37270   0.53236   0.08346
  22   37092.7    269.6   0.050510486   0.44830  -0.14960  -0.59804  -0.26129
  23   37596.1    266.0   0.011653984   0.10205  -0.07739  -0.25005   0.18312
  24   38135.1    262.2   0.169818089   1.46600  -0.24213   0.83093   0.84672
  25   38407.5    260.4   0.014609426   0.12523  -0.05499  -0.08450  -0.33921
  26   38572.2    259.3   0.088775244   0.75769   0.08097  -0.66829  -0.55184
  27   39032.7    256.2   0.150929797   1.27298  -0.37355   1.05570   0.13761
  28   39594.8    252.6   0.144961457   1.20529  -0.31750   0.90247   0.53854
  29   40270.3    248.3   0.026461901   0.21633   0.31690   0.25909  -0.22085

FINAL SINGLE POINT ENERGY     -4409.918572047658

DIPOLE MOMENT
-------------
                                X             Y             Z
Electronic contribution:      9.39712       4.22746      10.60676
Nuclear contribution   :    -10.62520      -4.53446     -12.04960
                        -----------------------------------------
Total Dipole Moment    :     -1.22808      -0.30700      -1.44284
                        -----------------------------------------
Magnitude (a.u.)       :      1.91943
Magnitude (Debye)      :      4.87881

Rotational constants in cm-1:     0.002011     0.000317     0.000283
Rotational constants in MHz :    60.294574     9.507969     8.478880

                             ****ORCA TERMINATED NORMALLY****
TOTAL RUN TIME: 0 days 0 hours 4 minutes 46 seconds 941 msec
