                         Program Version 4.2.0 -  RELEASE  -
|  1> # ORCA input file
|  2> # SCF done       -156.574159631751          0.000268593597
|  3> ! CAM-B3LYP def2-SVP def2/J RIJCOSX Grid4 TightSCF
|  4> %maxcore 5000
|  5> %tddft
|  6>     Mode sTDDFT
|  7>     Ethresh 5.0
|  8>     maxcore 5000
|  9> end
| 10>
| 11> %pal
| 12>   nprocs 6
| 13>   end
| 14> * xyz 0 1
| 15>    C        1.68019         3.96698         2.40702
| 16>    O        0.70203         4.03214         3.31829
| 17>    C        0.96056         5.09152         4.10664
| 18>    C        2.09771         5.71606         3.71306
| 19>    C        2.58964         4.98433         2.58717
| 20>    C        3.78566         5.28118         1.85402
| 21>    C        4.26874         4.56379         0.81641
| 22>    C        5.48938         4.87816         0.16243
| 23>    C        6.03295         4.11452        -0.82055
| 24>    C        7.30288         4.38295        -1.40503
| 25>    C        7.94663         3.53760        -2.29037
| 26>    O        9.23905         3.76806        -2.72247
| 27>    C        9.83834         4.88767        -2.23745
| 28>    C        9.15890         5.78143        -1.36072
| 29>    C        9.91755         6.84718        -1.00241
| 30>    S       11.47822         6.77347        -1.73116
| 31>    C       11.10023         5.29056        -2.52626
| 32>    O        7.88523         5.54600        -0.94359
| 33>    C        7.38704         2.34408        -2.81399
| 34>    C        8.15027         1.37544        -3.39867
| 35>    C        7.62362         0.19573        -3.95609
| 36>    S        5.95404         0.19727        -4.46150
| 37>    C        6.00862        -1.44447        -5.01653
| 38>    C        7.30276        -1.98561        -4.80480
| 39>    C        8.21865        -1.06076        -4.21134
| 40>    C        9.52523        -1.53305        -3.92416
| 41>    C       10.55256        -0.69775        -3.21481
| 42>    F       10.99319         0.34484        -3.94831
| 43>    F       10.10853        -0.19004        -2.04957
| 44>    F       11.65622        -1.39394        -2.89824
| 45>    C        9.88963        -2.81453        -4.27327
| 46>    C        8.99048        -3.68523        -4.89455
| 47>    C        7.70667        -3.28146        -5.14713
| 48>    C        4.91859        -2.10173        -5.57377
| 49>    C        3.70763        -1.56224        -5.96189
| 50>    C        2.63028        -2.29122        -6.50910
| 51>    C        1.57742        -1.52163        -6.91244
| 52>    C        1.77801        -0.14099        -6.71779
| 53>    S        3.32259         0.14638        -5.94345
| 54>    C        0.95243         0.89651        -7.11866
| 55>    C       -0.31001         0.80212        -7.74126
| 56>    C       -0.84302         2.00495        -8.09406
| 57>    C       -0.02494         3.11852        -7.77855
| 58>    S        1.43302         2.57464        -6.96783
| 59>    C       -0.29565         4.42484        -8.09353
| 60>    C        0.51465         5.54656        -7.85486
| 61>    S        2.05823         5.52958        -7.01580
| 62>    C        2.32553         7.21700        -7.21080
| 63>    C        1.28237         7.79790        -7.89355
| 64>    C        0.27187         6.85366        -8.24618
| 65>    O       -0.73304         7.44911        -8.92148
| 66>    C       -0.37690         8.75994        -9.00515
| 67>    N       -1.25619         9.63791        -9.67867
| 68>    O       -0.91364        10.80485        -9.74158
| 69>    O       -2.27744         9.17808       -10.14365
| 70>    C        0.82327         9.04126        -8.40768
| 71>    H        1.62875         3.17153         1.69092
| 72>    H        0.26937         5.29166         4.90114
| 73>    H        2.54583         6.58302         4.15323
| 74>    H        4.33555         6.14921         2.19393
| 75>    H        3.73126         3.69177         0.46996
| 76>    H        6.02288         5.75515         0.50101
| 77>    H        5.51197         3.23094        -1.15098
| 78>    H        9.65274         7.66095        -0.36062
| 79>    H       11.81968         4.80712        -3.15294
| 80>    H        6.32387         2.19502        -2.71510
| 81>    H        9.21490         1.53212        -3.41203
| 82>    H       10.88722        -3.16281        -4.05701
| 83>    H        9.31548        -4.67901        -5.15797
| 84>    H        7.00549        -3.95828        -5.60906
| 85>    H        5.03195        -3.16244        -5.75393
| 86>    H        2.66669        -3.36275        -6.59865
| 87>    H        0.68356        -1.91119        -7.36468
| 88>    H       -0.78886        -0.14435        -7.91609
| 89>    H       -1.79130         2.13182        -8.58524
| 90>    H       -1.22354         4.63171        -8.61056
| 91>    H        3.21538         7.66550        -6.82192
| 92>    H        1.29065        10.00259        -8.35756
| 93> *
| 94>
| 95>                          ****END OF INPUT****

CARTESIAN COORDINATES (ANGSTROEM)
---------------------------------
  C      1.680190    3.966980    2.407020
  O      0.702030    4.032140    3.318290
  C      0.960560    5.091520    4.106640
  C      2.097710    5.716060    3.713060
  C      2.589640    4.984330    2.587170
  C      3.785660    5.281180    1.854020
  C      4.268740    4.563790    0.816410
  C      5.489380    4.878160    0.162430
  C      6.032950    4.114520   -0.820550
  C      7.302880    4.382950   -1.405030
  C      7.946630    3.537600   -2.290370
  O      9.239050    3.768060   -2.722470
  C      9.838340    4.887670   -2.237450
  C      9.158900    5.781430   -1.360720
  C      9.917550    6.847180   -1.002410
  S     11.478220    6.773470   -1.731160
  C     11.100230    5.290560   -2.526260
  O      7.885230    5.546000   -0.943590
  C      7.387040    2.344080   -2.813990
  C      8.150270    1.375440   -3.398670
  C      7.623620    0.195730   -3.956090
  S      5.954040    0.197270   -4.461500
  C      6.008620   -1.444470   -5.016530
  C      7.302760   -1.985610   -4.804800
  C      8.218650   -1.060760   -4.211340
  C      9.525230   -1.533050   -3.924160
  C     10.552560   -0.697750   -3.214810
  F     10.993190    0.344840   -3.948310
  F     10.108530   -0.190040   -2.049570
  F     11.656220   -1.393940   -2.898240
  C      9.889630   -2.814530   -4.273270
  C      8.990480   -3.685230   -4.894550
  C      7.706670   -3.281460   -5.147130
  C      4.918590   -2.101730   -5.573770
  C      3.707630   -1.562240   -5.961890
  C      2.630280   -2.291220   -6.509100
  C      1.577420   -1.521630   -6.912440
  C      1.778010   -0.140990   -6.717790
  S      3.322590    0.146380   -5.943450
  C      0.952430    0.896510   -7.118660
  C     -0.310010    0.802120   -7.741260
  C     -0.843020    2.004950   -8.094060
  C     -0.024940    3.118520   -7.778550
  S      1.433020    2.574640   -6.967830
  C     -0.295650    4.424840   -8.093530
  C      0.514650    5.546560   -7.854860
  S      2.058230    5.529580   -7.015800
  C      2.325530    7.217000   -7.210800
  C      1.282370    7.797900   -7.893550
  C      0.271870    6.853660   -8.246180
  O     -0.733040    7.449110   -8.921480
  C     -0.376900    8.759940   -9.005150
  N     -1.256190    9.637910   -9.678670
  O     -0.913640   10.804850   -9.741580
  O     -2.277440    9.178080  -10.143650
  C      0.823270    9.041260   -8.407680
  H      1.628750    3.171530    1.690920
  H      0.269370    5.291660    4.901140
  H      2.545830    6.583020    4.153230
  H      4.335550    6.149210    2.193930
  H      3.731260    3.691770    0.469960
  H      6.022880    5.755150    0.501010
  H      5.511970    3.230940   -1.150980
  H      9.652740    7.660950   -0.360620
  H     11.819680    4.807120   -3.152940
  H      6.323870    2.195020   -2.715100
  H      9.214900    1.532120   -3.412030
  H     10.887220   -3.162810   -4.057010
  H      9.315480   -4.679010   -5.157970
  H      7.005490   -3.958280   -5.609060
  H      5.031950   -3.162440   -5.753930
  H      2.666690   -3.362750   -6.598650
  H      0.683560   -1.911190   -7.364680
  H     -0.788860   -0.144350   -7.916090
  H     -1.791300    2.131820   -8.585240
  H     -1.223540    4.631710   -8.610560
  H      3.215380    7.665500   -6.821920
  H      1.290650   10.002590   -8.357560

 Total Charge           Charge          ....    0
 Multiplicity           Mult            ....    1
 Number of Electrons    NEL             ....  430
 Basis Dimension        Dim             ....  914

ORBITAL ENERGIES
----------------

  NO   OCC          E(Eh)            E(eV)
   0   2.0000     -88.974735     -2421.1256
   1   2.0000     -88.965698     -2420.8797
   2   2.0000     -88.951612     -2420.4964
   3   2.0000     -88.950909     -2420.4773
   4   2.0000     -88.950515     -2420.4666
   5   2.0000     -24.792849      -674.6477
   6   2.0000     -24.792164      -674.6291
   7   2.0000     -24.789832      -674.5656
   8   2.0000     -19.308183      -525.4024
   9   2.0000     -19.283560      -524.7323
  10   2.0000     -19.267406      -524.2928
  11   2.0000     -19.265994      -524.2544
  12   2.0000     -19.241975      -523.6008
  13   2.0000     -19.239649      -523.5375
  14   2.0000     -14.653558      -398.7436
  15   2.0000     -10.511000      -286.0188
  16   2.0000     -10.385388      -282.6008
  17   2.0000     -10.344894      -281.4989
  18   2.0000     -10.338274      -281.3187
  19   2.0000     -10.337084      -281.2863
  20   2.0000     -10.333561      -281.1905
  21   2.0000     -10.332848      -281.1711
  22   2.0000     -10.316728      -280.7324
  23   2.0000     -10.314478      -280.6712
  24   2.0000     -10.313866      -280.6546
  25   2.0000     -10.313175      -280.6358
  26   2.0000     -10.312351      -280.6133
  27   2.0000     -10.311774      -280.5976
  28   2.0000     -10.311109      -280.5795
  29   2.0000     -10.310947      -280.5751
  30   2.0000     -10.310790      -280.5709
  31   2.0000     -10.308759      -280.5156
  32   2.0000     -10.306697      -280.4595
  33   2.0000     -10.297080      -280.1978
  34   2.0000     -10.296547      -280.1833
  35   2.0000     -10.295220      -280.1472
  36   2.0000     -10.292572      -280.0751
  37   2.0000     -10.290883      -280.0292
  38   2.0000     -10.289338      -279.9871
  39   2.0000     -10.288972      -279.9772
  40   2.0000     -10.288546      -279.9656
  41   2.0000     -10.287839      -279.9463
  42   2.0000     -10.287777      -279.9446
  43   2.0000     -10.287266      -279.9307
  44   2.0000     -10.286510      -279.9102
  45   2.0000     -10.286457      -279.9087
  46   2.0000     -10.286330      -279.9053
  47   2.0000     -10.279089      -279.7082
  48   2.0000     -10.276584      -279.6401
  49   2.0000     -10.274813      -279.5919
  50   2.0000     -10.272486      -279.5286
  51   2.0000     -10.272241      -279.5219
  52   2.0000     -10.268678      -279.4249
  53   2.0000     -10.266884      -279.3761
  54   2.0000     -10.266121      -279.3554
  55   2.0000     -10.260482      -279.2019
  56   2.0000      -8.069274      -219.5761
  57   2.0000      -8.060462      -219.3363
  58   2.0000      -8.047693      -218.9889
  59   2.0000      -8.047047      -218.9713
  60   2.0000      -8.046365      -218.9527
  61   2.0000      -6.038625      -164.3193
  62   2.0000      -6.034191      -164.1987
  63   2.0000      -6.031676      -164.1302
  64   2.0000      -6.029450      -164.0697
  65   2.0000      -6.025402      -163.9595
  66   2.0000      -6.023170      -163.8988
  67   2.0000      -6.017407      -163.7420
  68   2.0000      -6.016818      -163.7259
  69   2.0000      -6.015869      -163.7001
  70   2.0000      -6.013292      -163.6300
  71   2.0000      -6.012719      -163.6144
  72   2.0000      -6.011727      -163.5874
  73   2.0000      -6.008700      -163.5051
  74   2.0000      -6.008015      -163.4864
  75   2.0000      -6.007939      -163.4843
  76   2.0000      -1.381784       -37.6002
  77   2.0000      -1.324558       -36.0431
  78   2.0000      -1.283259       -34.9192
  79   2.0000      -1.282105       -34.8879
  80   2.0000      -1.227915       -33.4133
  81   2.0000      -1.201786       -32.7023
  82   2.0000      -1.193542       -32.4779
  83   2.0000      -1.156647       -31.4740
  84   2.0000      -1.140664       -31.0390
  85   2.0000      -1.003704       -27.3122
  86   2.0000      -0.999360       -27.1940
  87   2.0000      -0.992830       -27.0163
  88   2.0000      -0.979302       -26.6482
  89   2.0000      -0.975870       -26.5548
  90   2.0000      -0.943217       -25.6662
  91   2.0000      -0.934195       -25.4207
  92   2.0000      -0.920866       -25.0580
  93   2.0000      -0.913608       -24.8605
  94   2.0000      -0.903458       -24.5843
  95   2.0000      -0.897886       -24.4327
  96   2.0000      -0.883975       -24.0542
  97   2.0000      -0.879777       -23.9399
  98   2.0000      -0.868811       -23.6415
  99   2.0000      -0.858183       -23.3523
 100   2.0000      -0.851515       -23.1709
 101   2.0000      -0.840222       -22.8636
 102   2.0000      -0.835741       -22.7417
 103   2.0000      -0.830664       -22.6035
 104   2.0000      -0.826856       -22.4999
 105   2.0000      -0.823756       -22.4155
 106   2.0000      -0.809339       -22.0232
 107   2.0000      -0.805167       -21.9097
 108   2.0000      -0.795540       -21.6477
 109   2.0000      -0.784442       -21.3457
 110   2.0000      -0.776428       -21.1277
 111   2.0000      -0.766593       -20.8600
 112   2.0000      -0.745735       -20.2925
 113   2.0000      -0.729721       -19.8567
 114   2.0000      -0.715697       -19.4751
 115   2.0000      -0.710350       -19.3296
 116   2.0000      -0.706083       -19.2135
 117   2.0000      -0.697918       -18.9913
 118   2.0000      -0.689545       -18.7635
 119   2.0000      -0.680393       -18.5144
 120   2.0000      -0.677192       -18.4273
 121   2.0000      -0.672922       -18.3111
 122   2.0000      -0.671215       -18.2647
 123   2.0000      -0.669238       -18.2109
 124   2.0000      -0.664445       -18.0805
 125   2.0000      -0.660084       -17.9618
 126   2.0000      -0.649892       -17.6845
 127   2.0000      -0.647127       -17.6092
 128   2.0000      -0.644134       -17.5278
 129   2.0000      -0.638602       -17.3772
 130   2.0000      -0.635968       -17.3056
 131   2.0000      -0.628762       -17.1095
 132   2.0000      -0.625672       -17.0254
 133   2.0000      -0.622606       -16.9420
 134   2.0000      -0.618836       -16.8394
 135   2.0000      -0.606856       -16.5134
 136   2.0000      -0.601287       -16.3618
 137   2.0000      -0.597340       -16.2545
 138   2.0000      -0.590709       -16.0740
 139   2.0000      -0.583310       -15.8727
 140   2.0000      -0.578446       -15.7403
 141   2.0000      -0.575779       -15.6677
 142   2.0000      -0.567739       -15.4490
 143   2.0000      -0.564694       -15.3661
 144   2.0000      -0.561016       -15.2660
 145   2.0000      -0.559443       -15.2232
 146   2.0000      -0.556340       -15.1388
 147   2.0000      -0.550840       -14.9891
 148   2.0000      -0.543973       -14.8023
 149   2.0000      -0.543387       -14.7863
 150   2.0000      -0.541472       -14.7342
 151   2.0000      -0.540434       -14.7060
 152   2.0000      -0.536529       -14.5997
 153   2.0000      -0.533498       -14.5172
 154   2.0000      -0.529341       -14.4041
 155   2.0000      -0.518746       -14.1158
 156   2.0000      -0.513308       -13.9678
 157   2.0000      -0.511849       -13.9281
 158   2.0000      -0.508868       -13.8470
 159   2.0000      -0.507004       -13.7963
 160   2.0000      -0.503680       -13.7058
 161   2.0000      -0.501246       -13.6396
 162   2.0000      -0.497155       -13.5283
 163   2.0000      -0.496258       -13.5039
 164   2.0000      -0.495160       -13.4740
 165   2.0000      -0.493209       -13.4209
 166   2.0000      -0.493010       -13.4155
 167   2.0000      -0.492451       -13.4003
 168   2.0000      -0.486413       -13.2360
 169   2.0000      -0.483851       -13.1662
 170   2.0000      -0.482197       -13.1212
 171   2.0000      -0.478410       -13.0182
 172   2.0000      -0.475806       -12.9473
 173   2.0000      -0.474191       -12.9034
 174   2.0000      -0.473466       -12.8837
 175   2.0000      -0.469330       -12.7711
 176   2.0000      -0.462584       -12.5875
 177   2.0000      -0.459277       -12.4976
 178   2.0000      -0.458438       -12.4747
 179   2.0000      -0.456230       -12.4147
 180   2.0000      -0.452923       -12.3247
 181   2.0000      -0.447957       -12.1895
 182   2.0000      -0.443494       -12.0681
 183   2.0000      -0.434969       -11.8361
 184   2.0000      -0.434618       -11.8265
 185   2.0000      -0.431360       -11.7379
 186   2.0000      -0.429428       -11.6853
 187   2.0000      -0.425766       -11.5857
 188   2.0000      -0.423401       -11.5213
 189   2.0000      -0.421893       -11.4803
 190   2.0000      -0.417498       -11.3607
 191   2.0000      -0.415267       -11.3000
 192   2.0000      -0.409934       -11.1549
 193   2.0000      -0.406815       -11.0700
 194   2.0000      -0.400452       -10.8969
 195   2.0000      -0.390965       -10.6387
 196   2.0000      -0.387654       -10.5486
 197   2.0000      -0.381284       -10.3753
 198   2.0000      -0.378244       -10.2925
 199   2.0000      -0.373188       -10.1550
 200   2.0000      -0.369323       -10.0498
 201   2.0000      -0.357218        -9.7204
 202   2.0000      -0.343113        -9.3366
 203   2.0000      -0.342229        -9.3125
 204   2.0000      -0.332838        -9.0570
 205   2.0000      -0.326952        -8.8968
 206   2.0000      -0.321057        -8.7364
 207   2.0000      -0.316453        -8.6111
 208   2.0000      -0.306523        -8.3409
 209   2.0000      -0.298993        -8.1360
 210   2.0000      -0.294268        -8.0074
 211   2.0000      -0.273515        -7.4427
 212   2.0000      -0.261792        -7.1237
 213   2.0000      -0.231343        -6.2952
 214   2.0000      -0.198261        -5.3950
 215   0.0000      -0.094266        -2.5651
 216   0.0000      -0.062084        -1.6894
 217   0.0000      -0.043949        -1.1959
 218   0.0000      -0.024663        -0.6711
 219   0.0000      -0.000251        -0.0068

MULLIKEN ATOMIC CHARGES
-----------------------
   0 C :    0.064539
   1 O :   -0.177710
   2 C :    0.132997
   3 C :   -0.044826
   4 C :    0.048389
   5 C :    0.025195
   6 C :    0.022909
   7 C :    0.035500
   8 C :   -0.066526
   9 C :    0.175105
  10 C :    0.172338
  11 O :   -0.254218
  12 C :    0.222823
  13 C :    0.219354
  14 C :   -0.175723
  15 S :    0.104574
  16 C :   -0.176397
  17 O :   -0.255838
  18 C :   -0.091310
  19 C :   -0.001161
  20 C :   -0.117204
  21 S :    0.128555
  22 C :   -0.083565
  23 C :    0.096953
  24 C :    0.169854
  25 C :   -0.157083
  26 C :    0.516058
  27 F :   -0.167480
  28 F :   -0.163889
  29 F :   -0.158353
  30 C :    0.001786
  31 C :    0.026247
  32 C :   -0.019511
  33 C :   -0.026776
  34 C :   -0.040997
  35 C :    0.025401
  36 C :    0.026229
  37 C :   -0.038734
  38 S :    0.077376
  39 C :   -0.037500
  40 C :    0.022899
  41 C :    0.040156
  42 C :   -0.030365
  43 S :    0.067495
  44 C :   -0.009270
  45 C :   -0.190023
  46 S :    0.143244
  47 C :   -0.130184
  48 C :    0.125844
  49 C :    0.192657
  50 O :   -0.184460
  51 C :    0.235868
  52 N :    0.273438
  53 O :   -0.251208
  54 O :   -0.230827
  55 C :   -0.072841
  56 H :    0.004381
  57 H :    0.008729
  58 H :   -0.015563
  59 H :   -0.023082
  60 H :   -0.021830
  61 H :   -0.001262
  62 H :   -0.017899
  63 H :    0.021431
  64 H :    0.026206
  65 H :    0.004526
  66 H :    0.023060
  67 H :   -0.001791
  68 H :   -0.011886
  69 H :   -0.022089
  70 H :   -0.015673
  71 H :   -0.011584
  72 H :   -0.014839
  73 H :   -0.012391
  74 H :   -0.009416
  75 H :    0.004941
  76 H :    0.033924
  77 H :    0.012303
Sum of atomic charges:   -0.0000000

LOEWDIN ATOMIC CHARGES
----------------------
   0 C :    0.032952
   1 O :    0.026627
   2 C :    0.028665
   3 C :   -0.069562
   4 C :   -0.080755
   5 C :   -0.013235
   6 C :   -0.027191
   7 C :   -0.010741
   8 C :   -0.049395
   9 C :    0.026639
  10 C :    0.023206
  11 O :   -0.050938
  12 C :   -0.007305
  13 C :   -0.007542
  14 C :   -0.213798
  15 S :    0.431673
  16 C :   -0.210885
  17 O :   -0.051925
  18 C :   -0.049888
  19 C :   -0.040474
  20 C :   -0.171169
  21 S :    0.474750
  22 C :   -0.178125
  23 C :   -0.039717
  24 C :   -0.034658
  25 C :   -0.079454
  26 C :    0.175047
  27 F :   -0.064089
  28 F :   -0.058442
  29 F :   -0.056764
  30 C :   -0.000777
  31 C :   -0.031191
  32 C :    0.003085
  33 C :   -0.072563
  34 C :   -0.157690
  35 C :   -0.033446
  36 C :   -0.039544
  37 C :   -0.177298
  38 S :    0.373778
  39 C :   -0.176649
  40 C :   -0.036429
  41 C :   -0.029518
  42 C :   -0.152854
  43 S :    0.366434
  44 C :   -0.067890
  45 C :   -0.204054
  46 S :    0.473764
  47 C :   -0.188479
  48 C :   -0.084679
  49 C :    0.020168
  50 O :    0.001462
  51 C :    0.024469
  52 N :    0.272354
  53 O :   -0.211995
  54 O :   -0.193272
  55 C :   -0.008146
  56 H :    0.019275
  57 H :    0.021447
  58 H :    0.028748
  59 H :    0.028417
  60 H :    0.023754
  61 H :    0.029770
  62 H :    0.030733
  63 H :    0.027727
  64 H :    0.029700
  65 H :    0.022507
  66 H :    0.027963
  67 H :    0.033917
  68 H :    0.031382
  69 H :    0.029626
  70 H :    0.037342
  71 H :    0.033347
  72 H :    0.031555
  73 H :    0.032464
  74 H :    0.034988
  75 H :    0.046433
  76 H :    0.029421
  77 H :    0.046937

  Mayer bond orders larger than 0.100000
B(  0-C ,  1-O ) :   1.1745 B(  0-C ,  4-C ) :   1.5038 B(  0-C , 56-H ) :   1.0032
B(  1-O ,  2-C ) :   1.1455 B(  2-C ,  3-C ) :   1.5745 B(  2-C , 57-H ) :   1.0016
B(  3-C ,  4-C ) :   1.2076 B(  3-C , 58-H ) :   1.0098 B(  4-C ,  5-C ) :   1.0704
B(  5-C ,  6-C ) :   1.6926 B(  5-C , 59-H ) :   0.9801 B(  6-C ,  7-C ) :   1.1165
B(  6-C , 60-H ) :   0.9818 B(  7-C ,  8-C ) :   1.6369 B(  7-C , 61-H ) :   0.9900
B(  8-C ,  9-C ) :   1.1643 B(  8-C , 62-H ) :   0.9613 B(  9-C , 10-C ) :   1.4359
B(  9-C , 17-O ) :   1.0598 B( 10-C , 11-O ) :   1.0553 B( 10-C , 18-C ) :   1.2029
B( 11-O , 12-C ) :   1.0552 B( 12-C , 13-C ) :   1.2021 B( 12-C , 16-C ) :   1.5716
B( 13-C , 14-C ) :   1.5701 B( 13-C , 17-O ) :   1.0546 B( 14-C , 15-S ) :   1.1402
B( 14-C , 63-H ) :   0.9729 B( 15-S , 16-C ) :   1.1398 B( 16-C , 64-H ) :   0.9725
B( 18-C , 19-C ) :   1.6113 B( 18-C , 65-H ) :   0.9531 B( 19-C , 20-C ) :   1.1708
B( 19-C , 66-H ) :   0.9509 B( 20-C , 21-S ) :   1.1337 B( 20-C , 24-C ) :   1.3163
B( 21-S , 22-C ) :   1.1254 B( 22-C , 23-C ) :   1.2529 B( 22-C , 33-C ) :   1.2626
B( 23-C , 24-C ) :   1.2263 B( 23-C , 32-C ) :   1.2499 B( 24-C , 25-C ) :   1.2103
B( 25-C , 26-C ) :   0.9503 B( 25-C , 30-C ) :   1.5557 B( 26-C , 27-F ) :   1.1161
B( 26-C , 28-F ) :   1.1476 B( 26-C , 29-F ) :   1.1569 B( 30-C , 31-C ) :   1.2273
B( 30-C , 67-H ) :   0.9880 B( 31-C , 32-C ) :   1.5074 B( 31-C , 68-H ) :   0.9866
B( 32-C , 69-H ) :   0.9897 B( 33-C , 34-C ) :   1.5094 B( 33-C , 70-H ) :   0.9601
B( 34-C , 35-C ) :   1.1737 B( 34-C , 38-S ) :   1.0430 B( 35-C , 36-C ) :   1.5599
B( 35-C , 71-H ) :   1.0001 B( 36-C , 37-C ) :   1.2051 B( 36-C , 72-H ) :   0.9930
B( 37-C , 38-S ) :   1.0450 B( 37-C , 39-C ) :   1.4889 B( 39-C , 40-C ) :   1.1963
B( 39-C , 43-S ) :   1.0441 B( 40-C , 41-C ) :   1.5795 B( 40-C , 73-H ) :   0.9936
B( 41-C , 42-C ) :   1.1495 B( 41-C , 74-H ) :   1.0003 B( 42-C , 43-S ) :   1.0353
B( 42-C , 44-C ) :   1.5577 B( 44-C , 45-C ) :   1.1835 B( 44-C , 75-H ) :   0.9725
B( 45-C , 46-S ) :   1.1055 B( 45-C , 47-C ) :   0.1072 B( 45-C , 49-C ) :   1.4361
B( 46-S , 47-C ) :   1.1881 B( 47-C , 48-C ) :   1.4137 B( 47-C , 76-H ) :   0.9759
B( 48-C , 49-C ) :   1.2321 B( 48-C , 55-C ) :   1.0583 B( 49-C , 50-O ) :   1.1234
B( 50-O , 51-C ) :   1.1212 B( 51-C , 52-N ) :   0.9189 B( 51-C , 55-C ) :   1.5744
B( 52-N , 53-O ) :   1.5315 B( 52-N , 54-O ) :   1.5136 B( 53-O , 54-O ) :   0.2795
B( 55-C , 77-H ) :   1.0268

-----------------------------------------------------------------------------
         ABSORPTION SPECTRUM VIA TRANSITION ELECTRIC DIPOLE MOMENTS
-----------------------------------------------------------------------------
State   Energy  Wavelength   fosc         T2         TX        TY        TZ
        (cm-1)    (nm)                  (au**2)     (au)      (au)      (au)
-----------------------------------------------------------------------------
   0    9593.2   1042.4   0.585201674  20.08253  -3.06186   1.05836  -3.09635
   1   15943.7    627.2   0.086812733   1.79255   0.89306  -0.97998   0.18611
   2   17210.1    581.1   0.484487944   9.26776  -0.36332   2.90164   0.84629
   3   20221.3    494.5   0.803425771  13.08013  -2.01250   2.94806   0.58215
   4   22447.6    445.5   0.608920927   8.93030   0.48138  -2.72538  -1.12734
   5   23704.2    421.9   0.183438789   2.54766   1.26900   0.58743  -0.76957
   6   24966.2    400.5   0.156792203   2.06751   1.38344   0.06932  -0.38574
   7   26420.7    378.5   0.046449859   0.57878  -0.59533   0.24594   0.40482
   8   27535.1    363.2   0.171239904   2.04736   0.66858   1.25430  -0.16458
   9   28087.5    356.0   0.246076636   2.88425  -1.33667  -0.48445   0.92891
  10   29070.8    344.0   0.047273778   0.53535   0.46923   0.45371  -0.33064
  11   29906.5    334.4   0.264078219   2.90699   1.63496   0.46078   0.14686
  12   30769.8    325.0   0.115295589   1.23357   1.07950  -0.07012  -0.25167
  13   31098.7    321.6   0.007468662   0.07906  -0.10268  -0.17208   0.19726
  14   31312.3    319.4   0.059469696   0.62525  -0.46099   0.08625   0.63663
  15   31776.4    314.7   0.022175679   0.22975  -0.08963  -0.07445  -0.46494
  16   32260.8    310.0   0.107810040   1.10017   0.03273   1.00441  -0.30044
  17   32716.8    305.7   0.000000697   0.00001   0.00159  -0.00009  -0.00212
  18   33431.5    299.1   0.018903092   0.18615  -0.06243  -0.35633   0.23511
  19   33667.4    297.0   0.077356331   0.75642   0.75923  -0.03232  -0.42302
  20   34258.2    291.9   0.163316954   1.56943  -0.82600   0.77113   0.54084
  21   34892.7    286.6   0.095929843   0.90510   0.88386   0.08555  -0.34142
  22   35282.7    283.4   0.018523453   0.17284  -0.05775   0.07682  -0.40448
  23   35329.4    283.1   0.127327175   1.18648  -0.11145  -1.03086   0.33376
  24   35867.6    278.8   0.068018890   0.62431   0.57810  -0.52499   0.12039
  25   36328.5    275.3   0.057532462   0.52136   0.54724  -0.46433  -0.07926
  26   36397.8    274.7   0.089509145   0.80959  -0.03274   0.88447  -0.16196
  27   36668.8    272.7   0.177187001   1.59078   0.70609  -0.70757   0.76913
  28   37522.4    266.5   0.027109784   0.23785   0.10215   0.11631  -0.46248
  29   37690.1    265.3   0.053326197   0.46579   0.19815  -0.59133  -0.27723
  30   37881.2    264.0   0.144306242   1.25411   0.95128  -0.30168   0.50811
  31   38188.1    261.9   0.011055086   0.09530  -0.24960  -0.13093  -0.12593
  32   39038.7    256.2   0.132513720   1.11748   1.03328  -0.15862  -0.15703
  33   39381.7    253.9   0.211663340   1.76940   0.05180  -1.24518   0.46503

FINAL SINGLE POINT ENERGY     -4368.451369417659

DIPOLE MOMENT
-------------
                                X             Y             Z
Electronic contribution:     24.53689       0.26498     -17.15953
Nuclear contribution   :    -24.43905      -2.32444      17.63506
                        -----------------------------------------
Total Dipole Moment    :      0.09784      -2.05946       0.47553
                        -----------------------------------------
Magnitude (a.u.)       :      2.11591
Magnitude (Debye)      :      5.37822

Rotational constants in cm-1:     0.001068     0.000645     0.000540
Rotational constants in MHz :    32.014654    19.333788    16.175979

                             ****ORCA TERMINATED NORMALLY****
TOTAL RUN TIME: 0 days 0 hours 9 minutes 32 seconds 604 msec
