                         Program Version 4.2.0 -  RELEASE  -
|  1> # ORCA input file
|  2> # SCF done       -165.432817641119          0.000868200922
|  3> ! CAM-B3LYP def2-SVP def2/J RIJCOSX Grid4 TightSCF
|  4> %maxcore 5000
|  5> %tddft
|  6>     Mode sTDDFT
|  7>     Ethresh 5.0
|  8>     maxcore 5000
|  9> end
| 10>
| 11> %pal
| 12>   nprocs 6
| 13>   end
| 14> * xyz 0 1
| 15>    C        7.52158       -20.70679         0.62042
| 16>    S        6.55927       -20.00235         1.90534
| 17>    C        6.07722       -18.80148         0.77707
| 18>    C        6.67688       -19.03365        -0.45882
| 19>    N        7.47949       -20.10583        -0.51694
| 20>    C        6.26755       -17.99672        -1.45588
| 21>    C        5.35178       -17.14580        -0.62472
| 22>    C        5.26585       -17.64505         0.67601
| 23>    S        4.23225       -16.71271         1.67549
| 24>    C        3.89828       -15.62674         0.33374
| 25>    C        4.57819       -16.00643        -0.81365
| 26>    C        3.02517       -14.52298         0.47637
| 27>    C        2.38143       -14.19281         1.62435
| 28>    C        1.49912       -13.09783         1.73680
| 29>    S        0.69064       -12.78934         3.30461
| 30>    C       -0.09348       -11.46198         2.55801
| 31>    C        0.30583       -11.34971         1.21712
| 32>    N        1.17637       -12.25391         0.79166
| 33>    C       -0.38252       -10.19693         0.55502
| 34>    C       -1.23101        -9.67845         1.68054
| 35>    C       -1.02657       -10.44718         2.83606
| 36>    S       -1.97925        -9.91098         4.15504
| 37>    C       -2.67791        -8.64080         3.15341
| 38>    C       -2.15567        -8.66496         1.86085
| 39>    C       -3.65318        -7.80818         3.72661
| 40>    C       -4.32887        -6.79278         3.10097
| 41>    C       -5.32836        -6.06276         3.74768
| 42>    C       -6.08211        -5.05213         3.19377
| 43>    C       -7.13623        -4.36252         3.83230
| 44>    C       -7.74580        -3.42467         3.05279
| 45>    C       -7.19762        -3.31012         1.75798
| 46>    S       -5.88098        -4.44311         1.55757
| 47>    C       -7.60641        -2.44266         0.75758
| 48>    C       -8.69825        -1.55167         0.82412
| 49>    C       -8.87583        -0.81713        -0.31040
| 50>    C       -7.92499        -1.08505        -1.31943
| 51>    S       -6.79998        -2.31325        -0.79667
| 52>    C       -7.84952        -0.47520        -2.55176
| 53>    C       -6.85311        -0.75840        -3.48140
| 54>    S       -6.80175         0.11265        -5.04921
| 55>    C       -5.38718        -0.78485        -5.41275
| 56>    C       -5.06871        -1.65657        -4.35703
| 57>    N       -5.88064        -1.62738        -3.31479
| 58>    C       -3.82862        -2.43326        -4.67209
| 59>    C       -3.47663        -1.88565        -6.02598
| 60>    C       -4.41966        -0.92663        -6.42184
| 61>    S       -4.06711        -0.25668        -7.95889
| 62>    C       -2.63052        -1.26251        -8.08353
| 63>    C       -2.47310        -2.07141        -6.96311
| 64>    C       -1.82926        -1.13336        -9.23919
| 65>    C       -0.67516        -1.80413        -9.49385
| 66>    C        0.06614        -1.58482       -10.67554
| 67>    S        1.59404        -2.47844       -10.95273
| 68>    C        1.74021        -1.63052       -12.43483
| 69>    C        0.65558        -0.76284       -12.60664
| 70>    N       -0.24641        -0.75444       -11.63350
| 71>    C        0.77215        -0.01324       -13.89621
| 72>    C        2.06141        -0.56286       -14.43238
| 73>    C        2.59600        -1.50429       -13.55295
| 74>    S        4.07462        -2.15961       -14.12331
| 75>    C        3.98210        -1.16026       -15.56018
| 76>    C        2.84882        -0.37264       -15.56533
| 77>    C        5.03601        -1.25532       -16.52970
| 78>    C        5.10904        -0.55799       -17.66275
| 79>    H        8.10013       -21.58836         0.80670
| 80>    H        5.75947       -18.43681        -2.31545
| 81>    H        7.12563       -17.43494        -1.82958
| 82>    H        4.49740       -15.46137        -1.73678
| 83>    H        2.86694       -13.91160        -0.40088
| 84>    H        2.52523       -14.78693         2.51712
| 85>    H       -0.98032       -10.52007        -0.29901
| 86>    H        0.33102        -9.45181         0.19848
| 87>    H       -2.45789        -7.96727         1.10168
| 88>    H       -3.89746        -8.01478         4.76150
| 89>    H       -4.10979        -6.54626         2.07134
| 90>    H       -5.55544        -6.32192         4.77458
| 91>    H       -7.41732        -4.58552         4.84659
| 92>    H       -8.56633        -2.81233         3.37998
| 93>    H       -9.32735        -1.47669         1.69268
| 94>    H       -9.65481        -0.08899        -0.45266
| 95>    H       -8.58591         0.27138        -2.80845
| 96>    H       -4.02407        -3.50698        -4.69656
| 97>    H       -3.04464        -2.25544        -3.93389
| 98>    H       -1.65344        -2.75776        -6.85370
| 99>    H       -2.16515        -0.42551        -9.98430
|100>    H       -0.27602        -2.52576        -8.79719
|101>    H        0.81671         1.06514       -13.73279
|102>    H       -0.07229        -0.21484       -14.55787
|103>    H        2.61230         0.30901       -16.36155
|104>    H        5.81802        -1.96260       -16.28482
|105>    H        4.35470         0.15420       -17.94859
|106>    H        5.93193        -0.68472       -18.34328
|107> *
|108>
|109>                          ****END OF INPUT****

CARTESIAN COORDINATES (ANGSTROEM)
---------------------------------
  C      7.521580  -20.706790    0.620420
  S      6.559270  -20.002350    1.905340
  C      6.077220  -18.801480    0.777070
  C      6.676880  -19.033650   -0.458820
  N      7.479490  -20.105830   -0.516940
  C      6.267550  -17.996720   -1.455880
  C      5.351780  -17.145800   -0.624720
  C      5.265850  -17.645050    0.676010
  S      4.232250  -16.712710    1.675490
  C      3.898280  -15.626740    0.333740
  C      4.578190  -16.006430   -0.813650
  C      3.025170  -14.522980    0.476370
  C      2.381430  -14.192810    1.624350
  C      1.499120  -13.097830    1.736800
  S      0.690640  -12.789340    3.304610
  C     -0.093480  -11.461980    2.558010
  C      0.305830  -11.349710    1.217120
  N      1.176370  -12.253910    0.791660
  C     -0.382520  -10.196930    0.555020
  C     -1.231010   -9.678450    1.680540
  C     -1.026570  -10.447180    2.836060
  S     -1.979250   -9.910980    4.155040
  C     -2.677910   -8.640800    3.153410
  C     -2.155670   -8.664960    1.860850
  C     -3.653180   -7.808180    3.726610
  C     -4.328870   -6.792780    3.100970
  C     -5.328360   -6.062760    3.747680
  C     -6.082110   -5.052130    3.193770
  C     -7.136230   -4.362520    3.832300
  C     -7.745800   -3.424670    3.052790
  C     -7.197620   -3.310120    1.757980
  S     -5.880980   -4.443110    1.557570
  C     -7.606410   -2.442660    0.757580
  C     -8.698250   -1.551670    0.824120
  C     -8.875830   -0.817130   -0.310400
  C     -7.924990   -1.085050   -1.319430
  S     -6.799980   -2.313250   -0.796670
  C     -7.849520   -0.475200   -2.551760
  C     -6.853110   -0.758400   -3.481400
  S     -6.801750    0.112650   -5.049210
  C     -5.387180   -0.784850   -5.412750
  C     -5.068710   -1.656570   -4.357030
  N     -5.880640   -1.627380   -3.314790
  C     -3.828620   -2.433260   -4.672090
  C     -3.476630   -1.885650   -6.025980
  C     -4.419660   -0.926630   -6.421840
  S     -4.067110   -0.256680   -7.958890
  C     -2.630520   -1.262510   -8.083530
  C     -2.473100   -2.071410   -6.963110
  C     -1.829260   -1.133360   -9.239190
  C     -0.675160   -1.804130   -9.493850
  C      0.066140   -1.584820  -10.675540
  S      1.594040   -2.478440  -10.952730
  C      1.740210   -1.630520  -12.434830
  C      0.655580   -0.762840  -12.606640
  N     -0.246410   -0.754440  -11.633500
  C      0.772150   -0.013240  -13.896210
  C      2.061410   -0.562860  -14.432380
  C      2.596000   -1.504290  -13.552950
  S      4.074620   -2.159610  -14.123310
  C      3.982100   -1.160260  -15.560180
  C      2.848820   -0.372640  -15.565330
  C      5.036010   -1.255320  -16.529700
  C      5.109040   -0.557990  -17.662750
  H      8.100130  -21.588360    0.806700
  H      5.759470  -18.436810   -2.315450
  H      7.125630  -17.434940   -1.829580
  H      4.497400  -15.461370   -1.736780
  H      2.866940  -13.911600   -0.400880
  H      2.525230  -14.786930    2.517120
  H     -0.980320  -10.520070   -0.299010
  H      0.331020   -9.451810    0.198480
  H     -2.457890   -7.967270    1.101680
  H     -3.897460   -8.014780    4.761500
  H     -4.109790   -6.546260    2.071340
  H     -5.555440   -6.321920    4.774580
  H     -7.417320   -4.585520    4.846590
  H     -8.566330   -2.812330    3.379980
  H     -9.327350   -1.476690    1.692680
  H     -9.654810   -0.088990   -0.452660
  H     -8.585910    0.271380   -2.808450
  H     -4.024070   -3.506980   -4.696560
  H     -3.044640   -2.255440   -3.933890
  H     -1.653440   -2.757760   -6.853700
  H     -2.165150   -0.425510   -9.984300
  H     -0.276020   -2.525760   -8.797190
  H      0.816710    1.065140  -13.732790
  H     -0.072290   -0.214840  -14.557870
  H      2.612300    0.309010  -16.361550
  H      5.818020   -1.962600  -16.284820
  H      4.354700    0.154200  -17.948590
  H      5.931930   -0.684720  -18.343280

 Total Charge           Charge          ....    0
 Multiplicity           Mult            ....    1
 Number of Electrons    NEL             ....  516
 Basis Dimension        Dim             .... 1076

ORBITAL ENERGIES
----------------

  NO   OCC          E(Eh)            E(eV)
   0   2.0000     -88.966218     -2420.8939
   1   2.0000     -88.960738     -2420.7447
   2   2.0000     -88.959907     -2420.7221
   3   2.0000     -88.958451     -2420.6825
   4   2.0000     -88.952870     -2420.5307
   5   2.0000     -88.952459     -2420.5195
   6   2.0000     -88.952345     -2420.5164
   7   2.0000     -88.949652     -2420.4431
   8   2.0000     -88.940132     -2420.1840
   9   2.0000     -88.933219     -2419.9959
  10   2.0000     -14.409832      -392.1115
  11   2.0000     -14.404516      -391.9668
  12   2.0000     -14.398575      -391.8052
  13   2.0000     -14.394517      -391.6947
  14   2.0000     -10.330365      -281.1035
  15   2.0000     -10.325529      -280.9719
  16   2.0000     -10.323131      -280.9067
  17   2.0000     -10.321090      -280.8511
  18   2.0000     -10.307179      -280.4726
  19   2.0000     -10.304808      -280.4081
  20   2.0000     -10.302709      -280.3510
  21   2.0000     -10.302650      -280.3494
  22   2.0000     -10.301991      -280.3314
  23   2.0000     -10.300248      -280.2840
  24   2.0000     -10.300162      -280.2817
  25   2.0000     -10.299991      -280.2770
  26   2.0000     -10.299672      -280.2683
  27   2.0000     -10.299216      -280.2559
  28   2.0000     -10.299032      -280.2509
  29   2.0000     -10.297244      -280.2023
  30   2.0000     -10.296230      -280.1747
  31   2.0000     -10.294047      -280.1153
  32   2.0000     -10.291811      -280.0544
  33   2.0000     -10.291624      -280.0493
  34   2.0000     -10.291412      -280.0435
  35   2.0000     -10.291181      -280.0373
  36   2.0000     -10.289752      -279.9984
  37   2.0000     -10.287606      -279.9400
  38   2.0000     -10.285535      -279.8836
  39   2.0000     -10.284789      -279.8633
  40   2.0000     -10.284105      -279.8447
  41   2.0000     -10.282790      -279.8089
  42   2.0000     -10.280671      -279.7513
  43   2.0000     -10.279990      -279.7328
  44   2.0000     -10.279518      -279.7199
  45   2.0000     -10.278479      -279.6916
  46   2.0000     -10.278151      -279.6827
  47   2.0000     -10.277982      -279.6781
  48   2.0000     -10.277643      -279.6689
  49   2.0000     -10.277477      -279.6644
  50   2.0000     -10.277401      -279.6623
  51   2.0000     -10.275894      -279.6213
  52   2.0000     -10.275712      -279.6163
  53   2.0000     -10.275081      -279.5992
  54   2.0000     -10.273572      -279.5581
  55   2.0000     -10.272943      -279.5410
  56   2.0000     -10.271825      -279.5106
  57   2.0000     -10.270979      -279.4876
  58   2.0000     -10.270417      -279.4723
  59   2.0000     -10.269199      -279.4391
  60   2.0000     -10.268417      -279.4178
  61   2.0000     -10.266273      -279.3595
  62   2.0000     -10.264591      -279.3137
  63   2.0000     -10.255477      -279.0657
  64   2.0000      -8.061877      -219.3748
  65   2.0000      -8.056030      -219.2157
  66   2.0000      -8.054898      -219.1849
  67   2.0000      -8.053679      -219.1518
  68   2.0000      -8.048104      -219.0000
  69   2.0000      -8.047644      -218.9875
  70   2.0000      -8.047431      -218.9817
  71   2.0000      -8.044799      -218.9101
  72   2.0000      -8.036301      -218.6789
  73   2.0000      -8.028262      -218.4601
  74   2.0000      -6.031044      -164.1131
  75   2.0000      -6.026921      -164.0008
  76   2.0000      -6.025193      -163.9538
  77   2.0000      -6.024235      -163.9278
  78   2.0000      -6.024198      -163.9268
  79   2.0000      -6.023011      -163.8945
  80   2.0000      -6.021354      -163.8494
  81   2.0000      -6.020229      -163.8188
  82   2.0000      -6.018993      -163.7851
  83   2.0000      -6.018139      -163.7619
  84   2.0000      -6.017351      -163.7405
  85   2.0000      -6.016930      -163.7290
  86   2.0000      -6.016819      -163.7260
  87   2.0000      -6.016747      -163.7240
  88   2.0000      -6.015684      -163.6951
  89   2.0000      -6.014084      -163.6515
  90   2.0000      -6.013586      -163.6380
  91   2.0000      -6.013003      -163.6221
  92   2.0000      -6.012708      -163.6141
  93   2.0000      -6.010087      -163.5428
  94   2.0000      -6.009986      -163.5400
  95   2.0000      -6.009759      -163.5338
  96   2.0000      -6.009538      -163.5278
  97   2.0000      -6.006936      -163.4570
  98   2.0000      -6.005977      -163.4309
  99   2.0000      -6.002024      -163.3234
 100   2.0000      -5.998096      -163.2165
 101   2.0000      -5.997296      -163.1947
 102   2.0000      -5.993749      -163.0982
 103   2.0000      -5.989324      -162.9778
 104   2.0000      -1.064127       -28.9564
 105   2.0000      -1.060830       -28.8666
 106   2.0000      -1.055110       -28.7110
 107   2.0000      -1.051665       -28.6173
 108   2.0000      -0.994084       -27.0504
 109   2.0000      -0.991919       -26.9915
 110   2.0000      -0.987747       -26.8780
 111   2.0000      -0.985073       -26.8052
 112   2.0000      -0.982556       -26.7367
 113   2.0000      -0.964633       -26.2490
 114   2.0000      -0.931083       -25.3361
 115   2.0000      -0.924075       -25.1454
 116   2.0000      -0.922142       -25.0928
 117   2.0000      -0.914244       -24.8778
 118   2.0000      -0.899690       -24.4818
 119   2.0000      -0.893535       -24.3143
 120   2.0000      -0.891913       -24.2702
 121   2.0000      -0.886596       -24.1255
 122   2.0000      -0.883671       -24.0459
 123   2.0000      -0.877680       -23.8829
 124   2.0000      -0.874258       -23.7898
 125   2.0000      -0.867884       -23.6163
 126   2.0000      -0.854062       -23.2402
 127   2.0000      -0.848153       -23.0794
 128   2.0000      -0.839283       -22.8381
 129   2.0000      -0.837341       -22.7852
 130   2.0000      -0.831038       -22.6137
 131   2.0000      -0.827772       -22.5248
 132   2.0000      -0.820261       -22.3204
 133   2.0000      -0.812896       -22.1200
 134   2.0000      -0.805645       -21.9227
 135   2.0000      -0.796325       -21.6691
 136   2.0000      -0.788430       -21.4543
 137   2.0000      -0.776084       -21.1183
 138   2.0000      -0.774712       -21.0810
 139   2.0000      -0.768816       -20.9205
 140   2.0000      -0.764957       -20.8155
 141   2.0000      -0.758966       -20.6525
 142   2.0000      -0.747486       -20.3401
 143   2.0000      -0.733125       -19.9493
 144   2.0000      -0.720771       -19.6132
 145   2.0000      -0.707477       -19.2514
 146   2.0000      -0.692782       -18.8516
 147   2.0000      -0.682465       -18.5708
 148   2.0000      -0.671938       -18.2844
 149   2.0000      -0.664996       -18.0955
 150   2.0000      -0.656060       -17.8523
 151   2.0000      -0.651640       -17.7320
 152   2.0000      -0.647247       -17.6125
 153   2.0000      -0.645819       -17.5736
 154   2.0000      -0.643165       -17.5014
 155   2.0000      -0.634596       -17.2682
 156   2.0000      -0.631210       -17.1761
 157   2.0000      -0.623935       -16.9781
 158   2.0000      -0.621278       -16.9058
 159   2.0000      -0.617756       -16.8100
 160   2.0000      -0.614394       -16.7185
 161   2.0000      -0.613151       -16.6847
 162   2.0000      -0.610730       -16.6188
 163   2.0000      -0.607705       -16.5365
 164   2.0000      -0.604759       -16.4563
 165   2.0000      -0.601292       -16.3620
 166   2.0000      -0.584343       -15.9008
 167   2.0000      -0.583315       -15.8728
 168   2.0000      -0.574045       -15.6206
 169   2.0000      -0.566822       -15.4240
 170   2.0000      -0.564523       -15.3615
 171   2.0000      -0.560336       -15.2475
 172   2.0000      -0.551849       -15.0166
 173   2.0000      -0.549307       -14.9474
 174   2.0000      -0.547743       -14.9049
 175   2.0000      -0.547015       -14.8850
 176   2.0000      -0.544428       -14.8146
 177   2.0000      -0.542408       -14.7597
 178   2.0000      -0.541478       -14.7344
 179   2.0000      -0.538128       -14.6432
 180   2.0000      -0.537137       -14.6162
 181   2.0000      -0.533985       -14.5305
 182   2.0000      -0.526575       -14.3288
 183   2.0000      -0.523784       -14.2529
 184   2.0000      -0.520480       -14.1630
 185   2.0000      -0.515013       -14.0142
 186   2.0000      -0.509386       -13.8611
 187   2.0000      -0.505786       -13.7631
 188   2.0000      -0.497988       -13.5509
 189   2.0000      -0.493504       -13.4289
 190   2.0000      -0.491662       -13.3788
 191   2.0000      -0.487619       -13.2688
 192   2.0000      -0.485265       -13.2047
 193   2.0000      -0.482787       -13.1373
 194   2.0000      -0.481444       -13.1008
 195   2.0000      -0.480527       -13.0758
 196   2.0000      -0.480003       -13.0615
 197   2.0000      -0.478014       -13.0074
 198   2.0000      -0.477039       -12.9809
 199   2.0000      -0.469567       -12.7776
 200   2.0000      -0.468545       -12.7498
 201   2.0000      -0.468378       -12.7452
 202   2.0000      -0.467479       -12.7208
 203   2.0000      -0.466690       -12.6993
 204   2.0000      -0.466069       -12.6824
 205   2.0000      -0.459904       -12.5146
 206   2.0000      -0.459052       -12.4914
 207   2.0000      -0.457924       -12.4607
 208   2.0000      -0.456010       -12.4087
 209   2.0000      -0.453615       -12.3435
 210   2.0000      -0.452942       -12.3252
 211   2.0000      -0.450490       -12.2585
 212   2.0000      -0.448569       -12.2062
 213   2.0000      -0.446376       -12.1465
 214   2.0000      -0.438238       -11.9251
 215   2.0000      -0.437954       -11.9173
 216   2.0000      -0.432260       -11.7624
 217   2.0000      -0.428345       -11.6558
 218   2.0000      -0.426858       -11.6154
 219   2.0000      -0.423543       -11.5252
 220   2.0000      -0.421059       -11.4576
 221   2.0000      -0.415969       -11.3191
 222   2.0000      -0.415693       -11.3116
 223   2.0000      -0.415317       -11.3013
 224   2.0000      -0.414482       -11.2786
 225   2.0000      -0.412658       -11.2290
 226   2.0000      -0.411733       -11.2038
 227   2.0000      -0.408937       -11.1277
 228   2.0000      -0.406745       -11.0681
 229   2.0000      -0.403695       -10.9851
 230   2.0000      -0.399267       -10.8646
 231   2.0000      -0.395806       -10.7704
 232   2.0000      -0.387306       -10.5391
 233   2.0000      -0.378559       -10.3011
 234   2.0000      -0.363031        -9.8786
 235   2.0000      -0.353768        -9.6265
 236   2.0000      -0.349664        -9.5149
 237   2.0000      -0.346479        -9.4282
 238   2.0000      -0.345043        -9.3891
 239   2.0000      -0.341321        -9.2878
 240   2.0000      -0.340507        -9.2657
 241   2.0000      -0.336151        -9.1471
 242   2.0000      -0.334482        -9.1017
 243   2.0000      -0.331380        -9.0173
 244   2.0000      -0.328988        -8.9522
 245   2.0000      -0.324013        -8.8168
 246   2.0000      -0.320454        -8.7200
 247   2.0000      -0.320069        -8.7095
 248   2.0000      -0.314577        -8.5601
 249   2.0000      -0.313172        -8.5219
 250   2.0000      -0.310939        -8.4611
 251   2.0000      -0.305471        -8.3123
 252   2.0000      -0.289806        -7.8860
 253   2.0000      -0.268812        -7.3148
 254   2.0000      -0.251028        -6.8308
 255   2.0000      -0.230674        -6.2770
 256   2.0000      -0.214913        -5.8481
 257   2.0000      -0.188997        -5.1429
 258   0.0000      -0.084913        -2.3106
 259   0.0000      -0.055315        -1.5052
 260   0.0000      -0.042814        -1.1650
 261   0.0000      -0.020583        -0.5601
 262   0.0000      -0.002392        -0.0651

MULLIKEN ATOMIC CHARGES
-----------------------
   0 C :   -0.009053
   1 S :    0.120939
   2 C :   -0.076789
   3 C :   -0.232109
   4 N :   -0.038139
   5 C :    0.379766
   6 C :   -0.157213
   7 C :   -0.092506
   8 S :    0.130088
   9 C :   -0.047727
  10 C :   -0.016274
  11 C :    0.021065
  12 C :    0.034357
  13 C :   -0.103787
  14 S :    0.119466
  15 C :   -0.064631
  16 C :   -0.225259
  17 N :   -0.019069
  18 C :    0.387889
  19 C :   -0.163816
  20 C :   -0.096750
  21 S :    0.143088
  22 C :   -0.075737
  23 C :   -0.010122
  24 C :    0.035098
  25 C :    0.002121
  26 C :   -0.011722
  27 C :   -0.024525
  28 C :    0.037864
  29 C :    0.019473
  30 C :   -0.048591
  31 S :    0.084849
  32 C :   -0.054281
  33 C :    0.026770
  34 C :    0.026159
  35 C :   -0.014742
  36 S :    0.129431
  37 C :    0.004495
  38 C :   -0.078746
  39 S :    0.111428
  40 C :   -0.068278
  41 C :   -0.219820
  42 N :   -0.050134
  43 C :    0.380246
  44 C :   -0.161234
  45 C :   -0.096959
  46 S :    0.148169
  47 C :   -0.080003
  48 C :   -0.013954
  49 C :    0.055840
  50 C :    0.027368
  51 C :   -0.099039
  52 S :    0.110006
  53 C :   -0.064165
  54 C :   -0.225590
  55 N :   -0.020732
  56 C :    0.380247
  57 C :   -0.174513
  58 C :   -0.104220
  59 S :    0.137799
  60 C :   -0.098144
  61 C :   -0.005262
  62 C :    0.041248
  63 C :   -0.029933
  64 H :    0.036666
  65 H :    0.036056
  66 H :    0.036235
  67 H :   -0.021279
  68 H :    0.005368
  69 H :   -0.010609
  70 H :    0.034689
  71 H :    0.034843
  72 H :   -0.023331
  73 H :   -0.018734
  74 H :   -0.002714
  75 H :   -0.017377
  76 H :   -0.015094
  77 H :   -0.016327
  78 H :   -0.018157
  79 H :   -0.016614
  80 H :   -0.021504
  81 H :    0.035139
  82 H :    0.034962
  83 H :   -0.026092
  84 H :    0.000151
  85 H :   -0.022968
  86 H :    0.032662
  87 H :    0.032413
  88 H :   -0.031388
  89 H :   -0.013455
  90 H :    0.012642
  91 H :    0.022112
Sum of atomic charges:   -0.0000000

LOEWDIN ATOMIC CHARGES
----------------------
   0 C :   -0.128441
   1 S :    0.411058
   2 C :   -0.217674
   3 C :   -0.044930
   4 N :   -0.083783
   5 C :   -0.011461
   6 C :   -0.054245
   7 C :   -0.192585
   8 S :    0.431139
   9 C :   -0.168755
  10 C :   -0.044461
  11 C :   -0.005399
  12 C :   -0.080783
  13 C :   -0.117453
  14 S :    0.401018
  15 C :   -0.222731
  16 C :   -0.033630
  17 N :   -0.095440
  18 C :   -0.012413
  19 C :   -0.049215
  20 C :   -0.196389
  21 S :    0.432154
  22 C :   -0.169880
  23 C :   -0.047142
  24 C :   -0.035848
  25 C :   -0.037160
  26 C :   -0.045363
  27 C :   -0.157187
  28 C :   -0.029731
  29 C :   -0.040499
  30 C :   -0.165732
  31 S :    0.372868
  32 C :   -0.195562
  33 C :   -0.029561
  34 C :   -0.045552
  35 C :   -0.126822
  36 S :    0.414439
  37 C :   -0.111535
  38 C :   -0.119643
  39 S :    0.391946
  40 C :   -0.224642
  41 C :   -0.029729
  42 N :   -0.112174
  43 C :   -0.012972
  44 C :   -0.052761
  45 C :   -0.195493
  46 S :    0.436874
  47 C :   -0.174832
  48 C :   -0.047628
  49 C :   -0.012954
  50 C :   -0.073885
  51 C :   -0.118729
  52 S :    0.393798
  53 C :   -0.222608
  54 C :   -0.038215
  55 N :   -0.097421
  56 C :   -0.013478
  57 C :   -0.053706
  58 C :   -0.201861
  59 S :    0.430344
  60 C :   -0.176380
  61 C :   -0.051935
  62 C :   -0.041989
  63 C :   -0.052850
  64 H :    0.016623
  65 H :    0.055426
  66 H :    0.055856
  67 H :    0.032509
  68 H :    0.041425
  69 H :    0.021103
  70 H :    0.055125
  71 H :    0.055555
  72 H :    0.031048
  73 H :    0.027308
  74 H :    0.022835
  75 H :    0.032727
  76 H :    0.032582
  77 H :    0.030577
  78 H :    0.028662
  79 H :    0.031190
  80 H :    0.031362
  81 H :    0.055291
  82 H :    0.054921
  83 H :    0.029044
  84 H :    0.033702
  85 H :    0.024237
  86 H :    0.054029
  87 H :    0.054012
  88 H :    0.028655
  89 H :    0.027195
  90 H :    0.019739
  91 H :    0.024868

  Mayer bond orders larger than 0.100000
B(  0-C ,  1-S ) :   1.1319 B(  0-C ,  4-N ) :   1.6938 B(  0-C , 64-H ) :   0.9665
B(  1-S ,  2-C ) :   1.0893 B(  2-C ,  3-C ) :   1.5266 B(  2-C ,  7-C ) :   1.1878
B(  3-C ,  4-N ) :   1.4093 B(  3-C ,  5-C ) :   1.0484 B(  5-C ,  6-C ) :   0.9820
B(  5-C , 65-H ) :   0.8657 B(  5-C , 66-H ) :   0.8644 B(  6-C ,  7-C ) :   1.5383
B(  6-C , 10-C ) :   1.2865 B(  7-C ,  8-S ) :   1.0896 B(  8-S ,  9-C ) :   1.0889
B(  9-C , 10-C ) :   1.4441 B(  9-C , 11-C ) :   1.1602 B( 10-C , 67-H ) :   1.0086
B( 11-C , 12-C ) :   1.6553 B( 11-C , 68-H ) :   0.9818 B( 12-C , 13-C ) :   1.1401
B( 12-C , 69-H ) :   0.9399 B( 13-C , 14-S ) :   1.0664 B( 13-C , 17-N ) :   1.6447
B( 14-S , 15-C ) :   1.0804 B( 15-C , 16-C ) :   1.4713 B( 15-C , 20-C ) :   1.2055
B( 16-C , 17-N ) :   1.4489 B( 16-C , 18-C ) :   1.0443 B( 18-C , 19-C ) :   0.9806
B( 18-C , 70-H ) :   0.8631 B( 18-C , 71-H ) :   0.8601 B( 19-C , 20-C ) :   1.4947
B( 19-C , 23-C ) :   1.3425 B( 20-C , 21-S ) :   1.0910 B( 21-S , 22-C ) :   1.0887
B( 22-C , 23-C ) :   1.4273 B( 22-C , 24-C ) :   1.1546 B( 23-C , 72-H ) :   0.9957
B( 24-C , 25-C ) :   1.6097 B( 24-C , 73-H ) :   0.9639 B( 25-C , 26-C ) :   1.2007
B( 25-C , 74-H ) :   0.9702 B( 26-C , 27-C ) :   1.5230 B( 26-C , 75-H ) :   0.9808
B( 27-C , 28-C ) :   1.1619 B( 27-C , 31-S ) :   1.0257 B( 28-C , 29-C ) :   1.5659
B( 28-C , 76-H ) :   0.9992 B( 29-C , 30-C ) :   1.2033 B( 29-C , 77-H ) :   0.9945
B( 30-C , 31-S ) :   1.0580 B( 30-C , 32-C ) :   1.4849 B( 32-C , 33-C ) :   1.2047
B( 32-C , 36-S ) :   1.0084 B( 33-C , 34-C ) :   1.5653 B( 33-C , 78-H ) :   0.9942
B( 34-C , 35-C ) :   1.1618 B( 34-C , 79-H ) :   1.0002 B( 35-C , 36-S ) :   1.0809
B( 35-C , 37-C ) :   1.5433 B( 37-C , 38-C ) :   1.2012 B( 37-C , 80-H ) :   0.9529
B( 38-C , 39-S ) :   1.0467 B( 38-C , 42-N ) :   1.5640 B( 39-S , 40-C ) :   1.0709
B( 40-C , 41-C ) :   1.4670 B( 40-C , 45-C ) :   1.2119 B( 41-C , 42-N ) :   1.4639
B( 41-C , 43-C ) :   1.0474 B( 43-C , 44-C ) :   0.9815 B( 43-C , 81-H ) :   0.8608
B( 43-C , 82-H ) :   0.8634 B( 44-C , 45-C ) :   1.4969 B( 44-C , 48-C ) :   1.3355
B( 45-C , 46-S ) :   1.0928 B( 46-S , 47-C ) :   1.0926 B( 47-C , 48-C ) :   1.4416
B( 47-C , 49-C ) :   1.1333 B( 48-C , 83-H ) :   0.9958 B( 49-C , 50-C ) :   1.6904
B( 49-C , 84-H ) :   0.9597 B( 50-C , 51-C ) :   1.1324 B( 50-C , 85-H ) :   0.9478
B( 51-C , 52-S ) :   1.0626 B( 51-C , 55-N ) :   1.6503 B( 52-S , 53-C ) :   1.0775
B( 53-C , 54-C ) :   1.4917 B( 53-C , 58-C ) :   1.1848 B( 54-C , 55-N ) :   1.4394
B( 54-C , 56-C ) :   1.0471 B( 56-C , 57-C ) :   0.9832 B( 56-C , 86-H ) :   0.8630
B( 56-C , 87-H ) :   0.8622 B( 57-C , 58-C ) :   1.5360 B( 57-C , 61-C ) :   1.3063
B( 58-C , 59-S ) :   1.0870 B( 59-S , 60-C ) :   1.1045 B( 60-C , 61-C ) :   1.4985
B( 60-C , 62-C ) :   1.0981 B( 61-C , 88-H ) :   0.9962 B( 62-C , 63-C ) :   1.9448
B( 62-C , 89-H ) :   0.9535 B( 63-C , 90-H ) :   0.9537 B( 63-C , 91-H ) :   0.9499

-----------------------------------------------------------------------------
         ABSORPTION SPECTRUM VIA TRANSITION ELECTRIC DIPOLE MOMENTS
-----------------------------------------------------------------------------
State   Energy  Wavelength   fosc         T2         TX        TY        TZ
        (cm-1)    (nm)                  (au**2)     (au)      (au)      (au)
-----------------------------------------------------------------------------
   0   10411.9    960.4   1.545766962  48.87534   1.39863  -4.94492   4.73993
   1   17309.3    577.7   0.402449422   7.65432   2.08478  -1.49584  -1.03464
   2   18112.9    552.1   3.292926141  59.85080  -5.68108   3.16489   4.19042
   3   20936.4    477.6   0.163008082   2.56320   1.11700   0.32136  -1.10102
   4   21358.3    468.2   0.079563234   1.22637   0.10286   1.07621   0.23992
   5   24312.5    411.3   0.035993707   0.48739   0.28814   0.46995  -0.42838
   6   25118.8    398.1   0.086290031   1.13094   0.10556   0.69142  -0.80108
   7   25670.4    389.6   0.119351034   1.53063  -0.82696   0.45597   0.79928
   8   27123.3    368.7   0.254823799   3.09295   1.32905  -0.79808  -0.83044
   9   28329.8    353.0   0.012409582   0.14421  -0.14235  -0.10553   0.33587
  10   29083.2    343.8   0.068428794   0.77459  -0.39782   0.73563  -0.27418
  11   30230.4    330.8   0.110739518   1.20596   0.16602  -0.67815   0.84765
  12   30708.5    325.6   0.037307042   0.39995   0.04527   0.44024  -0.45176
  13   31034.0    322.2   0.008887592   0.09428   0.20273  -0.16547  -0.16063
  14   31509.0    317.4   0.000626563   0.00655  -0.03851  -0.06822  -0.02022
  15   32475.1    307.9   0.028710324   0.29105   0.35504  -0.12911  -0.38513
  16   33244.3    300.8   0.027062484   0.26799   0.40589  -0.31921  -0.03673
  17   33728.2    296.5   0.003733466   0.03644   0.17273   0.04832  -0.06535
  18   33899.6    295.0   0.073144780   0.71034  -0.60471   0.29371   0.50833
  19   34636.0    288.7   0.029279786   0.27830   0.10867  -0.36460   0.36546
  20   34891.2    286.6   0.025637234   0.24190  -0.08814   0.23561  -0.42263
  21   35228.9    283.9   0.023418371   0.21884   0.37442  -0.08903  -0.26595
  22   35446.2    282.1   0.012214549   0.11344  -0.07608   0.19299  -0.26535
  23   35471.4    281.9   0.000157151   0.00146   0.02733  -0.02666   0.00088
  24   36240.7    275.9   0.001608965   0.01462  -0.03194  -0.01674  -0.11539
  25   36729.7    272.3   0.001551360   0.01390  -0.05974  -0.09359   0.03971
  26   37325.2    267.9   0.027645642   0.24384   0.18904  -0.36572   0.27267
  27   37431.1    267.2   0.062346393   0.54835   0.00908   0.34398  -0.65570
  28   37659.8    265.5   0.080430702   0.70310   0.30332  -0.60432   0.49588
  29   37856.3    264.2   0.012949416   0.11261  -0.15796  -0.15489   0.25233
  30   38155.6    262.1   0.002317794   0.02000   0.08730  -0.01449  -0.11030
  31   38898.0    257.1   0.035888296   0.30374   0.37024  -0.40523  -0.04947
  32   39365.7    254.0   0.013017481   0.10886   0.02942   0.11827  -0.30661
  33   39630.8    252.3   0.009951771   0.08267   0.01455   0.16466  -0.23525
  34   39694.6    251.9   0.002490801   0.02066  -0.00873  -0.10883   0.09347

FINAL SINGLE POINT ENERGY     -6119.026874404314

DIPOLE MOMENT
-------------
                                X             Y             Z
Electronic contribution:     -2.51130     -17.36215      25.63222
Nuclear contribution   :      2.28413      16.63402     -24.31298
                        -----------------------------------------
Total Dipole Moment    :     -0.22717      -0.72814       1.31924
                        -----------------------------------------
Magnitude (a.u.)       :      1.52387
Magnitude (Debye)      :      3.87336

Rotational constants in cm-1:     0.000460     0.000237     0.000157
Rotational constants in MHz :    13.785897     7.108674     4.714433

                             ****ORCA TERMINATED NORMALLY****
TOTAL RUN TIME: 0 days 0 hours 9 minutes 46 seconds 13 msec
