                         Program Version 4.2.0 -  RELEASE  -
|  1> # ORCA input file
|  2> # SCF done       -151.558141255649          0.000497066032
|  3> ! CAM-B3LYP def2-SVP def2/J RIJCOSX Grid4 TightSCF
|  4> %maxcore 5000
|  5> %tddft
|  6>     Mode sTDDFT
|  7>     Ethresh 5.0
|  8>     maxcore 5000
|  9> end
| 10>
| 11> %pal
| 12>   nprocs 6
| 13>   end
| 14> * xyz 0 1
| 15>    C       -6.02199        11.31359        -5.91991
| 16>    S       -5.25727         9.73690        -5.85381
| 17>    C       -6.26785         9.28032        -7.16526
| 18>    C       -7.08681        10.34683        -7.53562
| 19>    N       -6.92695        11.46935        -6.82240
| 20>    C       -7.97646         9.96795        -8.67646
| 21>    C       -7.55701         8.54466        -8.90636
| 22>    C       -6.55296         8.17726        -8.00231
| 23>    S       -6.03489         6.55954        -8.22088
| 24>    C       -7.17879         6.35562        -9.54436
| 25>    C       -7.90730         7.52091        -9.77163
| 26>    C       -7.23008         5.10723       -10.19104
| 27>    C       -8.07758         4.78819       -11.22100
| 28>    C       -8.16574         3.56186       -11.88993
| 29>    C       -7.44089         2.39741       -11.71547
| 30>    C       -7.63991         1.21327       -12.45990
| 31>    C       -6.80919         0.18059       -12.12343
| 32>    C       -5.90553         0.49568       -11.09503
| 33>    S       -6.14370         2.14196       -10.56466
| 34>    C       -4.93258        -0.31255       -10.51783
| 35>    C       -4.62371        -1.65094       -10.81174
| 36>    C       -3.60634        -2.15935       -10.04995
| 37>    C       -3.06696        -1.24544        -9.12484
| 38>    S       -3.89182         0.29097        -9.24849
| 39>    C       -2.04052        -1.49493        -8.23134
| 40>    C       -1.49317        -0.60339        -7.32238
| 41>    S       -1.96310         1.07494        -7.11093
| 42>    C       -0.79573         1.40174        -5.81863
| 43>    C       -0.06514         0.20834        -5.56721
| 44>    C       -0.47051        -0.85998        -6.40250
| 45>    O        0.21218        -1.98532        -6.14315
| 46>    C        1.06637        -1.65809        -5.13850
| 47>    N        1.89631        -2.65565        -4.59852
| 48>    O        2.61332        -2.31940        -3.66693
| 49>    O        1.83880        -3.77364        -5.06680
| 50>    C        0.94671        -0.34463        -4.74980
| 51>    C       -0.80179         2.69116        -5.32081
| 52>    C       -0.01490         3.27080        -4.33252
| 53>    C       -0.02627         4.61859        -3.92686
| 54>    C        0.90137         4.93164        -2.96190
| 55>    C        1.68183         3.83722        -2.56527
| 56>    S        1.18471         2.40315        -3.42513
| 57>    C        2.77160         3.70028        -1.71101
| 58>    C        3.54208         4.62588        -0.98789
| 59>    C        4.65179         4.07798        -0.40227
| 60>    C        4.82366         2.69475        -0.65683
| 61>    S        3.45309         2.09796        -1.55906
| 62>    C        5.85852         1.87738        -0.27148
| 63>    C        6.09368         0.55892        -0.72107
| 64>    S        7.03199        -0.51787         0.30473
| 65>    C        6.93311        -1.81163        -0.82265
| 66>    C        6.23931        -1.44452        -1.93490
| 67>    C        5.75687        -0.10965        -1.89155
| 68>    S        5.02335         0.44922        -3.36617
| 69>    C        5.19519        -1.04295        -4.26777
| 70>    S        4.69580        -1.15166        -5.81406
| 71>    S        5.92809        -2.35984        -3.38849
| 72>    H       -5.72869        12.08050        -5.23266
| 73>    H       -7.80380        10.59675        -9.55173
| 74>    H       -9.03222        10.05043        -8.41173
| 75>    H       -8.65536         7.60156       -10.53853
| 76>    H       -6.54072         4.36477        -9.81849
| 77>    H       -8.76282         5.55192       -11.56340
| 78>    H       -8.91583         3.50302       -12.66957
| 79>    H       -8.39353         1.15493       -13.22564
| 80>    H       -6.82870        -0.78708       -12.59137
| 81>    H       -5.14953        -2.20801       -11.56587
| 82>    H       -3.23115        -3.16409       -10.13024
| 83>    H       -1.61162        -2.48852        -8.23212
| 84>    H        1.53627         0.09637        -3.97676
| 85>    H       -1.52034         3.35586        -5.78585
| 86>    H       -0.70248         5.33168        -4.36495
| 87>    H        1.03760         5.91520        -2.54904
| 88>    H        3.28246         5.66847        -0.93647
| 89>    H        5.37454         4.63555         0.16683
| 90>    H        6.55131         2.25815         0.46685
| 91>    H        7.38850        -2.75545        -0.60630
| 92> *
| 93>
| 94>                          ****END OF INPUT****

CARTESIAN COORDINATES (ANGSTROEM)
---------------------------------
  C     -6.021990   11.313590   -5.919910
  S     -5.257270    9.736900   -5.853810
  C     -6.267850    9.280320   -7.165260
  C     -7.086810   10.346830   -7.535620
  N     -6.926950   11.469350   -6.822400
  C     -7.976460    9.967950   -8.676460
  C     -7.557010    8.544660   -8.906360
  C     -6.552960    8.177260   -8.002310
  S     -6.034890    6.559540   -8.220880
  C     -7.178790    6.355620   -9.544360
  C     -7.907300    7.520910   -9.771630
  C     -7.230080    5.107230  -10.191040
  C     -8.077580    4.788190  -11.221000
  C     -8.165740    3.561860  -11.889930
  C     -7.440890    2.397410  -11.715470
  C     -7.639910    1.213270  -12.459900
  C     -6.809190    0.180590  -12.123430
  C     -5.905530    0.495680  -11.095030
  S     -6.143700    2.141960  -10.564660
  C     -4.932580   -0.312550  -10.517830
  C     -4.623710   -1.650940  -10.811740
  C     -3.606340   -2.159350  -10.049950
  C     -3.066960   -1.245440   -9.124840
  S     -3.891820    0.290970   -9.248490
  C     -2.040520   -1.494930   -8.231340
  C     -1.493170   -0.603390   -7.322380
  S     -1.963100    1.074940   -7.110930
  C     -0.795730    1.401740   -5.818630
  C     -0.065140    0.208340   -5.567210
  C     -0.470510   -0.859980   -6.402500
  O      0.212180   -1.985320   -6.143150
  C      1.066370   -1.658090   -5.138500
  N      1.896310   -2.655650   -4.598520
  O      2.613320   -2.319400   -3.666930
  O      1.838800   -3.773640   -5.066800
  C      0.946710   -0.344630   -4.749800
  C     -0.801790    2.691160   -5.320810
  C     -0.014900    3.270800   -4.332520
  C     -0.026270    4.618590   -3.926860
  C      0.901370    4.931640   -2.961900
  C      1.681830    3.837220   -2.565270
  S      1.184710    2.403150   -3.425130
  C      2.771600    3.700280   -1.711010
  C      3.542080    4.625880   -0.987890
  C      4.651790    4.077980   -0.402270
  C      4.823660    2.694750   -0.656830
  S      3.453090    2.097960   -1.559060
  C      5.858520    1.877380   -0.271480
  C      6.093680    0.558920   -0.721070
  S      7.031990   -0.517870    0.304730
  C      6.933110   -1.811630   -0.822650
  C      6.239310   -1.444520   -1.934900
  C      5.756870   -0.109650   -1.891550
  S      5.023350    0.449220   -3.366170
  C      5.195190   -1.042950   -4.267770
  S      4.695800   -1.151660   -5.814060
  S      5.928090   -2.359840   -3.388490
  H     -5.728690   12.080500   -5.232660
  H     -7.803800   10.596750   -9.551730
  H     -9.032220   10.050430   -8.411730
  H     -8.655360    7.601560  -10.538530
  H     -6.540720    4.364770   -9.818490
  H     -8.762820    5.551920  -11.563400
  H     -8.915830    3.503020  -12.669570
  H     -8.393530    1.154930  -13.225640
  H     -6.828700   -0.787080  -12.591370
  H     -5.149530   -2.208010  -11.565870
  H     -3.231150   -3.164090  -10.130240
  H     -1.611620   -2.488520   -8.232120
  H      1.536270    0.096370   -3.976760
  H     -1.520340    3.355860   -5.785850
  H     -0.702480    5.331680   -4.364950
  H      1.037600    5.915200   -2.549040
  H      3.282460    5.668470   -0.936470
  H      5.374540    4.635550    0.166830
  H      6.551310    2.258150    0.466850
  H      7.388500   -2.755450   -0.606300

 Total Charge           Charge          ....    0
 Multiplicity           Mult            ....    1
 Number of Electrons    NEL             ....  480
 Basis Dimension        Dim             ....  942

ORBITAL ENERGIES
----------------

  NO   OCC          E(Eh)            E(eV)
   0   2.0000     -88.967019     -2420.9157
   1   2.0000     -88.962635     -2420.7964
   2   2.0000     -88.961174     -2420.7566
   3   2.0000     -88.958340     -2420.6795
   4   2.0000     -88.956569     -2420.6313
   5   2.0000     -88.953618     -2420.5510
   6   2.0000     -88.949275     -2420.4328
   7   2.0000     -88.949095     -2420.4279
   8   2.0000     -88.947878     -2420.3948
   9   2.0000     -88.943780     -2420.2833
  10   2.0000     -88.875836     -2418.4344
  11   2.0000     -19.303335      -525.2704
  12   2.0000     -19.228327      -523.2294
  13   2.0000     -19.225468      -523.1516
  14   2.0000     -14.639300      -398.3556
  15   2.0000     -14.410612      -392.1327
  16   2.0000     -10.370796      -282.2037
  17   2.0000     -10.356890      -281.8253
  18   2.0000     -10.343509      -281.4612
  19   2.0000     -10.325801      -280.9793
  20   2.0000     -10.318961      -280.7932
  21   2.0000     -10.313890      -280.6552
  22   2.0000     -10.312096      -280.6064
  23   2.0000     -10.311811      -280.5987
  24   2.0000     -10.311556      -280.5917
  25   2.0000     -10.309810      -280.5442
  26   2.0000     -10.309719      -280.5417
  27   2.0000     -10.309641      -280.5396
  28   2.0000     -10.309007      -280.5223
  29   2.0000     -10.308423      -280.5064
  30   2.0000     -10.308104      -280.4978
  31   2.0000     -10.307441      -280.4797
  32   2.0000     -10.304867      -280.4097
  33   2.0000     -10.304287      -280.3939
  34   2.0000     -10.303750      -280.3793
  35   2.0000     -10.302284      -280.3394
  36   2.0000     -10.300441      -280.2893
  37   2.0000     -10.299948      -280.2758
  38   2.0000     -10.298171      -280.2275
  39   2.0000     -10.295571      -280.1567
  40   2.0000     -10.293657      -280.1047
  41   2.0000     -10.288707      -279.9700
  42   2.0000     -10.288072      -279.9527
  43   2.0000     -10.287916      -279.9484
  44   2.0000     -10.287455      -279.9359
  45   2.0000     -10.287336      -279.9327
  46   2.0000     -10.286541      -279.9110
  47   2.0000     -10.285452      -279.8814
  48   2.0000     -10.285147      -279.8731
  49   2.0000     -10.284506      -279.8556
  50   2.0000     -10.283568      -279.8301
  51   2.0000     -10.282970      -279.8138
  52   2.0000     -10.282248      -279.7942
  53   2.0000     -10.280998      -279.7602
  54   2.0000     -10.279961      -279.7320
  55   2.0000     -10.277219      -279.6574
  56   2.0000     -10.274652      -279.5875
  57   2.0000      -8.062688      -219.3969
  58   2.0000      -8.057221      -219.2481
  59   2.0000      -8.056257      -219.2219
  60   2.0000      -8.053919      -219.1583
  61   2.0000      -8.051678      -219.0973
  62   2.0000      -8.049873      -219.0482
  63   2.0000      -8.045433      -218.9274
  64   2.0000      -8.044832      -218.9110
  65   2.0000      -8.044315      -218.8969
  66   2.0000      -8.040502      -218.7932
  67   2.0000      -7.972894      -216.9535
  68   2.0000      -6.031855      -164.1351
  69   2.0000      -6.027764      -164.0238
  70   2.0000      -6.026752      -163.9962
  71   2.0000      -6.025558      -163.9638
  72   2.0000      -6.024983      -163.9481
  73   2.0000      -6.023418      -163.9055
  74   2.0000      -6.022676      -163.8854
  75   2.0000      -6.021666      -163.8579
  76   2.0000      -6.021537      -163.8544
  77   2.0000      -6.019732      -163.8052
  78   2.0000      -6.019142      -163.7892
  79   2.0000      -6.018837      -163.7809
  80   2.0000      -6.018359      -163.7679
  81   2.0000      -6.017019      -163.7314
  82   2.0000      -6.015778      -163.6976
  83   2.0000      -6.015503      -163.6902
  84   2.0000      -6.015121      -163.6798
  85   2.0000      -6.014479      -163.6623
  86   2.0000      -6.013957      -163.6481
  87   2.0000      -6.012525      -163.6091
  88   2.0000      -6.010965      -163.5667
  89   2.0000      -6.010500      -163.5540
  90   2.0000      -6.010423      -163.5519
  91   2.0000      -6.010139      -163.5442
  92   2.0000      -6.009734      -163.5332
  93   2.0000      -6.006541      -163.4463
  94   2.0000      -6.006048      -163.4329
  95   2.0000      -6.005971      -163.4308
  96   2.0000      -6.005491      -163.4177
  97   2.0000      -6.001500      -163.3091
  98   2.0000      -5.942551      -161.7050
  99   2.0000      -5.939451      -161.6207
 100   2.0000      -5.933062      -161.4468
 101   2.0000      -1.309056       -35.6212
 102   2.0000      -1.224170       -33.3114
 103   2.0000      -1.124807       -30.6076
 104   2.0000      -1.064628       -28.9700
 105   2.0000      -1.008986       -27.4559
 106   2.0000      -1.000188       -27.2165
 107   2.0000      -0.997504       -27.1435
 108   2.0000      -0.994007       -27.0483
 109   2.0000      -0.988272       -26.8923
 110   2.0000      -0.975576       -26.5468
 111   2.0000      -0.971692       -26.4411
 112   2.0000      -0.951300       -25.8862
 113   2.0000      -0.928209       -25.2579
 114   2.0000      -0.926773       -25.2188
 115   2.0000      -0.903863       -24.5954
 116   2.0000      -0.899613       -24.4797
 117   2.0000      -0.893477       -24.3127
 118   2.0000      -0.891435       -24.2572
 119   2.0000      -0.886685       -24.1279
 120   2.0000      -0.871287       -23.7089
 121   2.0000      -0.863663       -23.5015
 122   2.0000      -0.852868       -23.2077
 123   2.0000      -0.848248       -23.0820
 124   2.0000      -0.848086       -23.0776
 125   2.0000      -0.842787       -22.9334
 126   2.0000      -0.834465       -22.7070
 127   2.0000      -0.827207       -22.5094
 128   2.0000      -0.822606       -22.3843
 129   2.0000      -0.821026       -22.3413
 130   2.0000      -0.807763       -21.9804
 131   2.0000      -0.793821       -21.6010
 132   2.0000      -0.779368       -21.2077
 133   2.0000      -0.776227       -21.1222
 134   2.0000      -0.771572       -20.9955
 135   2.0000      -0.771215       -20.9858
 136   2.0000      -0.755881       -20.5686
 137   2.0000      -0.742434       -20.2027
 138   2.0000      -0.728239       -19.8164
 139   2.0000      -0.706200       -19.2167
 140   2.0000      -0.701113       -19.0783
 141   2.0000      -0.682541       -18.5729
 142   2.0000      -0.675751       -18.3881
 143   2.0000      -0.670242       -18.2382
 144   2.0000      -0.662429       -18.0256
 145   2.0000      -0.660698       -17.9785
 146   2.0000      -0.648124       -17.6363
 147   2.0000      -0.645920       -17.5764
 148   2.0000      -0.641339       -17.4517
 149   2.0000      -0.635288       -17.2871
 150   2.0000      -0.628118       -17.0920
 151   2.0000      -0.626176       -17.0391
 152   2.0000      -0.623727       -16.9725
 153   2.0000      -0.620670       -16.8893
 154   2.0000      -0.619054       -16.8453
 155   2.0000      -0.617473       -16.8023
 156   2.0000      -0.614814       -16.7299
 157   2.0000      -0.612729       -16.6732
 158   2.0000      -0.598292       -16.2804
 159   2.0000      -0.593657       -16.1542
 160   2.0000      -0.590602       -16.0711
 161   2.0000      -0.588219       -16.0062
 162   2.0000      -0.581671       -15.8281
 163   2.0000      -0.570427       -15.5221
 164   2.0000      -0.567284       -15.4366
 165   2.0000      -0.559307       -15.2195
 166   2.0000      -0.558916       -15.2089
 167   2.0000      -0.557097       -15.1594
 168   2.0000      -0.548449       -14.9241
 169   2.0000      -0.545151       -14.8343
 170   2.0000      -0.537952       -14.6384
 171   2.0000      -0.533565       -14.5190
 172   2.0000      -0.529621       -14.4117
 173   2.0000      -0.526214       -14.3190
 174   2.0000      -0.520079       -14.1521
 175   2.0000      -0.519321       -14.1314
 176   2.0000      -0.511891       -13.9293
 177   2.0000      -0.505938       -13.7673
 178   2.0000      -0.503857       -13.7106
 179   2.0000      -0.501120       -13.6362
 180   2.0000      -0.499480       -13.5916
 181   2.0000      -0.498268       -13.5586
 182   2.0000      -0.495033       -13.4705
 183   2.0000      -0.492509       -13.4018
 184   2.0000      -0.490393       -13.3443
 185   2.0000      -0.482983       -13.1426
 186   2.0000      -0.481187       -13.0938
 187   2.0000      -0.477600       -12.9962
 188   2.0000      -0.472935       -12.8692
 189   2.0000      -0.472059       -12.8454
 190   2.0000      -0.470790       -12.8108
 191   2.0000      -0.467202       -12.7132
 192   2.0000      -0.466453       -12.6928
 193   2.0000      -0.464090       -12.6285
 194   2.0000      -0.460176       -12.5220
 195   2.0000      -0.457312       -12.4441
 196   2.0000      -0.456258       -12.4154
 197   2.0000      -0.453323       -12.3355
 198   2.0000      -0.452319       -12.3082
 199   2.0000      -0.446582       -12.1521
 200   2.0000      -0.442793       -12.0490
 201   2.0000      -0.438612       -11.9352
 202   2.0000      -0.434080       -11.8119
 203   2.0000      -0.433479       -11.7956
 204   2.0000      -0.430583       -11.7168
 205   2.0000      -0.428651       -11.6642
 206   2.0000      -0.423919       -11.5354
 207   2.0000      -0.420162       -11.4332
 208   2.0000      -0.417105       -11.3500
 209   2.0000      -0.412131       -11.2147
 210   2.0000      -0.410270       -11.1640
 211   2.0000      -0.409367       -11.1394
 212   2.0000      -0.405162       -11.0250
 213   2.0000      -0.396041       -10.7768
 214   2.0000      -0.390236       -10.6189
 215   2.0000      -0.388898       -10.5825
 216   2.0000      -0.379558       -10.3283
 217   2.0000      -0.376324       -10.2403
 218   2.0000      -0.370035       -10.0692
 219   2.0000      -0.364714        -9.9244
 220   2.0000      -0.359049        -9.7702
 221   2.0000      -0.355962        -9.6862
 222   2.0000      -0.348079        -9.4717
 223   2.0000      -0.347030        -9.4432
 224   2.0000      -0.342284        -9.3140
 225   2.0000      -0.339151        -9.2288
 226   2.0000      -0.337213        -9.1760
 227   2.0000      -0.335515        -9.1298
 228   2.0000      -0.327412        -8.9093
 229   2.0000      -0.323910        -8.8140
 230   2.0000      -0.321203        -8.7404
 231   2.0000      -0.312448        -8.5021
 232   2.0000      -0.306898        -8.3511
 233   2.0000      -0.295520        -8.0415
 234   2.0000      -0.274607        -7.4724
 235   2.0000      -0.273289        -7.4366
 236   2.0000      -0.262766        -7.1502
 237   2.0000      -0.252235        -6.8637
 238   2.0000      -0.222131        -6.0445
 239   2.0000      -0.186079        -5.0635
 240   0.0000      -0.106123        -2.8878
 241   0.0000      -0.070433        -1.9166
 242   0.0000      -0.045867        -1.2481
 243   0.0000      -0.029790        -0.8106
 244   0.0000      -0.017332        -0.4716

MULLIKEN ATOMIC CHARGES
-----------------------
   0 C :   -0.010010
   1 S :    0.116527
   2 C :   -0.081543
   3 C :   -0.227140
   4 N :   -0.039058
   5 C :    0.373485
   6 C :   -0.162249
   7 C :   -0.098567
   8 S :    0.146192
   9 C :   -0.083505
  10 C :   -0.015313
  11 C :    0.048448
  12 C :   -0.003383
  13 C :    0.006544
  14 C :   -0.029457
  15 C :    0.034391
  16 C :    0.020053
  17 C :   -0.028706
  18 S :    0.058198
  19 C :   -0.031080
  20 C :    0.022394
  21 C :    0.032311
  22 C :   -0.029703
  23 S :    0.069033
  24 C :   -0.014385
  25 C :   -0.137847
  26 S :    0.108181
  27 C :   -0.132697
  28 C :    0.133083
  29 C :    0.164063
  30 O :   -0.172557
  31 C :    0.213796
  32 N :    0.291566
  33 O :   -0.259331
  34 O :   -0.237886
  35 C :   -0.083268
  36 C :    0.045635
  37 C :   -0.023318
  38 C :    0.026913
  39 C :    0.024449
  40 C :   -0.007038
  41 S :    0.028857
  42 C :   -0.052804
  43 C :    0.032438
  44 C :    0.037146
  45 C :   -0.044009
  46 S :    0.075945
  47 C :    0.017514
  48 C :   -0.191527
  49 S :    0.126467
  50 C :   -0.128602
  51 C :   -0.011685
  52 C :   -0.001202
  53 S :    0.203741
  54 C :   -0.147289
  55 S :   -0.152751
  56 S :    0.210472
  57 H :    0.036796
  58 H :    0.036606
  59 H :    0.036760
  60 H :   -0.023926
  61 H :   -0.009694
  62 H :   -0.020326
  63 H :   -0.015461
  64 H :   -0.011864
  65 H :   -0.015518
  66 H :   -0.013114
  67 H :   -0.009905
  68 H :    0.006126
  69 H :    0.019865
  70 H :   -0.017688
  71 H :   -0.012159
  72 H :   -0.014266
  73 H :   -0.012484
  74 H :   -0.010940
  75 H :   -0.006892
  76 H :    0.028153
Sum of atomic charges:   -0.0000000

LOEWDIN ATOMIC CHARGES
----------------------
   0 C :   -0.130307
   1 S :    0.407349
   2 C :   -0.216584
   3 C :   -0.046504
   4 N :   -0.083299
   5 C :   -0.012059
   6 C :   -0.046760
   7 C :   -0.200540
   8 S :    0.436172
   9 C :   -0.162867
  10 C :   -0.050730
  11 C :   -0.044010
  12 C :   -0.044027
  13 C :   -0.051817
  14 C :   -0.152798
  15 C :   -0.027832
  16 C :   -0.045594
  17 C :   -0.173923
  18 S :    0.393795
  19 C :   -0.181601
  20 C :   -0.037363
  21 C :   -0.034467
  22 C :   -0.154145
  23 S :    0.379916
  24 C :   -0.069167
  25 C :   -0.192689
  26 S :    0.433645
  27 C :   -0.161464
  28 C :   -0.079451
  29 C :    0.027081
  30 O :    0.015656
  31 C :    0.013775
  32 N :    0.276237
  33 O :   -0.220533
  34 O :   -0.198047
  35 C :   -0.014410
  36 C :   -0.072775
  37 C :   -0.160346
  38 C :   -0.031675
  39 C :   -0.042727
  40 C :   -0.174689
  41 S :    0.419461
  42 C :   -0.181979
  43 C :   -0.034850
  44 C :   -0.035429
  45 C :   -0.153325
  46 S :    0.393880
  47 C :   -0.086520
  48 C :   -0.194029
  49 S :    0.439951
  50 C :   -0.205481
  51 C :   -0.213848
  52 C :   -0.228323
  53 S :    0.415822
  54 C :   -0.438304
  55 S :   -0.044982
  56 S :    0.416613
  57 H :    0.016415
  58 H :    0.055507
  59 H :    0.055511
  60 H :    0.029803
  61 H :    0.009694
  62 H :    0.028191
  63 H :    0.035173
  64 H :    0.033280
  65 H :    0.031420
  66 H :    0.032243
  67 H :    0.034850
  68 H :    0.047207
  69 H :    0.023714
  70 H :    0.035540
  71 H :    0.033152
  72 H :    0.032564
  73 H :    0.033255
  74 H :    0.033096
  75 H :    0.034177
  76 H :    0.028125

  Mayer bond orders larger than 0.100000
B(  0-C ,  1-S ) :   1.1283 B(  0-C ,  4-N ) :   1.6933 B(  0-C , 57-H ) :   0.9664
B(  1-S ,  2-C ) :   1.0896 B(  2-C ,  3-C ) :   1.5240 B(  2-C ,  7-C ) :   1.1963
B(  3-C ,  4-N ) :   1.4115 B(  3-C ,  5-C ) :   1.0465 B(  5-C ,  6-C ) :   0.9835
B(  5-C , 58-H ) :   0.8662 B(  5-C , 59-H ) :   0.8663 B(  6-C ,  7-C ) :   1.5110
B(  6-C , 10-C ) :   1.3323 B(  7-C ,  8-S ) :   1.0897 B(  8-S ,  9-C ) :   1.1007
B(  9-C , 10-C ) :   1.4311 B(  9-C , 11-C ) :   1.1982 B( 10-C , 60-H ) :   0.9971
B( 11-C , 12-C ) :   1.5772 B( 11-C , 61-H ) :   0.9327 B( 12-C , 13-C ) :   1.2549
B( 12-C , 62-H ) :   0.9665 B( 13-C , 14-C ) :   1.5133 B( 13-C , 63-H ) :   0.9607
B( 14-C , 15-C ) :   1.1839 B( 14-C , 18-S ) :   1.0441 B( 15-C , 16-C ) :   1.5430
B( 15-C , 64-H ) :   0.9993 B( 16-C , 17-C ) :   1.2263 B( 16-C , 65-H ) :   0.9938
B( 17-C , 18-S ) :   1.0530 B( 17-C , 19-C ) :   1.4422 B( 19-C , 20-C ) :   1.2295
B( 19-C , 23-S ) :   1.0518 B( 20-C , 21-C ) :   1.5318 B( 20-C , 66-H ) :   0.9947
B( 21-C , 22-C ) :   1.1961 B( 21-C , 67-H ) :   1.0006 B( 22-C , 23-S ) :   1.0515
B( 22-C , 24-C ) :   1.4582 B( 24-C , 25-C ) :   1.2730 B( 24-C , 68-H ) :   0.9751
B( 25-C , 26-S ) :   1.0655 B( 25-C , 29-C ) :   1.3561 B( 26-S , 27-C ) :   1.1017
B( 27-C , 28-C ) :   1.2067 B( 27-C , 36-C ) :   1.3202 B( 28-C , 29-C ) :   1.2861
B( 28-C , 35-C ) :   1.1220 B( 29-C , 30-O ) :   1.1509 B( 30-O , 31-C ) :   1.1234
B( 31-C , 32-N ) :   0.9388 B( 31-C , 35-C ) :   1.5246 B( 32-N , 33-O ) :   1.5061
B( 32-N , 34-O ) :   1.4999 B( 33-O , 34-O ) :   0.2691 B( 35-C , 69-H ) :   1.0066
B( 36-C , 37-C ) :   1.4740 B( 36-C , 70-H ) :   0.9392 B( 37-C , 38-C ) :   1.2108
B( 37-C , 41-S ) :   1.0533 B( 38-C , 39-C ) :   1.5223 B( 38-C , 71-H ) :   0.9978
B( 39-C , 40-C ) :   1.2395 B( 39-C , 72-H ) :   0.9954 B( 40-C , 41-S ) :   1.0600
B( 40-C , 42-C ) :   1.4246 B( 42-C , 43-C ) :   1.2207 B( 42-C , 46-S ) :   1.0516
B( 43-C , 44-C ) :   1.5648 B( 43-C , 73-H ) :   0.9952 B( 44-C , 45-C ) :   1.1564
B( 44-C , 74-H ) :   0.9963 B( 45-C , 46-S ) :   1.0455 B( 45-C , 47-C ) :   1.5835
B( 47-C , 48-C ) :   1.1594 B( 47-C , 75-H ) :   0.9545 B( 48-C , 49-S ) :   1.1243
B( 48-C , 52-C ) :   1.5010 B( 49-S , 50-C ) :   1.1498 B( 50-C , 51-C ) :   1.5944
B( 50-C , 76-H ) :   0.9718 B( 51-C , 52-C ) :   1.2474 B( 51-C , 56-S ) :   0.9954
B( 52-C , 53-S ) :   1.0099 B( 53-S , 54-C ) :   1.0635 B( 53-S , 55-S ) :   0.1203
B( 54-C , 55-S ) :   1.6671 B( 54-C , 56-S ) :   1.0891 B( 55-S , 56-S ) :   0.1324

-----------------------------------------------------------------------------
         ABSORPTION SPECTRUM VIA TRANSITION ELECTRIC DIPOLE MOMENTS
-----------------------------------------------------------------------------
State   Energy  Wavelength   fosc         T2         TX        TY        TZ
        (cm-1)    (nm)                  (au**2)     (au)      (au)      (au)
-----------------------------------------------------------------------------
   0    5840.3   1712.2   0.684439375  38.58110   4.90859  -1.13314   3.63357
   1   12048.2    830.0   0.016869762   0.46096   0.53106  -0.21427   0.36472
   2   13480.1    741.8   0.509219128  12.43618  -0.24274   3.41909   0.82890
   3   16327.4    612.5   0.185946676   3.74928  -1.41138  -0.48395  -1.23413
   4   18831.6    531.0   0.134628791   2.35356  -0.70510   1.34968   0.18645
   5   20154.3    496.2   0.013817338   0.22570  -0.01509   0.24383   0.40745
   6   21460.3    466.0   0.472914980   7.25477  -0.35493  -2.16877  -1.55732
   7   21861.8    457.4   0.141949260   2.13758  -0.01631  -1.26689  -0.72959
   8   22110.1    452.3   0.480734861   7.15797   0.48170   2.06350   1.63338
   9   22581.0    442.9   0.340321172   4.96160  -0.06106   1.97475   1.02871
  10   23798.8    420.2   0.109608870   1.51624  -0.87064   0.36758  -0.78936
  11   25536.6    391.6   0.292531581   3.77124  -0.13518   1.77133   0.78444
  12   26710.3    374.4   0.042487406   0.52367   0.19089  -0.65948  -0.22873
  13   26825.7    372.8   0.014010084   0.17194   0.21054  -0.35594  -0.03020
  14   27210.1    367.5   0.055734568   0.67433  -0.10790   0.75344   0.30825
  15   27896.8    358.5   0.474387854   5.59827   1.65542  -1.37187   0.98783
  16   28181.4    354.8   0.000782354   0.00914   0.07297  -0.03546   0.05057
  17   28539.7    350.4   0.029747728   0.34315   0.32967  -0.41775  -0.24486
  18   28689.3    348.6   0.066421832   0.76220   0.60300  -0.57134   0.26861
  19   29153.1    343.0   0.143721416   1.62298  -0.89464   0.35396  -0.83505
  20   29449.1    339.6   0.037014908   0.41379  -0.35306  -0.29632  -0.44870
  21   30222.6    330.9   0.005096661   0.05552  -0.16956   0.16154  -0.02594
  22   30264.9    330.4   0.002180562   0.02372  -0.04379   0.14483   0.02872
  23   30401.9    328.9   0.005704219   0.06177  -0.15284   0.12425   0.15155
  24   30627.6    326.5   0.075325950   0.80967   0.29404   0.34051   0.77927
  25   31784.2    314.6   0.011181698   0.11582   0.24903  -0.15638   0.17130
  26   31931.4    313.2   0.027231598   0.28076   0.31949   0.20338   0.37057
  27   32057.9    311.9   0.056049355   0.57559  -0.33398   0.67983  -0.04336
  28   32282.3    309.8   0.032536890   0.33181   0.26572  -0.50143   0.09884
  29   32900.2    303.9   0.001715714   0.01717   0.06251   0.03200   0.11062
  30   33108.1    302.0   0.043561283   0.43315   0.30581  -0.57942   0.06249
  31   33707.2    296.7   0.041854827   0.40879   0.13806   0.50522   0.36672
  32   33902.1    295.0   0.039558885   0.38414   0.43453  -0.28623   0.33675
  33   34411.0    290.6   0.056490759   0.54045  -0.53669   0.05319  -0.49958
  34   34751.2    287.8   0.048042185   0.45512   0.34388   0.24067   0.52815
  35   35315.4    283.2   0.057860359   0.53938  -0.42691  -0.23548  -0.54925
  36   35585.6    281.0   0.000807612   0.00747   0.05552   0.01899   0.06347
  37   35651.8    280.5   0.056965856   0.52603   0.45512  -0.56461   0.01052
  38   36335.0    275.2   0.022813501   0.20670  -0.08945   0.38776   0.21986
  39   36436.0    274.5   0.099689181   0.90073   0.62668   0.02565   0.71228
  40   36682.0    272.6   0.024387575   0.21887   0.02998   0.37929   0.27224
  41   37071.3    269.8   0.073748405   0.65492  -0.19189   0.78290   0.07192
  42   37330.5    267.9   0.011493777   0.10136  -0.07159   0.30969  -0.01807
  43   37405.2    267.3   0.185042474   1.62860   0.42978   0.38874   1.13700
  44   37502.9    266.6   0.085010556   0.74625  -0.33739   0.08055  -0.79116
  45   37801.8    264.5   0.031761452   0.27661  -0.20419   0.48411  -0.02356
  46   37981.3    263.3   0.029599148   0.25656   0.39470  -0.31646   0.02488
  47   38288.1    261.2   0.247235038   2.12580   0.82193  -0.42288   1.12757
  48   38402.3    260.4   0.016666694   0.14288   0.16838  -0.28884  -0.17635
  49   38647.7    258.7   0.036534325   0.31121   0.20534  -0.51245  -0.08025
  50   38836.1    257.5   0.000343428   0.00291  -0.01295  -0.04675  -0.02361
  51   38936.2    256.8   0.010514494   0.08890  -0.00483  -0.14927  -0.25807
  52   39460.7    253.4   0.018592538   0.15511   0.23987  -0.02163   0.31162
  53   39816.3    251.2   0.035760978   0.29568   0.35616   0.10025   0.39847
  54   40218.5    248.6   0.001753012   0.01435  -0.08674  -0.02412  -0.07902

FINAL SINGLE POINT ENERGY     -6285.698692388151

DIPOLE MOMENT
-------------
                                X             Y             Z
Electronic contribution:     36.79341     -22.62155      21.50885
Nuclear contribution   :    -38.38685      24.69087     -21.64629
                        -----------------------------------------
Total Dipole Moment    :     -1.59344       2.06932      -0.13744
                        -----------------------------------------
Magnitude (a.u.)       :      2.61534
Magnitude (Debye)      :      6.64767

Rotational constants in cm-1:     0.001446     0.000447     0.000346
Rotational constants in MHz :    43.348695    13.388169    10.377733

                             ****ORCA TERMINATED NORMALLY****
TOTAL RUN TIME: 0 days 0 hours 7 minutes 8 seconds 194 msec
