                         Program Version 4.2.0 -  RELEASE  -
|  1> # ORCA input file
|  2> # SCF done       -181.035575866893          0.000742623279
|  3> ! CAM-B3LYP def2-SVP def2/J RIJCOSX Grid4 TightSCF
|  4> %maxcore 5000
|  5> %tddft
|  6>     Mode sTDDFT
|  7>     Ethresh 5.0
|  8>     maxcore 5000
|  9> end
| 10>
| 11> %pal
| 12>   nprocs 6
| 13>   end
| 14> * xyz 0 1
| 15>    C        1.24053         6.02708        -5.03077
| 16>    C        1.56640         4.73710        -4.73777
| 17>    C        0.93150         3.80293        -5.62454
| 18>    C        0.13893         4.39171        -6.55300
| 19>    S        0.16165         6.10748        -6.36962
| 20>    C        1.33236         2.43741        -5.27010
| 21>    O        1.00137         1.40462        -5.82038
| 22>    C        2.26917         2.59799        -4.14545
| 23>    C        2.31375         3.98607        -3.74302
| 24>    C        2.84227         4.45066        -2.56259
| 25>    N        3.05658         5.82529        -2.25876
| 26>    O        3.08282         6.14267        -1.08862
| 27>    O        3.19260         6.59566        -3.19142
| 28>    N        3.15716         3.55696        -1.46420
| 29>    O        2.32169         2.72669        -1.17803
| 30>    O        4.22417         3.70138        -0.91727
| 31>    C        3.12332         1.61535        -3.68554
| 32>    C        3.13904         0.24658        -3.94163
| 33>    S        1.93816        -0.66264        -4.86093
| 34>    C        2.74862        -2.11831        -4.50372
| 35>    C        3.91221        -1.92067        -3.72539
| 36>    C        4.12886        -0.60498        -3.40835
| 37>    C        4.53046        -3.23702        -3.48777
| 38>    O        5.53573        -3.48629        -2.86886
| 39>    C        3.61495        -4.20826        -4.20542
| 40>    C        2.58760        -3.49104        -4.79296
| 41>    C        3.79024        -5.60232        -4.25799
| 42>    C        4.80801        -6.26325        -3.62387
| 43>    C        5.02299        -7.65049        -3.64819
| 44>    S        6.37191        -8.30359        -2.72481
| 45>    C        5.98458        -9.88787        -3.22906
| 46>    C        4.86225        -9.91059        -4.07841
| 47>    C        4.32113        -8.66371        -4.31336
| 48>    C        4.63047       -11.32178        -4.45428
| 49>    O        3.77735       -11.78595        -5.16791
| 50>    C        5.72041       -12.08536        -3.73663
| 51>    C        6.49405       -11.18679        -3.02345
| 52>    C        5.82494       -13.47969        -3.86093
| 53>    C        6.76435       -14.25115        -3.22985
| 54>    C        6.85046       -15.65224        -3.38615
| 55>    C        7.78822       -16.45425        -2.73160
| 56>    O        7.84570       -17.81089        -2.92099
| 57>    C        6.93374       -18.34004        -3.78137
| 58>    C        5.97365       -17.52546        -4.44463
| 59>    C        5.15255       -18.23441        -5.25915
| 60>    S        5.54335       -19.91196        -5.22486
| 61>    C        6.82460       -19.65377        -4.10374
| 62>    O        5.92474       -16.17671        -4.25101
| 63>    C        8.75146       -15.96385        -1.81998
| 64>    C        9.66600       -16.75596        -1.18212
| 65>    C       10.59047       -16.20015        -0.27801
| 66>    C       11.54407       -16.89825         0.41313
| 67>    C       12.50160       -16.35443         1.35402
| 68>    C       12.63833       -15.04201         1.73110
| 69>    C       11.85835       -13.96470         1.26290
| 70>    N       11.26844       -13.03552         0.93215
| 71>    C       13.59749       -14.57749         2.65573
| 72>    N       14.35148       -14.13160         3.39789
| 73>    C       13.31602       -17.46496         1.84533
| 74>    C       12.88328       -18.65401         1.23228
| 75>    C       11.76633       -18.36566         0.31654
| 76>    O       11.16244       -19.16445        -0.36873
| 77>    C       13.48471       -19.86579         1.51567
| 78>    C       14.53072       -19.88565         2.42310
| 79>    C       14.97488       -18.71774         3.04245
| 80>    C       14.36284       -17.50009         2.75128
| 81>    C       16.09646       -18.77745         4.02977
| 82>    H        1.58659         6.93434        -4.57756
| 83>    H       -0.45413         3.93627        -7.32050
| 84>    H        3.94364         1.93329        -3.05119
| 85>    H        4.94549        -0.23657        -2.81328
| 86>    H        1.78422        -3.91097        -5.37080
| 87>    H        3.06043        -6.15892        -4.83259
| 88>    H        5.51306        -5.68043        -3.04764
| 89>    H        3.46458        -8.47586        -4.93411
| 90>    H        7.34652       -11.41792        -2.41192
| 91>    H        5.09619       -13.95188        -4.50601
| 92>    H        7.47793       -13.77396        -2.58109
| 93>    H        4.35201       -17.86983        -5.86798
| 94>    H        7.41829       -20.46953        -3.74801
| 95>    H        8.75976       -14.90529        -1.61447
| 96>    H        9.68721       -17.81943        -1.36429
| 97>    H       10.52549       -15.13024        -0.12678
| 98>    H       13.13796       -20.76701         1.03377
| 99>    H       15.01658       -20.82098         2.65997
|100>    H       14.71483       -16.60406         3.23625
|101>    H       16.90852       -19.39584         3.65254
|102>    H       15.74628       -19.22254         4.96131
|103>    H       16.47819       -17.78387         4.24830
|104> *
|105>
|106>                          ****END OF INPUT****

CARTESIAN COORDINATES (ANGSTROEM)
---------------------------------
  C      1.240530    6.027080   -5.030770
  C      1.566400    4.737100   -4.737770
  C      0.931500    3.802930   -5.624540
  C      0.138930    4.391710   -6.553000
  S      0.161650    6.107480   -6.369620
  C      1.332360    2.437410   -5.270100
  O      1.001370    1.404620   -5.820380
  C      2.269170    2.597990   -4.145450
  C      2.313750    3.986070   -3.743020
  C      2.842270    4.450660   -2.562590
  N      3.056580    5.825290   -2.258760
  O      3.082820    6.142670   -1.088620
  O      3.192600    6.595660   -3.191420
  N      3.157160    3.556960   -1.464200
  O      2.321690    2.726690   -1.178030
  O      4.224170    3.701380   -0.917270
  C      3.123320    1.615350   -3.685540
  C      3.139040    0.246580   -3.941630
  S      1.938160   -0.662640   -4.860930
  C      2.748620   -2.118310   -4.503720
  C      3.912210   -1.920670   -3.725390
  C      4.128860   -0.604980   -3.408350
  C      4.530460   -3.237020   -3.487770
  O      5.535730   -3.486290   -2.868860
  C      3.614950   -4.208260   -4.205420
  C      2.587600   -3.491040   -4.792960
  C      3.790240   -5.602320   -4.257990
  C      4.808010   -6.263250   -3.623870
  C      5.022990   -7.650490   -3.648190
  S      6.371910   -8.303590   -2.724810
  C      5.984580   -9.887870   -3.229060
  C      4.862250   -9.910590   -4.078410
  C      4.321130   -8.663710   -4.313360
  C      4.630470  -11.321780   -4.454280
  O      3.777350  -11.785950   -5.167910
  C      5.720410  -12.085360   -3.736630
  C      6.494050  -11.186790   -3.023450
  C      5.824940  -13.479690   -3.860930
  C      6.764350  -14.251150   -3.229850
  C      6.850460  -15.652240   -3.386150
  C      7.788220  -16.454250   -2.731600
  O      7.845700  -17.810890   -2.920990
  C      6.933740  -18.340040   -3.781370
  C      5.973650  -17.525460   -4.444630
  C      5.152550  -18.234410   -5.259150
  S      5.543350  -19.911960   -5.224860
  C      6.824600  -19.653770   -4.103740
  O      5.924740  -16.176710   -4.251010
  C      8.751460  -15.963850   -1.819980
  C      9.666000  -16.755960   -1.182120
  C     10.590470  -16.200150   -0.278010
  C     11.544070  -16.898250    0.413130
  C     12.501600  -16.354430    1.354020
  C     12.638330  -15.042010    1.731100
  C     11.858350  -13.964700    1.262900
  N     11.268440  -13.035520    0.932150
  C     13.597490  -14.577490    2.655730
  N     14.351480  -14.131600    3.397890
  C     13.316020  -17.464960    1.845330
  C     12.883280  -18.654010    1.232280
  C     11.766330  -18.365660    0.316540
  O     11.162440  -19.164450   -0.368730
  C     13.484710  -19.865790    1.515670
  C     14.530720  -19.885650    2.423100
  C     14.974880  -18.717740    3.042450
  C     14.362840  -17.500090    2.751280
  C     16.096460  -18.777450    4.029770
  H      1.586590    6.934340   -4.577560
  H     -0.454130    3.936270   -7.320500
  H      3.943640    1.933290   -3.051190
  H      4.945490   -0.236570   -2.813280
  H      1.784220   -3.910970   -5.370800
  H      3.060430   -6.158920   -4.832590
  H      5.513060   -5.680430   -3.047640
  H      3.464580   -8.475860   -4.934110
  H      7.346520  -11.417920   -2.411920
  H      5.096190  -13.951880   -4.506010
  H      7.477930  -13.773960   -2.581090
  H      4.352010  -17.869830   -5.867980
  H      7.418290  -20.469530   -3.748010
  H      8.759760  -14.905290   -1.614470
  H      9.687210  -17.819430   -1.364290
  H     10.525490  -15.130240   -0.126780
  H     13.137960  -20.767010    1.033770
  H     15.016580  -20.820980    2.659970
  H     14.714830  -16.604060    3.236250
  H     16.908520  -19.395840    3.652540
  H     15.746280  -19.222540    4.961310
  H     16.478190  -17.783870    4.248300

 Total Charge           Charge          ....    0
 Multiplicity           Mult            ....    1
 Number of Electrons    NEL             ....  488
 Basis Dimension        Dim             .... 1064

ORBITAL ENERGIES
----------------

  NO   OCC          E(Eh)            E(eV)
   0   2.0000     -88.989559     -2421.5290
   1   2.0000     -88.984170     -2421.3824
   2   2.0000     -88.977389     -2421.1978
   3   2.0000     -88.966464     -2420.9006
   4   2.0000     -19.292948      -524.9878
   5   2.0000     -19.286591      -524.8148
   6   2.0000     -19.248305      -523.7730
   7   2.0000     -19.245701      -523.7021
   8   2.0000     -19.239917      -523.5448
   9   2.0000     -19.239670      -523.5380
  10   2.0000     -19.239332      -523.5288
  11   2.0000     -19.239214      -523.5256
  12   2.0000     -19.217222      -522.9272
  13   2.0000     -19.212471      -522.7979
  14   2.0000     -14.654512      -398.7696
  15   2.0000     -14.651683      -398.6926
  16   2.0000     -14.416889      -392.3035
  17   2.0000     -14.411818      -392.1655
  18   2.0000     -10.384625      -282.5800
  19   2.0000     -10.381658      -282.4993
  20   2.0000     -10.373313      -282.2722
  21   2.0000     -10.370285      -282.1898
  22   2.0000     -10.364531      -282.0332
  23   2.0000     -10.362850      -281.9875
  24   2.0000     -10.357414      -281.8396
  25   2.0000     -10.350838      -281.6606
  26   2.0000     -10.349733      -281.6305
  27   2.0000     -10.344806      -281.4965
  28   2.0000     -10.339638      -281.3559
  29   2.0000     -10.338064      -281.3130
  30   2.0000     -10.328498      -281.0527
  31   2.0000     -10.327046      -281.0132
  32   2.0000     -10.326741      -281.0049
  33   2.0000     -10.324564      -280.9457
  34   2.0000     -10.320976      -280.8480
  35   2.0000     -10.320430      -280.8332
  36   2.0000     -10.317776      -280.7610
  37   2.0000     -10.317519      -280.7540
  38   2.0000     -10.315298      -280.6935
  39   2.0000     -10.315008      -280.6856
  40   2.0000     -10.311838      -280.5994
  41   2.0000     -10.310438      -280.5613
  42   2.0000     -10.309894      -280.5465
  43   2.0000     -10.309522      -280.5364
  44   2.0000     -10.308039      -280.4960
  45   2.0000     -10.307387      -280.4782
  46   2.0000     -10.304101      -280.3888
  47   2.0000     -10.303995      -280.3860
  48   2.0000     -10.302861      -280.3551
  49   2.0000     -10.302362      -280.3415
  50   2.0000     -10.302205      -280.3373
  51   2.0000     -10.301758      -280.3251
  52   2.0000     -10.300305      -280.2856
  53   2.0000     -10.298085      -280.2251
  54   2.0000     -10.297665      -280.2137
  55   2.0000     -10.296455      -280.1808
  56   2.0000     -10.293010      -280.0870
  57   2.0000     -10.292798      -280.0813
  58   2.0000     -10.292503      -280.0732
  59   2.0000     -10.291330      -280.0413
  60   2.0000     -10.287922      -279.9486
  61   2.0000     -10.287506      -279.9373
  62   2.0000     -10.287219      -279.9295
  63   2.0000     -10.286603      -279.9127
  64   2.0000     -10.285171      -279.8737
  65   2.0000     -10.284542      -279.8566
  66   2.0000     -10.273133      -279.5461
  67   2.0000      -8.084432      -219.9886
  68   2.0000      -8.076990      -219.7861
  69   2.0000      -8.073331      -219.6865
  70   2.0000      -8.062237      -219.3846
  71   2.0000      -6.053417      -164.7218
  72   2.0000      -6.049433      -164.6134
  73   2.0000      -6.047119      -164.5505
  74   2.0000      -6.046296      -164.5281
  75   2.0000      -6.042545      -164.4260
  76   2.0000      -6.041656      -164.4018
  77   2.0000      -6.039607      -164.3461
  78   2.0000      -6.037863      -164.2986
  79   2.0000      -6.036079      -164.2501
  80   2.0000      -6.031745      -164.1321
  81   2.0000      -6.027515      -164.0170
  82   2.0000      -6.023957      -163.9202
  83   2.0000      -1.334848       -36.3231
  84   2.0000      -1.316574       -35.8258
  85   2.0000      -1.218425       -33.1550
  86   2.0000      -1.181245       -32.1433
  87   2.0000      -1.151698       -31.3393
  88   2.0000      -1.150387       -31.3036
  89   2.0000      -1.149392       -31.2765
  90   2.0000      -1.139126       -30.9972
  91   2.0000      -1.134432       -30.8695
  92   2.0000      -1.126425       -30.6516
  93   2.0000      -1.021446       -27.7950
  94   2.0000      -1.018496       -27.7147
  95   2.0000      -1.016363       -27.6567
  96   2.0000      -1.015373       -27.6297
  97   2.0000      -0.997591       -27.1458
  98   2.0000      -0.994930       -27.0734
  99   2.0000      -0.991362       -26.9763
 100   2.0000      -0.975959       -26.5572
 101   2.0000      -0.962599       -26.1936
 102   2.0000      -0.955382       -25.9973
 103   2.0000      -0.950853       -25.8740
 104   2.0000      -0.939389       -25.5621
 105   2.0000      -0.931246       -25.3405
 106   2.0000      -0.918023       -24.9807
 107   2.0000      -0.903799       -24.5936
 108   2.0000      -0.899700       -24.4821
 109   2.0000      -0.884808       -24.0768
 110   2.0000      -0.876307       -23.8455
 111   2.0000      -0.865424       -23.5494
 112   2.0000      -0.863077       -23.4855
 113   2.0000      -0.861021       -23.4296
 114   2.0000      -0.852121       -23.1874
 115   2.0000      -0.843103       -22.9420
 116   2.0000      -0.838650       -22.8208
 117   2.0000      -0.827958       -22.5299
 118   2.0000      -0.823538       -22.4096
 119   2.0000      -0.808984       -22.0136
 120   2.0000      -0.802697       -21.8425
 121   2.0000      -0.795818       -21.6553
 122   2.0000      -0.782762       -21.3000
 123   2.0000      -0.775865       -21.1124
 124   2.0000      -0.770812       -20.9749
 125   2.0000      -0.765471       -20.8295
 126   2.0000      -0.762305       -20.7434
 127   2.0000      -0.746634       -20.3170
 128   2.0000      -0.735577       -20.0161
 129   2.0000      -0.725920       -19.7533
 130   2.0000      -0.710841       -19.3430
 131   2.0000      -0.703104       -19.1324
 132   2.0000      -0.696478       -18.9521
 133   2.0000      -0.686861       -18.6904
 134   2.0000      -0.683025       -18.5861
 135   2.0000      -0.678432       -18.4611
 136   2.0000      -0.673508       -18.3271
 137   2.0000      -0.666150       -18.1269
 138   2.0000      -0.664567       -18.0838
 139   2.0000      -0.661644       -18.0042
 140   2.0000      -0.653490       -17.7824
 141   2.0000      -0.651698       -17.7336
 142   2.0000      -0.643741       -17.5171
 143   2.0000      -0.642728       -17.4895
 144   2.0000      -0.639070       -17.3900
 145   2.0000      -0.634649       -17.2697
 146   2.0000      -0.631018       -17.1709
 147   2.0000      -0.629139       -17.1197
 148   2.0000      -0.621516       -16.9123
 149   2.0000      -0.615886       -16.7591
 150   2.0000      -0.610576       -16.6146
 151   2.0000      -0.608789       -16.5660
 152   2.0000      -0.603570       -16.4240
 153   2.0000      -0.593497       -16.1499
 154   2.0000      -0.590938       -16.0802
 155   2.0000      -0.585742       -15.9388
 156   2.0000      -0.583719       -15.8838
 157   2.0000      -0.582711       -15.8564
 158   2.0000      -0.581929       -15.8351
 159   2.0000      -0.577965       -15.7272
 160   2.0000      -0.575613       -15.6632
 161   2.0000      -0.570519       -15.5246
 162   2.0000      -0.561715       -15.2850
 163   2.0000      -0.558875       -15.2078
 164   2.0000      -0.554891       -15.0994
 165   2.0000      -0.550222       -14.9723
 166   2.0000      -0.544681       -14.8215
 167   2.0000      -0.540742       -14.7143
 168   2.0000      -0.538853       -14.6629
 169   2.0000      -0.538466       -14.6524
 170   2.0000      -0.534513       -14.5448
 171   2.0000      -0.534112       -14.5339
 172   2.0000      -0.531791       -14.4708
 173   2.0000      -0.529565       -14.4102
 174   2.0000      -0.528695       -14.3865
 175   2.0000      -0.524319       -14.2674
 176   2.0000      -0.517823       -14.0907
 177   2.0000      -0.516770       -14.0620
 178   2.0000      -0.516406       -14.0521
 179   2.0000      -0.514070       -13.9885
 180   2.0000      -0.512457       -13.9447
 181   2.0000      -0.509614       -13.8673
 182   2.0000      -0.508162       -13.8278
 183   2.0000      -0.504165       -13.7190
 184   2.0000      -0.501860       -13.6563
 185   2.0000      -0.493137       -13.4189
 186   2.0000      -0.492575       -13.4037
 187   2.0000      -0.491672       -13.3791
 188   2.0000      -0.490175       -13.3383
 189   2.0000      -0.487358       -13.2617
 190   2.0000      -0.486933       -13.2501
 191   2.0000      -0.485153       -13.2017
 192   2.0000      -0.482481       -13.1290
 193   2.0000      -0.481345       -13.0981
 194   2.0000      -0.479352       -13.0438
 195   2.0000      -0.477901       -13.0044
 196   2.0000      -0.473459       -12.8835
 197   2.0000      -0.471381       -12.8269
 198   2.0000      -0.470044       -12.7905
 199   2.0000      -0.466334       -12.6896
 200   2.0000      -0.456709       -12.4277
 201   2.0000      -0.450322       -12.2539
 202   2.0000      -0.448148       -12.1947
 203   2.0000      -0.447394       -12.1742
 204   2.0000      -0.445532       -12.1235
 205   2.0000      -0.443775       -12.0757
 206   2.0000      -0.442676       -12.0458
 207   2.0000      -0.441336       -12.0094
 208   2.0000      -0.441161       -12.0046
 209   2.0000      -0.440206       -11.9786
 210   2.0000      -0.438971       -11.9450
 211   2.0000      -0.428843       -11.6694
 212   2.0000      -0.427745       -11.6395
 213   2.0000      -0.426874       -11.6158
 214   2.0000      -0.425594       -11.5810
 215   2.0000      -0.424238       -11.5441
 216   2.0000      -0.420037       -11.4298
 217   2.0000      -0.406477       -11.0608
 218   2.0000      -0.404817       -11.0156
 219   2.0000      -0.403826       -10.9887
 220   2.0000      -0.397733       -10.8229
 221   2.0000      -0.391098       -10.6423
 222   2.0000      -0.384282       -10.4569
 223   2.0000      -0.379994       -10.3402
 224   2.0000      -0.374981       -10.2038
 225   2.0000      -0.370400       -10.0791
 226   2.0000      -0.364119        -9.9082
 227   2.0000      -0.356459        -9.6997
 228   2.0000      -0.353244        -9.6123
 229   2.0000      -0.352617        -9.5952
 230   2.0000      -0.350911        -9.5488
 231   2.0000      -0.348329        -9.4785
 232   2.0000      -0.338012        -9.1978
 233   2.0000      -0.332796        -9.0559
 234   2.0000      -0.332331        -9.0432
 235   2.0000      -0.331403        -9.0179
 236   2.0000      -0.329561        -8.9678
 237   2.0000      -0.317927        -8.6512
 238   2.0000      -0.313571        -8.5327
 239   2.0000      -0.312171        -8.4946
 240   2.0000      -0.299883        -8.1602
 241   2.0000      -0.290669        -7.9095
 242   2.0000      -0.261022        -7.1028
 243   2.0000      -0.234708        -6.3867
 244   0.0000      -0.121487        -3.3058
 245   0.0000      -0.099701        -2.7130
 246   0.0000      -0.081791        -2.2256
 247   0.0000      -0.076435        -2.0799
 248   0.0000      -0.057971        -1.5775

MULLIKEN ATOMIC CHARGES
-----------------------
   0 C :   -0.130979
   1 C :    0.066481
   2 C :    0.010540
   3 C :   -0.132845
   4 S :    0.145944
   5 C :    0.182789
   6 O :   -0.184424
   7 C :   -0.108533
   8 C :    0.204924
   9 C :    0.042614
  10 N :    0.260445
  11 O :   -0.231751
  12 O :   -0.257645
  13 N :    0.198404
  14 O :   -0.217630
  15 O :   -0.210113
  16 C :   -0.009957
  17 C :   -0.082590
  18 S :    0.244375
  19 C :    0.004570
  20 C :    0.011539
  21 C :   -0.009423
  22 C :    0.177918
  23 O :   -0.119442
  24 C :    0.013030
  25 C :   -0.059392
  26 C :   -0.047471
  27 C :    0.065524
  28 C :   -0.098241
  29 S :    0.201639
  30 C :   -0.044397
  31 C :   -0.002723
  32 C :   -0.000578
  33 C :    0.166995
  34 O :   -0.105220
  35 C :   -0.043496
  36 C :   -0.022443
  37 C :    0.029456
  38 C :   -0.057468
  39 C :    0.205240
  40 C :    0.178319
  41 O :   -0.240146
  42 C :    0.218436
  43 C :    0.213689
  44 C :   -0.167770
  45 S :    0.120027
  46 C :   -0.165358
  47 O :   -0.244007
  48 C :   -0.041332
  49 C :    0.019311
  50 C :   -0.045309
  51 C :   -0.064181
  52 C :    0.330633
  53 C :   -0.352680
  54 C :   -0.181792
  55 N :    0.131575
  56 C :   -0.184019
  57 N :    0.143886
  58 C :    0.037794
  59 C :   -0.026217
  60 C :    0.143232
  61 O :   -0.149713
  62 C :   -0.018087
  63 C :    0.006741
  64 C :   -0.040529
  65 C :   -0.061535
  66 C :    0.087399
  67 H :    0.055086
  68 H :    0.036960
  69 H :    0.018580
  70 H :    0.012760
  71 H :   -0.003775
  72 H :   -0.019697
  73 H :    0.018661
  74 H :    0.000392
  75 H :    0.004963
  76 H :    0.016023
  77 H :   -0.009914
  78 H :    0.030981
  79 H :    0.033960
  80 H :    0.005576
  81 H :    0.036670
  82 H :    0.000835
  83 H :   -0.008064
  84 H :   -0.016862
  85 H :   -0.012963
  86 H :    0.028430
  87 H :    0.040082
  88 H :    0.027290
Sum of atomic charges:   -0.0000000

LOEWDIN ATOMIC CHARGES
----------------------
   0 C :   -0.145563
   1 C :   -0.062699
   2 C :   -0.088454
   3 C :   -0.143816
   4 S :    0.478572
   5 C :    0.082487
   6 O :   -0.174483
   7 C :   -0.121563
   8 C :    0.061531
   9 C :   -0.082562
  10 N :    0.279512
  11 O :   -0.196851
  12 O :   -0.212145
  13 N :    0.268788
  14 O :   -0.192895
  15 O :   -0.182250
  16 C :    0.055906
  17 C :   -0.188585
  18 S :    0.546567
  19 C :   -0.142773
  20 C :   -0.117147
  21 C :    0.029701
  22 C :    0.103206
  23 O :   -0.102915
  24 C :   -0.026526
  25 C :   -0.025810
  26 C :   -0.034164
  27 C :   -0.007681
  28 C :   -0.172235
  29 S :    0.489857
  30 C :   -0.167274
  31 C :   -0.099539
  32 C :   -0.003380
  33 C :    0.099273
  34 O :   -0.097397
  35 C :   -0.059726
  36 C :    0.008622
  37 C :    0.002207
  38 C :   -0.030336
  39 C :    0.052981
  40 C :    0.020515
  41 O :   -0.040616
  42 C :   -0.008579
  43 C :   -0.010576
  44 C :   -0.204044
  45 S :    0.447516
  46 C :   -0.203608
  47 O :   -0.039725
  48 C :    0.005091
  49 C :   -0.022637
  50 C :    0.059579
  51 C :   -0.094906
  52 C :    0.077284
  53 C :   -0.143253
  54 C :   -0.016316
  55 N :   -0.063648
  56 C :   -0.018287
  57 N :   -0.056830
  58 C :   -0.010522
  59 C :   -0.050580
  60 C :    0.083084
  61 O :   -0.144840
  62 C :    0.015512
  63 C :   -0.007628
  64 C :    0.000049
  65 C :   -0.008244
  66 C :   -0.043205
  67 H :    0.030163
  68 H :    0.034496
  69 H :    0.044316
  70 H :    0.045956
  71 H :    0.033355
  72 H :    0.029909
  73 H :    0.035606
  74 H :    0.039875
  75 H :    0.034515
  76 H :    0.039930
  77 H :    0.031937
  78 H :    0.031990
  79 H :    0.033496
  80 H :    0.036843
  81 H :    0.036999
  82 H :    0.038648
  83 H :    0.038491
  84 H :    0.030889
  85 H :    0.036179
  86 H :    0.036915
  87 H :    0.042712
  88 H :    0.035754

  Mayer bond orders larger than 0.100000
B(  0-C ,  1-C ) :   1.5549 B(  0-C ,  4-S ) :   1.1792 B(  0-C , 67-H ) :   0.9482
B(  1-C ,  2-C ) :   1.2223 B(  1-C ,  8-C ) :   1.0147 B(  2-C ,  3-C ) :   1.5552
B(  2-C ,  5-C ) :   0.9710 B(  3-C ,  4-S ) :   1.1760 B(  3-C , 68-H ) :   0.9718
B(  5-C ,  6-O ) :   2.1241 B(  5-C ,  7-C ) :   0.9970 B(  7-C ,  8-C ) :   1.1256
B(  7-C , 16-C ) :   1.4294 B(  8-C ,  9-C ) :   1.5527 B(  9-C , 10-N ) :   0.9584
B(  9-C , 13-N ) :   0.8863 B( 10-N , 11-O ) :   1.5267 B( 10-N , 12-O ) :   1.4890
B( 11-O , 12-O ) :   0.2565 B( 13-N , 14-O ) :   1.5320 B( 13-N , 15-O ) :   1.5185
B( 14-O , 15-O ) :   0.2813 B( 16-C , 17-C ) :   1.3494 B( 16-C , 69-H ) :   0.9554
B( 17-C , 18-S ) :   1.0663 B( 17-C , 21-C ) :   1.2844 B( 18-S , 19-C ) :   1.1636
B( 19-C , 20-C ) :   1.3274 B( 19-C , 25-C ) :   1.0937 B( 20-C , 21-C ) :   1.3942
B( 20-C , 22-C ) :   0.9359 B( 21-C , 70-H ) :   1.0125 B( 22-C , 23-O ) :   2.2201
B( 22-C , 24-C ) :   0.9056 B( 24-C , 25-C ) :   1.5275 B( 24-C , 26-C ) :   1.2078
B( 25-C , 71-H ) :   1.0262 B( 26-C , 27-C ) :   1.5871 B( 26-C , 72-H ) :   0.9795
B( 27-C , 28-C ) :   1.1541 B( 27-C , 73-H ) :   0.9491 B( 28-C , 29-S ) :   1.1123
B( 28-C , 32-C ) :   1.3857 B( 29-S , 30-C ) :   1.1516 B( 30-C , 31-C ) :   1.3995
B( 30-C , 36-C ) :   1.1006 B( 31-C , 32-C ) :   1.3650 B( 31-C , 33-C ) :   0.9126
B( 32-C , 74-H ) :   1.0007 B( 33-C , 34-O ) :   2.2855 B( 33-C , 35-C ) :   0.9135
B( 35-C , 36-C ) :   1.5712 B( 35-C , 37-C ) :   1.1437 B( 36-C , 75-H ) :   1.0125
B( 37-C , 38-C ) :   1.5592 B( 37-C , 76-H ) :   0.9853 B( 38-C , 39-C ) :   1.2190
B( 38-C , 77-H ) :   0.9562 B( 39-C , 40-C ) :   1.3616 B( 39-C , 47-O ) :   1.0991
B( 40-C , 41-O ) :   1.0869 B( 40-C , 48-C ) :   1.1877 B( 41-O , 42-C ) :   1.0443
B( 42-C , 43-C ) :   1.2089 B( 42-C , 46-C ) :   1.5719 B( 43-C , 44-C ) :   1.5690
B( 43-C , 47-O ) :   1.0331 B( 44-C , 45-S ) :   1.1494 B( 44-C , 78-H ) :   0.9733
B( 45-S , 46-C ) :   1.1460 B( 46-C , 79-H ) :   0.9716 B( 48-C , 49-C ) :   1.5248
B( 48-C , 80-H ) :   0.9683 B( 49-C , 50-C ) :   1.1571 B( 49-C , 81-H ) :   0.9921
B( 50-C , 51-C ) :   1.5205 B( 50-C , 82-H ) :   0.9611 B( 51-C , 52-C ) :   1.0797
B( 51-C , 60-C ) :   0.9396 B( 52-C , 53-C ) :   1.6153 B( 52-C , 58-C ) :   0.9804
B( 53-C , 54-C ) :   1.1486 B( 53-C , 56-C ) :   1.1435 B( 54-C , 55-N ) :   2.9551
B( 56-C , 57-N ) :   2.9636 B( 58-C , 59-C ) :   1.3365 B( 58-C , 65-C ) :   1.3619
B( 59-C , 60-C ) :   0.9494 B( 59-C , 62-C ) :   1.3750 B( 60-C , 61-O ) :   2.2088
B( 62-C , 63-C ) :   1.3529 B( 62-C , 83-H ) :   1.0066 B( 63-C , 64-C ) :   1.3777
B( 63-C , 84-H ) :   0.9939 B( 64-C , 65-C ) :   1.3641 B( 64-C , 66-C ) :   1.0514
B( 65-C , 85-H ) :   0.9825 B( 66-C , 86-H ) :   0.9567 B( 66-C , 87-H ) :   0.9520
B( 66-C , 88-H ) :   0.9596

-----------------------------------------------------------------------------
         ABSORPTION SPECTRUM VIA TRANSITION ELECTRIC DIPOLE MOMENTS
-----------------------------------------------------------------------------
State   Energy  Wavelength   fosc         T2         TX        TY        TZ
        (cm-1)    (nm)                  (au**2)     (au)      (au)      (au)
-----------------------------------------------------------------------------
   0   10491.4    953.2   1.734706641  54.43355  -3.03407   6.57020  -1.43544
   1   15285.7    654.2   0.308458039   6.64334  -0.55896  -2.32076  -0.97209
   2   17519.5    570.8   0.061559799   1.15678   0.79211   0.08785   0.72223
   3   18596.2    537.7   0.324994467   5.75343  -1.83211   0.18516  -1.53704
   4   20193.1    495.2   0.375177455   6.11660  -0.30177   2.41999   0.41129
   5   22064.6    453.2   0.005803470   0.08659  -0.01726   0.25451  -0.14669
   6   24461.1    408.8   0.103215605   1.38914  -0.04370   1.17273   0.10919
   7   24886.0    401.8   0.011964177   0.15827   0.25932   0.11782   0.27775
   8   25303.3    395.2   0.020958711   0.27269  -0.41024   0.25099  -0.20344
   9   25390.0    393.9   0.156612978   2.03068  -1.09119   0.30234  -0.86520
  10   25664.6    389.6   0.000408116   0.00524   0.00617  -0.04910  -0.05278
  11   26058.0    383.8   0.131603603   1.66265  -0.57487   1.05789  -0.46157
  12   26922.2    371.4   0.301270943   3.68402   0.91832   1.09961   1.27732
  13   27291.2    366.4   0.078150699   0.94273  -0.13536  -0.95656   0.09697
  14   27480.5    363.9   0.000015754   0.00019  -0.01331  -0.00333   0.00061
  15   27831.8    359.3   0.016124728   0.19073  -0.20359   0.38250   0.05459
  16   28557.1    350.2   0.067720153   0.78069  -0.23948   0.83650  -0.15363
  17   28785.2    347.4   0.015439986   0.17659   0.01057   0.19759   0.37072
  18   29142.0    343.1   0.482271371   5.44813  -1.22804   1.67200  -1.06980
  19   30051.3    332.8   0.044034070   0.48239   0.28362  -0.63180  -0.05267
  20   30388.0    329.1   0.034836714   0.37741   0.14442   0.59453   0.05558
  21   31038.4    322.2   0.030825027   0.32695   0.04117  -0.56026  -0.10659
  22   31269.0    319.8   0.000052297   0.00055   0.00875  -0.00634  -0.02083
  23   31672.0    315.7   0.012612054   0.13110  -0.10321   0.33388   0.09471
  24   31762.3    314.8   0.079981982   0.82900  -0.04894  -0.86192  -0.28931
  25   32217.7    310.4   0.049338387   0.50416   0.13382   0.63981   0.27729
  26   32877.2    304.2   0.044719862   0.44780   0.09024   0.62731   0.21480
  27   33020.3    302.8   0.015585405   0.15539   0.14175  -0.14401   0.33846
  28   33541.2    298.1   0.104484620   1.02553   0.20939  -0.99079  -0.00448
  29   33552.6    298.0   0.062443662   0.61269   0.47700  -0.44609   0.43146
  30   34023.0    293.9   0.055745639   0.53940   0.37102  -0.62939   0.07493
  31   34129.4    293.0   0.117917382   1.13743   0.57107  -0.86082   0.26513
  32   34613.8    288.9   0.060859359   0.57883   0.37495  -0.23197   0.62003
  33   34781.9    287.5   0.154561307   1.46293  -0.87028  -0.34804  -0.76447
  34   34876.3    286.7   0.155549934   1.46830   0.41487  -1.10431   0.27693
  35   35031.4    285.5   0.028819366   0.27083   0.14086  -0.43557   0.24752
  36   35681.4    280.3   0.075616226   0.69767   0.56900  -0.32528   0.51778
  37   35720.3    280.0   0.225421517   2.07757   0.87253   0.33661   1.09679
  38   36026.4    277.6   0.264997253   2.42157  -0.61989   1.38959  -0.32610
  39   36346.3    275.1   0.035383048   0.32049  -0.35362   0.42682  -0.11517
  40   36584.5    273.3   0.057881316   0.52086   0.55185  -0.03156   0.46403
  41   36842.7    271.4   0.126588537   1.13115  -0.25436   1.03242  -0.02353
  42   37222.6    268.7   0.004494841   0.03975   0.15706   0.09205   0.08131
  43   37454.9    267.0   0.200244500   1.76006   0.22675  -1.30380  -0.09356
  44   38107.2    262.4   0.008993830   0.07770  -0.07440  -0.23314  -0.13346
  45   38284.5    261.2   0.008824830   0.07589  -0.18314  -0.13737  -0.15321
  46   38326.3    260.9   0.000418549   0.00360  -0.03090  -0.04881  -0.01607
  47   38479.5    259.9   0.021063266   0.18021   0.15589  -0.26175   0.29562
  48   38541.6    259.5   0.002419037   0.02066   0.05778   0.12186   0.04974
  49   38581.9    259.2   0.012198027   0.10408  -0.04580  -0.27232  -0.16682
  50   38848.2    257.4   0.007844016   0.06647   0.14548   0.17198   0.12543
  51   39043.2    256.1   0.071852260   0.60586   0.22279   0.64058   0.38194
  52   39191.6    255.2   0.016280268   0.13676  -0.03364   0.36825   0.00346
  53   39291.8    254.5   0.237326000   1.98847   0.70570   0.93269   0.78775
  54   39496.9    253.2   0.046664345   0.38895  -0.04345  -0.60156  -0.15870
  55   39753.3    251.6   0.033828958   0.28015   0.11646  -0.51612  -0.01453
  56   39838.5    251.0   0.019083808   0.15770  -0.24019   0.14551  -0.28078
  57   40103.3    249.4   0.044709395   0.36702   0.00263   0.59703   0.10283

FINAL SINGLE POINT ENERGY     -4440.074676212178

DIPOLE MOMENT
-------------
                                X             Y             Z
Electronic contribution:    -38.12172      65.95641     -19.61512
Nuclear contribution   :     37.47450     -69.91568      17.23812
                        -----------------------------------------
Total Dipole Moment    :     -0.64722      -3.95927      -2.37699
                        -----------------------------------------
Magnitude (a.u.)       :      4.66313
Magnitude (Debye)      :     11.85274

Rotational constants in cm-1:     0.001639     0.000178     0.000161
Rotational constants in MHz :    49.125960     5.338786     4.832082

                             ****ORCA TERMINATED NORMALLY****
TOTAL RUN TIME: 0 days 0 hours 7 minutes 53 seconds 159 msec
