                         Program Version 4.2.0 -  RELEASE  -
|  1> # ORCA input file
|  2> # SCF done       -156.744255529661          0.000793278876
|  3> ! CAM-B3LYP def2-SVP def2/J RIJCOSX Grid4 TightSCF
|  4> %maxcore 5000
|  5> %tddft
|  6>     Mode sTDDFT
|  7>     Ethresh 5.0
|  8>     maxcore 5000
|  9> end
| 10>
| 11> %pal
| 12>   nprocs 6
| 13>   end
| 14> * xyz 0 1
| 15>    C        0.81614         8.44700         2.21710
| 16>    C        0.51517         8.90749         3.47203
| 17>    C        1.43212         9.58139         4.30622
| 18>    N        2.13262        10.13915         5.02404
| 19>    C       -0.73021         8.75028         4.11639
| 20>    N       -1.70642         8.64522         4.71152
| 21>    C        2.12290         8.51972         1.57362
| 22>    C        2.05587         7.83868         0.33241
| 23>    C        3.13208         7.72600        -0.51315
| 24>    C        4.33760         8.31251        -0.11358
| 25>    C        4.39614         8.99399         1.12583
| 26>    C        3.30578         9.10855         1.98005
| 27>    S        5.97757         9.65103         1.41850
| 28>    C        6.53129         9.00890        -0.10501
| 29>    C        5.58212         8.33662        -0.79937
| 30>   Br        8.30731         9.28838        -0.63635
| 31>    C        0.68955         7.33354         0.13132
| 32>    O        0.25846         6.77845        -0.86656
| 33>    C       -0.07435         7.72850         1.32259
| 34>    C       -1.43168         7.59645         1.46666
| 35>    C       -2.31213         6.79079         0.72423
| 36>    S       -4.01668         7.23383         0.72995
| 37>    C       -4.45024         5.86750        -0.25165
| 38>    C       -3.33290         5.08855        -0.51708
| 39>    C       -2.13550         5.60689         0.00978
| 40>    S       -0.72575         4.63370        -0.21142
| 41>    C       -1.53608         3.30503        -1.02302
| 42>    S       -0.75277         1.95677        -1.48249
| 43>    S       -3.24294         3.57098        -1.35363
| 44>    C       -5.76866         5.67662        -0.70056
| 45>    S       -6.22383         4.37449        -1.76681
| 46>    C       -6.87525         6.47402        -0.43092
| 47>    N       -7.02342         7.58715         0.33062
| 48>    C       -8.22576         8.01003         0.29090
| 49>    S       -9.36288         7.09848        -0.69837
| 50>    C       -8.05533         6.03473        -1.09043
| 51>    C       -7.89287         4.90725        -1.87385
| 52>    C       -8.84236         4.25790        -2.69048
| 53>    C       -8.56844         3.15092        -3.42587
| 54>    C       -9.46844         2.51637        -4.30728
| 55>    S      -11.08380         3.09925        -4.63367
| 56>    C      -11.38951         1.83206        -5.79458
| 57>    C      -10.29068         0.99944        -5.90197
| 58>    C       -9.22067         1.38721        -5.06782
| 59>    S       -7.79185         0.40201        -5.11267
| 60>    C       -8.41537        -0.75968        -6.27961
| 61>    S       -7.55030        -2.03933        -6.77855
| 62>    S      -10.04118        -0.43331        -6.86109
| 63>    C      -12.62415         1.76596        -6.49217
| 64>    S      -13.99156         2.76809        -6.05715
| 65>    C      -15.00064         2.14147        -7.29300
| 66>    C      -14.33246         1.19420        -8.02827
| 67>    C      -12.99233         0.98942        -7.56876
| 68>    O      -12.36167         0.07211        -8.32983
| 69>    C      -13.27863        -0.31633        -9.25864
| 70>    N      -12.87150        -1.29195       -10.20947
| 71>    O      -13.70685        -1.62500       -11.02590
| 72>    O      -11.73830        -1.70705       -10.13988
| 73>    C      -14.48352         0.31509        -9.13886
| 74>    H        3.04782         7.20036        -1.45128
| 75>    H        3.40070         9.64221         2.91090
| 76>    H        5.75082         7.87707        -1.75612
| 77>    H       -1.92192         8.20722         2.21472
| 78>    H       -8.56578         8.87710         0.82182
| 79>    H       -9.82935         4.70190        -2.72544
| 80>    H       -7.58344         2.70381        -3.36714
| 81>    H      -16.00205         2.50231        -7.40374
| 82>    H      -15.34027         0.16469        -9.76230
| 83> *
| 84>
| 85>                          ****END OF INPUT****

CARTESIAN COORDINATES (ANGSTROEM)
---------------------------------
  C      0.816140    8.447000    2.217100
  C      0.515170    8.907490    3.472030
  C      1.432120    9.581390    4.306220
  N      2.132620   10.139150    5.024040
  C     -0.730210    8.750280    4.116390
  N     -1.706420    8.645220    4.711520
  C      2.122900    8.519720    1.573620
  C      2.055870    7.838680    0.332410
  C      3.132080    7.726000   -0.513150
  C      4.337600    8.312510   -0.113580
  C      4.396140    8.993990    1.125830
  C      3.305780    9.108550    1.980050
  S      5.977570    9.651030    1.418500
  C      6.531290    9.008900   -0.105010
  C      5.582120    8.336620   -0.799370
  Br     8.307310    9.288380   -0.636350
  C      0.689550    7.333540    0.131320
  O      0.258460    6.778450   -0.866560
  C     -0.074350    7.728500    1.322590
  C     -1.431680    7.596450    1.466660
  C     -2.312130    6.790790    0.724230
  S     -4.016680    7.233830    0.729950
  C     -4.450240    5.867500   -0.251650
  C     -3.332900    5.088550   -0.517080
  C     -2.135500    5.606890    0.009780
  S     -0.725750    4.633700   -0.211420
  C     -1.536080    3.305030   -1.023020
  S     -0.752770    1.956770   -1.482490
  S     -3.242940    3.570980   -1.353630
  C     -5.768660    5.676620   -0.700560
  S     -6.223830    4.374490   -1.766810
  C     -6.875250    6.474020   -0.430920
  N     -7.023420    7.587150    0.330620
  C     -8.225760    8.010030    0.290900
  S     -9.362880    7.098480   -0.698370
  C     -8.055330    6.034730   -1.090430
  C     -7.892870    4.907250   -1.873850
  C     -8.842360    4.257900   -2.690480
  C     -8.568440    3.150920   -3.425870
  C     -9.468440    2.516370   -4.307280
  S    -11.083800    3.099250   -4.633670
  C    -11.389510    1.832060   -5.794580
  C    -10.290680    0.999440   -5.901970
  C     -9.220670    1.387210   -5.067820
  S     -7.791850    0.402010   -5.112670
  C     -8.415370   -0.759680   -6.279610
  S     -7.550300   -2.039330   -6.778550
  S    -10.041180   -0.433310   -6.861090
  C    -12.624150    1.765960   -6.492170
  S    -13.991560    2.768090   -6.057150
  C    -15.000640    2.141470   -7.293000
  C    -14.332460    1.194200   -8.028270
  C    -12.992330    0.989420   -7.568760
  O    -12.361670    0.072110   -8.329830
  C    -13.278630   -0.316330   -9.258640
  N    -12.871500   -1.291950  -10.209470
  O    -13.706850   -1.625000  -11.025900
  O    -11.738300   -1.707050  -10.139880
  C    -14.483520    0.315090   -9.138860
  H      3.047820    7.200360   -1.451280
  H      3.400700    9.642210    2.910900
  H      5.750820    7.877070   -1.756120
  H     -1.921920    8.207220    2.214720
  H     -8.565780    8.877100    0.821820
  H     -9.829350    4.701900   -2.725440
  H     -7.583440    2.703810   -3.367140
  H    -16.002050    2.502310   -7.403740
  H    -15.340270    0.164690   -9.762300

 Total Charge           Charge          ....    0
 Multiplicity           Mult            ....    1
 Number of Electrons    NEL             ....  524
 Basis Dimension        Dim             ....  937

ORBITAL ENERGIES
----------------

  NO   OCC          E(Eh)            E(eV)
   0   2.0000    -482.885130    -13139.9724
   1   2.0000     -88.995758     -2421.6977
   2   2.0000     -88.988002     -2421.4866
   3   2.0000     -88.983916     -2421.3755
   4   2.0000     -88.982201     -2421.3288
   5   2.0000     -88.978587     -2421.2304
   6   2.0000     -88.977608     -2421.2038
   7   2.0000     -88.977494     -2421.2007
   8   2.0000     -88.976844     -2421.1830
   9   2.0000     -88.975185     -2421.1379
  10   2.0000     -88.974462     -2421.1182
  11   2.0000     -88.897454     -2419.0227
  12   2.0000     -88.896261     -2418.9903
  13   2.0000     -62.562825     -1702.4210
  14   2.0000     -56.396777     -1534.6343
  15   2.0000     -56.394060     -1534.5604
  16   2.0000     -56.394028     -1534.5595
  17   2.0000     -19.325918      -525.8850
  18   2.0000     -19.255040      -523.9563
  19   2.0000     -19.252455      -523.8859
  20   2.0000     -19.219982      -523.0023
  21   2.0000     -14.666731      -399.1020
  22   2.0000     -14.438309      -392.8864
  23   2.0000     -14.416335      -392.2884
  24   2.0000     -14.415471      -392.2649
  25   2.0000     -10.402247      -283.0595
  26   2.0000     -10.377685      -282.3912
  27   2.0000     -10.375221      -282.3241
  28   2.0000     -10.367289      -282.1083
  29   2.0000     -10.366067      -282.0750
  30   2.0000     -10.361474      -281.9500
  31   2.0000     -10.358469      -281.8683
  32   2.0000     -10.344858      -281.4979
  33   2.0000     -10.343217      -281.4532
  34   2.0000     -10.342717      -281.4396
  35   2.0000     -10.342170      -281.4248
  36   2.0000     -10.341928      -281.4182
  37   2.0000     -10.336449      -281.2691
  38   2.0000     -10.336355      -281.2665
  39   2.0000     -10.336213      -281.2627
  40   2.0000     -10.332239      -281.1545
  41   2.0000     -10.331974      -281.1473
  42   2.0000     -10.331579      -281.1365
  43   2.0000     -10.331478      -281.1338
  44   2.0000     -10.331058      -281.1224
  45   2.0000     -10.330024      -281.0942
  46   2.0000     -10.327832      -281.0346
  47   2.0000     -10.326570      -281.0003
  48   2.0000     -10.326289      -280.9926
  49   2.0000     -10.325380      -280.9679
  50   2.0000     -10.324903      -280.9549
  51   2.0000     -10.318984      -280.7938
  52   2.0000     -10.318242      -280.7736
  53   2.0000     -10.316047      -280.7139
  54   2.0000     -10.311621      -280.5935
  55   2.0000     -10.310264      -280.5565
  56   2.0000     -10.307721      -280.4873
  57   2.0000     -10.307159      -280.4721
  58   2.0000     -10.305554      -280.4284
  59   2.0000     -10.300716      -280.2967
  60   2.0000     -10.300382      -280.2876
  61   2.0000     -10.296085      -280.1707
  62   2.0000     -10.292381      -280.0699
  63   2.0000      -8.792245      -239.2491
  64   2.0000      -8.090894      -220.1644
  65   2.0000      -8.082539      -219.9371
  66   2.0000      -8.079119      -219.8440
  67   2.0000      -8.078406      -219.8246
  68   2.0000      -8.073359      -219.6873
  69   2.0000      -8.073241      -219.6840
  70   2.0000      -8.072836      -219.6730
  71   2.0000      -8.072339      -219.6595
  72   2.0000      -8.071130      -219.6266
  73   2.0000      -8.069808      -219.5906
  74   2.0000      -7.994764      -217.5486
  75   2.0000      -7.993494      -217.5140
  76   2.0000      -6.628544      -180.3719
  77   2.0000      -6.613976      -179.9754
  78   2.0000      -6.613781      -179.9701
  79   2.0000      -6.060338      -164.9102
  80   2.0000      -6.055810      -164.7870
  81   2.0000      -6.053116      -164.7137
  82   2.0000      -6.051994      -164.6831
  83   2.0000      -6.048613      -164.5911
  84   2.0000      -6.047918      -164.5722
  85   2.0000      -6.047917      -164.5722
  86   2.0000      -6.044631      -164.4828
  87   2.0000      -6.044345      -164.4750
  88   2.0000      -6.043813      -164.4605
  89   2.0000      -6.043313      -164.4469
  90   2.0000      -6.043098      -164.4411
  91   2.0000      -6.042735      -164.4312
  92   2.0000      -6.041972      -164.4104
  93   2.0000      -6.040807      -164.3787
  94   2.0000      -6.040673      -164.3751
  95   2.0000      -6.039816      -164.3517
  96   2.0000      -6.039814      -164.3517
  97   2.0000      -6.038890      -164.3265
  98   2.0000      -6.038415      -164.3136
  99   2.0000      -6.038353      -164.3120
 100   2.0000      -6.037661      -164.2931
 101   2.0000      -6.036548      -164.2628
 102   2.0000      -6.035310      -164.2291
 103   2.0000      -6.034465      -164.2061
 104   2.0000      -6.034061      -164.1952
 105   2.0000      -6.033787      -164.1877
 106   2.0000      -6.033531      -164.1807
 107   2.0000      -6.032383      -164.1495
 108   2.0000      -6.030396      -164.0954
 109   2.0000      -5.964221      -162.2947
 110   2.0000      -5.963005      -162.2616
 111   2.0000      -5.961748      -162.2274
 112   2.0000      -5.960409      -162.1910
 113   2.0000      -5.954600      -162.0329
 114   2.0000      -5.953387      -161.9999
 115   2.0000      -2.744430       -74.6797
 116   2.0000      -2.740333       -74.5682
 117   2.0000      -2.740169       -74.5638
 118   2.0000      -2.728596       -74.2489
 119   2.0000      -2.728586       -74.2486
 120   2.0000      -1.339291       -36.4440
 121   2.0000      -1.247017       -33.9331
 122   2.0000      -1.156334       -31.4655
 123   2.0000      -1.134765       -30.8785
 124   2.0000      -1.093469       -29.7548
 125   2.0000      -1.036794       -28.2126
 126   2.0000      -1.034592       -28.1527
 127   2.0000      -1.023020       -27.8378
 128   2.0000      -1.014454       -27.6047
 129   2.0000      -1.013522       -27.5793
 130   2.0000      -1.002431       -27.2775
 131   2.0000      -0.994703       -27.0672
 132   2.0000      -0.990561       -26.9545
 133   2.0000      -0.974826       -26.5264
 134   2.0000      -0.972834       -26.4721
 135   2.0000      -0.951136       -25.8817
 136   2.0000      -0.945268       -25.7221
 137   2.0000      -0.936339       -25.4791
 138   2.0000      -0.924716       -25.1628
 139   2.0000      -0.910107       -24.7653
 140   2.0000      -0.908857       -24.7313
 141   2.0000      -0.904684       -24.6177
 142   2.0000      -0.894674       -24.3453
 143   2.0000      -0.889488       -24.2042
 144   2.0000      -0.885613       -24.0987
 145   2.0000      -0.875582       -23.8258
 146   2.0000      -0.873894       -23.7799
 147   2.0000      -0.864483       -23.5238
 148   2.0000      -0.861003       -23.4291
 149   2.0000      -0.845441       -23.0056
 150   2.0000      -0.844901       -22.9909
 151   2.0000      -0.829227       -22.5644
 152   2.0000      -0.819295       -22.2941
 153   2.0000      -0.805212       -21.9109
 154   2.0000      -0.794909       -21.6306
 155   2.0000      -0.793343       -21.5879
 156   2.0000      -0.787898       -21.4398
 157   2.0000      -0.770161       -20.9571
 158   2.0000      -0.760318       -20.6893
 159   2.0000      -0.744898       -20.2697
 160   2.0000      -0.728012       -19.8102
 161   2.0000      -0.726046       -19.7567
 162   2.0000      -0.716152       -19.4875
 163   2.0000      -0.703439       -19.1415
 164   2.0000      -0.692719       -18.8498
 165   2.0000      -0.687618       -18.7110
 166   2.0000      -0.678868       -18.4729
 167   2.0000      -0.675142       -18.3715
 168   2.0000      -0.662626       -18.0310
 169   2.0000      -0.658601       -17.9215
 170   2.0000      -0.652491       -17.7552
 171   2.0000      -0.651572       -17.7302
 172   2.0000      -0.646866       -17.6021
 173   2.0000      -0.638804       -17.3828
 174   2.0000      -0.636759       -17.3271
 175   2.0000      -0.635189       -17.2844
 176   2.0000      -0.633123       -17.2282
 177   2.0000      -0.627047       -17.0628
 178   2.0000      -0.619411       -16.8550
 179   2.0000      -0.611838       -16.6490
 180   2.0000      -0.600407       -16.3379
 181   2.0000      -0.597910       -16.2700
 182   2.0000      -0.595184       -16.1958
 183   2.0000      -0.584252       -15.8983
 184   2.0000      -0.581687       -15.8285
 185   2.0000      -0.577489       -15.7143
 186   2.0000      -0.569936       -15.5087
 187   2.0000      -0.566337       -15.4108
 188   2.0000      -0.555704       -15.1215
 189   2.0000      -0.552938       -15.0462
 190   2.0000      -0.552224       -15.0268
 191   2.0000      -0.550073       -14.9683
 192   2.0000      -0.543514       -14.7898
 193   2.0000      -0.542324       -14.7574
 194   2.0000      -0.539605       -14.6834
 195   2.0000      -0.536111       -14.5883
 196   2.0000      -0.534233       -14.5372
 197   2.0000      -0.528328       -14.3765
 198   2.0000      -0.526587       -14.3292
 199   2.0000      -0.523808       -14.2535
 200   2.0000      -0.521452       -14.1894
 201   2.0000      -0.516653       -14.0588
 202   2.0000      -0.511641       -13.9225
 203   2.0000      -0.508636       -13.8407
 204   2.0000      -0.504445       -13.7267
 205   2.0000      -0.498035       -13.5522
 206   2.0000      -0.493885       -13.4393
 207   2.0000      -0.491123       -13.3641
 208   2.0000      -0.488310       -13.2876
 209   2.0000      -0.481709       -13.1080
 210   2.0000      -0.479580       -13.0500
 211   2.0000      -0.475563       -12.9407
 212   2.0000      -0.473755       -12.8915
 213   2.0000      -0.471487       -12.8298
 214   2.0000      -0.466684       -12.6991
 215   2.0000      -0.463094       -12.6014
 216   2.0000      -0.460020       -12.5178
 217   2.0000      -0.458036       -12.4638
 218   2.0000      -0.456924       -12.4335
 219   2.0000      -0.456097       -12.4110
 220   2.0000      -0.453631       -12.3439
 221   2.0000      -0.452450       -12.3118
 222   2.0000      -0.449097       -12.2206
 223   2.0000      -0.444540       -12.0965
 224   2.0000      -0.441275       -12.0077
 225   2.0000      -0.438878       -11.9425
 226   2.0000      -0.438116       -11.9217
 227   2.0000      -0.431626       -11.7451
 228   2.0000      -0.429146       -11.6777
 229   2.0000      -0.427458       -11.6317
 230   2.0000      -0.426468       -11.6048
 231   2.0000      -0.423639       -11.5278
 232   2.0000      -0.421599       -11.4723
 233   2.0000      -0.415945       -11.3184
 234   2.0000      -0.410746       -11.1770
 235   2.0000      -0.407579       -11.0908
 236   2.0000      -0.399931       -10.8827
 237   2.0000      -0.398847       -10.8532
 238   2.0000      -0.390135       -10.6161
 239   2.0000      -0.389438       -10.5971
 240   2.0000      -0.387649       -10.5485
 241   2.0000      -0.382644       -10.4123
 242   2.0000      -0.376705       -10.2507
 243   2.0000      -0.374528       -10.1914
 244   2.0000      -0.372596       -10.1388
 245   2.0000      -0.370243       -10.0748
 246   2.0000      -0.368673       -10.0321
 247   2.0000      -0.366424        -9.9709
 248   2.0000      -0.351361        -9.5610
 249   2.0000      -0.347114        -9.4455
 250   2.0000      -0.337780        -9.1915
 251   2.0000      -0.334887        -9.1127
 252   2.0000      -0.331605        -9.0234
 253   2.0000      -0.316511        -8.6127
 254   2.0000      -0.314632        -8.5616
 255   2.0000      -0.294043        -8.0013
 256   2.0000      -0.293817        -7.9952
 257   2.0000      -0.292579        -7.9615
 258   2.0000      -0.286309        -7.7909
 259   2.0000      -0.280353        -7.6288
 260   2.0000      -0.277494        -7.5510
 261   2.0000      -0.243474        -6.6253
 262   0.0000      -0.107950        -2.9375
 263   0.0000      -0.082196        -2.2367
 264   0.0000      -0.072364        -1.9691
 265   0.0000      -0.060388        -1.6432
 266   0.0000      -0.039496        -1.0748

MULLIKEN ATOMIC CHARGES
-----------------------
   0 C :    0.304793
   1 C :   -0.344345
   2 C :   -0.183447
   3 N :    0.150965
   4 C :   -0.201166
   5 N :    0.159528
   6 C :    0.013162
   7 C :   -0.009901
   8 C :   -0.069840
   9 C :    0.116662
  10 C :   -0.093233
  11 C :   -0.019119
  12 S :    0.187154
  13 C :   -0.122877
  14 C :    0.040616
  15 Br:    0.024359
  16 C :    0.131179
  17 O :   -0.174906
  18 C :   -0.084255
  19 C :    0.012706
  20 C :   -0.162006
  21 S :    0.212642
  22 C :   -0.103121
  23 C :   -0.068550
  24 C :    0.039770
  25 S :    0.259265
  26 C :   -0.161034
  27 S :   -0.103827
  28 S :    0.182373
  29 C :   -0.145368
  30 S :    0.136910
  31 C :    0.063660
  32 N :   -0.055160
  33 C :    0.025822
  34 S :    0.105588
  35 C :   -0.000683
  36 C :   -0.149098
  37 C :    0.002088
  38 C :   -0.017095
  39 C :   -0.104147
  40 S :    0.135868
  41 C :   -0.113158
  42 C :   -0.028753
  43 C :   -0.014779
  44 S :    0.187784
  45 C :   -0.161353
  46 S :   -0.090482
  47 S :    0.226544
  48 C :   -0.201991
  49 S :    0.168872
  50 C :   -0.134203
  51 C :    0.123489
  52 C :    0.188572
  53 O :   -0.197699
  54 C :    0.252825
  55 N :    0.269899
  56 O :   -0.243354
  57 O :   -0.217208
  58 C :   -0.071058
  59 H :   -0.010120
  60 H :   -0.006443
  61 H :   -0.003090
  62 H :    0.025255
  63 H :    0.054551
  64 H :   -0.003703
  65 H :    0.009683
  66 H :    0.039347
  67 H :    0.018642
Sum of atomic charges:   -0.0000000

LOEWDIN ATOMIC CHARGES
----------------------
   0 C :    0.076359
   1 C :   -0.139054
   2 C :   -0.017936
   3 N :   -0.052281
   4 C :   -0.024202
   5 N :   -0.049634
   6 C :   -0.022097
   7 C :   -0.048161
   8 C :    0.021399
   9 C :   -0.032077
  10 C :   -0.145146
  11 C :   -0.008774
  12 S :    0.433137
  13 C :   -0.271579
  14 C :   -0.069793
  15 Br:    0.137684
  16 C :    0.066411
  17 O :   -0.167118
  18 C :   -0.101655
  19 C :    0.038133
  20 C :   -0.196598
  21 S :    0.487964
  22 C :   -0.176895
  23 C :   -0.225402
  24 C :   -0.177667
  25 S :    0.492608
  26 C :   -0.448095
  27 S :   -0.005344
  28 S :    0.398177
  29 C :   -0.197943
  30 S :    0.457832
  31 C :   -0.063762
  32 N :   -0.089575
  33 C :   -0.079316
  34 S :    0.384017
  35 C :   -0.204935
  36 C :   -0.177132
  37 C :   -0.047286
  38 C :   -0.038313
  39 C :   -0.189839
  40 S :    0.432056
  41 C :   -0.200364
  42 C :   -0.213603
  43 C :   -0.207018
  44 S :    0.404583
  45 C :   -0.442702
  46 S :    0.006983
  47 S :    0.432806
  48 C :   -0.223869
  49 S :    0.480632
  50 C :   -0.179054
  51 C :   -0.078930
  52 C :    0.018376
  53 O :   -0.003948
  54 C :    0.033513
  55 N :    0.270586
  56 O :   -0.204135
  57 O :   -0.180531
  58 C :   -0.007256
  59 H :    0.041399
  60 H :    0.041034
  61 H :    0.039142
  62 H :    0.045758
  63 H :    0.025872
  64 H :    0.030740
  65 H :    0.029143
  66 H :    0.032719
  67 H :    0.049957

  Mayer bond orders larger than 0.100000
B(  0-C ,  1-C ) :   1.6395 B(  0-C ,  6-C ) :   1.0042 B(  0-C , 18-C ) :   1.0698
B(  1-C ,  2-C ) :   1.1406 B(  1-C ,  4-C ) :   1.1408 B(  2-C ,  3-N ) :   2.9714
B(  4-C ,  5-N ) :   2.9862 B(  6-C ,  7-C ) :   1.2728 B(  6-C , 11-C ) :   1.4118
B(  7-C ,  8-C ) :   1.4273 B(  7-C , 16-C ) :   0.9436 B(  8-C ,  9-C ) :   1.2408
B(  8-C , 59-H ) :   1.0165 B(  9-C , 10-C ) :   1.3090 B(  9-C , 14-C ) :   1.1649
B( 10-C , 11-C ) :   1.3281 B( 10-C , 12-S ) :   1.0861 B( 11-C , 60-H ) :   0.9795
B( 12-S , 13-C ) :   1.0880 B( 13-C , 14-C ) :   1.6158 B( 13-C , 15-Br) :   1.0192
B( 14-C , 61-H ) :   1.0000 B( 16-C , 17-O ) :   2.1374 B( 16-C , 18-C ) :   0.9869
B( 18-C , 19-C ) :   1.5449 B( 19-C , 20-C ) :   1.2374 B( 19-C , 62-H ) :   0.9268
B( 20-C , 21-S ) :   1.0659 B( 20-C , 24-C ) :   1.4675 B( 21-S , 22-C ) :   1.1552
B( 22-C , 23-C ) :   1.4865 B( 22-C , 29-C ) :   1.2384 B( 23-C , 24-C ) :   1.2987
B( 23-C , 28-S ) :   1.0100 B( 24-C , 25-S ) :   1.0546 B( 25-S , 26-C ) :   1.0747
B( 25-S , 27-S ) :   0.1249 B( 26-C , 27-S ) :   1.7011 B( 26-C , 28-S ) :   1.0491
B( 27-S , 28-S ) :   0.1251 B( 29-C , 30-S ) :   1.1158 B( 29-C , 31-C ) :   1.4091
B( 29-C , 36-C ) :   0.1104 B( 30-S , 36-C ) :   1.1111 B( 31-C , 32-N ) :   1.2998
B( 31-C , 35-C ) :   1.2549 B( 32-N , 33-C ) :   1.7749 B( 32-N , 34-S ) :   0.1062
B( 33-C , 34-S ) :   1.0967 B( 33-C , 63-H ) :   0.9628 B( 34-S , 35-C ) :   1.0424
B( 35-C , 36-C ) :   1.4836 B( 36-C , 37-C ) :   1.1985 B( 37-C , 38-C ) :   1.6213
B( 37-C , 64-H ) :   0.9738 B( 38-C , 39-C ) :   1.1912 B( 38-C , 65-H ) :   0.9663
B( 39-C , 40-S ) :   1.0838 B( 39-C , 41-C ) :   0.1148 B( 39-C , 43-C ) :   1.5483
B( 40-S , 41-C ) :   1.1153 B( 41-C , 42-C ) :   1.6134 B( 41-C , 48-C ) :   1.1250
B( 42-C , 43-C ) :   1.2522 B( 42-C , 47-S ) :   1.0040 B( 43-C , 44-S ) :   1.0086
B( 44-S , 45-C ) :   1.0498 B( 44-S , 46-S ) :   0.1279 B( 45-C , 46-S ) :   1.7228
B( 45-C , 47-S ) :   1.0587 B( 46-S , 47-S ) :   0.1324 B( 48-C , 49-S ) :   1.1356
B( 48-C , 50-C ) :   0.1244 B( 48-C , 52-C ) :   1.5009 B( 49-S , 50-C ) :   1.1848
B( 50-C , 51-C ) :   1.4471 B( 50-C , 66-H ) :   0.9749 B( 51-C , 52-C ) :   1.2213
B( 51-C , 58-C ) :   1.0530 B( 52-C , 53-O ) :   1.1088 B( 53-O , 54-C ) :   1.1031
B( 54-C , 55-N ) :   0.9064 B( 54-C , 58-C ) :   1.6009 B( 55-N , 56-O ) :   1.5366
B( 55-N , 57-O ) :   1.5233 B( 56-O , 57-O ) :   0.2848 B( 58-C , 67-H ) :   1.0249

-----------------------------------------------------------------------------
         ABSORPTION SPECTRUM VIA TRANSITION ELECTRIC DIPOLE MOMENTS
-----------------------------------------------------------------------------
State   Energy  Wavelength   fosc         T2         TX        TY        TZ
        (cm-1)    (nm)                  (au**2)     (au)      (au)      (au)
-----------------------------------------------------------------------------
   0   15303.5    653.4   1.849029893  39.77658  -5.12803  -2.25189  -2.89981
   1   21647.9    461.9   0.052497713   0.79836  -0.47046   0.67320  -0.35190
   2   21832.8    458.0   0.231835786   3.49579  -0.63936  -1.44346  -1.00171
   3   23226.2    430.5   0.009636201   0.13658   0.01696   0.31108   0.19881
   4   23658.1    422.7   0.032806671   0.45652   0.11507  -0.50778  -0.43062
   5   24140.9    414.2   0.033272684   0.45374  -0.29442  -0.58516  -0.15698
   6   25291.6    395.4   0.131917184   1.71712   0.14411  -0.96659  -0.87296
   7   25489.0    392.3   0.123394256   1.59374  -1.16451   0.31566  -0.37151
   8   26447.5    378.1   0.000115689   0.00144  -0.02470   0.01633   0.02373
   9   26734.0    374.1   0.361897955   4.45654   1.66617  -0.39289  -1.23534
  10   27899.5    358.4   0.031481073   0.37147   0.14758   0.47039   0.35837
  11   28565.8    350.1   0.013516123   0.15577  -0.35495   0.03518  -0.16894
  12   28761.0    347.7   0.089231294   1.02138  -0.61340  -0.75478  -0.27464
  13   29195.6    342.5   0.023672375   0.26693  -0.24426  -0.39243  -0.23080
  14   29632.6    337.5   0.002613936   0.02904  -0.03386  -0.15859  -0.05238
  15   30156.0    331.6   0.001549898   0.01692   0.09969  -0.05163  -0.06570
  16   30189.7    331.2   0.000446690   0.00487   0.06905  -0.00506   0.00877
  17   30537.9    327.5   0.129230348   1.39316  -1.14914  -0.19767  -0.18318
  18   31048.4    322.1   0.044120614   0.46782  -0.45651  -0.50695   0.04919
  19   31496.8    317.5   0.076914328   0.80393  -0.33467  -0.72685  -0.40448
  20   32049.7    312.0   0.342324839   3.51633  -1.06645   0.15703   1.53439
  21   32397.8    308.7   0.179725982   1.82629   1.14436  -0.34772  -0.62915
  22   32519.0    307.5   0.002760817   0.02795  -0.15906  -0.04222   0.02946
  23   32560.2    307.1   0.082126909   0.83037  -0.78558  -0.46145  -0.01735
  24   32846.3    304.4   0.020154095   0.20200   0.04857   0.44680   0.00306
  25   33133.6    301.8   0.072972996   0.72505   0.33887  -0.68533  -0.37489
  26   33533.4    298.2   0.173030663   1.69872   0.28013  -1.14789  -0.55008
  27   33967.2    294.4   0.018354021   0.17789   0.33774   0.17490   0.18230
  28   34264.3    291.8   0.009693408   0.09313  -0.20921  -0.21825  -0.04159
  29   34350.4    291.1   0.111095893   1.06474   0.82023  -0.58678  -0.21828
  30   34997.1    285.7   0.016048509   0.15097   0.00593  -0.12958  -0.36625
  31   35818.5    279.2   0.019808921   0.18207   0.33710  -0.26043   0.02464
  32   36236.9    276.0   0.051071686   0.46399   0.62594  -0.18675  -0.19317
  33   36245.5    275.9   0.149071462   1.35399  -0.71957   0.69502   0.59427
  34   36517.3    273.8   0.196763537   1.77387   0.66085  -1.00054  -0.57971
  35   36621.8    273.1   0.003547051   0.03189  -0.01748   0.17614  -0.02358
  36   36862.9    271.3   0.150116132   1.34064  -0.41150   1.07807   0.09522
  37   36913.7    270.9   0.000348584   0.00311  -0.03358   0.04042   0.01865
  38   37345.4    267.8   0.120309541   1.06057   0.88167  -0.26487   0.46159
  39   37709.1    265.2   0.025686901   0.22425  -0.03063   0.10127   0.46158
  40   38161.2    262.0   0.178399380   1.53903  -0.54035  -0.68619  -0.88102
  41   38682.7    258.5   0.032777281   0.27895   0.49499   0.16733   0.07705
  42   38869.3    257.3   0.146466988   1.24053  -0.09395   0.65553   0.89554
  43   39175.5    255.3   0.288553119   2.42486   0.20070  -1.09264  -1.09120
  44   39346.8    254.2   0.242572642   2.02959   0.72152  -1.01769  -0.68797
  45   39528.9    253.0   0.117637149   0.97973   0.70602  -0.62755  -0.29572
  46   39570.3    252.7   0.018474305   0.15370  -0.21840   0.26942   0.18280
  47   39614.2    252.4   0.004598602   0.03822  -0.16409  -0.07564  -0.07463
  48   39739.6    251.6   0.021814531   0.18072  -0.34082   0.25076   0.04095
  49   39957.6    250.3   0.137608146   1.13376  -0.16011   0.92612   0.50043
  50   40265.1    248.4   0.076653838   0.62673   0.20857  -0.16046  -0.74665

FINAL SINGLE POINT ENERGY     -9321.540385769498

DIPOLE MOMENT
-------------
                                X             Y             Z
Electronic contribution:    121.39002      35.31372      14.32825
Nuclear contribution   :   -124.65024     -33.33222     -15.37193
                        -----------------------------------------
Total Dipole Moment    :     -3.26022       1.98151      -1.04368
                        -----------------------------------------
Magnitude (a.u.)       :      3.95533
Magnitude (Debye)      :     10.05366

Rotational constants in cm-1:     0.001866     0.000241     0.000222
Rotational constants in MHz :    55.954805     7.222208     6.648367

                             ****ORCA TERMINATED NORMALLY****
TOTAL RUN TIME: 0 days 0 hours 8 minutes 20 seconds 310 msec
