                         Program Version 4.2.0 -  RELEASE  -
|  1> # ORCA input file
|  2> # SCF done       -176.786333583724          0.000931793625
|  3> ! CAM-B3LYP def2-SVP def2/J RIJCOSX Grid4 TightSCF
|  4> %maxcore 5000
|  5> %tddft
|  6>     Mode sTDDFT
|  7>     Ethresh 5.0
|  8>     maxcore 5000
|  9> end
| 10>
| 11> %pal
| 12>   nprocs 6
| 13>   end
| 14> * xyz 0 1
| 15>    C       -6.67729         1.94161        -7.02148
| 16>    C       -6.10396         0.93731        -6.26821
| 17>    C       -4.90776         0.28172        -6.59288
| 18>    N       -3.95085        -0.32249        -6.80340
| 19>    C       -6.60283         0.45452        -5.04116
| 20>    N       -6.90551         0.04519        -4.01069
| 21>    C       -6.06139         2.57886        -8.18361
| 22>    C       -6.89493         3.64168        -8.60908
| 23>    C       -6.57703         4.44895        -9.67171
| 24>    C       -5.38011         4.19251       -10.35221
| 25>    C       -4.55717         3.12759        -9.92185
| 26>    C       -4.87714         2.31295        -8.84120
| 27>    S       -3.12921         2.98583       -10.90403
| 28>    C       -3.65305         4.34167       -11.86662
| 29>    C       -4.83369         4.87458       -11.47419
| 30>   Br       -2.59121         4.92603       -13.29944
| 31>    C       -8.09596         3.69279        -7.74199
| 32>    O       -9.01429         4.48536        -7.83010
| 33>    C       -7.93798         2.58366        -6.78778
| 34>    C       -8.90516         2.16556        -5.88868
| 35>    C      -10.12756         2.77425        -5.65710
| 36>    C      -11.06028         2.22097        -4.78793
| 37>    C      -12.32258         2.72773        -4.42669
| 38>    C      -13.01346         1.93284        -3.54714
| 39>    C      -12.32396         0.76407        -3.19012
| 40>    S      -10.77024         0.69911        -3.98109
| 41>    C      -12.70505        -0.28386        -2.35347
| 42>    C      -13.87162        -0.45243        -1.58894
| 43>    C      -13.89066        -1.62426        -0.87968
| 44>    C      -12.74954        -2.43170        -1.06789
| 45>    S      -11.64198        -1.64900        -2.16920
| 46>    C      -12.49966        -3.64656        -0.45038
| 47>    C      -11.40728        -4.48005        -0.65688
| 48>    S      -11.14027        -5.88671         0.38908
| 49>    C       -9.65771        -6.40074        -0.40878
| 50>    C       -9.43225        -5.49333        -1.44306
| 51>    C      -10.36097        -4.47402        -1.58194
| 52>    O      -10.01179        -3.74067        -2.67902
| 53>    C       -8.88502        -4.30252        -3.19667
| 54>    O       -8.32187        -3.92793        -4.16776
| 55>    O       -8.50920        -5.37264        -2.44253
| 56>    C       -8.90045        -7.50626        -0.02980
| 57>    C       -7.70072        -7.79539        -0.64967
| 58>    C       -6.88138        -8.87534        -0.36366
| 59>    C       -5.66117        -9.07452        -0.99518
| 60>    C       -4.76377       -10.14466        -0.82049
| 61>    C       -3.63027       -10.05483        -1.58350
| 62>    C       -3.58026        -8.90127        -2.38649
| 63>    S       -5.02008        -7.93847        -2.16137
| 64>    C       -2.57054        -8.49056        -3.24762
| 65>    C       -1.36579        -9.15662        -3.55488
| 66>    C       -0.57290        -8.47820        -4.43171
| 67>    C       -1.10750        -7.23688        -4.85739
| 68>    S       -2.67139        -6.97334        -4.10758
| 69>    C       -0.49987        -6.35580        -5.71560
| 70>    C       -0.97045        -5.10568        -6.14400
| 71>    S       -2.49434        -4.35484        -5.67385
| 72>    C       -2.23157        -2.94180        -6.59982
| 73>    C       -1.02384        -3.00917        -7.26052
| 74>    C       -0.32548        -4.22478        -7.00097
| 75>    O        0.84838        -4.25789        -7.65863
| 76>    C        0.91050        -3.07588        -8.33717
| 77>    N        2.06069        -2.83699        -9.12687
| 78>    O        2.09850        -1.77726        -9.72232
| 79>    O        2.91990        -3.69163        -9.15123
| 80>    C       -0.18323        -2.27636        -8.14219
| 81>    H       -7.22901         5.25416        -9.97213
| 82>    H       -4.21676         1.51337        -8.54926
| 83>    H       -5.30234         5.71378       -11.95496
| 84>    H       -8.70144         1.26155        -5.32640
| 85>    H      -10.37235         3.69626        -6.16351
| 86>    H      -12.68912         3.65911        -4.82008
| 87>    H      -13.99162         2.16227        -3.16365
| 88>    H      -14.65848         0.27989        -1.57029
| 89>    H      -14.69528        -1.92883        -0.23390
| 90>    H      -13.21655        -3.97580         0.28972
| 91>    H       -9.26938        -8.12624         0.77371
| 92>    H       -7.36470        -7.11905        -1.42511
| 93>    H       -7.18828        -9.60072         0.37769
| 94>    H       -4.97443       -10.95260        -0.14225
| 95>    H       -2.83960       -10.78327        -1.57688
| 96>    H       -1.11687       -10.11099        -3.12751
| 97>    H        0.38199        -8.82540        -4.78423
| 98>    H        0.46636        -6.63975        -6.11364
| 99>    H       -2.95214        -2.14476        -6.60336
|100>    H       -0.34739        -1.31023        -8.57208
|101> *
|102>
|103>                          ****END OF INPUT****

CARTESIAN COORDINATES (ANGSTROEM)
---------------------------------
  C     -6.677290    1.941610   -7.021480
  C     -6.103960    0.937310   -6.268210
  C     -4.907760    0.281720   -6.592880
  N     -3.950850   -0.322490   -6.803400
  C     -6.602830    0.454520   -5.041160
  N     -6.905510    0.045190   -4.010690
  C     -6.061390    2.578860   -8.183610
  C     -6.894930    3.641680   -8.609080
  C     -6.577030    4.448950   -9.671710
  C     -5.380110    4.192510  -10.352210
  C     -4.557170    3.127590   -9.921850
  C     -4.877140    2.312950   -8.841200
  S     -3.129210    2.985830  -10.904030
  C     -3.653050    4.341670  -11.866620
  C     -4.833690    4.874580  -11.474190
  Br    -2.591210    4.926030  -13.299440
  C     -8.095960    3.692790   -7.741990
  O     -9.014290    4.485360   -7.830100
  C     -7.937980    2.583660   -6.787780
  C     -8.905160    2.165560   -5.888680
  C    -10.127560    2.774250   -5.657100
  C    -11.060280    2.220970   -4.787930
  C    -12.322580    2.727730   -4.426690
  C    -13.013460    1.932840   -3.547140
  C    -12.323960    0.764070   -3.190120
  S    -10.770240    0.699110   -3.981090
  C    -12.705050   -0.283860   -2.353470
  C    -13.871620   -0.452430   -1.588940
  C    -13.890660   -1.624260   -0.879680
  C    -12.749540   -2.431700   -1.067890
  S    -11.641980   -1.649000   -2.169200
  C    -12.499660   -3.646560   -0.450380
  C    -11.407280   -4.480050   -0.656880
  S    -11.140270   -5.886710    0.389080
  C     -9.657710   -6.400740   -0.408780
  C     -9.432250   -5.493330   -1.443060
  C    -10.360970   -4.474020   -1.581940
  O    -10.011790   -3.740670   -2.679020
  C     -8.885020   -4.302520   -3.196670
  O     -8.321870   -3.927930   -4.167760
  O     -8.509200   -5.372640   -2.442530
  C     -8.900450   -7.506260   -0.029800
  C     -7.700720   -7.795390   -0.649670
  C     -6.881380   -8.875340   -0.363660
  C     -5.661170   -9.074520   -0.995180
  C     -4.763770  -10.144660   -0.820490
  C     -3.630270  -10.054830   -1.583500
  C     -3.580260   -8.901270   -2.386490
  S     -5.020080   -7.938470   -2.161370
  C     -2.570540   -8.490560   -3.247620
  C     -1.365790   -9.156620   -3.554880
  C     -0.572900   -8.478200   -4.431710
  C     -1.107500   -7.236880   -4.857390
  S     -2.671390   -6.973340   -4.107580
  C     -0.499870   -6.355800   -5.715600
  C     -0.970450   -5.105680   -6.144000
  S     -2.494340   -4.354840   -5.673850
  C     -2.231570   -2.941800   -6.599820
  C     -1.023840   -3.009170   -7.260520
  C     -0.325480   -4.224780   -7.000970
  O      0.848380   -4.257890   -7.658630
  C      0.910500   -3.075880   -8.337170
  N      2.060690   -2.836990   -9.126870
  O      2.098500   -1.777260   -9.722320
  O      2.919900   -3.691630   -9.151230
  C     -0.183230   -2.276360   -8.142190
  H     -7.229010    5.254160   -9.972130
  H     -4.216760    1.513370   -8.549260
  H     -5.302340    5.713780  -11.954960
  H     -8.701440    1.261550   -5.326400
  H    -10.372350    3.696260   -6.163510
  H    -12.689120    3.659110   -4.820080
  H    -13.991620    2.162270   -3.163650
  H    -14.658480    0.279890   -1.570290
  H    -14.695280   -1.928830   -0.233900
  H    -13.216550   -3.975800    0.289720
  H     -9.269380   -8.126240    0.773710
  H     -7.364700   -7.119050   -1.425110
  H     -7.188280   -9.600720    0.377690
  H     -4.974430  -10.952600   -0.142250
  H     -2.839600  -10.783270   -1.576880
  H     -1.116870  -10.110990   -3.127510
  H      0.381990   -8.825400   -4.784230
  H      0.466360   -6.639750   -6.113640
  H     -2.952140   -2.144760   -6.603360
  H     -0.347390   -1.310230   -8.572080

 Total Charge           Charge          ....    0
 Multiplicity           Mult            ....    1
 Number of Electrons    NEL             ....  532
 Basis Dimension        Dim             .... 1070

ORBITAL ENERGIES
----------------

  NO   OCC          E(Eh)            E(eV)
   0   2.0000    -482.872686    -13139.6338
   1   2.0000     -88.975876     -2421.1567
   2   2.0000     -88.974131     -2421.1092
   3   2.0000     -88.960310     -2420.7331
   4   2.0000     -88.959244     -2420.7041
   5   2.0000     -88.957330     -2420.6520
   6   2.0000     -88.954404     -2420.5724
   7   2.0000     -88.948956     -2420.4241
   8   2.0000     -62.550400     -1702.0829
   9   2.0000     -56.384338     -1534.2958
  10   2.0000     -56.381648     -1534.2227
  11   2.0000     -56.381607     -1534.2215
  12   2.0000     -19.314590      -525.5767
  13   2.0000     -19.312139      -525.5100
  14   2.0000     -19.309313      -525.4331
  15   2.0000     -19.239226      -523.5260
  16   2.0000     -19.237074      -523.4674
  17   2.0000     -19.220622      -523.0197
  18   2.0000     -19.189508      -522.1731
  19   2.0000     -14.651181      -398.6789
  20   2.0000     -14.401777      -391.8923
  21   2.0000     -14.389199      -391.5500
  22   2.0000     -10.466522      -284.8085
  23   2.0000     -10.382302      -282.5168
  24   2.0000     -10.366073      -282.0752
  25   2.0000     -10.354184      -281.7517
  26   2.0000     -10.349559      -281.6258
  27   2.0000     -10.343284      -281.4551
  28   2.0000     -10.339708      -281.3578
  29   2.0000     -10.336575      -281.2725
  30   2.0000     -10.331163      -281.1252
  31   2.0000     -10.328916      -281.0641
  32   2.0000     -10.328906      -281.0638
  33   2.0000     -10.320707      -280.8407
  34   2.0000     -10.319169      -280.7989
  35   2.0000     -10.317683      -280.7584
  36   2.0000     -10.316005      -280.7128
  37   2.0000     -10.315953      -280.7114
  38   2.0000     -10.315924      -280.7106
  39   2.0000     -10.315886      -280.7095
  40   2.0000     -10.315496      -280.6989
  41   2.0000     -10.311082      -280.5788
  42   2.0000     -10.310559      -280.5646
  43   2.0000     -10.309877      -280.5460
  44   2.0000     -10.309076      -280.5242
  45   2.0000     -10.308337      -280.5041
  46   2.0000     -10.307642      -280.4852
  47   2.0000     -10.307417      -280.4791
  48   2.0000     -10.302787      -280.3531
  49   2.0000     -10.300126      -280.2807
  50   2.0000     -10.300024      -280.2779
  51   2.0000     -10.296236      -280.1748
  52   2.0000     -10.294778      -280.1352
  53   2.0000     -10.294700      -280.1330
  54   2.0000     -10.294158      -280.1183
  55   2.0000     -10.292682      -280.0781
  56   2.0000     -10.292537      -280.0742
  57   2.0000     -10.290097      -280.0078
  58   2.0000     -10.289345      -279.9873
  59   2.0000     -10.289019      -279.9784
  60   2.0000     -10.287252      -279.9304
  61   2.0000     -10.286708      -279.9155
  62   2.0000     -10.284981      -279.8686
  63   2.0000     -10.281884      -279.7843
  64   2.0000     -10.281548      -279.7751
  65   2.0000     -10.281135      -279.7639
  66   2.0000     -10.280424      -279.7445
  67   2.0000     -10.270617      -279.4777
  68   2.0000     -10.261691      -279.2348
  69   2.0000     -10.261499      -279.2296
  70   2.0000      -8.779827      -238.9112
  71   2.0000      -8.070852      -219.6190
  72   2.0000      -8.068783      -219.5627
  73   2.0000      -8.056295      -219.2229
  74   2.0000      -8.055404      -219.1987
  75   2.0000      -8.053568      -219.1487
  76   2.0000      -8.050690      -219.0704
  77   2.0000      -8.045096      -218.9182
  78   2.0000      -6.616079      -180.0327
  79   2.0000      -6.601562      -179.6376
  80   2.0000      -6.601419      -179.6337
  81   2.0000      -6.040566      -164.3721
  82   2.0000      -6.038097      -164.3050
  83   2.0000      -6.036778      -164.2691
  84   2.0000      -6.033577      -164.1820
  85   2.0000      -6.031775      -164.1329
  86   2.0000      -6.031304      -164.1201
  87   2.0000      -6.026000      -163.9758
  88   2.0000      -6.025116      -163.9518
  89   2.0000      -6.023165      -163.8986
  90   2.0000      -6.021738      -163.8598
  91   2.0000      -6.020979      -163.8392
  92   2.0000      -6.020297      -163.8206
  93   2.0000      -6.018908      -163.7828
  94   2.0000      -6.017508      -163.7447
  95   2.0000      -6.016406      -163.7147
  96   2.0000      -6.016288      -163.7115
  97   2.0000      -6.014749      -163.6697
  98   2.0000      -6.014581      -163.6651
  99   2.0000      -6.011800      -163.5894
 100   2.0000      -6.010558      -163.5556
 101   2.0000      -6.006451      -163.4438
 102   2.0000      -2.731921       -74.3393
 103   2.0000      -2.727888       -74.2296
 104   2.0000      -2.727791       -74.2270
 105   2.0000      -2.716239       -73.9126
 106   2.0000      -2.716232       -73.9124
 107   2.0000      -1.322617       -35.9902
 108   2.0000      -1.290362       -35.1125
 109   2.0000      -1.228693       -33.4344
 110   2.0000      -1.174100       -31.9489
 111   2.0000      -1.144591       -31.1459
 112   2.0000      -1.138915       -30.9915
 113   2.0000      -1.102411       -29.9981
 114   2.0000      -1.009883       -27.4803
 115   2.0000      -1.007979       -27.4285
 116   2.0000      -1.004039       -27.3213
 117   2.0000      -1.002411       -27.2770
 118   2.0000      -0.996127       -27.1060
 119   2.0000      -0.995219       -27.0813
 120   2.0000      -0.982671       -26.7398
 121   2.0000      -0.981097       -26.6970
 122   2.0000      -0.974882       -26.5279
 123   2.0000      -0.967132       -26.3170
 124   2.0000      -0.933189       -25.3934
 125   2.0000      -0.927946       -25.2507
 126   2.0000      -0.923527       -25.1305
 127   2.0000      -0.909903       -24.7597
 128   2.0000      -0.901302       -24.5257
 129   2.0000      -0.892900       -24.2970
 130   2.0000      -0.888636       -24.1810
 131   2.0000      -0.881604       -23.9897
 132   2.0000      -0.871649       -23.7188
 133   2.0000      -0.867397       -23.6031
 134   2.0000      -0.862966       -23.4825
 135   2.0000      -0.857937       -23.3456
 136   2.0000      -0.855837       -23.2885
 137   2.0000      -0.851951       -23.1828
 138   2.0000      -0.840263       -22.8647
 139   2.0000      -0.833910       -22.6919
 140   2.0000      -0.827706       -22.5230
 141   2.0000      -0.824484       -22.4353
 142   2.0000      -0.812848       -22.1187
 143   2.0000      -0.810536       -22.0558
 144   2.0000      -0.793368       -21.5886
 145   2.0000      -0.783799       -21.3282
 146   2.0000      -0.776277       -21.1236
 147   2.0000      -0.761789       -20.7293
 148   2.0000      -0.753427       -20.5018
 149   2.0000      -0.742894       -20.2152
 150   2.0000      -0.737119       -20.0580
 151   2.0000      -0.729766       -19.8579
 152   2.0000      -0.716231       -19.4896
 153   2.0000      -0.705514       -19.1980
 154   2.0000      -0.704006       -19.1570
 155   2.0000      -0.695162       -18.9163
 156   2.0000      -0.686801       -18.6888
 157   2.0000      -0.677722       -18.4418
 158   2.0000      -0.675893       -18.3920
 159   2.0000      -0.670590       -18.2477
 160   2.0000      -0.668844       -18.2002
 161   2.0000      -0.656477       -17.8636
 162   2.0000      -0.647690       -17.6245
 163   2.0000      -0.644964       -17.5504
 164   2.0000      -0.638305       -17.3691
 165   2.0000      -0.637700       -17.3527
 166   2.0000      -0.636444       -17.3185
 167   2.0000      -0.630692       -17.1620
 168   2.0000      -0.628986       -17.1156
 169   2.0000      -0.626707       -17.0536
 170   2.0000      -0.625620       -17.0240
 171   2.0000      -0.622553       -16.9405
 172   2.0000      -0.620487       -16.8843
 173   2.0000      -0.609723       -16.5914
 174   2.0000      -0.603905       -16.4331
 175   2.0000      -0.602020       -16.3818
 176   2.0000      -0.593004       -16.1365
 177   2.0000      -0.586759       -15.9665
 178   2.0000      -0.580794       -15.8042
 179   2.0000      -0.578667       -15.7463
 180   2.0000      -0.577001       -15.7010
 181   2.0000      -0.573458       -15.6046
 182   2.0000      -0.565164       -15.3789
 183   2.0000      -0.564620       -15.3641
 184   2.0000      -0.553448       -15.0601
 185   2.0000      -0.550214       -14.9721
 186   2.0000      -0.541121       -14.7247
 187   2.0000      -0.540058       -14.6957
 188   2.0000      -0.536168       -14.5899
 189   2.0000      -0.531043       -14.4504
 190   2.0000      -0.524923       -14.2839
 191   2.0000      -0.520383       -14.1603
 192   2.0000      -0.517265       -14.0755
 193   2.0000      -0.514760       -14.0073
 194   2.0000      -0.513252       -13.9663
 195   2.0000      -0.511272       -13.9124
 196   2.0000      -0.510077       -13.8799
 197   2.0000      -0.508935       -13.8488
 198   2.0000      -0.508457       -13.8358
 199   2.0000      -0.505442       -13.7538
 200   2.0000      -0.503350       -13.6968
 201   2.0000      -0.501986       -13.6597
 202   2.0000      -0.498861       -13.5747
 203   2.0000      -0.498578       -13.5670
 204   2.0000      -0.497982       -13.5508
 205   2.0000      -0.495692       -13.4885
 206   2.0000      -0.490387       -13.3441
 207   2.0000      -0.489107       -13.3093
 208   2.0000      -0.485194       -13.2028
 209   2.0000      -0.482158       -13.1202
 210   2.0000      -0.477605       -12.9963
 211   2.0000      -0.475596       -12.9416
 212   2.0000      -0.473989       -12.8979
 213   2.0000      -0.472689       -12.8625
 214   2.0000      -0.470318       -12.7980
 215   2.0000      -0.469503       -12.7758
 216   2.0000      -0.463311       -12.6073
 217   2.0000      -0.461444       -12.5565
 218   2.0000      -0.460167       -12.5218
 219   2.0000      -0.459027       -12.4908
 220   2.0000      -0.450959       -12.2712
 221   2.0000      -0.449193       -12.2232
 222   2.0000      -0.442341       -12.0367
 223   2.0000      -0.441267       -12.0075
 224   2.0000      -0.440696       -11.9920
 225   2.0000      -0.438489       -11.9319
 226   2.0000      -0.435361       -11.8468
 227   2.0000      -0.430522       -11.7151
 228   2.0000      -0.430111       -11.7039
 229   2.0000      -0.428542       -11.6612
 230   2.0000      -0.427268       -11.6266
 231   2.0000      -0.424393       -11.5483
 232   2.0000      -0.422166       -11.4877
 233   2.0000      -0.420250       -11.4356
 234   2.0000      -0.414388       -11.2761
 235   2.0000      -0.410128       -11.1602
 236   2.0000      -0.404813       -11.0155
 237   2.0000      -0.402721       -10.9586
 238   2.0000      -0.402425       -10.9505
 239   2.0000      -0.399346       -10.8668
 240   2.0000      -0.393132       -10.6977
 241   2.0000      -0.391886       -10.6638
 242   2.0000      -0.388281       -10.5657
 243   2.0000      -0.385323       -10.4852
 244   2.0000      -0.382995       -10.4218
 245   2.0000      -0.375810       -10.2263
 246   2.0000      -0.371430       -10.1071
 247   2.0000      -0.367063        -9.9883
 248   2.0000      -0.365667        -9.9503
 249   2.0000      -0.362458        -9.8630
 250   2.0000      -0.352196        -9.5837
 251   2.0000      -0.347400        -9.4532
 252   2.0000      -0.343669        -9.3517
 253   2.0000      -0.338560        -9.2127
 254   2.0000      -0.334653        -9.1064
 255   2.0000      -0.325696        -8.8626
 256   2.0000      -0.320685        -8.7263
 257   2.0000      -0.319803        -8.7023
 258   2.0000      -0.310907        -8.4602
 259   2.0000      -0.309060        -8.4100
 260   2.0000      -0.298018        -8.1095
 261   2.0000      -0.290143        -7.8952
 262   2.0000      -0.277091        -7.5400
 263   2.0000      -0.266970        -7.2646
 264   2.0000      -0.227698        -6.1960
 265   2.0000      -0.202387        -5.5072
 266   0.0000      -0.116082        -3.1588
 267   0.0000      -0.086811        -2.3622
 268   0.0000      -0.058697        -1.5972
 269   0.0000      -0.051956        -1.4138
 270   0.0000      -0.036808        -1.0016

MULLIKEN ATOMIC CHARGES
-----------------------
   0 C :    0.326467
   1 C :   -0.380441
   2 C :   -0.135188
   3 N :    0.101148
   4 C :   -0.210569
   5 N :    0.140482
   6 C :    0.013373
   7 C :   -0.008512
   8 C :   -0.080575
   9 C :    0.118036
  10 C :   -0.090813
  11 C :   -0.032328
  12 S :    0.170095
  13 C :   -0.123806
  14 C :    0.036633
  15 Br:    0.011553
  16 C :    0.132834
  17 O :   -0.166650
  18 C :   -0.089917
  19 C :   -0.050965
  20 C :   -0.022298
  21 C :    0.009715
  22 C :    0.016309
  23 C :    0.044310
  24 C :   -0.055442
  25 S :    0.103286
  26 C :   -0.013630
  27 C :    0.016780
  28 C :    0.049227
  29 C :   -0.064784
  30 S :    0.124454
  31 C :    0.085866
  32 C :   -0.219288
  33 S :    0.135629
  34 C :   -0.118339
  35 C :    0.146734
  36 C :    0.203570
  37 O :   -0.215872
  38 C :    0.300537
  39 O :   -0.116759
  40 O :   -0.218292
  41 C :    0.017996
  42 C :    0.005161
  43 C :   -0.015290
  44 C :   -0.012022
  45 C :    0.022482
  46 C :    0.036986
  47 C :   -0.061570
  48 S :    0.092035
  49 C :   -0.018103
  50 C :    0.017308
  51 C :    0.052693
  52 C :   -0.043434
  53 S :    0.093045
  54 C :    0.015258
  55 C :   -0.209407
  56 S :    0.160174
  57 C :   -0.072031
  58 C :    0.107481
  59 C :    0.203669
  60 O :   -0.185986
  61 C :    0.231317
  62 N :    0.271709
  63 O :   -0.249412
  64 O :   -0.233602
  65 C :   -0.053831
  66 H :   -0.017213
  67 H :   -0.019764
  68 H :   -0.007463
  69 H :    0.024543
  70 H :    0.010486
  71 H :   -0.006723
  72 H :   -0.010675
  73 H :   -0.008603
  74 H :   -0.005846
  75 H :   -0.009428
  76 H :   -0.024964
  77 H :    0.029800
  78 H :   -0.016664
  79 H :   -0.010690
  80 H :   -0.007705
  81 H :   -0.010954
  82 H :   -0.003165
  83 H :    0.012707
  84 H :    0.017715
  85 H :    0.019410
Sum of atomic charges:   -0.0000000

LOEWDIN ATOMIC CHARGES
----------------------
   0 C :    0.077157
   1 C :   -0.177381
   2 C :    0.014011
   3 N :   -0.098696
   4 C :   -0.026250
   5 N :   -0.071264
   6 C :   -0.016866
   7 C :   -0.045977
   8 C :    0.014958
   9 C :   -0.037606
  10 C :   -0.147828
  11 C :   -0.020045
  12 S :    0.420307
  13 C :   -0.276714
  14 C :   -0.070397
  15 Br:    0.127206
  16 C :    0.079608
  17 O :   -0.162583
  18 C :   -0.122346
  19 C :    0.045649
  20 C :   -0.080302
  21 C :   -0.101242
  22 C :   -0.055313
  23 C :   -0.008809
  24 C :   -0.204715
  25 S :    0.423472
  26 C :   -0.142728
  27 C :   -0.051451
  28 C :   -0.010868
  29 C :   -0.173019
  30 S :    0.435787
  31 C :   -0.035624
  32 C :   -0.208014
  33 S :    0.426698
  34 C :   -0.155749
  35 C :   -0.020789
  36 C :    0.003373
  37 O :   -0.029589
  38 C :    0.109216
  39 O :   -0.113061
  40 O :   -0.029421
  41 C :   -0.073500
  42 C :    0.002905
  43 C :   -0.079874
  44 C :   -0.120912
  45 C :   -0.050786
  46 C :   -0.014694
  47 C :   -0.197034
  48 S :    0.398589
  49 C :   -0.150268
  50 C :   -0.048059
  51 C :   -0.008963
  52 C :   -0.170808
  53 S :    0.387885
  54 C :   -0.028828
  55 C :   -0.222329
  56 S :    0.486865
  57 C :   -0.139870
  58 C :   -0.090467
  59 C :    0.034620
  60 O :    0.001818
  61 C :    0.020675
  62 N :    0.271715
  63 O :   -0.209959
  64 O :   -0.195975
  65 C :    0.004854
  66 H :    0.038057
  67 H :    0.036083
  68 H :    0.037136
  69 H :    0.029688
  70 H :    0.037215
  71 H :    0.035845
  72 H :    0.033554
  73 H :    0.033445
  74 H :    0.035818
  75 H :    0.040801
  76 H :    0.030011
  77 H :    0.025407
  78 H :    0.032017
  79 H :    0.033997
  80 H :    0.033920
  81 H :    0.033076
  82 H :    0.037601
  83 H :    0.050107
  84 H :    0.024886
  85 H :    0.050947

  Mayer bond orders larger than 0.100000
B(  0-C ,  1-C ) :   1.5269 B(  0-C ,  6-C ) :   0.9886 B(  0-C , 18-C ) :   1.1613
B(  1-C ,  2-C ) :   1.1782 B(  1-C ,  4-C ) :   1.1493 B(  2-C ,  3-N ) :   2.8471
B(  3-N , 84-H ) :   0.1486 B(  4-C ,  5-N ) :   2.9866 B(  6-C ,  7-C ) :   1.2823
B(  6-C , 11-C ) :   1.4242 B(  7-C ,  8-C ) :   1.4395 B(  7-C , 16-C ) :   0.9260
B(  8-C ,  9-C ) :   1.2313 B(  8-C , 66-H ) :   1.0164 B(  9-C , 10-C ) :   1.3263
B(  9-C , 14-C ) :   1.1600 B( 10-C , 11-C ) :   1.3158 B( 10-C , 12-S ) :   1.0784
B( 11-C , 67-H ) :   0.9796 B( 12-S , 13-C ) :   1.0849 B( 13-C , 14-C ) :   1.6209
B( 13-C , 15-Br) :   1.0113 B( 14-C , 68-H ) :   1.0005 B( 16-C , 17-O ) :   2.1953
B( 16-C , 18-C ) :   0.9779 B( 18-C , 19-C ) :   1.3996 B( 19-C , 20-C ) :   1.3389
B( 19-C , 69-H ) :   0.9438 B( 20-C , 21-C ) :   1.3401 B( 20-C , 70-H ) :   0.9844
B( 21-C , 22-C ) :   1.2314 B( 21-C , 25-S ) :   1.1079 B( 22-C , 23-C ) :   1.4770
B( 22-C , 71-H ) :   1.0017 B( 23-C , 24-C ) :   1.2752 B( 23-C , 72-H ) :   0.9954
B( 24-C , 25-S ) :   1.0583 B( 24-C , 26-C ) :   1.3798 B( 26-C , 27-C ) :   1.2447
B( 26-C , 30-S ) :   1.1059 B( 27-C , 28-C ) :   1.5201 B( 27-C , 73-H ) :   0.9949
B( 28-C , 29-C ) :   1.2016 B( 28-C , 74-H ) :   0.9993 B( 29-C , 30-S ) :   1.0489
B( 29-C , 31-C ) :   1.4937 B( 31-C , 32-C ) :   1.2755 B( 31-C , 75-H ) :   0.9460
B( 32-C , 33-S ) :   1.0483 B( 32-C , 36-C ) :   1.3488 B( 33-S , 34-C ) :   1.0797
B( 34-C , 35-C ) :   1.3759 B( 34-C , 41-C ) :   1.2365 B( 35-C , 36-C ) :   1.3599
B( 35-C , 40-O ) :   1.0589 B( 36-C , 37-O ) :   1.0749 B( 37-O , 38-C ) :   1.0539
B( 38-C , 39-O ) :   2.2690 B( 38-C , 40-O ) :   1.0637 B( 41-C , 42-C ) :   1.4952
B( 41-C , 76-H ) :   0.9731 B( 42-C , 43-C ) :   1.2619 B( 42-C , 77-H ) :   0.9592
B( 43-C , 44-C ) :   1.4402 B( 43-C , 78-H ) :   0.9881 B( 44-C , 45-C ) :   1.1961
B( 44-C , 48-S ) :   1.0783 B( 45-C , 46-C ) :   1.5262 B( 45-C , 79-H ) :   1.0003
B( 46-C , 47-C ) :   1.2379 B( 46-C , 80-H ) :   0.9938 B( 47-C , 48-S ) :   1.0461
B( 47-C , 49-C ) :   1.4465 B( 49-C , 50-C ) :   1.2077 B( 49-C , 53-S ) :   1.0806
B( 50-C , 51-C ) :   1.5670 B( 50-C , 81-H ) :   0.9938 B( 51-C , 52-C ) :   1.1579
B( 51-C , 82-H ) :   1.0004 B( 52-C , 53-S ) :   1.0259 B( 52-C , 54-C ) :   1.5456
B( 54-C , 55-C ) :   1.2015 B( 54-C , 83-H ) :   0.9728 B( 55-C , 56-S ) :   1.0847
B( 55-C , 59-C ) :   1.4189 B( 56-S , 57-C ) :   1.2263 B( 57-C , 58-C ) :   1.4137
B( 57-C , 84-H ) :   0.9336 B( 58-C , 59-C ) :   1.2276 B( 58-C , 65-C ) :   1.0665
B( 59-C , 60-O ) :   1.1393 B( 60-O , 61-C ) :   1.1057 B( 61-C , 62-N ) :   0.9174
B( 61-C , 65-C ) :   1.5738 B( 62-N , 63-O ) :   1.5351 B( 62-N , 64-O ) :   1.5130
B( 63-O , 64-O ) :   0.2781 B( 65-C , 85-H ) :   1.0283

-----------------------------------------------------------------------------
         ABSORPTION SPECTRUM VIA TRANSITION ELECTRIC DIPOLE MOMENTS
-----------------------------------------------------------------------------
State   Energy  Wavelength   fosc         T2         TX        TY        TZ
        (cm-1)    (nm)                  (au**2)     (au)      (au)      (au)
-----------------------------------------------------------------------------
   0    6003.7   1665.6   0.398147305  21.83221   2.53970  -3.83427   0.82494
   1   12562.5    796.0   0.382982327  10.03643  -2.37055  -0.95427   1.87251
   2   13750.8    727.2   1.677740541  40.16738  -4.56016  -2.17189   3.82821
   3   18743.1    533.5   0.114443902   2.01014  -0.94702   1.04519  -0.14444
   4   19297.6    518.2   0.094037834   1.60426   0.37958  -1.11222   0.47238
   5   20243.4    494.0   0.316427063   5.14596  -0.86422   1.93201  -0.81635
   6   20609.1    485.2   0.616870107   9.85396   1.94201  -2.42643   0.44161
   7   22818.2    438.2   0.355994241   5.13614   1.27066  -1.83024   0.41448
   8   23646.1    422.9   0.072566282   1.01030  -0.75979   0.07886   0.65330
   9   24655.1    405.6   0.027159828   0.36266  -0.45677   0.28746   0.26718
  10   25334.7    394.7   0.026249743   0.34110   0.43552  -0.37881  -0.08904
  11   26665.7    375.0   0.097570680   1.20460  -0.82369  -0.15332   0.70896
  12   26683.8    374.8   0.005766580   0.07115   0.01476   0.14086  -0.22602
  13   26978.8    370.7   0.004088529   0.04989  -0.18853   0.08471   0.08469
  14   27439.9    364.4   0.085932256   1.03098   0.27153  -0.89319   0.39932
  15   28188.9    354.7   0.000992548   0.01159   0.09966   0.03563  -0.01973
  16   28510.6    350.7   0.056735479   0.65513  -0.06555  -0.63577   0.49661
  17   28777.0    347.5   0.106267122   1.21571   0.72425   0.24036  -0.79586
  18   29389.6    340.3   0.016492545   0.18474  -0.40851   0.01063   0.13323
  19   29869.9    334.8   0.063584750   0.70080  -0.42338  -0.41784   0.58903
  20   30146.6    331.7   0.000671915   0.00734   0.01428   0.08443   0.00210
  21   30450.4    328.4   0.239452218   2.58882   0.29450   1.04413  -1.18823
  22   31170.1    320.8   0.012022104   0.12697   0.20145   0.09054  -0.27964
  23   31244.0    320.1   0.003138178   0.03307  -0.12423   0.11692  -0.06294
  24   31815.0    314.3   0.000419491   0.00434  -0.06389  -0.01569  -0.00349
  25   31881.7    313.7   0.092561635   0.95580  -0.14578  -0.58839   0.76704
  26   32064.8    311.9   0.112967737   1.15985  -0.46025  -0.44560   0.86571
  27   32810.0    304.8   0.004818217   0.04835   0.19041   0.02547   0.10695
  28   32858.3    304.3   0.190594744   1.90959   1.09636  -0.04927  -0.83974
  29   33101.0    302.1   0.169298189   1.68378   0.46952   0.65383  -1.01776
  30   33678.1    296.9   0.004247754   0.04152  -0.17967   0.07966  -0.05380
  31   33862.9    295.3   0.000741784   0.00721   0.05762   0.03343  -0.05267
  32   34157.7    292.8   0.089731547   0.86483  -0.42235  -0.59139   0.58026
  33   34590.2    289.1   0.035209239   0.33510   0.36133   0.16400  -0.42148
  34   34810.1    287.3   0.006265820   0.05926   0.03705  -0.01601  -0.24006
  35   35064.3    285.2   0.161275968   1.51419  -0.08140  -0.83576   0.89948
  36   35246.8    283.7   0.001932823   0.01805   0.07813   0.01686  -0.10800
  37   35686.9    280.2   0.126854726   1.17024  -0.96218   0.47716   0.12944
  38   35899.1    278.6   0.018953989   0.17382   0.21813  -0.23503   0.26645
  39   35929.5    278.3   0.008442555   0.07736   0.25718  -0.09897  -0.03770
  40   36465.9    274.2   0.029127820   0.26296   0.30339   0.29856  -0.28598
  41   36954.3    270.6   0.009391464   0.08366   0.04635   0.22701  -0.17316
  42   37163.6    269.1   0.039853242   0.35304   0.02680   0.49853  -0.32216
  43   37328.8    267.9   0.065651800   0.57900  -0.67290   0.03534   0.35349
  44   37764.1    264.8   0.160593631   1.39999  -0.69812  -0.41576   0.86009
  45   37962.3    263.4   0.075878229   0.65802   0.65713   0.21708  -0.42318
  46   38103.6    262.4   0.014473648   0.12505  -0.04633   0.20776  -0.28239
  47   38575.8    259.2   0.045633586   0.38944  -0.16182  -0.34193   0.49633
  48   38810.5    257.7   0.165668484   1.40529  -0.46437   0.98278  -0.47307
  49   39216.9    255.0   0.059688936   0.50107  -0.55466  -0.07083   0.43405
  50   39494.7    253.2   0.143777959   1.19848   1.01479  -0.37814  -0.16025
  51   39903.2    250.6   0.082186439   0.67806  -0.69171   0.44162   0.06763
  52   39984.0    250.1   0.020864276   0.17179  -0.36577   0.19427   0.01600
  53   40282.9    248.2   0.013706759   0.11202  -0.13484   0.29891  -0.06702

FINAL SINGLE POINT ENERGY     -7889.037461780302

DIPOLE MOMENT
-------------
                                X             Y             Z
Electronic contribution:     47.96621      78.92792     -94.75951
Nuclear contribution   :    -50.87012     -81.98354      97.86756
                        -----------------------------------------
Total Dipole Moment    :     -2.90391      -3.05563       3.10805
                        -----------------------------------------
Magnitude (a.u.)       :      5.23732
Magnitude (Debye)      :     13.31221

Rotational constants in cm-1:     0.000720     0.000487     0.000293
Rotational constants in MHz :    21.589821    14.586699     8.773924

                             ****ORCA TERMINATED NORMALLY****
TOTAL RUN TIME: 0 days 0 hours 9 minutes 41 seconds 492 msec
