                         Program Version 4.2.0 -  RELEASE  -
|  1> # ORCA input file
|  2> # SCF done       -165.606491031098          0.000474143286
|  3> ! CAM-B3LYP def2-SVP def2/J RIJCOSX Grid4 TightSCF
|  4> %maxcore 5000
|  5> %tddft
|  6>     Mode sTDDFT
|  7>     Ethresh 5.0
|  8>     maxcore 5000
|  9> end
| 10>
| 11> %pal
| 12>   nprocs 6
| 13>   end
| 14> * xyz 0 1
| 15>    C       -2.41519         4.84052         1.78425
| 16>    C       -2.03669         5.09847         0.48897
| 17>    C       -0.70325         5.32324         0.08930
| 18>    N        0.35891         5.52161        -0.29981
| 19>    C       -2.88170         5.14390        -0.63923
| 20>    N       -3.47809         5.17811        -1.62134
| 21>    C       -1.48802         4.69597         2.90291
| 22>    C       -2.22759         4.30369         4.04259
| 23>    C       -1.64849         4.08011         5.26742
| 24>    C       -0.26530         4.25867         5.37432
| 25>    C        0.46751         4.65371         4.23097
| 26>    C       -0.12084         4.87472         2.99077
| 27>    S        2.16014         4.82498         4.58533
| 28>    C        1.86310         4.36968         6.24215
| 29>    C        0.56491         4.10204         6.51804
| 30>   Br        3.29481         4.29187         7.45170
| 31>    C       -3.65583         4.20749         3.69003
| 32>    O       -4.53878         3.88680         4.47139
| 33>    C       -3.75713         4.60134         2.28227
| 34>    C       -4.88070         4.85323         1.51723
| 35>    C       -6.25007         4.68333         1.69725
| 36>    S       -7.25897         5.36333         0.41031
| 37>    C       -8.76224         4.86729         1.11859
| 38>    C       -8.50432         4.16282         2.30072
| 39>    C       -7.11597         4.07380         2.62008
| 40>    N       -7.03515         3.35558         3.75170
| 41>    N       -8.24550         2.99978         4.19375
| 42>    C       -9.13944         3.45504         3.35181
| 43>    C       -9.97592         5.23667         0.50364
| 44>    C      -11.20465         4.99917         1.03419
| 45>    C      -12.43012         5.43555         0.47074
| 46>    C      -12.67347         6.10227        -0.70509
| 47>    C      -14.02950         6.43931        -0.89611
| 48>    C      -14.84871         6.00463         0.18322
| 49>    S      -13.90931         5.17173         1.38566
| 50>    C      -16.20012         6.25852         0.23710
| 51>    C      -16.77315         6.97953        -0.81148
| 52>    C      -15.95545         7.40016        -1.89753
| 53>    C      -14.60896         7.14060        -1.95923
| 54>    S      -16.88658         8.29076        -3.07454
| 55>    C      -18.34292         8.12089        -2.09957
| 56>    C      -18.11301         7.40090        -0.95747
| 57>    C      -19.55215         8.72188        -2.51494
| 58>    S      -20.99413         8.66520        -1.52944
| 59>    C      -21.94802         9.61957        -2.63726
| 60>    C      -21.16683         9.95931        -3.74340
| 61>    C      -19.83582         9.45440        -3.65922
| 62>    N      -19.19840         9.86388        -4.78180
| 63>    N      -20.01660        10.58385        -5.56476
| 64>    C      -21.18364        10.65776        -4.97924
| 65>    C      -23.28076         9.92779        -2.29713
| 66>    C      -24.12807        10.66272        -3.06325
| 67>    C      -25.45223        10.96963        -2.66047
| 68>    S      -26.53265        11.90801        -3.66970
| 69>    C      -27.83299        11.85777        -2.55238
| 70>    C      -27.47444        11.14829        -1.43157
| 71>    C      -26.13444        10.65266        -1.50352
| 72>    O      -25.81788         9.96485        -0.38404
| 73>    C      -26.93296        10.01731         0.39454
| 74>    N      -26.88029         9.36734         1.65242
| 75>    O      -27.88417         9.42870         2.33584
| 76>    O      -25.85163         8.80329         1.95521
| 77>    C      -27.96718        10.71082        -0.17044
| 78>    H       -2.24316         3.78098         6.11629
| 79>    H        0.48378         5.17830         2.15308
| 80>    H        0.20514         3.80784         7.48707
| 81>    H       -4.66374         5.31178         0.55855
| 82>    H       -6.19124         3.21620         4.30187
| 83>    H      -10.17891         3.25845         3.51686
| 84>    H       -9.88727         5.77416        -0.42975
| 85>    H      -11.27727         4.47608         1.97595
| 86>    H      -11.90562         6.35395        -1.41392
| 87>    H      -16.80292         5.92698         1.06718
| 88>    H      -14.00658         7.47493        -2.78883
| 89>    H      -18.88567         7.19212        -0.23905
| 90>    H      -18.24704         9.69524        -5.06294
| 91>    H      -21.98224        11.19483        -5.44839
| 92>    H      -23.62889         9.54759        -1.34660
| 93>    H      -23.81091        11.04794        -4.01950
| 94>    H      -28.75937        12.34164        -2.78152
| 95>    H      -28.93007        10.87420         0.26704
| 96> *
| 97>
| 98>                          ****END OF INPUT****

CARTESIAN COORDINATES (ANGSTROEM)
---------------------------------
  C     -2.415190    4.840520    1.784250
  C     -2.036690    5.098470    0.488970
  C     -0.703250    5.323240    0.089300
  N      0.358910    5.521610   -0.299810
  C     -2.881700    5.143900   -0.639230
  N     -3.478090    5.178110   -1.621340
  C     -1.488020    4.695970    2.902910
  C     -2.227590    4.303690    4.042590
  C     -1.648490    4.080110    5.267420
  C     -0.265300    4.258670    5.374320
  C      0.467510    4.653710    4.230970
  C     -0.120840    4.874720    2.990770
  S      2.160140    4.824980    4.585330
  C      1.863100    4.369680    6.242150
  C      0.564910    4.102040    6.518040
  Br     3.294810    4.291870    7.451700
  C     -3.655830    4.207490    3.690030
  O     -4.538780    3.886800    4.471390
  C     -3.757130    4.601340    2.282270
  C     -4.880700    4.853230    1.517230
  C     -6.250070    4.683330    1.697250
  S     -7.258970    5.363330    0.410310
  C     -8.762240    4.867290    1.118590
  C     -8.504320    4.162820    2.300720
  C     -7.115970    4.073800    2.620080
  N     -7.035150    3.355580    3.751700
  N     -8.245500    2.999780    4.193750
  C     -9.139440    3.455040    3.351810
  C     -9.975920    5.236670    0.503640
  C    -11.204650    4.999170    1.034190
  C    -12.430120    5.435550    0.470740
  C    -12.673470    6.102270   -0.705090
  C    -14.029500    6.439310   -0.896110
  C    -14.848710    6.004630    0.183220
  S    -13.909310    5.171730    1.385660
  C    -16.200120    6.258520    0.237100
  C    -16.773150    6.979530   -0.811480
  C    -15.955450    7.400160   -1.897530
  C    -14.608960    7.140600   -1.959230
  S    -16.886580    8.290760   -3.074540
  C    -18.342920    8.120890   -2.099570
  C    -18.113010    7.400900   -0.957470
  C    -19.552150    8.721880   -2.514940
  S    -20.994130    8.665200   -1.529440
  C    -21.948020    9.619570   -2.637260
  C    -21.166830    9.959310   -3.743400
  C    -19.835820    9.454400   -3.659220
  N    -19.198400    9.863880   -4.781800
  N    -20.016600   10.583850   -5.564760
  C    -21.183640   10.657760   -4.979240
  C    -23.280760    9.927790   -2.297130
  C    -24.128070   10.662720   -3.063250
  C    -25.452230   10.969630   -2.660470
  S    -26.532650   11.908010   -3.669700
  C    -27.832990   11.857770   -2.552380
  C    -27.474440   11.148290   -1.431570
  C    -26.134440   10.652660   -1.503520
  O    -25.817880    9.964850   -0.384040
  C    -26.932960   10.017310    0.394540
  N    -26.880290    9.367340    1.652420
  O    -27.884170    9.428700    2.335840
  O    -25.851630    8.803290    1.955210
  C    -27.967180   10.710820   -0.170440
  H     -2.243160    3.780980    6.116290
  H      0.483780    5.178300    2.153080
  H      0.205140    3.807840    7.487070
  H     -4.663740    5.311780    0.558550
  H     -6.191240    3.216200    4.301870
  H    -10.178910    3.258450    3.516860
  H     -9.887270    5.774160   -0.429750
  H    -11.277270    4.476080    1.975950
  H    -11.905620    6.353950   -1.413920
  H    -16.802920    5.926980    1.067180
  H    -14.006580    7.474930   -2.788830
  H    -18.885670    7.192120   -0.239050
  H    -18.247040    9.695240   -5.062940
  H    -21.982240   11.194830   -5.448390
  H    -23.628890    9.547590   -1.346600
  H    -23.810910   11.047940   -4.019500
  H    -28.759370   12.341640   -2.781520
  H    -28.930070   10.874200    0.267040

 Total Charge           Charge          ....    0
 Multiplicity           Mult            ....    1
 Number of Electrons    NEL             ....  500
 Basis Dimension        Dim             .... 1014

ORBITAL ENERGIES
----------------

  NO   OCC          E(Eh)            E(eV)
   0   2.0000    -482.881382    -13139.8704
   1   2.0000     -88.985178     -2421.4098
   2   2.0000     -88.976999     -2421.1872
   3   2.0000     -88.972680     -2421.0697
   4   2.0000     -88.970394     -2421.0075
   5   2.0000     -88.961851     -2420.7750
   6   2.0000     -88.958062     -2420.6719
   7   2.0000     -62.559078     -1702.3191
   8   2.0000     -56.393022     -1534.5321
   9   2.0000     -56.390319     -1534.4586
  10   2.0000     -56.390283     -1534.4576
  11   2.0000     -19.318586      -525.6854
  12   2.0000     -19.251007      -523.8465
  13   2.0000     -19.248915      -523.7896
  14   2.0000     -19.216572      -522.9095
  15   2.0000     -14.662616      -398.9901
  16   2.0000     -14.487624      -394.2283
  17   2.0000     -14.477684      -393.9578
  18   2.0000     -14.443630      -393.0312
  19   2.0000     -14.438452      -392.8903
  20   2.0000     -14.407148      -392.0384
  21   2.0000     -14.404161      -391.9571
  22   2.0000     -10.395212      -282.8681
  23   2.0000     -10.367655      -282.1182
  24   2.0000     -10.354206      -281.7523
  25   2.0000     -10.353694      -281.7383
  26   2.0000     -10.342458      -281.4326
  27   2.0000     -10.332333      -281.1571
  28   2.0000     -10.331206      -281.1264
  29   2.0000     -10.329373      -281.0765
  30   2.0000     -10.324811      -280.9524
  31   2.0000     -10.324606      -280.9468
  32   2.0000     -10.324515      -280.9443
  33   2.0000     -10.321913      -280.8735
  34   2.0000     -10.321669      -280.8669
  35   2.0000     -10.320900      -280.8460
  36   2.0000     -10.320610      -280.8381
  37   2.0000     -10.320049      -280.8228
  38   2.0000     -10.319507      -280.8081
  39   2.0000     -10.317202      -280.7454
  40   2.0000     -10.316611      -280.7293
  41   2.0000     -10.312599      -280.6201
  42   2.0000     -10.311840      -280.5994
  43   2.0000     -10.311388      -280.5871
  44   2.0000     -10.311014      -280.5770
  45   2.0000     -10.308333      -280.5040
  46   2.0000     -10.307245      -280.4744
  47   2.0000     -10.304217      -280.3920
  48   2.0000     -10.302990      -280.3586
  49   2.0000     -10.302772      -280.3527
  50   2.0000     -10.301369      -280.3145
  51   2.0000     -10.300669      -280.2955
  52   2.0000     -10.300369      -280.2873
  53   2.0000     -10.298494      -280.2363
  54   2.0000     -10.295502      -280.1549
  55   2.0000     -10.295467      -280.1539
  56   2.0000     -10.294175      -280.1187
  57   2.0000     -10.293108      -280.0897
  58   2.0000     -10.292743      -280.0798
  59   2.0000     -10.291839      -280.0552
  60   2.0000     -10.291333      -280.0414
  61   2.0000     -10.290335      -280.0142
  62   2.0000     -10.287900      -279.9480
  63   2.0000     -10.287635      -279.9408
  64   2.0000     -10.286478      -279.9093
  65   2.0000     -10.285669      -279.8873
  66   2.0000     -10.279592      -279.7219
  67   2.0000      -8.788502      -239.1473
  68   2.0000      -8.080044      -219.8692
  69   2.0000      -8.072106      -219.6532
  70   2.0000      -8.067233      -219.5206
  71   2.0000      -8.066361      -219.4969
  72   2.0000      -8.057667      -219.2603
  73   2.0000      -8.054164      -219.1649
  74   2.0000      -6.624754      -180.2687
  75   2.0000      -6.610250      -179.8740
  76   2.0000      -6.610071      -179.8692
  77   2.0000      -6.049302      -164.6099
  78   2.0000      -6.045009      -164.4931
  79   2.0000      -6.042552      -164.4262
  80   2.0000      -6.041411      -164.3951
  81   2.0000      -6.037179      -164.2800
  82   2.0000      -6.036624      -164.2649
  83   2.0000      -6.036028      -164.2487
  84   2.0000      -6.034290      -164.2014
  85   2.0000      -6.032375      -164.1493
  86   2.0000      -6.031788      -164.1333
  87   2.0000      -6.029435      -164.0693
  88   2.0000      -6.027600      -164.0193
  89   2.0000      -6.027433      -164.0148
  90   2.0000      -6.023726      -163.9139
  91   2.0000      -6.023454      -163.9065
  92   2.0000      -6.019790      -163.8068
  93   2.0000      -6.018646      -163.7757
  94   2.0000      -6.015408      -163.6876
  95   2.0000      -2.740672       -74.5775
  96   2.0000      -2.736536       -74.4649
  97   2.0000      -2.736422       -74.4618
  98   2.0000      -2.724881       -74.1478
  99   2.0000      -2.724867       -74.1474
 100   2.0000      -1.334327       -36.3089
 101   2.0000      -1.237615       -33.6772
 102   2.0000      -1.150853       -31.3163
 103   2.0000      -1.149969       -31.2922
 104   2.0000      -1.149065       -31.2676
 105   2.0000      -1.129169       -30.7263
 106   2.0000      -1.016463       -27.6594
 107   2.0000      -1.011047       -27.5120
 108   2.0000      -1.006110       -27.3776
 109   2.0000      -1.005977       -27.3740
 110   2.0000      -1.000235       -27.2178
 111   2.0000      -0.996431       -27.1143
 112   2.0000      -0.985100       -26.8059
 113   2.0000      -0.982217       -26.7275
 114   2.0000      -0.980756       -26.6877
 115   2.0000      -0.944980       -25.7142
 116   2.0000      -0.940429       -25.5904
 117   2.0000      -0.934760       -25.4361
 118   2.0000      -0.929019       -25.2799
 119   2.0000      -0.918538       -24.9947
 120   2.0000      -0.909886       -24.7593
 121   2.0000      -0.901904       -24.5421
 122   2.0000      -0.901162       -24.5219
 123   2.0000      -0.892678       -24.2910
 124   2.0000      -0.888572       -24.1793
 125   2.0000      -0.883543       -24.0424
 126   2.0000      -0.879437       -23.9307
 127   2.0000      -0.866537       -23.5797
 128   2.0000      -0.860951       -23.4277
 129   2.0000      -0.857728       -23.3400
 130   2.0000      -0.851471       -23.1697
 131   2.0000      -0.838044       -22.8043
 132   2.0000      -0.828088       -22.5334
 133   2.0000      -0.823038       -22.3960
 134   2.0000      -0.810009       -22.0415
 135   2.0000      -0.798473       -21.7276
 136   2.0000      -0.791465       -21.5369
 137   2.0000      -0.782767       -21.3002
 138   2.0000      -0.763724       -20.7820
 139   2.0000      -0.754395       -20.5281
 140   2.0000      -0.743501       -20.2317
 141   2.0000      -0.728248       -19.8166
 142   2.0000      -0.717283       -19.5183
 143   2.0000      -0.715588       -19.4721
 144   2.0000      -0.712802       -19.3963
 145   2.0000      -0.709908       -19.3176
 146   2.0000      -0.708190       -19.2708
 147   2.0000      -0.699194       -19.0260
 148   2.0000      -0.693226       -18.8636
 149   2.0000      -0.682938       -18.5837
 150   2.0000      -0.681520       -18.5451
 151   2.0000      -0.679399       -18.4874
 152   2.0000      -0.676517       -18.4090
 153   2.0000      -0.662313       -18.0225
 154   2.0000      -0.653547       -17.7839
 155   2.0000      -0.652427       -17.7535
 156   2.0000      -0.647863       -17.6292
 157   2.0000      -0.645739       -17.5715
 158   2.0000      -0.636113       -17.3095
 159   2.0000      -0.632135       -17.2013
 160   2.0000      -0.629590       -17.1320
 161   2.0000      -0.625253       -17.0140
 162   2.0000      -0.618591       -16.8327
 163   2.0000      -0.611155       -16.6304
 164   2.0000      -0.599923       -16.3247
 165   2.0000      -0.594617       -16.1804
 166   2.0000      -0.592665       -16.1272
 167   2.0000      -0.584536       -15.9060
 168   2.0000      -0.580794       -15.8042
 169   2.0000      -0.575975       -15.6731
 170   2.0000      -0.574535       -15.6339
 171   2.0000      -0.573096       -15.5947
 172   2.0000      -0.565501       -15.3881
 173   2.0000      -0.560115       -15.2415
 174   2.0000      -0.555629       -15.1194
 175   2.0000      -0.552616       -15.0374
 176   2.0000      -0.550568       -14.9817
 177   2.0000      -0.549106       -14.9419
 178   2.0000      -0.541414       -14.7326
 179   2.0000      -0.539803       -14.6888
 180   2.0000      -0.538627       -14.6568
 181   2.0000      -0.535952       -14.5840
 182   2.0000      -0.532867       -14.5001
 183   2.0000      -0.529006       -14.3950
 184   2.0000      -0.525269       -14.2933
 185   2.0000      -0.520651       -14.1676
 186   2.0000      -0.518820       -14.1178
 187   2.0000      -0.514497       -14.0002
 188   2.0000      -0.512243       -13.9388
 189   2.0000      -0.507802       -13.8180
 190   2.0000      -0.502973       -13.6866
 191   2.0000      -0.499090       -13.5809
 192   2.0000      -0.495885       -13.4937
 193   2.0000      -0.490748       -13.3539
 194   2.0000      -0.489436       -13.3182
 195   2.0000      -0.488157       -13.2834
 196   2.0000      -0.486931       -13.2501
 197   2.0000      -0.481248       -13.0954
 198   2.0000      -0.480719       -13.0810
 199   2.0000      -0.474219       -12.9042
 200   2.0000      -0.470333       -12.7984
 201   2.0000      -0.469813       -12.7843
 202   2.0000      -0.464585       -12.6420
 203   2.0000      -0.463400       -12.6098
 204   2.0000      -0.462077       -12.5738
 205   2.0000      -0.455866       -12.4048
 206   2.0000      -0.451622       -12.2892
 207   2.0000      -0.450059       -12.2467
 208   2.0000      -0.448509       -12.2046
 209   2.0000      -0.446603       -12.1527
 210   2.0000      -0.443660       -12.0726
 211   2.0000      -0.443078       -12.0568
 212   2.0000      -0.440045       -11.9742
 213   2.0000      -0.438860       -11.9420
 214   2.0000      -0.437113       -11.8945
 215   2.0000      -0.434879       -11.8337
 216   2.0000      -0.432833       -11.7780
 217   2.0000      -0.429155       -11.6779
 218   2.0000      -0.426481       -11.6051
 219   2.0000      -0.418048       -11.3757
 220   2.0000      -0.415696       -11.3117
 221   2.0000      -0.414814       -11.2877
 222   2.0000      -0.411880       -11.2078
 223   2.0000      -0.402493       -10.9524
 224   2.0000      -0.398063       -10.8318
 225   2.0000      -0.396866       -10.7993
 226   2.0000      -0.391576       -10.6553
 227   2.0000      -0.387238       -10.5373
 228   2.0000      -0.383276       -10.4295
 229   2.0000      -0.381299       -10.3757
 230   2.0000      -0.378696       -10.3048
 231   2.0000      -0.370839       -10.0910
 232   2.0000      -0.370079       -10.0704
 233   2.0000      -0.366602        -9.9757
 234   2.0000      -0.365428        -9.9438
 235   2.0000      -0.362688        -9.8693
 236   2.0000      -0.353918        -9.6306
 237   2.0000      -0.343668        -9.3517
 238   2.0000      -0.337361        -9.1801
 239   2.0000      -0.331902        -9.0315
 240   2.0000      -0.329441        -8.9645
 241   2.0000      -0.325878        -8.8676
 242   2.0000      -0.323144        -8.7932
 243   2.0000      -0.310822        -8.4579
 244   2.0000      -0.310495        -8.4490
 245   2.0000      -0.296595        -8.0707
 246   2.0000      -0.288030        -7.8377
 247   2.0000      -0.276769        -7.5313
 248   2.0000      -0.253350        -6.8940
 249   2.0000      -0.229599        -6.2477
 250   0.0000      -0.101627        -2.7654
 251   0.0000      -0.078456        -2.1349
 252   0.0000      -0.064616        -1.7583
 253   0.0000      -0.060288        -1.6405
 254   0.0000      -0.037591        -1.0229

MULLIKEN ATOMIC CHARGES
-----------------------
   0 C :    0.318191
   1 C :   -0.370733
   2 C :   -0.188119
   3 N :    0.140868
   4 C :   -0.197291
   5 N :    0.151898
   6 C :    0.013911
   7 C :   -0.018660
   8 C :   -0.075829
   9 C :    0.117483
  10 C :   -0.093363
  11 C :   -0.017864
  12 S :    0.184014
  13 C :   -0.124280
  14 C :    0.039339
  15 Br:    0.019664
  16 C :    0.171185
  17 O :   -0.220947
  18 C :   -0.119254
  19 C :    0.060037
  20 C :   -0.223109
  21 S :    0.170911
  22 C :   -0.086838
  23 C :   -0.014567
  24 C :    0.169513
  25 N :   -0.013300
  26 N :   -0.050627
  27 C :   -0.015163
  28 C :    0.053746
  29 C :    0.085375
  30 C :   -0.069725
  31 C :   -0.022167
  32 C :    0.101542
  33 C :   -0.042203
  34 S :    0.116829
  35 C :   -0.060559
  36 C :    0.135320
  37 C :   -0.035893
  38 C :   -0.049174
  39 S :    0.075567
  40 C :   -0.015782
  41 C :   -0.082955
  42 C :   -0.157481
  43 S :    0.162975
  44 C :   -0.115746
  45 C :    0.015288
  46 C :    0.120990
  47 N :   -0.046331
  48 N :   -0.053753
  49 C :   -0.018016
  50 C :    0.046941
  51 C :    0.061425
  52 C :   -0.208045
  53 S :    0.161394
  54 C :   -0.142250
  55 C :    0.133917
  56 C :    0.187544
  57 O :   -0.192931
  58 C :    0.247256
  59 N :    0.270263
  60 O :   -0.245829
  61 O :   -0.229264
  62 C :   -0.075330
  63 H :   -0.013556
  64 H :   -0.008169
  65 H :   -0.004549
  66 H :   -0.002185
  67 H :    0.155581
  68 H :    0.006023
  69 H :   -0.016190
  70 H :   -0.022135
  71 H :   -0.017388
  72 H :   -0.027208
  73 H :   -0.028007
  74 H :   -0.014622
  75 H :    0.140343
  76 H :    0.002804
  77 H :    0.000822
  78 H :   -0.041342
  79 H :    0.034614
  80 H :    0.015156
Sum of atomic charges:   -0.0000000

LOEWDIN ATOMIC CHARGES
----------------------
   0 C :    0.078917
   1 C :   -0.156029
   2 C :   -0.018083
   3 N :   -0.064232
   4 C :   -0.027287
   5 N :   -0.061548
   6 C :   -0.018891
   7 C :   -0.050238
   8 C :    0.020051
   9 C :   -0.035383
  10 C :   -0.144465
  11 C :   -0.010980
  12 S :    0.431364
  13 C :   -0.273419
  14 C :   -0.070763
  15 Br:    0.133516
  16 C :    0.097615
  17 O :   -0.178355
  18 C :   -0.130037
  19 C :    0.041373
  20 C :   -0.211277
  21 S :    0.479353
  22 C :   -0.119826
  23 C :   -0.105751
  24 C :    0.008881
  25 N :    0.121222
  26 N :   -0.048569
  27 C :   -0.040736
  28 C :   -0.047240
  29 C :    0.000239
  30 C :   -0.163414
  31 C :   -0.033079
  32 C :   -0.049538
  33 C :   -0.147717
  34 S :    0.398932
  35 C :   -0.041274
  36 C :   -0.032162
  37 C :   -0.150402
  38 C :   -0.031642
  39 S :    0.374106
  40 C :   -0.150861
  41 C :   -0.074606
  42 C :   -0.233532
  43 S :    0.472255
  44 C :   -0.158523
  45 C :   -0.092629
  46 C :   -0.016999
  47 N :    0.087103
  48 N :   -0.048319
  49 C :   -0.041416
  50 C :   -0.037987
  51 C :   -0.038715
  52 C :   -0.201595
  53 S :    0.482367
  54 C :   -0.185893
  55 C :   -0.081348
  56 C :    0.020471
  57 O :    0.000417
  58 C :    0.027136
  59 N :    0.271587
  60 O :   -0.207083
  61 O :   -0.191436
  62 C :   -0.006704
  63 H :    0.039436
  64 H :    0.040700
  65 H :    0.038128
  66 H :    0.043808
  67 H :    0.071130
  68 H :    0.021064
  69 H :    0.031475
  70 H :    0.033399
  71 H :    0.031097
  72 H :    0.032637
  73 H :    0.032105
  74 H :    0.027834
  75 H :    0.078105
  76 H :    0.020521
  77 H :    0.033917
  78 H :    0.029308
  79 H :    0.030091
  80 H :    0.048326

  Mayer bond orders larger than 0.100000
B(  0-C ,  1-C ) :   1.5919 B(  0-C ,  6-C ) :   0.9847 B(  0-C , 18-C ) :   1.1204
B(  1-C ,  2-C ) :   1.1513 B(  1-C ,  4-C ) :   1.1449 B(  2-C ,  3-N ) :   2.9652
B(  4-C ,  5-N ) :   2.9785 B(  6-C ,  7-C ) :   1.2763 B(  6-C , 11-C ) :   1.4223
B(  7-C ,  8-C ) :   1.4230 B(  7-C , 16-C ) :   0.9609 B(  8-C ,  9-C ) :   1.2418
B(  8-C , 63-H ) :   1.0161 B(  9-C , 10-C ) :   1.3139 B(  9-C , 14-C ) :   1.1620
B( 10-C , 11-C ) :   1.3205 B( 10-C , 12-S ) :   1.0857 B( 11-C , 64-H ) :   0.9792
B( 12-S , 13-C ) :   1.0866 B( 13-C , 14-C ) :   1.6192 B( 13-C , 15-Br) :   1.0172
B( 14-C , 65-H ) :   0.9998 B( 16-C , 17-O ) :   2.0736 B( 16-C , 18-C ) :   0.9928
B( 17-O , 67-H ) :   0.1058 B( 18-C , 19-C ) :   1.4698 B( 19-C , 20-C ) :   1.3793
B( 19-C , 66-H ) :   0.8874 B( 20-C , 21-S ) :   1.0788 B( 20-C , 24-C ) :   1.2247
B( 21-S , 22-C ) :   1.1876 B( 22-C , 23-C ) :   1.2701 B( 22-C , 28-C ) :   1.1829
B( 23-C , 24-C ) :   1.2669 B( 23-C , 27-C ) :   1.1706 B( 24-C , 25-N ) :   1.2560
B( 25-N , 26-N ) :   1.1407 B( 25-N , 67-H ) :   0.8948 B( 26-N , 27-C ) :   1.7271
B( 27-C , 68-H ) :   0.9943 B( 28-C , 29-C ) :   1.6505 B( 28-C , 69-H ) :   0.9572
B( 29-C , 30-C ) :   1.1415 B( 29-C , 70-H ) :   0.9594 B( 30-C , 31-C ) :   1.5346
B( 30-C , 34-S ) :   1.0667 B( 31-C , 32-C ) :   1.1850 B( 31-C , 71-H ) :   0.9952
B( 32-C , 33-C ) :   1.2763 B( 32-C , 38-C ) :   1.2938 B( 33-C , 34-S ) :   1.0540
B( 33-C , 35-C ) :   1.3779 B( 35-C , 36-C ) :   1.3209 B( 35-C , 72-H ) :   1.0019
B( 36-C , 37-C ) :   1.2645 B( 36-C , 41-C ) :   1.1620 B( 37-C , 38-C ) :   1.4157
B( 37-C , 39-S ) :   1.0336 B( 38-C , 73-H ) :   0.9988 B( 39-S , 40-C ) :   1.0569
B( 40-C , 41-C ) :   1.5368 B( 40-C , 42-C ) :   1.2015 B( 41-C , 74-H ) :   0.9991
B( 42-C , 43-S ) :   1.1027 B( 42-C , 44-C ) :   0.1142 B( 42-C , 46-C ) :   1.3863
B( 43-S , 44-C ) :   1.1516 B( 44-C , 45-C ) :   1.3220 B( 44-C , 50-C ) :   1.1698
B( 45-C , 46-C ) :   1.2548 B( 45-C , 49-C ) :   1.1511 B( 46-C , 47-N ) :   1.1581
B( 47-N , 48-N ) :   1.1348 B( 47-N , 75-H ) :   0.9434 B( 48-N , 49-C ) :   1.7454
B( 49-C , 76-H ) :   0.9966 B( 50-C , 51-C ) :   1.6517 B( 50-C , 77-H ) :   0.9539
B( 51-C , 52-C ) :   1.1385 B( 51-C , 78-H ) :   0.9621 B( 52-C , 53-S ) :   1.1310
B( 52-C , 54-C ) :   0.1094 B( 52-C , 56-C ) :   1.4505 B( 53-S , 54-C ) :   1.1945
B( 54-C , 55-C ) :   1.4257 B( 54-C , 79-H ) :   0.9755 B( 55-C , 56-C ) :   1.2327
B( 55-C , 62-C ) :   1.0556 B( 56-C , 57-O ) :   1.0926 B( 57-O , 58-C ) :   1.1187
B( 58-C , 59-N ) :   0.9115 B( 58-C , 62-C ) :   1.5801 B( 59-N , 60-O ) :   1.5371
B( 59-N , 61-O ) :   1.5150 B( 60-O , 61-O ) :   0.2813 B( 62-C , 80-H ) :   1.0253

-----------------------------------------------------------------------------
         ABSORPTION SPECTRUM VIA TRANSITION ELECTRIC DIPOLE MOMENTS
-----------------------------------------------------------------------------
State   Energy  Wavelength   fosc         T2         TX        TY        TZ
        (cm-1)    (nm)                  (au**2)     (au)      (au)      (au)
-----------------------------------------------------------------------------
   0   15109.3    661.8   2.846398860  62.01912  -7.50004   1.72077  -1.67556
   1   19250.6    519.5   0.137775909   2.35616   0.87054  -1.26054   0.09671
   2   20611.5    485.2   0.100451938   1.60444   1.17048   0.36529  -0.31777
   3   22643.0    441.6   0.351003894   5.10333   2.12369  -0.76939   0.03618
   4   23658.1    422.7   0.075759655   1.05423   0.41415   0.12071  -0.93173
   5   24795.1    403.3   0.067318134   0.89380  -0.70129  -0.18367   0.60685
   6   27104.1    368.9   0.253071394   3.07386  -1.14875   0.20532  -1.30846
   7   28186.2    354.8   0.122354235   1.42908  -1.08741  -0.11390   0.48337
   8   28473.1    351.2   0.001204992   0.01393  -0.08300  -0.04036   0.07358
   9   29414.9    340.0   0.106748624   1.19473   0.59404  -0.71167   0.57911
  10   30079.4    332.5   0.070976051   0.77682  -0.61849  -0.01298  -0.62778
  11   30646.2    326.3   0.014303321   0.15365  -0.37604   0.10646   0.03024
  12   31177.2    320.7   0.055418248   0.58518   0.07541   0.41052  -0.64107
  13   31238.1    320.1   0.074800488   0.78831   0.16124  -0.40461   0.77370
  14   31372.4    318.8   0.000982688   0.01031   0.00316  -0.08013  -0.06230
  15   32040.8    312.1   0.011553174   0.11871   0.17202   0.08539  -0.28605
  16   32420.0    308.5   0.094774234   0.96239   0.78936  -0.16497   0.55865
  17   32725.9    305.6   0.433082886   4.35667   0.96514  -0.16515   1.84334
  18   33484.1    298.6   0.187324185   1.84175   0.02982  -0.25713   1.33220
  19   34694.0    288.2   0.034298991   0.32546   0.43464  -0.08672   0.35921
  20   35179.9    284.3   0.004145302   0.03879  -0.05706  -0.13544   0.13112
  21   35422.0    282.3   0.029811497   0.27707  -0.37638   0.05887  -0.36324
  22   35923.3    278.4   0.012603870   0.11551  -0.11646  -0.15823   0.27732
  23   36350.4    275.1   0.098165498   0.88905   0.54636   0.21934  -0.73650
  24   36713.1    272.4   0.307331814   2.75589  -0.09322  -0.70453   1.50028
  25   36784.4    271.9   0.006943110   0.06214   0.09551  -0.10745   0.20364
  26   37062.6    269.8   0.015660421   0.13911  -0.14397  -0.16436   0.30226
  27   37264.3    268.4   0.077569950   0.68529   0.30995   0.29570  -0.70837
  28   37408.2    267.3   0.072461510   0.63770  -0.75780   0.05264   0.24631
  29   37699.9    265.3   0.090289129   0.78844   0.01555  -0.35428   0.81405
  30   37980.9    263.3   0.015649657   0.13565  -0.00905   0.23935  -0.27978
  31   38060.6    262.7   0.281791871   2.43741  -0.19407  -0.59389   1.43075
  32   38646.1    258.8   0.147571998   1.25711   0.78110  -0.43920   0.67387
  33   39226.7    254.9   0.066813769   0.56074   0.20183   0.40007  -0.59995
  34   39578.5    252.7   0.116484743   0.96891   0.96630   0.18311   0.04055
  35   40071.4    249.6   0.065504859   0.53816  -0.71025   0.16393  -0.08265
  36   40181.1    248.9   0.009811693   0.08039  -0.27796  -0.01923   0.05253
  37   40225.3    248.6   0.132218862   1.08211  -0.84411   0.07919   0.60276

FINAL SINGLE POINT ENERGY     -7368.962070029560

DIPOLE MOMENT
-------------
                                X             Y             Z
Electronic contribution:    171.95164     -26.22716      71.75017
Nuclear contribution   :   -175.57522      27.51708     -72.00396
                        -----------------------------------------
Total Dipole Moment    :     -3.62358       1.28992      -0.25379
                        -----------------------------------------
Magnitude (a.u.)       :      3.85469
Magnitude (Debye)      :      9.79784

Rotational constants in cm-1:     0.002856     0.000143     0.000139
Rotational constants in MHz :    85.634534     4.286902     4.156520

                             ****ORCA TERMINATED NORMALLY****
TOTAL RUN TIME: 0 days 0 hours 6 minutes 46 seconds 129 msec
