                         Program Version 4.2.0 -  RELEASE  -
|  1> # ORCA input file
|  2> # SCF done       -178.605065777809          0.000552873563
|  3> ! CAM-B3LYP def2-SVP def2/J RIJCOSX Grid4 TightSCF
|  4> %maxcore 5000
|  5> %tddft
|  6>     Mode sTDDFT
|  7>     Ethresh 5.0
|  8>     maxcore 5000
|  9> end
| 10>
| 11> %pal
| 12>   nprocs 6
| 13>   end
| 14> * xyz 0 1
| 15>    C       -8.76057        -0.44356        -7.65337
| 16>    C       -7.78008         0.50544        -7.56214
| 17>    C       -6.59359         0.48969        -8.32740
| 18>    N       -5.61146         0.52330        -8.91950
| 19>    C       -7.82922         1.64272        -6.72625
| 20>    N       -7.80574         2.59543        -6.08661
| 21>    C       -8.77316        -1.57511        -8.56705
| 22>    C      -10.03237        -2.21831        -8.47945
| 23>    C      -10.35566        -3.32246        -9.23138
| 24>    C       -9.38934        -3.81693       -10.11220
| 25>    C       -8.13022        -3.17140       -10.18993
| 26>    C       -7.80404        -2.05584        -9.43025
| 27>    S       -7.08444        -3.94913       -11.33821
| 28>    C       -8.33425        -5.11141       -11.69651
| 29>    C       -9.47702        -4.92952       -10.99195
| 30>   Br       -8.01240        -6.45426       -12.96415
| 31>    C      -10.88641        -1.51931        -7.50129
| 32>    O      -12.03050        -1.79656        -7.22591
| 33>    C      -10.02034        -0.45366        -6.91386
| 34>    C      -10.25991         0.22672        -5.76998
| 35>    C      -11.49612         0.25538        -5.01049
| 36>    C      -12.72746         0.28964        -5.54665
| 37>    C      -11.33400         0.33990        -3.60575
| 38>    C      -11.20048         0.41520        -2.40536
| 39>    C      -11.16365         0.50106        -1.01241
| 40>    C      -10.30844         1.29087        -0.33054
| 41>    C      -10.29838         1.46508         1.09576
| 42>    C      -11.40782         1.39073         1.90675
| 43>    O      -11.33011         1.44685         3.28463
| 44>    C      -10.08205         1.68102         3.78436
| 45>    C       -8.94878         1.84690         2.93653
| 46>    C       -7.80614         2.09360         3.62461
| 47>    S       -8.09603         2.12567         5.32163
| 48>    C       -9.77522         1.80314         5.09899
| 49>    O       -9.04283         1.73545         1.57852
| 50>    C      -12.73141         1.30944         1.39458
| 51>    C      -13.82564         0.97266         2.12420
| 52>    C      -15.11273         0.87225         1.55102
| 53>    S      -15.41248         1.22177        -0.12019
| 54>    C      -17.06717         0.68732        -0.01324
| 55>    C      -17.36984         0.31705         1.29836
| 56>    C      -16.28099         0.42665         2.16999
| 57>    S      -16.23581        -0.03191         3.86471
| 58>    C      -17.85528        -0.51309         4.36974
| 59>    O      -17.97436        -0.98659         5.46598
| 60>    C      -19.08519        -0.29400         3.51857
| 61>    O      -20.17575        -0.34679         4.01033
| 62>    S      -19.02030        -0.05773         1.75968
| 63>    C      -17.85408         0.74065        -1.18201
| 64>    C      -18.96022         0.03730        -1.55807
| 65>    C      -19.58143        -1.17844        -1.09208
| 66>    C      -18.96542        -2.20569        -0.42002
| 67>    C      -19.60359        -3.41132        -0.06394
| 68>    N      -20.07362        -4.40732         0.25845
| 69>    C      -17.59669        -2.21367        -0.09516
| 70>    N      -16.48007        -2.26110         0.16906
| 71>    C      -20.91658        -1.23931        -1.67677
| 72>    C      -21.03706        -0.21238        -2.64736
| 73>    C      -19.79270         0.57777        -2.67217
| 74>    O      -19.50222         1.49249        -3.40760
| 75>    C      -22.17157        -0.04122        -3.40246
| 76>    C      -23.24078        -0.91611        -3.18083
| 77>    C      -23.11631        -1.92692        -2.19716
| 78>    C      -21.96514        -2.10618        -1.43907
| 79>    S      -24.55815        -2.88713        -2.08137
| 80>    C      -25.29738        -1.93697        -3.34281
| 81>    C      -24.50749        -0.94787        -3.82493
| 82>   Br      -27.04024        -2.33931        -3.90364
| 83>    H      -11.32506        -3.78731        -9.14275
| 84>    H       -6.83076        -1.60317        -9.52044
| 85>    H      -10.34665        -5.55362       -11.08756
| 86>    H       -9.44435         0.77428        -5.31154
| 87>    H      -12.88548         0.30117        -6.60856
| 88>    H      -13.59819         0.34246        -4.91552
| 89>    H      -11.87929        -0.12691        -0.49758
| 90>    H       -9.51177         1.80051        -0.85580
| 91>    H       -6.82391         2.25576         3.23285
| 92>    H      -10.43268         1.72355         5.93907
| 93>    H      -12.86039         1.55705         0.35106
| 94>    H      -13.72843         0.71014         3.16755
| 95>    H      -17.54533         1.49422        -1.90249
| 96>    H      -22.23352         0.74174        -4.14182
| 97>    H      -21.91707        -2.88527        -0.69642
| 98>    H      -24.80430        -0.26807        -4.60255
| 99> *
|100>
|101>                          ****END OF INPUT****

CARTESIAN COORDINATES (ANGSTROEM)
---------------------------------
  C     -8.760570   -0.443560   -7.653370
  C     -7.780080    0.505440   -7.562140
  C     -6.593590    0.489690   -8.327400
  N     -5.611460    0.523300   -8.919500
  C     -7.829220    1.642720   -6.726250
  N     -7.805740    2.595430   -6.086610
  C     -8.773160   -1.575110   -8.567050
  C    -10.032370   -2.218310   -8.479450
  C    -10.355660   -3.322460   -9.231380
  C     -9.389340   -3.816930  -10.112200
  C     -8.130220   -3.171400  -10.189930
  C     -7.804040   -2.055840   -9.430250
  S     -7.084440   -3.949130  -11.338210
  C     -8.334250   -5.111410  -11.696510
  C     -9.477020   -4.929520  -10.991950
  Br    -8.012400   -6.454260  -12.964150
  C    -10.886410   -1.519310   -7.501290
  O    -12.030500   -1.796560   -7.225910
  C    -10.020340   -0.453660   -6.913860
  C    -10.259910    0.226720   -5.769980
  C    -11.496120    0.255380   -5.010490
  C    -12.727460    0.289640   -5.546650
  C    -11.334000    0.339900   -3.605750
  C    -11.200480    0.415200   -2.405360
  C    -11.163650    0.501060   -1.012410
  C    -10.308440    1.290870   -0.330540
  C    -10.298380    1.465080    1.095760
  C    -11.407820    1.390730    1.906750
  O    -11.330110    1.446850    3.284630
  C    -10.082050    1.681020    3.784360
  C     -8.948780    1.846900    2.936530
  C     -7.806140    2.093600    3.624610
  S     -8.096030    2.125670    5.321630
  C     -9.775220    1.803140    5.098990
  O     -9.042830    1.735450    1.578520
  C    -12.731410    1.309440    1.394580
  C    -13.825640    0.972660    2.124200
  C    -15.112730    0.872250    1.551020
  S    -15.412480    1.221770   -0.120190
  C    -17.067170    0.687320   -0.013240
  C    -17.369840    0.317050    1.298360
  C    -16.280990    0.426650    2.169990
  S    -16.235810   -0.031910    3.864710
  C    -17.855280   -0.513090    4.369740
  O    -17.974360   -0.986590    5.465980
  C    -19.085190   -0.294000    3.518570
  O    -20.175750   -0.346790    4.010330
  S    -19.020300   -0.057730    1.759680
  C    -17.854080    0.740650   -1.182010
  C    -18.960220    0.037300   -1.558070
  C    -19.581430   -1.178440   -1.092080
  C    -18.965420   -2.205690   -0.420020
  C    -19.603590   -3.411320   -0.063940
  N    -20.073620   -4.407320    0.258450
  C    -17.596690   -2.213670   -0.095160
  N    -16.480070   -2.261100    0.169060
  C    -20.916580   -1.239310   -1.676770
  C    -21.037060   -0.212380   -2.647360
  C    -19.792700    0.577770   -2.672170
  O    -19.502220    1.492490   -3.407600
  C    -22.171570   -0.041220   -3.402460
  C    -23.240780   -0.916110   -3.180830
  C    -23.116310   -1.926920   -2.197160
  C    -21.965140   -2.106180   -1.439070
  S    -24.558150   -2.887130   -2.081370
  C    -25.297380   -1.936970   -3.342810
  C    -24.507490   -0.947870   -3.824930
  Br   -27.040240   -2.339310   -3.903640
  H    -11.325060   -3.787310   -9.142750
  H     -6.830760   -1.603170   -9.520440
  H    -10.346650   -5.553620  -11.087560
  H     -9.444350    0.774280   -5.311540
  H    -12.885480    0.301170   -6.608560
  H    -13.598190    0.342460   -4.915520
  H    -11.879290   -0.126910   -0.497580
  H     -9.511770    1.800510   -0.855800
  H     -6.823910    2.255760    3.232850
  H    -10.432680    1.723550    5.939070
  H    -12.860390    1.557050    0.351060
  H    -13.728430    0.710140    3.167550
  H    -17.545330    1.494220   -1.902490
  H    -22.233520    0.741740   -4.141820
  H    -21.917070   -2.885270   -0.696420
  H    -24.804300   -0.268070   -4.602550

 Total Charge           Charge          ....    0
 Multiplicity           Mult            ....    1
 Number of Electrons    NEL             ....  558
 Basis Dimension        Dim             .... 1092

ORBITAL ENERGIES
----------------

  NO   OCC          E(Eh)            E(eV)
   0   2.0000    -482.891211    -13140.1379
   1   2.0000    -482.886499    -13140.0097
   2   2.0000     -88.983013     -2421.3509
   3   2.0000     -88.982328     -2421.3323
   4   2.0000     -88.981008     -2421.2963
   5   2.0000     -88.976852     -2421.1832
   6   2.0000     -88.974645     -2421.1232
   7   2.0000     -88.964304     -2420.8418
   8   2.0000     -62.568931     -1702.5872
   9   2.0000     -62.564190     -1702.4582
  10   2.0000     -56.402889     -1534.8006
  11   2.0000     -56.400155     -1534.7262
  12   2.0000     -56.400131     -1534.7256
  13   2.0000     -56.398142     -1534.6715
  14   2.0000     -56.395425     -1534.5975
  15   2.0000     -56.395393     -1534.5967
  16   2.0000     -19.286590      -524.8148
  17   2.0000     -19.283890      -524.7413
  18   2.0000     -19.249969      -523.8183
  19   2.0000     -19.243482      -523.6418
  20   2.0000     -19.227032      -523.1941
  21   2.0000     -19.220394      -523.0135
  22   2.0000     -14.423663      -392.4878
  23   2.0000     -14.422884      -392.4666
  24   2.0000     -14.420414      -392.3994
  25   2.0000     -14.418512      -392.3476
  26   2.0000     -10.412946      -283.3507
  27   2.0000     -10.409519      -283.2574
  28   2.0000     -10.378927      -282.4250
  29   2.0000     -10.370643      -282.1995
  30   2.0000     -10.365836      -282.0687
  31   2.0000     -10.363667      -282.0097
  32   2.0000     -10.359879      -281.9066
  33   2.0000     -10.358518      -281.8696
  34   2.0000     -10.352638      -281.7096
  35   2.0000     -10.350144      -281.6417
  36   2.0000     -10.348068      -281.5852
  37   2.0000     -10.347790      -281.5777
  38   2.0000     -10.347624      -281.5732
  39   2.0000     -10.347539      -281.5708
  40   2.0000     -10.343998      -281.4745
  41   2.0000     -10.338611      -281.3279
  42   2.0000     -10.335643      -281.2471
  43   2.0000     -10.334442      -281.2145
  44   2.0000     -10.333579      -281.1910
  45   2.0000     -10.327644      -281.0295
  46   2.0000     -10.327613      -281.0286
  47   2.0000     -10.326769      -281.0057
  48   2.0000     -10.325873      -280.9813
  49   2.0000     -10.325151      -280.9616
  50   2.0000     -10.321760      -280.8694
  51   2.0000     -10.320886      -280.8456
  52   2.0000     -10.316899      -280.7371
  53   2.0000     -10.316867      -280.7362
  54   2.0000     -10.315624      -280.7024
  55   2.0000     -10.313927      -280.6562
  56   2.0000     -10.312524      -280.6180
  57   2.0000     -10.311105      -280.5794
  58   2.0000     -10.311082      -280.5788
  59   2.0000     -10.308982      -280.5217
  60   2.0000     -10.308956      -280.5210
  61   2.0000     -10.307421      -280.4792
  62   2.0000     -10.305975      -280.4398
  63   2.0000     -10.305488      -280.4266
  64   2.0000     -10.304548      -280.4010
  65   2.0000     -10.304086      -280.3884
  66   2.0000     -10.303119      -280.3621
  67   2.0000     -10.301592      -280.3206
  68   2.0000     -10.301067      -280.3063
  69   2.0000     -10.300763      -280.2980
  70   2.0000     -10.300687      -280.2960
  71   2.0000     -10.300415      -280.2886
  72   2.0000     -10.297906      -280.2203
  73   2.0000     -10.295264      -280.1484
  74   2.0000     -10.287031      -279.9243
  75   2.0000     -10.284553      -279.8569
  76   2.0000      -8.798369      -239.4158
  77   2.0000      -8.793613      -239.2864
  78   2.0000      -8.078460      -219.8261
  79   2.0000      -8.078350      -219.8231
  80   2.0000      -8.076695      -219.7780
  81   2.0000      -8.072922      -219.6754
  82   2.0000      -8.071171      -219.6277
  83   2.0000      -8.060098      -219.3264
  84   2.0000      -6.634707      -180.5395
  85   2.0000      -6.629899      -180.4087
  86   2.0000      -6.620107      -180.1423
  87   2.0000      -6.619861      -180.1356
  88   2.0000      -6.615351      -180.0128
  89   2.0000      -6.615152      -180.0074
  90   2.0000      -6.048045      -164.5757
  91   2.0000      -6.047767      -164.5681
  92   2.0000      -6.046549      -164.5350
  93   2.0000      -6.043862      -164.4618
  94   2.0000      -6.043750      -164.4588
  95   2.0000      -6.042609      -164.4277
  96   2.0000      -6.041849      -164.4071
  97   2.0000      -6.041022      -164.3846
  98   2.0000      -6.040237      -164.3632
  99   2.0000      -6.039563      -164.3449
 100   2.0000      -6.038324      -164.3111
 101   2.0000      -6.037785      -164.2965
 102   2.0000      -6.036443      -164.2600
 103   2.0000      -6.034131      -164.1971
 104   2.0000      -6.032040      -164.1401
 105   2.0000      -6.029571      -164.0730
 106   2.0000      -6.025420      -163.9600
 107   2.0000      -6.021800      -163.8615
 108   2.0000      -2.750581       -74.8471
 109   2.0000      -2.746468       -74.7352
 110   2.0000      -2.746302       -74.7307
 111   2.0000      -2.745804       -74.7171
 112   2.0000      -2.741684       -74.6050
 113   2.0000      -2.741523       -74.6006
 114   2.0000      -2.734693       -74.4148
 115   2.0000      -2.734682       -74.4145
 116   2.0000      -2.729960       -74.2860
 117   2.0000      -2.729953       -74.2858
 118   2.0000      -1.212019       -32.9807
 119   2.0000      -1.184985       -32.2451
 120   2.0000      -1.174951       -31.9721
 121   2.0000      -1.152680       -31.3660
 122   2.0000      -1.143297       -31.1107
 123   2.0000      -1.135716       -30.9044
 124   2.0000      -1.032837       -28.1049
 125   2.0000      -1.030987       -28.0546
 126   2.0000      -1.024078       -27.8666
 127   2.0000      -1.020944       -27.7813
 128   2.0000      -1.015438       -27.6315
 129   2.0000      -1.001822       -27.2610
 130   2.0000      -0.998052       -27.1584
 131   2.0000      -0.997845       -27.1527
 132   2.0000      -0.994624       -27.0651
 133   2.0000      -0.992939       -27.0192
 134   2.0000      -0.955785       -26.0082
 135   2.0000      -0.951218       -25.8840
 136   2.0000      -0.947047       -25.7705
 137   2.0000      -0.941454       -25.6183
 138   2.0000      -0.937898       -25.5215
 139   2.0000      -0.930911       -25.3314
 140   2.0000      -0.916160       -24.9300
 141   2.0000      -0.911531       -24.8040
 142   2.0000      -0.905477       -24.6393
 143   2.0000      -0.897707       -24.4279
 144   2.0000      -0.893784       -24.3211
 145   2.0000      -0.891434       -24.2572
 146   2.0000      -0.888078       -24.1658
 147   2.0000      -0.875403       -23.8209
 148   2.0000      -0.864874       -23.5344
 149   2.0000      -0.849914       -23.1273
 150   2.0000      -0.845063       -22.9953
 151   2.0000      -0.839765       -22.8512
 152   2.0000      -0.836383       -22.7591
 153   2.0000      -0.831393       -22.6233
 154   2.0000      -0.825973       -22.4759
 155   2.0000      -0.816965       -22.2308
 156   2.0000      -0.803573       -21.8663
 157   2.0000      -0.781496       -21.2656
 158   2.0000      -0.779596       -21.2139
 159   2.0000      -0.767849       -20.8942
 160   2.0000      -0.765866       -20.8403
 161   2.0000      -0.757361       -20.6088
 162   2.0000      -0.755483       -20.5577
 163   2.0000      -0.733225       -19.9521
 164   2.0000      -0.724732       -19.7210
 165   2.0000      -0.715539       -19.4708
 166   2.0000      -0.706113       -19.2143
 167   2.0000      -0.701657       -19.0931
 168   2.0000      -0.699021       -19.0213
 169   2.0000      -0.694549       -18.8996
 170   2.0000      -0.689087       -18.7510
 171   2.0000      -0.686000       -18.6670
 172   2.0000      -0.677684       -18.4407
 173   2.0000      -0.670385       -18.2421
 174   2.0000      -0.665329       -18.1045
 175   2.0000      -0.658975       -17.9316
 176   2.0000      -0.649558       -17.6754
 177   2.0000      -0.647458       -17.6182
 178   2.0000      -0.632019       -17.1981
 179   2.0000      -0.631813       -17.1925
 180   2.0000      -0.626745       -17.0546
 181   2.0000      -0.616521       -16.7764
 182   2.0000      -0.610493       -16.6124
 183   2.0000      -0.609801       -16.5935
 184   2.0000      -0.605376       -16.4731
 185   2.0000      -0.603694       -16.4273
 186   2.0000      -0.599170       -16.3042
 187   2.0000      -0.597769       -16.2661
 188   2.0000      -0.585558       -15.9339
 189   2.0000      -0.581664       -15.8279
 190   2.0000      -0.573996       -15.6192
 191   2.0000      -0.571711       -15.5570
 192   2.0000      -0.567229       -15.4351
 193   2.0000      -0.560120       -15.2416
 194   2.0000      -0.558829       -15.2065
 195   2.0000      -0.555152       -15.1065
 196   2.0000      -0.553318       -15.0566
 197   2.0000      -0.551271       -15.0008
 198   2.0000      -0.550165       -14.9707
 199   2.0000      -0.546298       -14.8655
 200   2.0000      -0.545202       -14.8357
 201   2.0000      -0.543809       -14.7978
 202   2.0000      -0.537880       -14.6365
 203   2.0000      -0.535059       -14.5597
 204   2.0000      -0.534074       -14.5329
 205   2.0000      -0.530749       -14.4424
 206   2.0000      -0.529203       -14.4004
 207   2.0000      -0.527118       -14.3436
 208   2.0000      -0.522885       -14.2284
 209   2.0000      -0.516140       -14.0449
 210   2.0000      -0.515564       -14.0292
 211   2.0000      -0.513850       -13.9826
 212   2.0000      -0.513215       -13.9653
 213   2.0000      -0.511890       -13.9292
 214   2.0000      -0.509486       -13.8638
 215   2.0000      -0.504537       -13.7292
 216   2.0000      -0.503244       -13.6940
 217   2.0000      -0.499159       -13.5828
 218   2.0000      -0.498199       -13.5567
 219   2.0000      -0.492362       -13.3979
 220   2.0000      -0.489819       -13.3286
 221   2.0000      -0.488075       -13.2812
 222   2.0000      -0.487465       -13.2646
 223   2.0000      -0.487247       -13.2587
 224   2.0000      -0.480916       -13.0864
 225   2.0000      -0.476005       -12.9528
 226   2.0000      -0.474246       -12.9049
 227   2.0000      -0.471696       -12.8355
 228   2.0000      -0.465005       -12.6534
 229   2.0000      -0.464600       -12.6424
 230   2.0000      -0.460943       -12.5429
 231   2.0000      -0.457025       -12.4363
 232   2.0000      -0.455553       -12.3962
 233   2.0000      -0.455321       -12.3899
 234   2.0000      -0.452207       -12.3052
 235   2.0000      -0.451431       -12.2841
 236   2.0000      -0.450310       -12.2536
 237   2.0000      -0.449452       -12.2302
 238   2.0000      -0.446963       -12.1625
 239   2.0000      -0.446134       -12.1399
 240   2.0000      -0.442725       -12.0472
 241   2.0000      -0.439505       -11.9596
 242   2.0000      -0.438525       -11.9329
 243   2.0000      -0.434707       -11.8290
 244   2.0000      -0.433560       -11.7978
 245   2.0000      -0.432384       -11.7658
 246   2.0000      -0.431404       -11.7391
 247   2.0000      -0.426622       -11.6090
 248   2.0000      -0.424616       -11.5544
 249   2.0000      -0.423459       -11.5229
 250   2.0000      -0.417118       -11.3504
 251   2.0000      -0.413146       -11.2423
 252   2.0000      -0.411886       -11.2080
 253   2.0000      -0.411478       -11.1969
 254   2.0000      -0.402899       -10.9634
 255   2.0000      -0.396213       -10.7815
 256   2.0000      -0.394768       -10.7422
 257   2.0000      -0.389196       -10.5906
 258   2.0000      -0.384736       -10.4692
 259   2.0000      -0.380412       -10.3515
 260   2.0000      -0.377740       -10.2788
 261   2.0000      -0.375798       -10.2260
 262   2.0000      -0.373674       -10.1682
 263   2.0000      -0.359194        -9.7742
 264   2.0000      -0.352187        -9.5835
 265   2.0000      -0.349971        -9.5232
 266   2.0000      -0.346587        -9.4311
 267   2.0000      -0.344760        -9.3814
 268   2.0000      -0.335212        -9.1216
 269   2.0000      -0.323299        -8.7974
 270   2.0000      -0.322320        -8.7708
 271   2.0000      -0.318147        -8.6572
 272   2.0000      -0.312881        -8.5139
 273   2.0000      -0.310024        -8.4362
 274   2.0000      -0.301681        -8.2092
 275   2.0000      -0.298071        -8.1109
 276   2.0000      -0.293167        -7.9775
 277   2.0000      -0.289468        -7.8768
 278   2.0000      -0.250217        -6.8087
 279   0.0000      -0.101986        -2.7752
 280   0.0000      -0.094414        -2.5691
 281   0.0000      -0.070404        -1.9158
 282   0.0000      -0.065283        -1.7765
 283   0.0000      -0.058305        -1.5866

MULLIKEN ATOMIC CHARGES
-----------------------
   0 C :    0.292277
   1 C :   -0.333161
   2 C :   -0.183304
   3 N :    0.154529
   4 C :   -0.202798
   5 N :    0.168139
   6 C :    0.018196
   7 C :   -0.021240
   8 C :   -0.064505
   9 C :    0.117651
  10 C :   -0.089388
  11 C :   -0.016608
  12 S :    0.191600
  13 C :   -0.124202
  14 C :    0.039197
  15 Br:    0.030521
  16 C :    0.148990
  17 O :   -0.137267
  18 C :   -0.079612
  19 C :   -0.009685
  20 C :   -0.086705
  21 C :    0.091333
  22 C :    0.000742
  23 C :    0.018039
  24 C :   -0.113653
  25 C :    0.012173
  26 C :    0.150184
  27 C :    0.169094
  28 O :   -0.257578
  29 C :    0.221389
  30 C :    0.209587
  31 C :   -0.165076
  32 S :    0.118641
  33 C :   -0.172531
  34 O :   -0.239297
  35 C :   -0.085538
  36 C :    0.003552
  37 C :   -0.064202
  38 S :    0.151980
  39 C :   -0.144322
  40 C :   -0.004623
  41 C :   -0.032679
  42 S :    0.094408
  43 C :    0.082718
  44 O :   -0.130643
  45 C :    0.082200
  46 O :   -0.120341
  47 S :    0.096702
  48 C :    0.049827
  49 C :   -0.132186
  50 C :    0.277436
  51 C :   -0.326921
  52 C :   -0.183498
  53 N :    0.162313
  54 C :   -0.201820
  55 N :    0.169368
  56 C :    0.003273
  57 C :    0.009191
  58 C :    0.131078
  59 O :   -0.142869
  60 C :   -0.075225
  61 C :    0.112667
  62 C :   -0.085086
  63 C :   -0.026903
  64 S :    0.188852
  65 C :   -0.124618
  66 C :    0.039313
  67 Br:    0.024869
  68 H :   -0.007124
  69 H :   -0.004717
  70 H :    0.000274
  71 H :    0.045381
  72 H :    0.042133
  73 H :    0.038163
  74 H :    0.062329
  75 H :    0.031266
  76 H :    0.029716
  77 H :    0.029971
  78 H :    0.038663
  79 H :    0.021181
  80 H :    0.029120
  81 H :   -0.007694
  82 H :    0.000159
  83 H :   -0.002769
Sum of atomic charges:   -0.0000000

LOEWDIN ATOMIC CHARGES
----------------------
   0 C :    0.075364
   1 C :   -0.131699
   2 C :   -0.017872
   3 N :   -0.046331
   4 C :   -0.024684
   5 N :   -0.042779
   6 C :   -0.022336
   7 C :   -0.051575
   8 C :    0.024783
   9 C :   -0.030194
  10 C :   -0.142359
  11 C :   -0.007661
  12 S :    0.436306
  13 C :   -0.269260
  14 C :   -0.069996
  15 Br:    0.142062
  16 C :    0.084686
  17 O :   -0.126464
  18 C :   -0.080636
  19 C :    0.086159
  20 C :   -0.065854
  21 C :    0.067542
  22 C :   -0.017348
  23 C :   -0.034840
  24 C :   -0.025532
  25 C :   -0.006698
  26 C :    0.031989
  27 C :    0.020749
  28 O :   -0.056897
  29 C :   -0.007176
  30 C :   -0.009598
  31 C :   -0.204339
  32 S :    0.445066
  33 C :   -0.206521
  34 O :   -0.046972
  35 C :   -0.017096
  36 C :   -0.052635
  37 C :   -0.153015
  38 S :    0.472954
  39 C :   -0.198603
  40 C :   -0.189568
  41 C :   -0.219731
  42 S :    0.398436
  43 C :   -0.113330
  44 O :   -0.101874
  45 C :   -0.105048
  46 O :   -0.092455
  47 S :    0.420426
  48 C :    0.029039
  49 C :   -0.095169
  50 C :    0.052366
  51 C :   -0.145457
  52 C :   -0.020705
  53 N :   -0.047079
  54 C :   -0.022850
  55 N :   -0.049321
  56 C :   -0.016176
  57 C :   -0.054853
  58 C :    0.085483
  59 O :   -0.141144
  60 C :    0.024257
  61 C :   -0.034176
  62 C :   -0.142047
  63 C :   -0.011985
  64 S :    0.435509
  65 C :   -0.272178
  66 C :   -0.069954
  67 Br:    0.138084
  68 H :    0.042286
  69 H :    0.041595
  70 H :    0.040129
  71 H :    0.049923
  72 H :    0.032781
  73 H :    0.037460
  74 H :    0.050508
  75 H :    0.046637
  76 H :    0.031584
  77 H :    0.031268
  78 H :    0.032082
  79 H :    0.034636
  80 H :    0.047276
  81 H :    0.041763
  82 H :    0.041843
  83 H :    0.039040

  Mayer bond orders larger than 0.100000
B(  0-C ,  1-C ) :   1.6663 B(  0-C ,  6-C ) :   1.0172 B(  0-C , 18-C ) :   1.0272
B(  1-C ,  2-C ) :   1.1347 B(  1-C ,  4-C ) :   1.1370 B(  2-C ,  3-N ) :   2.9771
B(  4-C ,  5-N ) :   2.9968 B(  6-C ,  7-C ) :   1.2661 B(  6-C , 11-C ) :   1.4034
B(  7-C ,  8-C ) :   1.4196 B(  7-C , 16-C ) :   0.9498 B(  8-C ,  9-C ) :   1.2524
B(  8-C , 68-H ) :   1.0163 B(  9-C , 10-C ) :   1.2965 B(  9-C , 14-C ) :   1.1638
B( 10-C , 11-C ) :   1.3381 B( 10-C , 12-S ) :   1.0879 B( 11-C , 69-H ) :   0.9806
B( 12-S , 13-C ) :   1.0867 B( 13-C , 14-C ) :   1.6183 B( 13-C , 15-Br) :   1.0231
B( 14-C , 70-H ) :   0.9998 B( 16-C , 17-O ) :   2.2287 B( 16-C , 18-C ) :   0.9213
B( 18-C , 19-C ) :   1.7204 B( 19-C , 20-C ) :   1.0546 B( 19-C , 71-H ) :   0.9392
B( 20-C , 21-C ) :   1.8951 B( 20-C , 22-C ) :   0.9128 B( 21-C , 72-H ) :   0.9369
B( 21-C , 73-H ) :   0.9438 B( 22-C , 23-C ) :   2.3604 B( 23-C , 24-C ) :   0.9933
B( 24-C , 25-C ) :   1.7156 B( 24-C , 74-H ) :   0.9547 B( 25-C , 26-C ) :   1.1159
B( 25-C , 75-H ) :   0.9560 B( 26-C , 27-C ) :   1.4861 B( 26-C , 34-O ) :   1.0642
B( 27-C , 28-O ) :   1.0723 B( 27-C , 35-C ) :   1.1824 B( 28-O , 29-C ) :   1.0455
B( 29-C , 30-C ) :   1.2012 B( 29-C , 33-C ) :   1.5758 B( 30-C , 31-C ) :   1.5754
B( 30-C , 34-O ) :   1.0452 B( 31-C , 32-S ) :   1.1480 B( 31-C , 76-H ) :   0.9720
B( 32-S , 33-C ) :   1.1440 B( 33-C , 77-H ) :   0.9722 B( 35-C , 36-C ) :   1.6303
B( 35-C , 78-H ) :   0.9539 B( 36-C , 37-C ) :   1.1556 B( 36-C , 79-H ) :   0.9714
B( 37-C , 38-S ) :   1.1315 B( 37-C , 39-C ) :   0.1007 B( 37-C , 41-C ) :   1.5167
B( 38-S , 39-C ) :   1.1090 B( 39-C , 40-C ) :   1.4840 B( 39-C , 48-C ) :   1.1542
B( 40-C , 41-C ) :   1.3149 B( 40-C , 47-S ) :   1.0008 B( 41-C , 42-S ) :   0.9722
B( 42-S , 43-C ) :   1.0591 B( 42-S , 44-O ) :   0.1419 B( 43-C , 44-O ) :   2.1525
B( 43-C , 45-C ) :   0.7715 B( 45-C , 46-O ) :   2.1749 B( 45-C , 47-S ) :   1.0267
B( 46-O , 47-S ) :   0.1274 B( 48-C , 49-C ) :   1.6464 B( 48-C , 80-H ) :   0.9223
B( 49-C , 50-C ) :   1.0564 B( 49-C , 58-C ) :   0.9402 B( 50-C , 51-C ) :   1.6187
B( 50-C , 56-C ) :   1.0166 B( 51-C , 52-C ) :   1.1340 B( 51-C , 54-C ) :   1.1726
B( 52-C , 53-N ) :   2.9904 B( 54-C , 55-N ) :   3.0067 B( 56-C , 57-C ) :   1.2722
B( 56-C , 63-C ) :   1.4166 B( 57-C , 58-C ) :   0.9238 B( 57-C , 60-C ) :   1.4236
B( 58-C , 59-O ) :   2.2642 B( 60-C , 61-C ) :   1.2494 B( 60-C , 81-H ) :   1.0174
B( 61-C , 62-C ) :   1.3067 B( 61-C , 66-C ) :   1.1635 B( 62-C , 63-C ) :   1.3229
B( 62-C , 64-S ) :   1.0873 B( 63-C , 82-H ) :   0.9840 B( 64-S , 65-C ) :   1.0870
B( 65-C , 66-C ) :   1.6181 B( 65-C , 67-Br) :   1.0199 B( 66-C , 83-H ) :   1.0009

-----------------------------------------------------------------------------
         ABSORPTION SPECTRUM VIA TRANSITION ELECTRIC DIPOLE MOMENTS
-----------------------------------------------------------------------------
State   Energy  Wavelength   fosc         T2         TX        TY        TZ
        (cm-1)    (nm)                  (au**2)     (au)      (au)      (au)
-----------------------------------------------------------------------------
   0   16672.5    599.8   0.713271872  14.08410   3.63810   0.87074   0.30027
   1   21966.6    455.2   0.047394908   0.71031  -0.38855  -0.25262  -0.70393
   2   23620.3    423.4   0.233584419   3.25562  -0.45870   0.66274   1.61430
   3   25205.1    396.7   0.072107307   0.94182   0.78213  -0.54342   0.18650
   4   25814.5    387.4   0.254345341   3.24366   1.75326   0.40362  -0.08260
   5   26068.0    383.6   0.041084037   0.51885  -0.71042  -0.07466   0.09261
   6   26675.4    374.9   0.124507845   1.53660   0.22999  -0.01522  -1.21798
   7   27334.3    365.8   0.226828093   2.73190  -0.60758  -0.20223  -1.52376
   8   27756.8    360.3   0.162584400   1.92834   1.30948  -0.15475  -0.43549
   9   28095.0    355.9   0.213897041   2.50641   0.06599   1.28766   0.91868
  10   28369.6    352.5   0.120610083   1.39960  -0.08807   1.02618   0.58208
  11   29095.6    343.7   0.021924989   0.24808  -0.35738  -0.14233   0.31638
  12   29439.0    339.7   0.287596636   3.21615  -0.15134  -0.45888  -1.72704
  13   29545.4    338.5   0.065503553   0.72988   0.09736   0.24908   0.81139
  14   30004.2    333.3   0.002422577   0.02658   0.14785  -0.01034   0.06793
  15   30113.2    332.1   0.004020400   0.04395  -0.19899  -0.04452  -0.04870
  16   30719.8    325.5   0.093437311   1.00133  -0.74234  -0.63447  -0.21842
  17   31573.1    316.7   0.006566059   0.06846  -0.13178  -0.10477  -0.20030
  18   31976.1    312.7   0.622940655   6.41353  -2.30722   0.37733  -0.97360
  19   32654.2    306.2   0.002667843   0.02690  -0.09002  -0.09107  -0.10246
  20   32786.9    305.0   0.032131872   0.32263   0.25390   0.11379  -0.49520
  21   33199.1    301.2   0.053940480   0.53489   0.46873  -0.55206   0.10203
  22   33502.3    298.5   0.249606286   2.45277   0.70759   0.84690   1.11124
  23   33588.5    297.7   0.489019580   4.79305  -0.30440  -1.76701  -1.25621
  24   33882.7    295.1   0.155523980   1.51111   0.89542   0.68948  -0.48368
  25   34228.5    292.2   0.148503280   1.42832   0.40881   0.02874   1.12266
  26   34452.1    290.3   0.122497479   1.17054  -0.13581   0.43207   0.98255
  27   34810.1    287.3   0.021836851   0.20652  -0.35616   0.10520  -0.26191
  28   34891.6    286.6   0.143145828   1.35062  -1.13058  -0.25999   0.06939
  29   35135.0    284.6   0.005929539   0.05556  -0.16571   0.14824  -0.07826
  30   35337.9    283.0   0.015807097   0.14726   0.35299   0.01636   0.14965
  31   35511.3    281.6   0.021536407   0.19966   0.15547   0.33884   0.24632
  32   35708.8    280.0   0.014995283   0.13825  -0.27220   0.22561   0.11511
  33   35964.7    278.1   0.025097480   0.22974   0.05865   0.33859   0.33414
  34   36327.5    275.3   0.110148842   0.99821  -0.66005   0.41293   0.62612
  35   36385.5    274.8   0.112481488   1.01772   0.46853   0.20420   0.86977
  36   36862.2    271.3   0.168473595   1.50462  -0.22808  -0.67753  -0.99677
  37   37639.7    265.7   0.003702230   0.03238   0.17988  -0.00490   0.00026
  38   38079.5    262.6   0.002105497   0.01820  -0.04746   0.08224  -0.09585
  39   38231.0    261.6   0.023320730   0.20082  -0.01732  -0.29788   0.33434
  40   38331.5    260.9   0.023548022   0.20224  -0.05990  -0.09067   0.43639
  41   38426.2    260.2   0.014565734   0.12479   0.01977  -0.01215   0.35249
  42   38961.7    256.7   0.305662908   2.58274  -0.26271  -1.18099   1.05782
  43   39418.9    253.7   0.057092509   0.47682   0.63507   0.25082   0.10294
  44   39556.2    252.8   0.047573654   0.39594  -0.62417  -0.07964   0.00216
  45   39587.0    252.6   0.047988135   0.39908  -0.38730   0.22962   0.44312
  46   39939.6    250.4   0.088624313   0.73051   0.76932  -0.01381  -0.37211
  47   40068.9    249.6   0.273789196   2.24949  -0.33616   0.69524   1.28574
  48   40135.4    249.2   0.209833223   1.72116  -1.28492   0.00728   0.26474

FINAL SINGLE POINT ENERGY    -10118.174865653629

DIPOLE MOMENT
-------------
                                X             Y             Z
Electronic contribution:    -70.26800     -75.65596    -104.02893
Nuclear contribution   :     70.27144      75.66453     102.23832
                        -----------------------------------------
Total Dipole Moment    :      0.00345       0.00858      -1.79061
                        -----------------------------------------
Magnitude (a.u.)       :      1.79064
Magnitude (Debye)      :      4.55144

Rotational constants in cm-1:     0.000573     0.000302     0.000209
Rotational constants in MHz :    17.184169     9.058226     6.280395

                             ****ORCA TERMINATED NORMALLY****
TOTAL RUN TIME: 0 days 0 hours 8 minutes 2 seconds 45 msec
