                         Program Version 4.2.0 -  RELEASE  -
|  1> # ORCA input file
|  2> # SCF done       -152.929650062973          0.000463707343
|  3> ! CAM-B3LYP def2-SVP def2/J RIJCOSX Grid4 TightSCF
|  4> %maxcore 5000
|  5> %tddft
|  6>     Mode sTDDFT
|  7>     Ethresh 5.0
|  8>     maxcore 5000
|  9> end
| 10>
| 11> %pal
| 12>   nprocs 6
| 13>   end
| 14> * xyz 0 1
| 15>    C       13.72332        -8.85086         2.28047
| 16>    C       13.06828        -8.00738         1.47070
| 17>    C       13.62127        -6.97345         0.64380
| 18>    C       12.70548        -6.28089        -0.06935
| 19>    C       11.36291        -6.70750         0.13236
| 20>    S       11.30829        -8.03078         1.27347
| 21>    C       10.22801        -6.19854        -0.45971
| 22>    C       10.12896        -5.14386        -1.39698
| 23>    C        8.85560        -4.88702        -1.80020
| 24>    C        7.86697        -5.71901        -1.21303
| 25>    S        8.63541        -6.84050        -0.10729
| 26>    C        6.52850        -5.66032        -1.52747
| 27>    C        5.45842        -6.43721        -1.04792
| 28>    C        5.50129        -7.28788         0.02888
| 29>    C        4.40724        -8.07680         0.42952
| 30>    C        3.28437        -8.20372        -0.33877
| 31>    C        3.21550        -7.49572        -1.67164
| 32>    C        4.11170        -6.24441        -1.73707
| 33>    N        4.32355        -5.79940        -3.09733
| 34>    C        4.33170        -6.66585        -4.00892
| 35>    C        4.05412        -8.09274        -3.75189
| 36>    N        3.53743        -8.48887        -2.67737
| 37>    F        4.38300        -8.97226        -4.69140
| 38>    F        4.56479        -6.28896        -5.26166
| 39>    C        2.22102        -9.08022        -0.01333
| 40>    S        0.83061        -9.30677        -1.06709
| 41>    C        0.09838       -10.47873        -0.02080
| 42>    C        0.87978       -10.69425         1.10394
| 43>    C        2.06736        -9.90106         1.08498
| 44>    O        2.80853       -10.12764         2.18828
| 45>    C        2.11132       -11.05324         2.90795
| 46>    N        2.66779       -11.47839         4.13573
| 47>    O        2.03150       -12.30098         4.76742
| 48>    O        3.72898       -10.99763         4.47381
| 49>    C        0.94116       -11.43771         2.31264
| 50>    N       -1.09876       -11.04748        -0.39065
| 51>    C       -1.72923       -10.66803        -1.59403
| 52>    O       -1.26600        -9.82506        -2.32805
| 53>    C       -2.93742       -11.46415        -1.69455
| 54>    C       -3.02717       -12.27577        -0.60699
| 55>    C       -1.84050       -12.02986         0.27033
| 56>    O       -1.55408       -12.54425         1.31746
| 57>    C       -4.01032       -13.23547        -0.23679
| 58>    O       -3.87473       -13.88443         0.93138
| 59>    C       -4.90116       -14.73537         1.07984
| 60>    C       -5.73881       -14.65046        -0.01724
| 61>    C       -5.17081       -13.68779        -0.86600
| 62>    C       -5.71841       -13.26066        -2.17996
| 63>    F       -4.85711       -13.46819        -3.19394
| 64>    F       -6.84034       -13.91734        -2.49357
| 65>    F       -6.02130       -11.94865        -2.21654
| 66>    C       -4.99613       -15.55834         2.25638
| 67>    C       -4.09225       -15.53646         3.23387
| 68>    H       14.79418        -8.80458         2.37167
| 69>    H       13.20655        -9.59321         2.86055
| 70>    H       14.68187        -6.79707         0.62147
| 71>    H       12.94203        -5.47410        -0.73993
| 72>    H       10.99368        -4.61175        -1.75007
| 73>    H        8.58699        -4.12599        -2.51148
| 74>    H        6.27083        -4.93256        -2.28698
| 75>    H        6.40208        -7.35576         0.61698
| 76>    H        4.48340        -8.63059         1.35187
| 77>    H        2.17363        -7.20010        -1.86488
| 78>    H        3.60206        -5.41519        -1.22733
| 79>    H        0.23448       -12.14849         2.68828
| 80>    H       -3.60778       -11.37071        -2.52526
| 81>    H       -6.63871       -15.20319        -0.19203
| 82>    H       -5.86081       -16.20442         2.29280
| 83>    H       -3.23329       -14.88894         3.18154
| 84>    H       -4.18636       -16.16344         4.10232
| 85> *
| 86>
| 87>                          ****END OF INPUT****

CARTESIAN COORDINATES (ANGSTROEM)
---------------------------------
  C     13.723320   -8.850860    2.280470
  C     13.068280   -8.007380    1.470700
  C     13.621270   -6.973450    0.643800
  C     12.705480   -6.280890   -0.069350
  C     11.362910   -6.707500    0.132360
  S     11.308290   -8.030780    1.273470
  C     10.228010   -6.198540   -0.459710
  C     10.128960   -5.143860   -1.396980
  C      8.855600   -4.887020   -1.800200
  C      7.866970   -5.719010   -1.213030
  S      8.635410   -6.840500   -0.107290
  C      6.528500   -5.660320   -1.527470
  C      5.458420   -6.437210   -1.047920
  C      5.501290   -7.287880    0.028880
  C      4.407240   -8.076800    0.429520
  C      3.284370   -8.203720   -0.338770
  C      3.215500   -7.495720   -1.671640
  C      4.111700   -6.244410   -1.737070
  N      4.323550   -5.799400   -3.097330
  C      4.331700   -6.665850   -4.008920
  C      4.054120   -8.092740   -3.751890
  N      3.537430   -8.488870   -2.677370
  F      4.383000   -8.972260   -4.691400
  F      4.564790   -6.288960   -5.261660
  C      2.221020   -9.080220   -0.013330
  S      0.830610   -9.306770   -1.067090
  C      0.098380  -10.478730   -0.020800
  C      0.879780  -10.694250    1.103940
  C      2.067360   -9.901060    1.084980
  O      2.808530  -10.127640    2.188280
  C      2.111320  -11.053240    2.907950
  N      2.667790  -11.478390    4.135730
  O      2.031500  -12.300980    4.767420
  O      3.728980  -10.997630    4.473810
  C      0.941160  -11.437710    2.312640
  N     -1.098760  -11.047480   -0.390650
  C     -1.729230  -10.668030   -1.594030
  O     -1.266000   -9.825060   -2.328050
  C     -2.937420  -11.464150   -1.694550
  C     -3.027170  -12.275770   -0.606990
  C     -1.840500  -12.029860    0.270330
  O     -1.554080  -12.544250    1.317460
  C     -4.010320  -13.235470   -0.236790
  O     -3.874730  -13.884430    0.931380
  C     -4.901160  -14.735370    1.079840
  C     -5.738810  -14.650460   -0.017240
  C     -5.170810  -13.687790   -0.866000
  C     -5.718410  -13.260660   -2.179960
  F     -4.857110  -13.468190   -3.193940
  F     -6.840340  -13.917340   -2.493570
  F     -6.021300  -11.948650   -2.216540
  C     -4.996130  -15.558340    2.256380
  C     -4.092250  -15.536460    3.233870
  H     14.794180   -8.804580    2.371670
  H     13.206550   -9.593210    2.860550
  H     14.681870   -6.797070    0.621470
  H     12.942030   -5.474100   -0.739930
  H     10.993680   -4.611750   -1.750070
  H      8.586990   -4.125990   -2.511480
  H      6.270830   -4.932560   -2.286980
  H      6.402080   -7.355760    0.616980
  H      4.483400   -8.630590    1.351870
  H      2.173630   -7.200100   -1.864880
  H      3.602060   -5.415190   -1.227330
  H      0.234480  -12.148490    2.688280
  H     -3.607780  -11.370710   -2.525260
  H     -6.638710  -15.203190   -0.192030
  H     -5.860810  -16.204420    2.292800
  H     -3.233290  -14.888940    3.181540
  H     -4.186360  -16.163440    4.102320

 Total Charge           Charge          ....    0
 Multiplicity           Mult            ....    1
 Number of Electrons    NEL             ....  396
 Basis Dimension        Dim             ....  839

ORBITAL ENERGIES
----------------

  NO   OCC          E(Eh)            E(eV)
   0   2.0000     -88.971156     -2421.0282
   1   2.0000     -88.938951     -2420.1519
   2   2.0000     -88.933958     -2420.0160
   3   2.0000     -24.820168      -675.3911
   4   2.0000     -24.817420      -675.3163
   5   2.0000     -24.817017      -675.3054
   6   2.0000     -24.797883      -674.7847
   7   2.0000     -24.795623      -674.7232
   8   2.0000     -19.327877      -525.9383
   9   2.0000     -19.299650      -525.1702
  10   2.0000     -19.250021      -523.8197
  11   2.0000     -19.245598      -523.6994
  12   2.0000     -19.234273      -523.3912
  13   2.0000     -19.232279      -523.3369
  14   2.0000     -14.646183      -398.5429
  15   2.0000     -14.496673      -394.4745
  16   2.0000     -14.423330      -392.4788
  17   2.0000     -14.422605      -392.4590
  18   2.0000     -10.542212      -286.8682
  19   2.0000     -10.430964      -283.8410
  20   2.0000     -10.420423      -283.5541
  21   2.0000     -10.410655      -283.2883
  22   2.0000     -10.408163      -283.2205
  23   2.0000     -10.377973      -282.3990
  24   2.0000     -10.374994      -282.3179
  25   2.0000     -10.367446      -282.1125
  26   2.0000     -10.357991      -281.8553
  27   2.0000     -10.347986      -281.5830
  28   2.0000     -10.338184      -281.3163
  29   2.0000     -10.326794      -281.0064
  30   2.0000     -10.324079      -280.9325
  31   2.0000     -10.320141      -280.8253
  32   2.0000     -10.317761      -280.7605
  33   2.0000     -10.308994      -280.5220
  34   2.0000     -10.305968      -280.4397
  35   2.0000     -10.303039      -280.3599
  36   2.0000     -10.302123      -280.3350
  37   2.0000     -10.301899      -280.3289
  38   2.0000     -10.301506      -280.3182
  39   2.0000     -10.299499      -280.2636
  40   2.0000     -10.298734      -280.2428
  41   2.0000     -10.294320      -280.1227
  42   2.0000     -10.292032      -280.0604
  43   2.0000     -10.285226      -279.8752
  44   2.0000     -10.284159      -279.8462
  45   2.0000     -10.280939      -279.7586
  46   2.0000     -10.279125      -279.7092
  47   2.0000     -10.277333      -279.6605
  48   2.0000     -10.276111      -279.6272
  49   2.0000     -10.266216      -279.3579
  50   2.0000     -10.266181      -279.3570
  51   2.0000     -10.266016      -279.3525
  52   2.0000     -10.263679      -279.2889
  53   2.0000      -8.064085      -219.4349
  54   2.0000      -8.034707      -218.6355
  55   2.0000      -8.030691      -218.5262
  56   2.0000      -6.033782      -164.1875
  57   2.0000      -6.029129      -164.0609
  58   2.0000      -6.026015      -163.9762
  59   2.0000      -6.004462      -163.3897
  60   2.0000      -6.000516      -163.2824
  61   2.0000      -6.000336      -163.2774
  62   2.0000      -5.996558      -163.1746
  63   2.0000      -5.995745      -163.1525
  64   2.0000      -5.991252      -163.0303
  65   2.0000      -1.408435       -38.3255
  66   2.0000      -1.326436       -36.0942
  67   2.0000      -1.317241       -35.8439
  68   2.0000      -1.311993       -35.7012
  69   2.0000      -1.311921       -35.6992
  70   2.0000      -1.307632       -35.5825
  71   2.0000      -1.253178       -34.1007
  72   2.0000      -1.219506       -33.1844
  73   2.0000      -1.195111       -32.5206
  74   2.0000      -1.170403       -31.8483
  75   2.0000      -1.133361       -30.8403
  76   2.0000      -1.087391       -29.5894
  77   2.0000      -1.075714       -29.2717
  78   2.0000      -1.008333       -27.4381
  79   2.0000      -0.997987       -27.1566
  80   2.0000      -0.986764       -26.8512
  81   2.0000      -0.964740       -26.2519
  82   2.0000      -0.963320       -26.2133
  83   2.0000      -0.948295       -25.8044
  84   2.0000      -0.939523       -25.5657
  85   2.0000      -0.924047       -25.1446
  86   2.0000      -0.920702       -25.0536
  87   2.0000      -0.892144       -24.2765
  88   2.0000      -0.879341       -23.9281
  89   2.0000      -0.867959       -23.6184
  90   2.0000      -0.858505       -23.3611
  91   2.0000      -0.849300       -23.1106
  92   2.0000      -0.840107       -22.8605
  93   2.0000      -0.832918       -22.6648
  94   2.0000      -0.825318       -22.4581
  95   2.0000      -0.815922       -22.2024
  96   2.0000      -0.808297       -21.9949
  97   2.0000      -0.790869       -21.5207
  98   2.0000      -0.787183       -21.4203
  99   2.0000      -0.774821       -21.0840
 100   2.0000      -0.766098       -20.8466
 101   2.0000      -0.757692       -20.6179
 102   2.0000      -0.746437       -20.3116
 103   2.0000      -0.740326       -20.1453
 104   2.0000      -0.732454       -19.9311
 105   2.0000      -0.719590       -19.5810
 106   2.0000      -0.711630       -19.3644
 107   2.0000      -0.704351       -19.1664
 108   2.0000      -0.692879       -18.8542
 109   2.0000      -0.690795       -18.7975
 110   2.0000      -0.685048       -18.6411
 111   2.0000      -0.676346       -18.4043
 112   2.0000      -0.669637       -18.2217
 113   2.0000      -0.662158       -18.0182
 114   2.0000      -0.658081       -17.9073
 115   2.0000      -0.650082       -17.6896
 116   2.0000      -0.638944       -17.3866
 117   2.0000      -0.633923       -17.2499
 118   2.0000      -0.631196       -17.1757
 119   2.0000      -0.630306       -17.1515
 120   2.0000      -0.622483       -16.9386
 121   2.0000      -0.620311       -16.8795
 122   2.0000      -0.614371       -16.7179
 123   2.0000      -0.611892       -16.6504
 124   2.0000      -0.607329       -16.5263
 125   2.0000      -0.606697       -16.5091
 126   2.0000      -0.598526       -16.2867
 127   2.0000      -0.594013       -16.1639
 128   2.0000      -0.590028       -16.0555
 129   2.0000      -0.589276       -16.0350
 130   2.0000      -0.584661       -15.9094
 131   2.0000      -0.579502       -15.7691
 132   2.0000      -0.574805       -15.6412
 133   2.0000      -0.568777       -15.4772
 134   2.0000      -0.566341       -15.4109
 135   2.0000      -0.565770       -15.3954
 136   2.0000      -0.561544       -15.2804
 137   2.0000      -0.556854       -15.1528
 138   2.0000      -0.555605       -15.1188
 139   2.0000      -0.551125       -14.9969
 140   2.0000      -0.549263       -14.9462
 141   2.0000      -0.546218       -14.8634
 142   2.0000      -0.541815       -14.7435
 143   2.0000      -0.541065       -14.7231
 144   2.0000      -0.534367       -14.5409
 145   2.0000      -0.527427       -14.3520
 146   2.0000      -0.525345       -14.2954
 147   2.0000      -0.525262       -14.2931
 148   2.0000      -0.520185       -14.1549
 149   2.0000      -0.517961       -14.0944
 150   2.0000      -0.511811       -13.9271
 151   2.0000      -0.511148       -13.9091
 152   2.0000      -0.504989       -13.7415
 153   2.0000      -0.503868       -13.7109
 154   2.0000      -0.500645       -13.6233
 155   2.0000      -0.498200       -13.5567
 156   2.0000      -0.491473       -13.3737
 157   2.0000      -0.490177       -13.3384
 158   2.0000      -0.489684       -13.3250
 159   2.0000      -0.488148       -13.2832
 160   2.0000      -0.485551       -13.2125
 161   2.0000      -0.479516       -13.0483
 162   2.0000      -0.475408       -12.9365
 163   2.0000      -0.474694       -12.9171
 164   2.0000      -0.469846       -12.7852
 165   2.0000      -0.465185       -12.6583
 166   2.0000      -0.455767       -12.4020
 167   2.0000      -0.454004       -12.3541
 168   2.0000      -0.449074       -12.2199
 169   2.0000      -0.437301       -11.8996
 170   2.0000      -0.434229       -11.8160
 171   2.0000      -0.432043       -11.7565
 172   2.0000      -0.424798       -11.5593
 173   2.0000      -0.421510       -11.4699
 174   2.0000      -0.414487       -11.2788
 175   2.0000      -0.408280       -11.1099
 176   2.0000      -0.407429       -11.0867
 177   2.0000      -0.401993       -10.9388
 178   2.0000      -0.392207       -10.6725
 179   2.0000      -0.389485       -10.5984
 180   2.0000      -0.388564       -10.5734
 181   2.0000      -0.385592       -10.4925
 182   2.0000      -0.382435       -10.4066
 183   2.0000      -0.381983       -10.3943
 184   2.0000      -0.374601       -10.1934
 185   2.0000      -0.369614       -10.0577
 186   2.0000      -0.363246        -9.8844
 187   2.0000      -0.362138        -9.8543
 188   2.0000      -0.352358        -9.5881
 189   2.0000      -0.341522        -9.2933
 190   2.0000      -0.332676        -9.0526
 191   2.0000      -0.332171        -9.0388
 192   2.0000      -0.318482        -8.6663
 193   2.0000      -0.313417        -8.5285
 194   2.0000      -0.301626        -8.2077
 195   2.0000      -0.292702        -7.9648
 196   2.0000      -0.251174        -6.8348
 197   2.0000      -0.204233        -5.5575
 198   0.0000      -0.102706        -2.7948
 199   0.0000      -0.073257        -1.9934
 200   0.0000      -0.053251        -1.4490
 201   0.0000      -0.027436        -0.7466
 202   0.0000      -0.021404        -0.5824

MULLIKEN ATOMIC CHARGES
-----------------------
   0 C :   -0.029045
   1 C :   -0.065971
   2 C :    0.052396
   3 C :    0.030198
   4 C :   -0.064719
   5 S :    0.085023
   6 C :   -0.040545
   7 C :    0.026783
   8 C :    0.030934
   9 C :   -0.006296
  10 S :    0.068275
  11 C :   -0.020080
  12 C :   -0.034047
  13 C :   -0.016720
  14 C :   -0.061932
  15 C :    0.059194
  16 C :    0.036505
  17 C :    0.121433
  18 N :   -0.099860
  19 C :    0.118623
  20 C :    0.118121
  21 N :   -0.072013
  22 F :   -0.144378
  23 F :   -0.145535
  24 C :   -0.158984
  25 S :    0.181822
  26 C :   -0.104750
  27 C :    0.148218
  28 C :    0.178302
  29 O :   -0.191324
  30 C :    0.254077
  31 N :    0.273809
  32 O :   -0.253824
  33 O :   -0.236252
  34 C :   -0.120491
  35 N :   -0.216953
  36 C :    0.256856
  37 O :   -0.164690
  38 C :   -0.095441
  39 C :   -0.036301
  40 C :    0.228049
  41 O :   -0.127315
  42 C :    0.153685
  43 O :   -0.155562
  44 C :    0.171644
  45 C :   -0.060824
  46 C :   -0.124085
  47 C :    0.539935
  48 F :   -0.164189
  49 F :   -0.146155
  50 F :   -0.165148
  51 C :   -0.031746
  52 C :    0.017367
  53 H :    0.020683
  54 H :    0.024190
  55 H :   -0.011040
  56 H :   -0.011481
  57 H :   -0.016488
  58 H :   -0.011868
  59 H :   -0.001164
  60 H :   -0.009285
  61 H :   -0.002429
  62 H :    0.033601
  63 H :    0.035558
  64 H :    0.023600
  65 H :    0.025848
  66 H :    0.005009
  67 H :    0.007142
  68 H :    0.053009
  69 H :    0.039044
Sum of atomic charges:    0.0000000

LOEWDIN ATOMIC CHARGES
----------------------
   0 C :   -0.074543
   1 C :   -0.139680
   2 C :   -0.030150
   3 C :   -0.026612
   4 C :   -0.174735
   5 S :    0.356529
   6 C :   -0.183492
   7 C :   -0.038272
   8 C :   -0.031273
   9 C :   -0.139590
  10 S :    0.387083
  11 C :   -0.067716
  12 C :   -0.040279
  13 C :   -0.040452
  14 C :   -0.022510
  15 C :   -0.042197
  16 C :    0.009102
  17 C :    0.023619
  18 N :   -0.071086
  19 C :    0.052298
  20 C :    0.044761
  21 N :   -0.068537
  22 F :   -0.033270
  23 F :   -0.034016
  24 C :   -0.205294
  25 S :    0.507750
  26 C :   -0.136266
  27 C :   -0.096884
  28 C :    0.027735
  29 O :    0.000691
  30 C :    0.017301
  31 N :    0.272182
  32 O :   -0.214862
  33 O :   -0.198157
  34 C :   -0.003820
  35 N :   -0.029114
  36 C :    0.093183
  37 O :   -0.139359
  38 C :   -0.021305
  39 C :   -0.032071
  40 C :    0.110829
  41 O :   -0.114245
  42 C :    0.031630
  43 O :    0.057638
  44 C :    0.055685
  45 C :   -0.043528
  46 C :   -0.095888
  47 C :    0.171058
  48 F :   -0.060231
  49 F :   -0.046635
  50 F :   -0.061112
  51 C :   -0.047277
  52 C :    0.003684
  53 H :    0.028740
  54 H :    0.027151
  55 H :    0.033387
  56 H :    0.032430
  57 H :    0.030380
  58 H :    0.033736
  59 H :    0.034631
  60 H :    0.015850
  61 H :    0.034494
  62 H :    0.028093
  63 H :    0.044967
  64 H :    0.044245
  65 H :    0.041140
  66 H :    0.041144
  67 H :    0.041123
  68 H :    0.036347
  69 H :    0.033844

  Mayer bond orders larger than 0.100000
B(  0-C ,  1-C ) :   1.8625 B(  0-C , 53-H ) :   0.9506 B(  0-C , 54-H ) :   0.9416
B(  1-C ,  2-C ) :   1.0812 B(  1-C ,  5-S ) :   1.0074 B(  2-C ,  3-C ) :   1.6574
B(  2-C , 55-H ) :   0.9930 B(  3-C ,  4-C ) :   1.1543 B(  3-C , 56-H ) :   0.9927
B(  4-C ,  5-S ) :   1.0501 B(  4-C ,  6-C ) :   1.5445 B(  6-C ,  7-C ) :   1.1736
B(  6-C , 10-S ) :   1.0305 B(  7-C ,  8-C ) :   1.5929 B(  7-C , 57-H ) :   0.9930
B(  8-C ,  9-C ) :   1.1468 B(  8-C , 58-H ) :   1.0005 B(  9-C , 10-S ) :   1.0448
B(  9-C , 11-C ) :   1.5430 B( 11-C , 12-C ) :   1.2123 B( 11-C , 59-H ) :   0.9563
B( 12-C , 13-C ) :   1.5986 B( 12-C , 17-C ) :   0.9360 B( 13-C , 14-C ) :   1.1613
B( 13-C , 60-H ) :   0.9605 B( 14-C , 15-C ) :   1.6539 B( 14-C , 61-H ) :   0.9734
B( 15-C , 16-C ) :   0.9740 B( 15-C , 24-C ) :   1.1740 B( 16-C , 17-C ) :   0.9909
B( 16-C , 21-N ) :   1.0299 B( 16-C , 62-H ) :   0.8951 B( 17-C , 18-N ) :   1.0163
B( 17-C , 63-H ) :   0.8840 B( 18-N , 19-C ) :   1.9340 B( 19-C , 20-C ) :   0.9311
B( 19-C , 23-F ) :   1.1625 B( 20-C , 21-N ) :   1.9567 B( 20-C , 22-F ) :   1.1656
B( 24-C , 25-S ) :   1.0468 B( 24-C , 26-C ) :   0.1217 B( 24-C , 28-C ) :   1.4856
B( 25-S , 26-C ) :   1.1876 B( 26-C , 27-C ) :   1.3655 B( 26-C , 35-N ) :   1.0303
B( 27-C , 28-C ) :   1.2131 B( 27-C , 34-C ) :   1.0770 B( 28-C , 29-O ) :   1.1092
B( 29-O , 30-C ) :   1.1066 B( 30-C , 31-N ) :   0.9205 B( 30-C , 34-C ) :   1.5298
B( 31-N , 32-O ) :   1.5290 B( 31-N , 33-O ) :   1.5081 B( 32-O , 33-O ) :   0.2759
B( 34-C , 64-H ) :   1.0247 B( 35-N , 36-C ) :   0.9898 B( 35-N , 40-C ) :   1.0292
B( 36-C , 37-O ) :   2.0974 B( 36-C , 38-C ) :   0.9790 B( 38-C , 39-C ) :   1.6647
B( 38-C , 65-H ) :   1.0152 B( 39-C , 40-C ) :   0.8819 B( 39-C , 42-C ) :   1.1095
B( 40-C , 41-O ) :   2.1849 B( 42-C , 43-O ) :   1.1988 B( 42-C , 44-C ) :   0.1103
B( 42-C , 46-C ) :   1.4594 B( 43-O , 44-C ) :   1.1710 B( 44-C , 45-C ) :   1.4091
B( 44-C , 51-C ) :   1.1152 B( 45-C , 46-C ) :   1.2853 B( 45-C , 66-H ) :   1.0187
B( 46-C , 47-C ) :   0.9400 B( 47-C , 48-F ) :   1.1597 B( 47-C , 49-F ) :   1.1903
B( 47-C , 50-F ) :   1.1552 B( 51-C , 52-C ) :   1.9167 B( 51-C , 67-H ) :   0.9602
B( 52-C , 68-H ) :   0.9573 B( 52-C , 69-H ) :   0.9468

-----------------------------------------------------------------------------
         ABSORPTION SPECTRUM VIA TRANSITION ELECTRIC DIPOLE MOMENTS
-----------------------------------------------------------------------------
State   Energy  Wavelength   fosc         T2         TX        TY        TZ
        (cm-1)    (nm)                  (au**2)     (au)      (au)      (au)
-----------------------------------------------------------------------------
   0    9810.6   1019.3   0.004434062   0.14879   0.34408   0.12140   0.12515
   1   15007.2    666.3   1.322045593  29.00168   5.25588   1.07673   0.46695
   2   18709.3    534.5   0.102557874   1.80462   1.33054  -0.18450   0.01578
   3   19163.4    521.8   0.008401092   0.14432  -0.27194  -0.25947   0.05522
   4   20167.2    495.9   0.039929464   0.65181   0.78101   0.13054  -0.15749
   5   23270.0    429.7   0.053701680   0.75974   0.24577   0.78515  -0.28788
   6   25527.9    391.7   0.447458137   5.77049   1.20666   1.76781  -1.09056
   7   27237.5    367.1   0.092120944   1.11344   0.23784   0.86301  -0.55864
   8   27358.4    365.5   0.353294883   4.25131   0.12613   1.81769  -0.96509
   9   28123.2    355.6   0.248832088   2.91284   0.62805  -0.88833   1.31501
  10   29553.4    338.4   0.000895025   0.00997  -0.04646   0.00745   0.08807
  11   29934.2    334.1   0.022629492   0.24888  -0.47363  -0.10779  -0.11370
  12   30414.5    328.8   0.053895858   0.58338   0.30455   0.51438  -0.47544
  13   30926.7    323.3   0.009929505   0.10570  -0.19774  -0.19568   0.16824
  14   32093.8    311.6   0.083353445   0.85502  -0.00430   0.62767  -0.67900
  15   32893.4    304.0   0.000001618   0.00002   0.00134  -0.00105  -0.00364
  16   33270.8    300.6   0.007954588   0.07871   0.00601  -0.20490   0.19155
  17   34486.3    290.0   0.137537651   1.31296   0.70226  -0.21409   0.87975
  18   35188.0    284.2   0.102433811   0.95835   0.54947  -0.06520   0.80758
  19   35452.9    282.1   0.000188266   0.00175  -0.01336  -0.00968   0.03842
  20   36249.2    275.9   0.098129292   0.89120   0.21263  -0.38277   0.83635
  21   36371.6    274.9   0.011835548   0.10713  -0.15312  -0.14499   0.25032
  22   36943.9    270.7   0.106300511   0.94726   0.11141   0.67924  -0.68810
  23   37430.1    267.2   0.003520729   0.03097   0.04720  -0.08568   0.14628
  24   37595.8    266.0   0.096438193   0.84447   0.78764   0.05886   0.46972
  25   38422.7    260.3   0.054165821   0.46410   0.30320  -0.12752   0.59658
  26   38569.6    259.3   0.057837631   0.49367  -0.60893  -0.27418   0.21841
  27   38756.1    258.0   0.005422107   0.04606  -0.05300   0.10915   0.17702
  28   39042.2    256.1   0.000952448   0.00803  -0.04113   0.01543  -0.07811
  29   39361.9    254.1   0.082629512   0.69109   0.34762  -0.19289   0.73010
  30   39680.6    252.0   0.138431825   1.14851   0.73080  -0.46314   0.63241
  31   40245.3    248.5   0.107657384   0.88065  -0.25055   0.42171  -0.80002
  32   40289.4    248.2   0.001686890   0.01378   0.08378  -0.01884   0.08006

FINAL SINGLE POINT ENERGY     -3704.540525942426

DIPOLE MOMENT
-------------
                                X             Y             Z
Electronic contribution:    -50.28303     -11.91816     -27.40143
Nuclear contribution   :     48.51865      11.33299      27.03515
                        -----------------------------------------
Total Dipole Moment    :     -1.76438      -0.58517      -0.36628
                        -----------------------------------------
Magnitude (a.u.)       :      1.89463
Magnitude (Debye)      :      4.81577

Rotational constants in cm-1:     0.002958     0.000539     0.000472
Rotational constants in MHz :    88.681754    16.163091    14.147689

                             ****ORCA TERMINATED NORMALLY****
TOTAL RUN TIME: 0 days 0 hours 4 minutes 46 seconds 317 msec
