                         Program Version 4.2.0 -  RELEASE  -
|  1> # ORCA input file
|  2> # SCF done       -145.403618023018          0.000729845887
|  3> ! CAM-B3LYP def2-SVP def2/J RIJCOSX Grid4 TightSCF
|  4> %maxcore 5000
|  5> %tddft
|  6>     Mode sTDDFT
|  7>     Ethresh 5.0
|  8>     maxcore 5000
|  9> end
| 10>
| 11> %pal
| 12>   nprocs 6
| 13>   end
| 14> * xyz 0 1
| 15>    C        0.90218        -3.45591        -0.67432
| 16>    C        0.41401        -2.79178         0.43246
| 17>    C       -0.79193        -2.10422         0.35855
| 18>    N       -1.20421        -1.37607         1.52968
| 19>    O       -0.75876        -1.74414         2.59666
| 20>    O       -1.94864        -0.42956         1.38389
| 21>    C       -1.55276        -2.08076        -0.82206
| 22>    C       -1.03101        -2.76566        -1.92480
| 23>    C        0.17530        -3.43344        -1.85704
| 24>    C       -2.85630        -1.45052        -0.90447
| 25>    C       -3.33670        -0.87366        -2.01879
| 26>    C       -4.65171        -0.32004        -2.08568
| 27>    S       -5.25966         0.47088        -3.53483
| 28>    C       -6.75388         0.68407        -2.63025
| 29>    N       -6.67692         0.19204        -1.42369
| 30>    N       -5.53454        -0.35488        -1.12944
| 31>    C       -7.90044         1.30362        -3.19483
| 32>    C       -9.04390         1.46292        -2.48430
| 33>    C      -10.21961         2.03020        -3.03770
| 34>    N      -11.38451         2.21078        -2.32746
| 35>    C      -11.57792         1.97227        -0.91749
| 36>    C      -10.93758         3.06434        -0.06451
| 37>    C      -12.41256         2.73663        -3.12639
| 38>    O      -13.53126         2.97253        -2.71264
| 39>    C      -11.81177         2.88163        -4.43381
| 40>    C      -10.46340         2.44954        -4.34325
| 41>    C       -9.86438         2.58853        -5.65175
| 42>    O       -8.74317         2.36174        -6.06411
| 43>    N      -10.89776         3.09826        -6.45484
| 44>    C      -10.70096         3.33710        -7.86413
| 45>    C      -11.24795         2.19458        -8.71636
| 46>    C      -12.06681         3.26641        -5.74772
| 47>    C      -13.27520         3.73334        -6.32447
| 48>    C      -14.42027         3.86844        -5.61128
| 49>    C      -15.63432         4.29418        -6.21229
| 50>    S      -17.12150         4.46945        -5.28832
| 51>    C      -17.86042         4.92991        -6.81544
| 52>    N      -17.01059         4.92031        -7.80450
| 53>    N      -15.79945         4.57491        -7.47660
| 54>    C      -19.24583         5.25668        -6.92021
| 55>    C      -19.81923         5.56134        -8.09902
| 56>    C      -21.21065         5.88210        -8.31626
| 57>    C      -22.12834         6.04792        -7.27782
| 58>    C      -23.45283         6.34482        -7.54614
| 59>    N      -24.29511         6.62233        -6.40537
| 60>    O      -24.15299         5.91583        -5.43058
| 61>    O      -25.04871         7.56665        -6.47831
| 62>    C      -23.93829         6.45201        -8.85558
| 63>    C      -23.00474         6.31998        -9.88596
| 64>    C      -21.67935         6.04916        -9.62680
| 65>    C      -25.35273         6.61617        -9.18031
| 66>    C      -26.34183         5.97341        -8.57550
| 67>    H        1.84100        -3.98370        -0.61927
| 68>    H        0.95743        -2.77961         1.36534
| 69>    H       -1.60531        -2.79029        -2.83777
| 70>    H        0.54947        -3.94916        -2.72843
| 71>    H       -3.48085        -1.44214        -0.02256
| 72>    H       -2.73714        -0.78057        -2.91326
| 73>    H       -7.83269         1.63440        -4.22181
| 74>    H       -9.06203         1.12458        -1.45872
| 75>    H      -11.17833         0.98941        -0.65304
| 76>    H      -12.66017         1.96827        -0.75968
| 77>    H       -9.86265         3.10441        -0.22501
| 78>    H      -11.12653         2.86661         0.98682
| 79>    H      -11.36327         4.03226        -0.31831
| 80>    H       -9.61965         3.41638        -8.00855
| 81>    H      -11.16600         4.28664        -8.14181
| 82>    H      -10.75187         1.26406        -8.45116
| 83>    H      -11.06350         2.39968        -9.76716
| 84>    H      -12.31821         2.07327        -8.56574
| 85>    H      -13.29102         3.98047        -7.37570
| 86>    H      -14.44584         3.63895        -4.55510
| 87>    H      -19.80522         5.22742        -5.99731
| 88>    H      -19.18883         5.55012        -8.97778
| 89>    H      -21.82260         5.97329        -6.24578
| 90>    H      -23.34411         6.41366       -10.90672
| 91>    H      -20.98471         5.94915       -10.44750
| 92>    H      -25.55843         7.25886       -10.02576
| 93>    H      -26.17411         5.28408        -7.76380
| 94>    H      -27.36462         6.10184        -8.88219
| 95> *
| 96>
| 97>                          ****END OF INPUT****

CARTESIAN COORDINATES (ANGSTROEM)
---------------------------------
  C      0.902180   -3.455910   -0.674320
  C      0.414010   -2.791780    0.432460
  C     -0.791930   -2.104220    0.358550
  N     -1.204210   -1.376070    1.529680
  O     -0.758760   -1.744140    2.596660
  O     -1.948640   -0.429560    1.383890
  C     -1.552760   -2.080760   -0.822060
  C     -1.031010   -2.765660   -1.924800
  C      0.175300   -3.433440   -1.857040
  C     -2.856300   -1.450520   -0.904470
  C     -3.336700   -0.873660   -2.018790
  C     -4.651710   -0.320040   -2.085680
  S     -5.259660    0.470880   -3.534830
  C     -6.753880    0.684070   -2.630250
  N     -6.676920    0.192040   -1.423690
  N     -5.534540   -0.354880   -1.129440
  C     -7.900440    1.303620   -3.194830
  C     -9.043900    1.462920   -2.484300
  C    -10.219610    2.030200   -3.037700
  N    -11.384510    2.210780   -2.327460
  C    -11.577920    1.972270   -0.917490
  C    -10.937580    3.064340   -0.064510
  C    -12.412560    2.736630   -3.126390
  O    -13.531260    2.972530   -2.712640
  C    -11.811770    2.881630   -4.433810
  C    -10.463400    2.449540   -4.343250
  C     -9.864380    2.588530   -5.651750
  O     -8.743170    2.361740   -6.064110
  N    -10.897760    3.098260   -6.454840
  C    -10.700960    3.337100   -7.864130
  C    -11.247950    2.194580   -8.716360
  C    -12.066810    3.266410   -5.747720
  C    -13.275200    3.733340   -6.324470
  C    -14.420270    3.868440   -5.611280
  C    -15.634320    4.294180   -6.212290
  S    -17.121500    4.469450   -5.288320
  C    -17.860420    4.929910   -6.815440
  N    -17.010590    4.920310   -7.804500
  N    -15.799450    4.574910   -7.476600
  C    -19.245830    5.256680   -6.920210
  C    -19.819230    5.561340   -8.099020
  C    -21.210650    5.882100   -8.316260
  C    -22.128340    6.047920   -7.277820
  C    -23.452830    6.344820   -7.546140
  N    -24.295110    6.622330   -6.405370
  O    -24.152990    5.915830   -5.430580
  O    -25.048710    7.566650   -6.478310
  C    -23.938290    6.452010   -8.855580
  C    -23.004740    6.319980   -9.885960
  C    -21.679350    6.049160   -9.626800
  C    -25.352730    6.616170   -9.180310
  C    -26.341830    5.973410   -8.575500
  H      1.841000   -3.983700   -0.619270
  H      0.957430   -2.779610    1.365340
  H     -1.605310   -2.790290   -2.837770
  H      0.549470   -3.949160   -2.728430
  H     -3.480850   -1.442140   -0.022560
  H     -2.737140   -0.780570   -2.913260
  H     -7.832690    1.634400   -4.221810
  H     -9.062030    1.124580   -1.458720
  H    -11.178330    0.989410   -0.653040
  H    -12.660170    1.968270   -0.759680
  H     -9.862650    3.104410   -0.225010
  H    -11.126530    2.866610    0.986820
  H    -11.363270    4.032260   -0.318310
  H     -9.619650    3.416380   -8.008550
  H    -11.166000    4.286640   -8.141810
  H    -10.751870    1.264060   -8.451160
  H    -11.063500    2.399680   -9.767160
  H    -12.318210    2.073270   -8.565740
  H    -13.291020    3.980470   -7.375700
  H    -14.445840    3.638950   -4.555100
  H    -19.805220    5.227420   -5.997310
  H    -19.188830    5.550120   -8.977780
  H    -21.822600    5.973290   -6.245780
  H    -23.344110    6.413660  -10.906720
  H    -20.984710    5.949150  -10.447500
  H    -25.558430    7.258860  -10.025760
  H    -26.174110    5.284080   -7.763800
  H    -27.364620    6.101840   -8.882190

 Total Charge           Charge          ....    0
 Multiplicity           Mult            ....    1
 Number of Electrons    NEL             ....  380
 Basis Dimension        Dim             ....  876

ORBITAL ENERGIES
----------------

  NO   OCC          E(Eh)            E(eV)
   0   2.0000     -88.971595     -2421.0402
   1   2.0000     -88.970524     -2421.0110
   2   2.0000     -19.243143      -523.6325
   3   2.0000     -19.241941      -523.5998
   4   2.0000     -19.241606      -523.5907
   5   2.0000     -19.240820      -523.5693
   6   2.0000     -19.191548      -522.2286
   7   2.0000     -19.191453      -522.2260
   8   2.0000     -14.647387      -398.5757
   9   2.0000     -14.645706      -398.5299
  10   2.0000     -14.452919      -393.2839
  11   2.0000     -14.452588      -393.2749
  12   2.0000     -14.437472      -392.8636
  13   2.0000     -14.435744      -392.8166
  14   2.0000     -14.435679      -392.8148
  15   2.0000     -14.433697      -392.7609
  16   2.0000     -10.373726      -282.2834
  17   2.0000     -10.373679      -282.2821
  18   2.0000     -10.341433      -281.4047
  19   2.0000     -10.339765      -281.3593
  20   2.0000     -10.338775      -281.3324
  21   2.0000     -10.337940      -281.3097
  22   2.0000     -10.337820      -281.3064
  23   2.0000     -10.337766      -281.3049
  24   2.0000     -10.332814      -281.1702
  25   2.0000     -10.331392      -281.1315
  26   2.0000     -10.313543      -280.6458
  27   2.0000     -10.308089      -280.4974
  28   2.0000     -10.306813      -280.4626
  29   2.0000     -10.305350      -280.4228
  30   2.0000     -10.300463      -280.2899
  31   2.0000     -10.300014      -280.2776
  32   2.0000     -10.299190      -280.2552
  33   2.0000     -10.297663      -280.2137
  34   2.0000     -10.295236      -280.1476
  35   2.0000     -10.294667      -280.1321
  36   2.0000     -10.294402      -280.1249
  37   2.0000     -10.294238      -280.1205
  38   2.0000     -10.294033      -280.1149
  39   2.0000     -10.293871      -280.1105
  40   2.0000     -10.293861      -280.1102
  41   2.0000     -10.293655      -280.1046
  42   2.0000     -10.292795      -280.0812
  43   2.0000     -10.292517      -280.0736
  44   2.0000     -10.291899      -280.0568
  45   2.0000     -10.291595      -280.0485
  46   2.0000     -10.282540      -279.8021
  47   2.0000     -10.273674      -279.5609
  48   2.0000     -10.261484      -279.2292
  49   2.0000     -10.261195      -279.2213
  50   2.0000     -10.260861      -279.2122
  51   2.0000     -10.260080      -279.1910
  52   2.0000      -8.067978      -219.5408
  53   2.0000      -8.066924      -219.5122
  54   2.0000      -6.036550      -164.2629
  55   2.0000      -6.035498      -164.2343
  56   2.0000      -6.033265      -164.1735
  57   2.0000      -6.032228      -164.1453
  58   2.0000      -6.030436      -164.0965
  59   2.0000      -6.029370      -164.0675
  60   2.0000      -1.323182       -36.0056
  61   2.0000      -1.322749       -35.9938
  62   2.0000      -1.141662       -31.0662
  63   2.0000      -1.141614       -31.0649
  64   2.0000      -1.140307       -31.0293
  65   2.0000      -1.139343       -31.0031
  66   2.0000      -1.133510       -30.8444
  67   2.0000      -1.126967       -30.6663
  68   2.0000      -1.063455       -28.9381
  69   2.0000      -1.055042       -28.7092
  70   2.0000      -0.990867       -26.9629
  71   2.0000      -0.990345       -26.9487
  72   2.0000      -0.948898       -25.8208
  73   2.0000      -0.946687       -25.7607
  74   2.0000      -0.930877       -25.3304
  75   2.0000      -0.927362       -25.2348
  76   2.0000      -0.923481       -25.1292
  77   2.0000      -0.912211       -24.8225
  78   2.0000      -0.902564       -24.5600
  79   2.0000      -0.894113       -24.3301
  80   2.0000      -0.893775       -24.3209
  81   2.0000      -0.888539       -24.1784
  82   2.0000      -0.879266       -23.9261
  83   2.0000      -0.867732       -23.6122
  84   2.0000      -0.862235       -23.4626
  85   2.0000      -0.836706       -22.7679
  86   2.0000      -0.825522       -22.4636
  87   2.0000      -0.818466       -22.2716
  88   2.0000      -0.803910       -21.8755
  89   2.0000      -0.791240       -21.5307
  90   2.0000      -0.788850       -21.4657
  91   2.0000      -0.785010       -21.3612
  92   2.0000      -0.758835       -20.6489
  93   2.0000      -0.751573       -20.4513
  94   2.0000      -0.745416       -20.2838
  95   2.0000      -0.727579       -19.7984
  96   2.0000      -0.712191       -19.3797
  97   2.0000      -0.708172       -19.2703
  98   2.0000      -0.706162       -19.2156
  99   2.0000      -0.704353       -19.1664
 100   2.0000      -0.694239       -18.8912
 101   2.0000      -0.687453       -18.7065
 102   2.0000      -0.676339       -18.4041
 103   2.0000      -0.672902       -18.3106
 104   2.0000      -0.666877       -18.1466
 105   2.0000      -0.655832       -17.8461
 106   2.0000      -0.649250       -17.6670
 107   2.0000      -0.635073       -17.2812
 108   2.0000      -0.633590       -17.2409
 109   2.0000      -0.631690       -17.1892
 110   2.0000      -0.619346       -16.8533
 111   2.0000      -0.615162       -16.7394
 112   2.0000      -0.607269       -16.5246
 113   2.0000      -0.605051       -16.4643
 114   2.0000      -0.594411       -16.1748
 115   2.0000      -0.593975       -16.1629
 116   2.0000      -0.591376       -16.0921
 117   2.0000      -0.587844       -15.9961
 118   2.0000      -0.585440       -15.9306
 119   2.0000      -0.583021       -15.8648
 120   2.0000      -0.577123       -15.7043
 121   2.0000      -0.574531       -15.6338
 122   2.0000      -0.569355       -15.4929
 123   2.0000      -0.564628       -15.3643
 124   2.0000      -0.561369       -15.2756
 125   2.0000      -0.553475       -15.0608
 126   2.0000      -0.547365       -14.8946
 127   2.0000      -0.545280       -14.8378
 128   2.0000      -0.540010       -14.6944
 129   2.0000      -0.538396       -14.6505
 130   2.0000      -0.532391       -14.4871
 131   2.0000      -0.531415       -14.4605
 132   2.0000      -0.530009       -14.4223
 133   2.0000      -0.528262       -14.3747
 134   2.0000      -0.527671       -14.3587
 135   2.0000      -0.526244       -14.3198
 136   2.0000      -0.524031       -14.2596
 137   2.0000      -0.510483       -13.8910
 138   2.0000      -0.506387       -13.7795
 139   2.0000      -0.503050       -13.6887
 140   2.0000      -0.501904       -13.6575
 141   2.0000      -0.490930       -13.3589
 142   2.0000      -0.489626       -13.3234
 143   2.0000      -0.488606       -13.2956
 144   2.0000      -0.483479       -13.1561
 145   2.0000      -0.479035       -13.0352
 146   2.0000      -0.477889       -13.0040
 147   2.0000      -0.476340       -12.9619
 148   2.0000      -0.470265       -12.7966
 149   2.0000      -0.466036       -12.6815
 150   2.0000      -0.464890       -12.6503
 151   2.0000      -0.461815       -12.5666
 152   2.0000      -0.455472       -12.3940
 153   2.0000      -0.454659       -12.3719
 154   2.0000      -0.453930       -12.3521
 155   2.0000      -0.449097       -12.2205
 156   2.0000      -0.447624       -12.1805
 157   2.0000      -0.445389       -12.1197
 158   2.0000      -0.443535       -12.0692
 159   2.0000      -0.439973       -11.9723
 160   2.0000      -0.434672       -11.8280
 161   2.0000      -0.428224       -11.6526
 162   2.0000      -0.425383       -11.5753
 163   2.0000      -0.419849       -11.4247
 164   2.0000      -0.415136       -11.2964
 165   2.0000      -0.398741       -10.8503
 166   2.0000      -0.390245       -10.6191
 167   2.0000      -0.389565       -10.6006
 168   2.0000      -0.387969       -10.5572
 169   2.0000      -0.385365       -10.4863
 170   2.0000      -0.381111       -10.3706
 171   2.0000      -0.380355       -10.3500
 172   2.0000      -0.379354       -10.3227
 173   2.0000      -0.377543       -10.2735
 174   2.0000      -0.373853       -10.1730
 175   2.0000      -0.368556       -10.0289
 176   2.0000      -0.360377        -9.8064
 177   2.0000      -0.349294        -9.5048
 178   2.0000      -0.348753        -9.4900
 179   2.0000      -0.345772        -9.4089
 180   2.0000      -0.340057        -9.2534
 181   2.0000      -0.334889        -9.1128
 182   2.0000      -0.332719        -9.0537
 183   2.0000      -0.323391        -8.7999
 184   2.0000      -0.322153        -8.7662
 185   2.0000      -0.320666        -8.7258
 186   2.0000      -0.314619        -8.5612
 187   2.0000      -0.291421        -7.9300
 188   2.0000      -0.281683        -7.6650
 189   2.0000      -0.236404        -6.4329
 190   0.0000      -0.093134        -2.5343
 191   0.0000      -0.061700        -1.6789
 192   0.0000      -0.051189        -1.3929
 193   0.0000      -0.039445        -1.0733
 194   0.0000      -0.031905        -0.8682

MULLIKEN ATOMIC CHARGES
-----------------------
   0 C :    0.024294
   1 C :   -0.005036
   2 C :    0.120053
   3 N :    0.241053
   4 O :   -0.235181
   5 O :   -0.226004
   6 C :    0.059676
   7 C :   -0.041215
   8 C :    0.061863
   9 C :    0.031436
  10 C :    0.045963
  11 C :   -0.107946
  12 S :    0.114605
  13 C :   -0.115646
  14 N :   -0.044836
  15 N :   -0.040917
  16 C :    0.076178
  17 C :   -0.027065
  18 C :    0.136214
  19 N :   -0.256215
  20 C :    0.097329
  21 C :    0.001717
  22 C :    0.164395
  23 O :   -0.211427
  24 C :   -0.059056
  25 C :   -0.056365
  26 C :    0.162736
  27 O :   -0.212700
  28 N :   -0.257226
  29 C :    0.098934
  30 C :    0.003474
  31 C :    0.138206
  32 C :   -0.029350
  33 C :    0.077407
  34 C :   -0.116918
  35 S :    0.120451
  36 C :   -0.107804
  37 N :   -0.048599
  38 N :   -0.045363
  39 C :    0.072723
  40 C :    0.009599
  41 C :    0.099492
  42 C :   -0.025063
  43 C :    0.107759
  44 N :    0.226034
  45 O :   -0.237432
  46 O :   -0.214795
  47 C :    0.065793
  48 C :   -0.022106
  49 C :    0.010937
  50 C :   -0.031401
  51 C :   -0.002547
  52 H :    0.002171
  53 H :    0.011848
  54 H :   -0.008593
  55 H :    0.000046
  56 H :    0.039165
  57 H :   -0.007979
  58 H :    0.011642
  59 H :    0.003811
  60 H :    0.028962
  61 H :    0.043301
  62 H :    0.022965
  63 H :    0.026061
  64 H :    0.026104
  65 H :    0.041641
  66 H :    0.027294
  67 H :    0.026746
  68 H :    0.024086
  69 H :    0.021916
  70 H :    0.002152
  71 H :    0.012046
  72 H :   -0.008072
  73 H :    0.011755
  74 H :   -0.005989
  75 H :   -0.013012
  76 H :   -0.006999
  77 H :    0.011033
  78 H :    0.032189
  79 H :    0.033606
Sum of atomic charges:   -0.0000000

LOEWDIN ATOMIC CHARGES
----------------------
   0 C :   -0.016563
   1 C :    0.005359
   2 C :   -0.025802
   3 N :    0.283526
   4 O :   -0.201909
   5 O :   -0.186730
   6 C :   -0.006189
   7 C :   -0.008469
   8 C :    0.003221
   9 C :    0.029086
  10 C :   -0.056967
  11 C :   -0.144883
  12 S :    0.398231
  13 C :   -0.154253
  14 N :   -0.072274
  15 N :   -0.072596
  16 C :   -0.007755
  17 C :   -0.015739
  18 C :    0.073918
  19 N :    0.002269
  20 C :    0.036670
  21 C :   -0.060287
  22 C :    0.080690
  23 O :   -0.201624
  24 C :   -0.118208
  25 C :   -0.118630
  26 C :    0.080369
  27 O :   -0.203391
  28 N :    0.001569
  29 C :    0.036774
  30 C :   -0.060515
  31 C :    0.073027
  32 C :   -0.016366
  33 C :   -0.008692
  34 C :   -0.154715
  35 S :    0.403690
  36 C :   -0.146388
  37 N :   -0.079611
  38 N :   -0.074276
  39 C :   -0.054706
  40 C :    0.023909
  41 C :   -0.028873
  42 C :    0.012988
  43 C :   -0.020203
  44 N :    0.280291
  45 O :   -0.205248
  46 O :   -0.186469
  47 C :   -0.003543
  48 C :   -0.008671
  49 C :    0.007583
  50 C :   -0.027250
  51 C :   -0.016929
  52 H :    0.035707
  53 H :    0.042576
  54 H :    0.033366
  55 H :    0.035503
  56 H :    0.040682
  57 H :    0.029156
  58 H :    0.037248
  59 H :    0.037618
  60 H :    0.025641
  61 H :    0.037130
  62 H :    0.024996
  63 H :    0.032004
  64 H :    0.030756
  65 H :    0.036900
  66 H :    0.025393
  67 H :    0.030980
  68 H :    0.031142
  69 H :    0.024623
  70 H :    0.036906
  71 H :    0.037317
  72 H :    0.030533
  73 H :    0.039453
  74 H :    0.036606
  75 H :    0.035147
  76 H :    0.035139
  77 H :    0.034496
  78 H :    0.023850
  79 H :    0.030689

  Mayer bond orders larger than 0.100000
B(  0-C ,  1-C ) :   1.3639 B(  0-C ,  8-C ) :   1.3570 B(  0-C , 52-H ) :   0.9927
B(  1-C ,  2-C ) :   1.3947 B(  1-C , 53-H ) :   0.9878 B(  2-C ,  3-N ) :   0.8825
B(  2-C ,  6-C ) :   1.3518 B(  3-N ,  4-O ) :   1.5550 B(  3-N ,  5-O ) :   1.5295
B(  4-O ,  5-O ) :   0.2673 B(  6-C ,  7-C ) :   1.3678 B(  6-C ,  9-C ) :   1.0340
B(  7-C ,  8-C ) :   1.3906 B(  7-C , 54-H ) :   0.9902 B(  8-C , 55-H ) :   0.9919
B(  9-C , 10-C ) :   1.7846 B(  9-C , 56-H ) :   0.9478 B( 10-C , 11-C ) :   1.0933
B( 10-C , 57-H ) :   0.9485 B( 11-C , 12-S ) :   1.0981 B( 11-C , 15-N ) :   1.6833
B( 12-S , 13-C ) :   1.0968 B( 13-C , 14-N ) :   1.6668 B( 13-C , 16-C ) :   1.1062
B( 14-N , 15-N ) :   1.2327 B( 16-C , 17-C ) :   1.6607 B( 16-C , 58-H ) :   0.9267
B( 17-C , 18-C ) :   1.1323 B( 17-C , 59-H ) :   0.9698 B( 18-C , 19-N ) :   1.1608
B( 18-C , 25-C ) :   1.3421 B( 19-N , 20-C ) :   0.9434 B( 19-N , 22-C ) :   1.0640
B( 20-C , 21-C ) :   1.1198 B( 20-C , 60-H ) :   0.9496 B( 20-C , 61-H ) :   0.9289
B( 21-C , 62-H ) :   0.9688 B( 21-C , 63-H ) :   0.9681 B( 21-C , 64-H ) :   0.9640
B( 22-C , 23-O ) :   2.0258 B( 22-C , 24-C ) :   0.9853 B( 23-O , 71-H ) :   0.1117
B( 24-C , 25-C ) :   1.2523 B( 24-C , 31-C ) :   1.3428 B( 25-C , 26-C ) :   0.9854
B( 26-C , 27-O ) :   2.0285 B( 26-C , 28-N ) :   1.0630 B( 27-O , 58-H ) :   0.1082
B( 28-N , 29-C ) :   0.9441 B( 28-N , 31-C ) :   1.1594 B( 29-C , 30-C ) :   1.1210
B( 29-C , 65-H ) :   0.9289 B( 29-C , 66-H ) :   0.9502 B( 30-C , 67-H ) :   0.9635
B( 30-C , 68-H ) :   0.9680 B( 30-C , 69-H ) :   0.9690 B( 31-C , 32-C ) :   1.1334
B( 32-C , 33-C ) :   1.6573 B( 32-C , 70-H ) :   0.9716 B( 33-C , 34-C ) :   1.1072
B( 33-C , 71-H ) :   0.9244 B( 34-C , 35-S ) :   1.0972 B( 34-C , 38-N ) :   1.6676
B( 35-S , 36-C ) :   1.1039 B( 36-C , 37-N ) :   1.6729 B( 36-C , 39-C ) :   1.0912
B( 37-N , 38-N ) :   1.2323 B( 39-C , 40-C ) :   1.7395 B( 39-C , 72-H ) :   0.9451
B( 40-C , 41-C ) :   1.0496 B( 40-C , 73-H ) :   0.9868 B( 41-C , 42-C ) :   1.3062
B( 41-C , 49-C ) :   1.3331 B( 42-C , 43-C ) :   1.4088 B( 42-C , 74-H ) :   0.9884
B( 43-C , 44-N ) :   0.8534 B( 43-C , 47-C ) :   1.3805 B( 44-N , 45-O ) :   1.5296
B( 44-N , 46-O ) :   1.5587 B( 45-O , 46-O ) :   0.2743 B( 47-C , 48-C ) :   1.3565
B( 47-C , 50-C ) :   1.0292 B( 48-C , 49-C ) :   1.3819 B( 48-C , 75-H ) :   0.9932
B( 49-C , 76-H ) :   1.0017 B( 50-C , 51-C ) :   1.9832 B( 50-C , 77-H ) :   0.9561
B( 51-C , 78-H ) :   0.9627 B( 51-C , 79-H ) :   0.9519

-----------------------------------------------------------------------------
         ABSORPTION SPECTRUM VIA TRANSITION ELECTRIC DIPOLE MOMENTS
-----------------------------------------------------------------------------
State   Energy  Wavelength   fosc         T2         TX        TY        TZ
        (cm-1)    (nm)                  (au**2)     (au)      (au)      (au)
-----------------------------------------------------------------------------
   0   15601.4    641.0   1.083457759  22.86244  -3.72971   1.71752  -2.44986
   1   24065.8    415.5   0.004061149   0.05556  -0.14749  -0.17513   0.05595
   2   26721.4    374.2   0.063254862   0.77931   0.86911  -0.07618   0.13472
   3   27143.5    368.4   0.884556586  10.72843   3.10095  -0.82811   0.65326
   4   27841.6    359.2   0.574836708   6.79713  -2.35426   1.00963  -0.48499
   5   28275.9    353.7   0.051255084   0.59676  -0.74461   0.15261  -0.13789
   6   28441.7    351.6   0.026092325   0.30202  -0.51695   0.17450  -0.06582
   7   28550.6    350.3   0.018690479   0.21552   0.38816   0.17459  -0.18537
   8   29102.0    343.6   0.004704830   0.05322  -0.20658   0.09429  -0.04070
   9   30751.7    325.2   0.093758897   1.00374   0.95604  -0.29498  -0.05217
  10   31681.0    315.6   0.090541552   0.94086  -0.67213   0.36397   0.59719
  11   32442.6    308.2   0.000275814   0.00280  -0.01591   0.02071  -0.04601
  12   33599.6    297.6   0.061836364   0.60588   0.47088  -0.19742  -0.58752
  13   34940.6    286.2   0.369248417   3.47907  -1.67426   0.39458  -0.72127
  14   35564.3    281.2   0.006548115   0.06061  -0.09100  -0.22170   0.05643
  15   36102.8    277.0   0.006384030   0.05821   0.18113  -0.03985   0.15433
  16   36934.9    270.7   0.263476220   2.34845   1.45702  -0.40711   0.24453
  17   37654.2    265.6   0.003906166   0.03415  -0.11451  -0.11255  -0.09150
  18   38006.4    263.1   0.003043863   0.02637  -0.02462  -0.15652  -0.03550
  19   38958.2    256.7   0.076859021   0.64949  -0.64263   0.48610  -0.01479
  20   39580.1    252.7   0.030347917   0.25242  -0.36332   0.33656   0.08453
  21   40040.1    249.7   0.066858179   0.54971  -0.68433   0.27650   0.07032

FINAL SINGLE POINT ENERGY     -3071.117242738026

DIPOLE MOMENT
-------------
                                X             Y             Z
Electronic contribution:      9.78380      -0.09443      13.08856
Nuclear contribution   :     -8.57547      -1.01282     -15.64625
                        -----------------------------------------
Total Dipole Moment    :      1.20833      -1.10725      -2.55770
                        -----------------------------------------
Magnitude (a.u.)       :      3.03774
Magnitude (Debye)      :      7.72132

Rotational constants in cm-1:     0.006678     0.000288     0.000279
Rotational constants in MHz :   200.202545     8.648464     8.364767

                             ****ORCA TERMINATED NORMALLY****
TOTAL RUN TIME: 0 days 0 hours 4 minutes 56 seconds 249 msec
