                         Program Version 4.2.0 -  RELEASE  -
|  1> # ORCA input file
|  2> # SCF done       -169.248364004897          0.000992318165
|  3> ! CAM-B3LYP def2-SVP def2/J RIJCOSX Grid4 TightSCF
|  4> %maxcore 5000
|  5> %tddft
|  6>     Mode sTDDFT
|  7>     Ethresh 5.0
|  8>     maxcore 5000
|  9> end
| 10>
| 11> %pal
| 12>   nprocs 6
| 13>   end
| 14> * xyz 0 1
| 15>    C        5.75193         3.96722        -0.65622
| 16>    C        5.78494         5.30869        -0.42761
| 17>    S        7.35981         5.82027         0.05532
| 18>    C        7.99403         4.19506        -0.05225
| 19>   Cl        9.61287         3.85116         0.30350
| 20>    C        7.01537         3.32799        -0.44036
| 21>    C        6.90772         1.89038        -0.70080
| 22>    O        7.78344         1.06070        -0.63875
| 23>    C        5.48377         1.69199        -1.13746
| 24>    C        4.78315         2.97254        -1.06315
| 25>    C        3.45438         3.21540        -1.27665
| 26>    C        2.91695         4.51478        -1.14776
| 27>    N        2.46692         5.56517        -1.05050
| 28>    C        2.48619         2.25058        -1.62196
| 29>    N        1.65122         1.51333        -1.89945
| 30>    C        4.98804         0.56203        -1.69375
| 31>    C        5.62864        -0.73263        -1.74828
| 32>    C        6.35156        -1.25587        -0.67655
| 33>    C        6.95425        -2.49598        -0.77496
| 34>    N        7.78128        -2.88444         0.34484
| 35>    O        7.33119        -2.69164         1.45331
| 36>    O        8.87382        -3.34788         0.10754
| 37>    C        6.83620        -3.29016        -1.92920
| 38>    C        6.11139        -2.74261        -2.99884
| 39>    C        5.50692        -1.51147        -2.90761
| 40>    C        7.33648        -4.63465        -2.07429
| 41>    C        7.49256        -5.54498        -1.08846
| 42>    C        7.96573        -6.86062        -1.35431
| 43>    N        8.24432        -7.78208        -0.37837
| 44>    C        8.12059        -7.59452         1.04755
| 45>    C        6.68311        -7.78876         1.52426
| 46>    C        8.69969        -9.00459        -0.91878
| 47>    O        9.01018        -9.96347        -0.24695
| 48>    C        8.68577        -8.77955        -2.34838
| 49>    C        8.23642        -7.45958        -2.58401
| 50>    C        8.20691        -7.26209        -4.01388
| 51>    O        7.88266        -6.30763        -4.69567
| 52>    N        8.64343        -8.48542        -4.55579
| 53>    C        8.79528        -8.60766        -5.98611
| 54>    C       10.25304        -8.47277        -6.42033
| 55>    C        8.94136        -9.40218        -3.56847
| 56>    C        9.40329       -10.73919        -3.66390
| 57>    C        9.66945       -11.48762        -4.76686
| 58>    C       10.11985       -12.79289        -4.68607
| 59>    C       10.53186       -13.94287        -4.67683
| 60>    C       11.00175       -15.19276        -4.68962
| 61>    C       11.45302       -16.32627        -4.78093
| 62>    C       11.91908       -17.61907        -4.79463
| 63>    C       11.95128       -18.48607        -5.84714
| 64>    C       12.23861       -19.92672        -5.57246
| 65>    O       12.65556       -20.38747        -4.53619
| 66>    C       11.85936       -20.61841        -6.80955
| 67>    C       11.79136       -21.90228        -7.25971
| 68>    S       11.19983       -21.94410        -8.90459
| 69>    C       11.05909       -20.22440        -8.96424
| 70>    C       11.44059       -19.65789        -7.78861
| 71>    C       11.58790       -18.32037        -7.23988
| 72>    C       11.50284       -17.16992        -7.97955
| 73>    C       11.08618       -17.20068        -9.32761
| 74>    N       10.72849       -17.20386       -10.41800
| 75>    C       11.89963       -15.88258        -7.57231
| 76>    N       12.27267       -14.81947        -7.35191
| 77>   Cl       12.19706       -23.32454        -6.43357
| 78>    H        4.99894         6.03266        -0.51220
| 79>    H        4.03036         0.61496        -2.19818
| 80>    H        6.44637        -0.70749         0.24711
| 81>    H        6.01305        -3.32726        -3.90076
| 82>    H        4.95014        -1.12280        -3.74731
| 83>    H        7.52995        -4.94214        -3.09435
| 84>    H        7.24823        -5.31332        -0.06230
| 85>    H        8.49405        -6.60346         1.31780
| 86>    H        8.76184        -8.35009         1.50977
| 87>    H        6.00929        -7.08334         1.04260
| 88>    H        6.63120        -7.64103         2.59918
| 89>    H        6.34892        -8.79759         1.29482
| 90>    H        8.21527        -7.78399        -6.41421
| 91>    H        8.35528        -9.54820        -6.32696
| 92>    H       10.62618        -7.48781        -6.15058
| 93>    H       10.32838        -8.58847        -7.49812
| 94>    H       10.88279        -9.21985        -5.94247
| 95>    H        9.54755       -11.19830        -2.69289
| 96>    H        9.54694       -11.11139        -5.77219
| 97>    H       12.24432       -18.02811        -3.84082
| 98>    H       10.69943       -19.75853        -9.85998
| 99> *
|100>
|101>                          ****END OF INPUT****

CARTESIAN COORDINATES (ANGSTROEM)
---------------------------------
  C      5.751930    3.967220   -0.656220
  C      5.784940    5.308690   -0.427610
  S      7.359810    5.820270    0.055320
  C      7.994030    4.195060   -0.052250
  Cl     9.612870    3.851160    0.303500
  C      7.015370    3.327990   -0.440360
  C      6.907720    1.890380   -0.700800
  O      7.783440    1.060700   -0.638750
  C      5.483770    1.691990   -1.137460
  C      4.783150    2.972540   -1.063150
  C      3.454380    3.215400   -1.276650
  C      2.916950    4.514780   -1.147760
  N      2.466920    5.565170   -1.050500
  C      2.486190    2.250580   -1.621960
  N      1.651220    1.513330   -1.899450
  C      4.988040    0.562030   -1.693750
  C      5.628640   -0.732630   -1.748280
  C      6.351560   -1.255870   -0.676550
  C      6.954250   -2.495980   -0.774960
  N      7.781280   -2.884440    0.344840
  O      7.331190   -2.691640    1.453310
  O      8.873820   -3.347880    0.107540
  C      6.836200   -3.290160   -1.929200
  C      6.111390   -2.742610   -2.998840
  C      5.506920   -1.511470   -2.907610
  C      7.336480   -4.634650   -2.074290
  C      7.492560   -5.544980   -1.088460
  C      7.965730   -6.860620   -1.354310
  N      8.244320   -7.782080   -0.378370
  C      8.120590   -7.594520    1.047550
  C      6.683110   -7.788760    1.524260
  C      8.699690   -9.004590   -0.918780
  O      9.010180   -9.963470   -0.246950
  C      8.685770   -8.779550   -2.348380
  C      8.236420   -7.459580   -2.584010
  C      8.206910   -7.262090   -4.013880
  O      7.882660   -6.307630   -4.695670
  N      8.643430   -8.485420   -4.555790
  C      8.795280   -8.607660   -5.986110
  C     10.253040   -8.472770   -6.420330
  C      8.941360   -9.402180   -3.568470
  C      9.403290  -10.739190   -3.663900
  C      9.669450  -11.487620   -4.766860
  C     10.119850  -12.792890   -4.686070
  C     10.531860  -13.942870   -4.676830
  C     11.001750  -15.192760   -4.689620
  C     11.453020  -16.326270   -4.780930
  C     11.919080  -17.619070   -4.794630
  C     11.951280  -18.486070   -5.847140
  C     12.238610  -19.926720   -5.572460
  O     12.655560  -20.387470   -4.536190
  C     11.859360  -20.618410   -6.809550
  C     11.791360  -21.902280   -7.259710
  S     11.199830  -21.944100   -8.904590
  C     11.059090  -20.224400   -8.964240
  C     11.440590  -19.657890   -7.788610
  C     11.587900  -18.320370   -7.239880
  C     11.502840  -17.169920   -7.979550
  C     11.086180  -17.200680   -9.327610
  N     10.728490  -17.203860  -10.418000
  C     11.899630  -15.882580   -7.572310
  N     12.272670  -14.819470   -7.351910
  Cl    12.197060  -23.324540   -6.433570
  H      4.998940    6.032660   -0.512200
  H      4.030360    0.614960   -2.198180
  H      6.446370   -0.707490    0.247110
  H      6.013050   -3.327260   -3.900760
  H      4.950140   -1.122800   -3.747310
  H      7.529950   -4.942140   -3.094350
  H      7.248230   -5.313320   -0.062300
  H      8.494050   -6.603460    1.317800
  H      8.761840   -8.350090    1.509770
  H      6.009290   -7.083340    1.042600
  H      6.631200   -7.641030    2.599180
  H      6.348920   -8.797590    1.294820
  H      8.215270   -7.783990   -6.414210
  H      8.355280   -9.548200   -6.326960
  H     10.626180   -7.487810   -6.150580
  H     10.328380   -8.588470   -7.498120
  H     10.882790   -9.219850   -5.942470
  H      9.547550  -11.198300   -2.692890
  H      9.546940  -11.111390   -5.772190
  H     12.244320  -18.028110   -3.840820
  H     10.699430  -19.758530   -9.859980

 Total Charge           Charge          ....    0
 Multiplicity           Mult            ....    1
 Number of Electrons    NEL             ....  460
 Basis Dimension        Dim             .... 1003

ORBITAL ENERGIES
----------------

  NO   OCC          E(Eh)            E(eV)
   0   2.0000    -101.625577     -2765.3725
   1   2.0000    -101.616246     -2765.1186
   2   2.0000     -89.003538     -2421.9094
   3   2.0000     -88.991734     -2421.5882
   4   2.0000     -19.256019      -523.9829
   5   2.0000     -19.255503      -523.9689
   6   2.0000     -19.233785      -523.3779
   7   2.0000     -19.219983      -523.0023
   8   2.0000     -19.202333      -522.5221
   9   2.0000     -19.197631      -522.3941
  10   2.0000     -14.659508      -398.9055
  11   2.0000     -14.462893      -393.5553
  12   2.0000     -14.460480      -393.4897
  13   2.0000     -14.431686      -392.7061
  14   2.0000     -14.430115      -392.6634
  15   2.0000     -14.420547      -392.4030
  16   2.0000     -14.413462      -392.2102
  17   2.0000     -10.391313      -282.7620
  18   2.0000     -10.386060      -282.6191
  19   2.0000     -10.384705      -282.5822
  20   2.0000     -10.380871      -282.4779
  21   2.0000     -10.375583      -282.3340
  22   2.0000     -10.375145      -282.3221
  23   2.0000     -10.360334      -281.9190
  24   2.0000     -10.359649      -281.9004
  25   2.0000     -10.354187      -281.7518
  26   2.0000     -10.349126      -281.6140
  27   2.0000     -10.347817      -281.5784
  28   2.0000     -10.344951      -281.5004
  29   2.0000     -10.344245      -281.4812
  30   2.0000     -10.339452      -281.3508
  31   2.0000     -10.335606      -281.2461
  32   2.0000     -10.333451      -281.1875
  33   2.0000     -10.332522      -281.1622
  34   2.0000     -10.331667      -281.1390
  35   2.0000     -10.327330      -281.0209
  36   2.0000     -10.325913      -280.9824
  37   2.0000     -10.322832      -280.8985
  38   2.0000     -10.322212      -280.8817
  39   2.0000     -10.322138      -280.8797
  40   2.0000     -10.317720      -280.7594
  41   2.0000     -10.315832      -280.7080
  42   2.0000     -10.315019      -280.6859
  43   2.0000     -10.313328      -280.6399
  44   2.0000     -10.312982      -280.6305
  45   2.0000     -10.312839      -280.6266
  46   2.0000     -10.312088      -280.6062
  47   2.0000     -10.311744      -280.5968
  48   2.0000     -10.310983      -280.5761
  49   2.0000     -10.310637      -280.5667
  50   2.0000     -10.310235      -280.5558
  51   2.0000     -10.309982      -280.5489
  52   2.0000     -10.305906      -280.4380
  53   2.0000     -10.305220      -280.4193
  54   2.0000     -10.305055      -280.4148
  55   2.0000     -10.303626      -280.3759
  56   2.0000     -10.300214      -280.2831
  57   2.0000     -10.299290      -280.2579
  58   2.0000     -10.298809      -280.2448
  59   2.0000     -10.274788      -279.5912
  60   2.0000     -10.269271      -279.4411
  61   2.0000     -10.267880      -279.4032
  62   2.0000     -10.265741      -279.3450
  63   2.0000      -9.580340      -260.6943
  64   2.0000      -9.571035      -260.4411
  65   2.0000      -8.099200      -220.3904
  66   2.0000      -8.087454      -220.0708
  67   2.0000      -7.350991      -200.0306
  68   2.0000      -7.341673      -199.7771
  69   2.0000      -7.340382      -199.7419
  70   2.0000      -7.339806      -199.7263
  71   2.0000      -7.331070      -199.4885
  72   2.0000      -7.330532      -199.4739
  73   2.0000      -6.068562      -165.1340
  74   2.0000      -6.063927      -165.0078
  75   2.0000      -6.061525      -164.9425
  76   2.0000      -6.056841      -164.8150
  77   2.0000      -6.052255      -164.6902
  78   2.0000      -6.049681      -164.6202
  79   2.0000      -1.336809       -36.3764
  80   2.0000      -1.155465       -31.4418
  81   2.0000      -1.151759       -31.3409
  82   2.0000      -1.142554       -31.0905
  83   2.0000      -1.136250       -30.9189
  84   2.0000      -1.134931       -30.8831
  85   2.0000      -1.072990       -29.1975
  86   2.0000      -1.062013       -28.8988
  87   2.0000      -1.048275       -28.5250
  88   2.0000      -1.036930       -28.2163
  89   2.0000      -1.027987       -27.9729
  90   2.0000      -1.015340       -27.6288
  91   2.0000      -1.009273       -27.4637
  92   2.0000      -1.006696       -27.3936
  93   2.0000      -0.997535       -27.1443
  94   2.0000      -0.995063       -27.0770
  95   2.0000      -0.987102       -26.8604
  96   2.0000      -0.965426       -26.2706
  97   2.0000      -0.954296       -25.9677
  98   2.0000      -0.941397       -25.6167
  99   2.0000      -0.936059       -25.4715
 100   2.0000      -0.928748       -25.2725
 101   2.0000      -0.918458       -24.9925
 102   2.0000      -0.916891       -24.9499
 103   2.0000      -0.914375       -24.8814
 104   2.0000      -0.902137       -24.5484
 105   2.0000      -0.897704       -24.4278
 106   2.0000      -0.883176       -24.0324
 107   2.0000      -0.875948       -23.8358
 108   2.0000      -0.862595       -23.4724
 109   2.0000      -0.843688       -22.9579
 110   2.0000      -0.842734       -22.9320
 111   2.0000      -0.831507       -22.6264
 112   2.0000      -0.826210       -22.4823
 113   2.0000      -0.818632       -22.2761
 114   2.0000      -0.809049       -22.0154
 115   2.0000      -0.804339       -21.8872
 116   2.0000      -0.786339       -21.3974
 117   2.0000      -0.774831       -21.0842
 118   2.0000      -0.766091       -20.8464
 119   2.0000      -0.765002       -20.8168
 120   2.0000      -0.755086       -20.5469
 121   2.0000      -0.735527       -20.0147
 122   2.0000      -0.727502       -19.7963
 123   2.0000      -0.717482       -19.5237
 124   2.0000      -0.713580       -19.4175
 125   2.0000      -0.702983       -19.1291
 126   2.0000      -0.699374       -19.0309
 127   2.0000      -0.691199       -18.8085
 128   2.0000      -0.689349       -18.7581
 129   2.0000      -0.687216       -18.7001
 130   2.0000      -0.675104       -18.3705
 131   2.0000      -0.668958       -18.2033
 132   2.0000      -0.667070       -18.1519
 133   2.0000      -0.663893       -18.0655
 134   2.0000      -0.657316       -17.8865
 135   2.0000      -0.648780       -17.6542
 136   2.0000      -0.635164       -17.2837
 137   2.0000      -0.625527       -17.0214
 138   2.0000      -0.619737       -16.8639
 139   2.0000      -0.618047       -16.8179
 140   2.0000      -0.615659       -16.7529
 141   2.0000      -0.614911       -16.7326
 142   2.0000      -0.606572       -16.5057
 143   2.0000      -0.603218       -16.4144
 144   2.0000      -0.596662       -16.2360
 145   2.0000      -0.592424       -16.1207
 146   2.0000      -0.584749       -15.9118
 147   2.0000      -0.580159       -15.7869
 148   2.0000      -0.579459       -15.7679
 149   2.0000      -0.575649       -15.6642
 150   2.0000      -0.571357       -15.5474
 151   2.0000      -0.563919       -15.3450
 152   2.0000      -0.560857       -15.2617
 153   2.0000      -0.559025       -15.2118
 154   2.0000      -0.549165       -14.9435
 155   2.0000      -0.547158       -14.8889
 156   2.0000      -0.546589       -14.8735
 157   2.0000      -0.542939       -14.7741
 158   2.0000      -0.538381       -14.6501
 159   2.0000      -0.535768       -14.5790
 160   2.0000      -0.533835       -14.5264
 161   2.0000      -0.531594       -14.4654
 162   2.0000      -0.528767       -14.3885
 163   2.0000      -0.524825       -14.2812
 164   2.0000      -0.521297       -14.1852
 165   2.0000      -0.520791       -14.1714
 166   2.0000      -0.516764       -14.0619
 167   2.0000      -0.516145       -14.0450
 168   2.0000      -0.510887       -13.9019
 169   2.0000      -0.509866       -13.8742
 170   2.0000      -0.505510       -13.7556
 171   2.0000      -0.503693       -13.7062
 172   2.0000      -0.499994       -13.6055
 173   2.0000      -0.496708       -13.5161
 174   2.0000      -0.494204       -13.4480
 175   2.0000      -0.489847       -13.3294
 176   2.0000      -0.488947       -13.3049
 177   2.0000      -0.482652       -13.1336
 178   2.0000      -0.479219       -13.0402
 179   2.0000      -0.475292       -12.9334
 180   2.0000      -0.473798       -12.8927
 181   2.0000      -0.469895       -12.7865
 182   2.0000      -0.466204       -12.6861
 183   2.0000      -0.464108       -12.6290
 184   2.0000      -0.462792       -12.5932
 185   2.0000      -0.461010       -12.5447
 186   2.0000      -0.459752       -12.5105
 187   2.0000      -0.456768       -12.4293
 188   2.0000      -0.455631       -12.3984
 189   2.0000      -0.454222       -12.3600
 190   2.0000      -0.453027       -12.3275
 191   2.0000      -0.451509       -12.2862
 192   2.0000      -0.449630       -12.2351
 193   2.0000      -0.445673       -12.1274
 194   2.0000      -0.444777       -12.1030
 195   2.0000      -0.443707       -12.0739
 196   2.0000      -0.441819       -12.0225
 197   2.0000      -0.441443       -12.0123
 198   2.0000      -0.439806       -11.9677
 199   2.0000      -0.431879       -11.7520
 200   2.0000      -0.430286       -11.7087
 201   2.0000      -0.428397       -11.6573
 202   2.0000      -0.428017       -11.6469
 203   2.0000      -0.423357       -11.5201
 204   2.0000      -0.422784       -11.5045
 205   2.0000      -0.414007       -11.2657
 206   2.0000      -0.411601       -11.2002
 207   2.0000      -0.408466       -11.1149
 208   2.0000      -0.404125       -10.9968
 209   2.0000      -0.402291       -10.9469
 210   2.0000      -0.398364       -10.8400
 211   2.0000      -0.392925       -10.6920
 212   2.0000      -0.391989       -10.6666
 213   2.0000      -0.386060       -10.5052
 214   2.0000      -0.365466        -9.9448
 215   2.0000      -0.359407        -9.7800
 216   2.0000      -0.357356        -9.7242
 217   2.0000      -0.355783        -9.6813
 218   2.0000      -0.346559        -9.4304
 219   2.0000      -0.346518        -9.4292
 220   2.0000      -0.344842        -9.3836
 221   2.0000      -0.340336        -9.2610
 222   2.0000      -0.333992        -9.0884
 223   2.0000      -0.326016        -8.8714
 224   2.0000      -0.324145        -8.8204
 225   2.0000      -0.318469        -8.6660
 226   2.0000      -0.314226        -8.5505
 227   2.0000      -0.310945        -8.4612
 228   2.0000      -0.296358        -8.0643
 229   2.0000      -0.246453        -6.7063
 230   0.0000      -0.117627        -3.2008
 231   0.0000      -0.103938        -2.8283
 232   0.0000      -0.081691        -2.2229
 233   0.0000      -0.062537        -1.7017
 234   0.0000      -0.054719        -1.4890

MULLIKEN ATOMIC CHARGES
-----------------------
   0 C :    0.032019
   1 C :   -0.127195
   2 S :    0.196037
   3 C :   -0.166898
   4 Cl:    0.008421
   5 C :    0.071944
   6 C :    0.145264
   7 O :   -0.123462
   8 C :   -0.090245
   9 C :    0.284553
  10 C :   -0.319734
  11 C :   -0.191178
  12 N :    0.160218
  13 C :   -0.192323
  14 N :    0.166730
  15 C :   -0.027747
  16 C :    0.055542
  17 C :    0.064051
  18 C :    0.079201
  19 N :    0.223916
  20 O :   -0.230868
  21 O :   -0.215917
  22 C :    0.098457
  23 C :   -0.025155
  24 C :    0.033071
  25 C :   -0.006500
  26 C :    0.018204
  27 C :    0.123369
  28 N :   -0.265076
  29 C :    0.091390
  30 C :    0.003444
  31 C :    0.157507
  32 O :   -0.177998
  33 C :   -0.028091
  34 C :   -0.071276
  35 C :    0.170260
  36 O :   -0.221883
  37 N :   -0.265945
  38 C :    0.096643
  39 C :   -0.002016
  40 C :    0.101848
  41 C :   -0.003187
  42 C :   -0.122098
  43 C :    0.065002
  44 C :    0.007963
  45 C :    0.028910
  46 C :    0.057978
  47 C :   -0.062129
  48 C :   -0.131790
  49 C :    0.132416
  50 O :   -0.127086
  51 C :    0.087767
  52 C :   -0.172302
  53 S :    0.184098
  54 C :   -0.131077
  55 C :    0.018866
  56 C :    0.292543
  57 C :   -0.314396
  58 C :   -0.196083
  59 N :    0.151102
  60 C :   -0.199023
  61 N :    0.184375
  62 Cl:   -0.000595
  63 H :    0.057439
  64 H :    0.036792
  65 H :    0.001240
  66 H :    0.010874
  67 H :   -0.001065
  68 H :    0.028305
  69 H :   -0.009223
  70 H :    0.037672
  71 H :    0.045502
  72 H :    0.014654
  73 H :    0.030409
  74 H :    0.029994
  75 H :    0.043963
  76 H :    0.025058
  77 H :    0.027355
  78 H :    0.028034
  79 H :    0.026912
  80 H :    0.030597
  81 H :    0.042149
  82 H :    0.056715
  83 H :    0.052788
Sum of atomic charges:    0.0000000

LOEWDIN ATOMIC CHARGES
----------------------
   0 C :   -0.060158
   1 C :   -0.147396
   2 S :    0.484642
   3 C :   -0.269901
   4 Cl:    0.198855
   5 C :   -0.118528
   6 C :    0.081325
   7 O :   -0.121373
   8 C :   -0.077852
   9 C :    0.073438
  10 C :   -0.129243
  11 C :   -0.015388
  12 N :   -0.044333
  13 C :   -0.024905
  14 N :   -0.039595
  15 C :    0.077225
  16 C :   -0.033990
  17 C :    0.043243
  18 C :   -0.019389
  19 N :    0.280022
  20 O :   -0.197248
  21 O :   -0.187586
  22 C :    0.000003
  23 C :    0.002700
  24 C :    0.017857
  25 C :    0.035584
  26 C :   -0.030364
  27 C :    0.094794
  28 N :    0.000476
  29 C :    0.036856
  30 C :   -0.060488
  31 C :    0.084218
  32 O :   -0.178912
  33 C :   -0.094629
  34 C :   -0.128380
  35 C :    0.081624
  36 O :   -0.207370
  37 N :   -0.001111
  38 C :    0.034353
  39 C :   -0.062452
  40 C :    0.057177
  41 C :    0.015233
  42 C :   -0.041082
  43 C :    0.033321
  44 C :   -0.043243
  45 C :    0.015401
  46 C :   -0.018685
  47 C :    0.048328
  48 C :   -0.067831
  49 C :    0.079050
  50 O :   -0.131289
  51 C :   -0.118725
  52 C :   -0.271514
  53 S :    0.472895
  54 C :   -0.152780
  55 C :   -0.056138
  56 C :    0.065503
  57 C :   -0.123712
  58 C :   -0.013602
  59 N :   -0.050242
  60 C :   -0.019998
  61 N :   -0.037287
  62 Cl:    0.191624
  63 H :    0.038922
  64 H :    0.048893
  65 H :    0.041506
  66 H :    0.044348
  67 H :    0.038682
  68 H :    0.042292
  69 H :    0.027151
  70 H :    0.028919
  71 H :    0.039302
  72 H :    0.021280
  73 H :    0.033696
  74 H :    0.032324
  75 H :    0.037688
  76 H :    0.021656
  77 H :    0.032568
  78 H :    0.033024
  79 H :    0.024088
  80 H :    0.055551
  81 H :    0.047306
  82 H :    0.064672
  83 H :    0.037107

  Mayer bond orders larger than 0.100000
B(  0-C ,  1-C ) :   1.5395 B(  0-C ,  5-C ) :   1.2199 B(  0-C ,  9-C ) :   1.0069
B(  1-C ,  2-S ) :   1.1672 B(  1-C , 63-H ) :   0.9540 B(  2-S ,  3-C ) :   1.1549
B(  3-C ,  4-Cl) :   1.1353 B(  3-C ,  5-C ) :   1.4725 B(  5-C ,  6-C ) :   0.9561
B(  6-C ,  7-O ) :   2.2417 B(  6-C ,  8-C ) :   0.9169 B(  8-C ,  9-C ) :   1.0415
B(  8-C , 15-C ) :   1.7136 B(  9-C , 10-C ) :   1.6764 B( 10-C , 11-C ) :   1.1404
B( 10-C , 13-C ) :   1.1343 B( 11-C , 12-N ) :   2.9935 B( 13-C , 14-N ) :   2.9834
B( 15-C , 16-C ) :   1.0432 B( 15-C , 64-H ) :   0.9465 B( 16-C , 17-C ) :   1.3168
B( 16-C , 24-C ) :   1.3206 B( 17-C , 18-C ) :   1.4353 B( 17-C , 65-H ) :   0.9761
B( 18-C , 19-N ) :   0.8504 B( 18-C , 22-C ) :   1.3410 B( 19-N , 20-O ) :   1.5329
B( 19-N , 21-O ) :   1.5521 B( 20-O , 21-O ) :   0.2741 B( 22-C , 23-C ) :   1.3347
B( 22-C , 25-C ) :   1.0689 B( 23-C , 24-C ) :   1.3863 B( 23-C , 66-H ) :   0.9973
B( 24-C , 67-H ) :   1.0000 B( 25-C , 26-C ) :   1.6494 B( 25-C , 68-H ) :   0.9349
B( 26-C , 27-C ) :   1.1818 B( 26-C , 69-H ) :   0.9474 B( 27-C , 28-N ) :   1.1819
B( 27-C , 34-C ) :   1.3202 B( 28-N , 29-C ) :   0.9381 B( 28-N , 31-C ) :   1.0270
B( 29-C , 30-C ) :   1.1196 B( 29-C , 70-H ) :   0.9502 B( 29-C , 71-H ) :   0.9288
B( 30-C , 72-H ) :   0.9689 B( 30-C , 73-H ) :   0.9681 B( 30-C , 74-H ) :   0.9636
B( 31-C , 32-O ) :   2.1447 B( 31-C , 33-C ) :   0.9646 B( 33-C , 34-C ) :   1.2537
B( 33-C , 40-C ) :   1.3613 B( 34-C , 35-C ) :   0.9944 B( 35-C , 36-O ) :   2.0050
B( 35-C , 37-N ) :   1.0725 B( 36-O , 68-H ) :   0.1146 B( 37-N , 38-C ) :   0.9424
B( 37-N , 40-C ) :   1.1501 B( 38-C , 39-C ) :   1.1160 B( 38-C , 75-H ) :   0.9232
B( 38-C , 76-H ) :   0.9501 B( 39-C , 77-H ) :   0.9614 B( 39-C , 78-H ) :   0.9681
B( 39-C , 79-H ) :   0.9684 B( 40-C , 41-C ) :   1.1895 B( 41-C , 42-C ) :   1.5940
B( 41-C , 80-H ) :   0.9504 B( 42-C , 43-C ) :   1.0274 B( 42-C , 81-H ) :   0.9553
B( 43-C , 44-C ) :   2.0872 B( 43-C , 46-C ) :   0.1732 B( 44-C , 45-C ) :   0.8914
B( 45-C , 46-C ) :   2.0577 B( 46-C , 47-C ) :   0.9516 B( 47-C , 48-C ) :   1.6734
B( 47-C , 82-H ) :   0.9489 B( 48-C , 49-C ) :   0.9397 B( 48-C , 56-C ) :   1.0400
B( 49-C , 50-O ) :   2.2759 B( 49-C , 51-C ) :   0.9277 B( 51-C , 52-C ) :   1.4837
B( 51-C , 55-C ) :   1.2221 B( 52-C , 53-S ) :   1.1512 B( 52-C , 62-Cl) :   1.1286
B( 53-S , 54-C ) :   1.1564 B( 54-C , 55-C ) :   1.5545 B( 54-C , 83-H ) :   0.9535
B( 55-C , 56-C ) :   1.0101 B( 56-C , 57-C ) :   1.6545 B( 57-C , 58-C ) :   1.1342
B( 57-C , 60-C ) :   1.1629 B( 58-C , 59-N ) :   2.9920 B( 60-C , 61-N ) :   2.9929

-----------------------------------------------------------------------------
         ABSORPTION SPECTRUM VIA TRANSITION ELECTRIC DIPOLE MOMENTS
-----------------------------------------------------------------------------
State   Energy  Wavelength   fosc         T2         TX        TY        TZ
        (cm-1)    (nm)                  (au**2)     (au)      (au)      (au)
-----------------------------------------------------------------------------
   0   14082.4    710.1   1.403418360  32.80839  -1.59135   4.91327   2.47706
   1   19052.4    524.9   0.038293859   0.66169  -0.09493   0.35071   0.72779
   2   22972.1    435.3   0.091018095   1.30437  -0.30615   1.07733  -0.22362
   3   23131.5    432.3   0.041424835   0.58957  -0.18080   0.65611   0.35553
   4   24647.6    405.7   0.085213820   1.13818   0.16335  -0.59724  -0.86880
   5   25624.0    390.3   0.387596951   4.97977  -0.89001   2.03052   0.25427
   6   25971.2    385.0   0.041626353   0.52766  -0.24293   0.67531  -0.11222
   7   26599.5    375.9   0.009838330   0.12177  -0.19456   0.08884   0.27572
   8   27670.9    361.4   0.134079019   1.59519   0.13678  -1.17027  -0.45491
   9   28118.8    355.6   0.003491786   0.04088  -0.06251  -0.15675  -0.11137
  10   28926.2    345.7   0.058678774   0.66783   0.55568  -0.59685   0.05313
  11   29122.8    343.4   0.006041642   0.06830   0.06644  -0.23585   0.09087
  12   29309.3    341.2   0.234696879   2.63620   0.51213  -1.54065   0.01784
  13   30348.0    329.5   0.028117916   0.30502   0.05374   0.29055   0.46660
  14   30374.9    329.2   0.452701433   4.90650  -0.09339   2.18754  -0.33534
  15   31246.4    320.0   0.028547649   0.30078  -0.09851   0.01071  -0.53941
  16   31534.2    317.1   0.042162687   0.44017   0.20974  -0.62171   0.09825
  17   32081.1    311.7   0.018543300   0.19029   0.32805   0.28020  -0.06452
  18   32171.5    310.8   0.116783571   1.19505  -0.25705   1.06101  -0.05684
  19   32911.5    303.8   0.020634984   0.20641   0.15553  -0.40957   0.12031
  20   33043.6    302.6   0.046447690   0.46276   0.41257   0.45815   0.28746
  21   33143.7    301.7   0.031881557   0.31668   0.02759   0.37085  -0.42236
  22   33323.7    300.1   0.051438977   0.50818  -0.58861  -0.03404  -0.40069
  23   34860.6    286.9   0.064561267   0.60969  -0.26587  -0.73221   0.05367
  24   35019.7    285.6   0.058790606   0.55268   0.16982  -0.67736   0.25500
  25   35389.1    282.6   0.015184686   0.14126   0.13419  -0.35030   0.02323
  26   35636.8    280.6   0.004749760   0.04388  -0.09447  -0.06483   0.17536
  27   35846.8    279.0   0.008766036   0.08051  -0.05347   0.10094  -0.25973
  28   36860.9    271.3   0.093251332   0.83285  -0.07336   0.90572   0.08453
  29   36939.9    270.7   0.372072835   3.31595  -1.62113  -0.54164  -0.62809
  30   37212.3    268.7   0.182746298   1.61673   0.93468   0.85663  -0.09641
  31   37592.8    266.0   0.134090731   1.17427  -0.85486   0.59021  -0.30844
  32   37883.1    264.0   0.442553662   3.84588   0.38760   1.91962   0.10344
  33   38532.9    259.5   0.004457937   0.03809   0.01464  -0.19412  -0.01376
  34   38594.1    259.1   0.050036981   0.42682   0.04605   0.64438  -0.09733
  35   38719.3    258.3   0.101449109   0.86257   0.41501  -0.73690   0.38383
  36   38845.3    257.4   0.031677098   0.26846  -0.02024   0.51710   0.02566
  37   38971.9    256.6   0.108854322   0.91954   0.47543   0.77468   0.30557
  38   39089.5    255.8   0.074458632   0.62709  -0.29824   0.58964  -0.43643
  39   39282.7    254.6   0.056709685   0.47526   0.66961  -0.06958   0.14846
  40   39539.9    252.9   0.049177926   0.40946  -0.35605   0.25823  -0.46476
  41   39668.4    252.1   0.013422274   0.11139   0.13074  -0.14698   0.26962

FINAL SINGLE POINT ENERGY     -4312.828559058084

DIPOLE MOMENT
-------------
                                X             Y             Z
Electronic contribution:     17.41504     -15.05550      -7.25775
Nuclear contribution   :    -17.74883      16.23107       7.19648
                        -----------------------------------------
Total Dipole Moment    :     -0.33379       1.17557      -0.06127
                        -----------------------------------------
Magnitude (a.u.)       :      1.22358
Magnitude (Debye)      :      3.11009

Rotational constants in cm-1:     0.003645     0.000193     0.000191
Rotational constants in MHz :   109.281381     5.789543     5.720527

                             ****ORCA TERMINATED NORMALLY****
TOTAL RUN TIME: 0 days 0 hours 6 minutes 26 seconds 911 msec
