                         Program Version 4.2.0 -  RELEASE  -
|  1> # ORCA input file
|  2> # SCF done       -172.537457855718          0.000763844332
|  3> ! CAM-B3LYP def2-SVP def2/J RIJCOSX Grid4 TightSCF
|  4> %maxcore 5000
|  5> %tddft
|  6>     Mode sTDDFT
|  7>     Ethresh 5.0
|  8>     maxcore 5000
|  9> end
| 10>
| 11> %pal
| 12>   nprocs 6
| 13>   end
| 14> * xyz 0 1
| 15>    C        5.49633        -2.53686         6.02652
| 16>    C        5.50743        -2.68069         7.38026
| 17>    S        6.14156        -4.21753         7.83889
| 18>    C        6.40660        -4.67874         6.17408
| 19>   Cl        7.06162        -6.18533         5.76761
| 20>    C        6.00948        -3.68000         5.33553
| 21>    C        5.98331        -3.44911         3.88886
| 22>    O        6.45381        -4.16030         3.03240
| 23>    C        5.31949        -2.11563         3.72755
| 24>    C        5.10966        -1.53518         5.05460
| 25>    C        4.64820        -0.28905         5.38205
| 26>    C        4.49982         0.10258         6.73123
| 27>    N        4.36731         0.44114         7.81887
| 28>    C        4.29327         0.74602         4.49264
| 29>    N        3.99732         1.64149         3.83768
| 30>    C        4.91459        -1.50240         2.58210
| 31>    C        4.90306        -1.94836         1.23353
| 32>    S        4.27119        -0.83798         0.04552
| 33>    C        4.45246        -2.00150        -1.21811
| 34>    C        3.89884        -1.69962        -2.51912
| 35>    O        3.86232        -2.45711        -3.45905
| 36>    C        5.00034        -3.19310        -0.73716
| 37>    C        5.23566        -3.15068         0.64624
| 38>    C        5.21686        -4.43352        -1.45158
| 39>    N        5.87026        -4.63725        -2.63240
| 40>    C        6.63829        -3.68196        -3.39342
| 41>    C        7.78544        -3.09126        -2.57984
| 42>    C        5.86889        -6.00604        -2.98682
| 43>    O        6.40930        -6.43433        -3.98803
| 44>    C        5.14543        -6.65854        -1.92227
| 45>    C        4.78335        -5.65712        -0.97855
| 46>    C        4.04826        -6.28708         0.09517
| 47>    O        3.53889        -5.84856         1.10488
| 48>    N        4.01994        -7.64778        -0.26994
| 49>    C        3.42364        -8.63674         0.59518
| 50>    C        4.47817        -9.39917         1.39390
| 51>    C        4.66334        -7.87926        -1.46378
| 52>    C        4.75223        -9.16572        -2.06797
| 53>    C        5.35569        -9.34992        -3.26369
| 54>    C        5.46533       -10.59163        -3.98396
| 55>    C        5.79622       -10.54335        -5.34474
| 56>    C        5.84643       -11.68744        -6.10320
| 57>    F        6.16497       -11.57413        -7.40858
| 58>    C        5.62418       -12.96193        -5.56311
| 59>    C        5.37912       -13.02155        -4.18824
| 60>    C        5.27471       -11.87243        -3.44040
| 61>    F        5.01747       -12.01785        -2.12609
| 62>    C        5.71266       -14.17937        -6.33219
| 63>    C        5.35559       -14.42190        -7.61222
| 64>    C        5.87723       -15.66481        -8.27830
| 65>    O        6.41258       -16.59547        -7.72869
| 66>    C        5.62496       -15.44545        -9.70473
| 67>    C        5.90168       -16.07837       -10.88039
| 68>    S        5.25781       -15.17273       -12.22899
| 69>    C        4.61193       -13.95659       -11.18899
| 70>    C        4.88493       -14.22991        -9.88536
| 71>    C        4.59768       -13.65088        -8.58787
| 72>    C        3.63957       -12.70422        -8.35392
| 73>    C        2.93779       -12.09137        -9.41446
| 74>    N        2.36667       -11.58170       -10.26833
| 75>    C        3.19741       -12.30662        -7.07784
| 76>    N        2.78129       -11.97925        -6.05942
| 77>   Cl        6.73869       -17.53197       -11.11296
| 78>    H        5.18753        -1.99744         8.14161
| 79>    H        4.47877        -0.51659         2.69739
| 80>    H        3.46547        -0.68372        -2.57785
| 81>    H        5.63842        -3.98055         1.19681
| 82>    H        5.98089        -2.89662        -3.77126
| 83>    H        7.03297        -4.24262        -4.24574
| 84>    H        7.41418        -2.52232        -1.73008
| 85>    H        8.37253        -2.42802        -3.20887
| 86>    H        8.43363        -3.88286        -2.20997
| 87>    H        2.81043        -9.32299         0.00500
| 88>    H        2.77390        -8.08316         1.27908
| 89>    H        5.15026        -9.94365         0.73460
| 90>    H        3.99341       -10.10765         2.05979
| 91>    H        5.06405        -8.70430         1.99092
| 92>    H        4.29041        -9.98673        -1.54344
| 93>    H        5.77289        -8.48972        -3.77102
| 94>    H        5.98801        -9.59046        -5.81303
| 95>    H        5.22553       -13.97620        -3.70968
| 96>    H        6.17916       -15.01771        -5.82252
| 97>    H        4.08839       -13.12308       -11.61341
| 98> *
| 99>
|100>                          ****END OF INPUT****

CARTESIAN COORDINATES (ANGSTROEM)
---------------------------------
  C      5.496330   -2.536860    6.026520
  C      5.507430   -2.680690    7.380260
  S      6.141560   -4.217530    7.838890
  C      6.406600   -4.678740    6.174080
  Cl     7.061620   -6.185330    5.767610
  C      6.009480   -3.680000    5.335530
  C      5.983310   -3.449110    3.888860
  O      6.453810   -4.160300    3.032400
  C      5.319490   -2.115630    3.727550
  C      5.109660   -1.535180    5.054600
  C      4.648200   -0.289050    5.382050
  C      4.499820    0.102580    6.731230
  N      4.367310    0.441140    7.818870
  C      4.293270    0.746020    4.492640
  N      3.997320    1.641490    3.837680
  C      4.914590   -1.502400    2.582100
  C      4.903060   -1.948360    1.233530
  S      4.271190   -0.837980    0.045520
  C      4.452460   -2.001500   -1.218110
  C      3.898840   -1.699620   -2.519120
  O      3.862320   -2.457110   -3.459050
  C      5.000340   -3.193100   -0.737160
  C      5.235660   -3.150680    0.646240
  C      5.216860   -4.433520   -1.451580
  N      5.870260   -4.637250   -2.632400
  C      6.638290   -3.681960   -3.393420
  C      7.785440   -3.091260   -2.579840
  C      5.868890   -6.006040   -2.986820
  O      6.409300   -6.434330   -3.988030
  C      5.145430   -6.658540   -1.922270
  C      4.783350   -5.657120   -0.978550
  C      4.048260   -6.287080    0.095170
  O      3.538890   -5.848560    1.104880
  N      4.019940   -7.647780   -0.269940
  C      3.423640   -8.636740    0.595180
  C      4.478170   -9.399170    1.393900
  C      4.663340   -7.879260   -1.463780
  C      4.752230   -9.165720   -2.067970
  C      5.355690   -9.349920   -3.263690
  C      5.465330  -10.591630   -3.983960
  C      5.796220  -10.543350   -5.344740
  C      5.846430  -11.687440   -6.103200
  F      6.164970  -11.574130   -7.408580
  C      5.624180  -12.961930   -5.563110
  C      5.379120  -13.021550   -4.188240
  C      5.274710  -11.872430   -3.440400
  F      5.017470  -12.017850   -2.126090
  C      5.712660  -14.179370   -6.332190
  C      5.355590  -14.421900   -7.612220
  C      5.877230  -15.664810   -8.278300
  O      6.412580  -16.595470   -7.728690
  C      5.624960  -15.445450   -9.704730
  C      5.901680  -16.078370  -10.880390
  S      5.257810  -15.172730  -12.228990
  C      4.611930  -13.956590  -11.188990
  C      4.884930  -14.229910   -9.885360
  C      4.597680  -13.650880   -8.587870
  C      3.639570  -12.704220   -8.353920
  C      2.937790  -12.091370   -9.414460
  N      2.366670  -11.581700  -10.268330
  C      3.197410  -12.306620   -7.077840
  N      2.781290  -11.979250   -6.059420
  Cl     6.738690  -17.531970  -11.112960
  H      5.187530   -1.997440    8.141610
  H      4.478770   -0.516590    2.697390
  H      3.465470   -0.683720   -2.577850
  H      5.638420   -3.980550    1.196810
  H      5.980890   -2.896620   -3.771260
  H      7.032970   -4.242620   -4.245740
  H      7.414180   -2.522320   -1.730080
  H      8.372530   -2.428020   -3.208870
  H      8.433630   -3.882860   -2.209970
  H      2.810430   -9.322990    0.005000
  H      2.773900   -8.083160    1.279080
  H      5.150260   -9.943650    0.734600
  H      3.993410  -10.107650    2.059790
  H      5.064050   -8.704300    1.990920
  H      4.290410   -9.986730   -1.543440
  H      5.772890   -8.489720   -3.771020
  H      5.988010   -9.590460   -5.813030
  H      5.225530  -13.976200   -3.709680
  H      6.179160  -15.017710   -5.822520
  H      4.088390  -13.123080  -11.613410

 Total Charge           Charge          ....    0
 Multiplicity           Mult            ....    1
 Number of Electrons    NEL             ....  472
 Basis Dimension        Dim             .... 1002

ORBITAL ENERGIES
----------------

  NO   OCC          E(Eh)            E(eV)
   0   2.0000    -101.621666     -2765.2661
   1   2.0000    -101.619195     -2765.1989
   2   2.0000     -88.998655     -2421.7765
   3   2.0000     -88.995015     -2421.6775
   4   2.0000     -88.989324     -2421.5226
   5   2.0000     -24.800216      -674.8482
   6   2.0000     -24.797444      -674.7728
   7   2.0000     -19.230351      -523.2845
   8   2.0000     -19.229831      -523.2703
   9   2.0000     -19.223533      -523.0989
  10   2.0000     -19.190209      -522.1921
  11   2.0000     -19.189402      -522.1702
  12   2.0000     -14.452876      -393.2827
  13   2.0000     -14.452400      -393.2698
  14   2.0000     -14.428674      -392.6242
  15   2.0000     -14.424867      -392.5206
  16   2.0000     -14.422480      -392.4556
  17   2.0000     -14.422411      -392.4538
  18   2.0000     -10.387276      -282.6522
  19   2.0000     -10.380936      -282.4796
  20   2.0000     -10.379261      -282.4340
  21   2.0000     -10.378296      -282.4078
  22   2.0000     -10.377921      -282.3976
  23   2.0000     -10.375694      -282.3370
  24   2.0000     -10.374070      -282.2928
  25   2.0000     -10.373734      -282.2837
  26   2.0000     -10.372292      -282.2444
  27   2.0000     -10.356147      -281.8051
  28   2.0000     -10.354560      -281.7619
  29   2.0000     -10.351677      -281.6834
  30   2.0000     -10.350322      -281.6466
  31   2.0000     -10.341451      -281.4052
  32   2.0000     -10.340990      -281.3926
  33   2.0000     -10.337550      -281.2990
  34   2.0000     -10.335729      -281.2495
  35   2.0000     -10.334502      -281.2161
  36   2.0000     -10.330706      -281.1128
  37   2.0000     -10.330357      -281.1033
  38   2.0000     -10.329382      -281.0768
  39   2.0000     -10.326992      -281.0117
  40   2.0000     -10.325337      -280.9667
  41   2.0000     -10.324016      -280.9308
  42   2.0000     -10.323366      -280.9131
  43   2.0000     -10.319616      -280.8110
  44   2.0000     -10.319446      -280.8064
  45   2.0000     -10.317820      -280.7622
  46   2.0000     -10.314757      -280.6788
  47   2.0000     -10.314720      -280.6778
  48   2.0000     -10.310981      -280.5761
  49   2.0000     -10.310596      -280.5656
  50   2.0000     -10.307461      -280.4803
  51   2.0000     -10.304748      -280.4065
  52   2.0000     -10.302497      -280.3452
  53   2.0000     -10.301837      -280.3272
  54   2.0000     -10.299007      -280.2502
  55   2.0000     -10.297151      -280.1997
  56   2.0000     -10.295533      -280.1557
  57   2.0000     -10.295362      -280.1511
  58   2.0000     -10.291871      -280.0560
  59   2.0000     -10.263222      -279.2765
  60   2.0000     -10.260585      -279.2047
  61   2.0000     -10.260352      -279.1984
  62   2.0000     -10.258936      -279.1598
  63   2.0000      -9.576450      -260.5885
  64   2.0000      -9.573970      -260.5210
  65   2.0000      -8.094296      -220.2570
  66   2.0000      -8.090794      -220.1617
  67   2.0000      -8.084927      -220.0020
  68   2.0000      -7.347064      -199.9238
  69   2.0000      -7.344623      -199.8574
  70   2.0000      -7.336505      -199.6364
  71   2.0000      -7.335957      -199.6215
  72   2.0000      -7.334001      -199.5683
  73   2.0000      -7.333456      -199.5535
  74   2.0000      -6.063670      -165.0009
  75   2.0000      -6.060164      -164.9054
  76   2.0000      -6.059031      -164.8746
  77   2.0000      -6.056617      -164.8089
  78   2.0000      -6.055557      -164.7801
  79   2.0000      -6.053845      -164.7335
  80   2.0000      -6.053041      -164.7116
  81   2.0000      -6.049856      -164.6249
  82   2.0000      -6.047573      -164.5628
  83   2.0000      -1.313616       -35.7453
  84   2.0000      -1.311527       -35.6885
  85   2.0000      -1.147831       -31.2341
  86   2.0000      -1.142992       -31.1024
  87   2.0000      -1.140614       -31.0377
  88   2.0000      -1.132143       -30.8072
  89   2.0000      -1.125386       -30.6233
  90   2.0000      -1.063367       -28.9357
  91   2.0000      -1.055119       -28.7112
  92   2.0000      -1.043842       -28.4044
  93   2.0000      -1.040103       -28.3027
  94   2.0000      -1.024505       -27.8782
  95   2.0000      -1.019638       -27.7458
  96   2.0000      -1.014885       -27.6164
  97   2.0000      -1.005365       -27.3574
  98   2.0000      -1.001495       -27.2521
  99   2.0000      -0.993717       -27.0404
 100   2.0000      -0.991262       -26.9736
 101   2.0000      -0.985785       -26.8246
 102   2.0000      -0.960518       -26.1370
 103   2.0000      -0.956308       -26.0225
 104   2.0000      -0.929895       -25.3037
 105   2.0000      -0.924735       -25.1633
 106   2.0000      -0.919501       -25.0209
 107   2.0000      -0.909051       -24.7365
 108   2.0000      -0.906805       -24.6754
 109   2.0000      -0.893887       -24.3239
 110   2.0000      -0.883410       -24.0388
 111   2.0000      -0.867605       -23.6087
 112   2.0000      -0.860261       -23.4089
 113   2.0000      -0.853618       -23.2281
 114   2.0000      -0.848276       -23.0828
 115   2.0000      -0.837915       -22.8008
 116   2.0000      -0.834572       -22.7099
 117   2.0000      -0.818320       -22.2676
 118   2.0000      -0.809394       -22.0247
 119   2.0000      -0.799091       -21.7444
 120   2.0000      -0.786931       -21.4135
 121   2.0000      -0.772262       -21.0143
 122   2.0000      -0.761909       -20.7326
 123   2.0000      -0.758938       -20.6517
 124   2.0000      -0.754381       -20.5277
 125   2.0000      -0.737668       -20.0730
 126   2.0000      -0.734230       -19.9794
 127   2.0000      -0.726528       -19.7698
 128   2.0000      -0.712091       -19.3770
 129   2.0000      -0.707246       -19.2452
 130   2.0000      -0.697835       -18.9891
 131   2.0000      -0.692379       -18.8406
 132   2.0000      -0.687281       -18.7019
 133   2.0000      -0.683230       -18.5916
 134   2.0000      -0.678087       -18.4517
 135   2.0000      -0.674089       -18.3429
 136   2.0000      -0.668292       -18.1852
 137   2.0000      -0.662494       -18.0274
 138   2.0000      -0.647218       -17.6117
 139   2.0000      -0.638917       -17.3858
 140   2.0000      -0.634808       -17.2740
 141   2.0000      -0.626799       -17.0561
 142   2.0000      -0.619918       -16.8688
 143   2.0000      -0.618047       -16.8179
 144   2.0000      -0.614102       -16.7106
 145   2.0000      -0.611066       -16.6279
 146   2.0000      -0.605207       -16.4685
 147   2.0000      -0.601038       -16.3551
 148   2.0000      -0.592304       -16.1174
 149   2.0000      -0.585577       -15.9344
 150   2.0000      -0.579146       -15.7594
 151   2.0000      -0.575773       -15.6676
 152   2.0000      -0.573351       -15.6017
 153   2.0000      -0.569375       -15.4935
 154   2.0000      -0.565004       -15.3745
 155   2.0000      -0.563420       -15.3314
 156   2.0000      -0.556667       -15.1477
 157   2.0000      -0.551070       -14.9954
 158   2.0000      -0.548919       -14.9368
 159   2.0000      -0.547041       -14.8857
 160   2.0000      -0.544821       -14.8253
 161   2.0000      -0.544034       -14.8039
 162   2.0000      -0.540640       -14.7116
 163   2.0000      -0.539951       -14.6928
 164   2.0000      -0.534937       -14.5564
 165   2.0000      -0.532059       -14.4781
 166   2.0000      -0.530944       -14.4477
 167   2.0000      -0.529796       -14.4165
 168   2.0000      -0.526381       -14.3236
 169   2.0000      -0.525487       -14.2992
 170   2.0000      -0.520292       -14.1579
 171   2.0000      -0.517028       -14.0691
 172   2.0000      -0.512436       -13.9441
 173   2.0000      -0.511967       -13.9313
 174   2.0000      -0.510795       -13.8994
 175   2.0000      -0.508654       -13.8412
 176   2.0000      -0.507320       -13.8049
 177   2.0000      -0.502683       -13.6787
 178   2.0000      -0.501756       -13.6535
 179   2.0000      -0.499274       -13.5859
 180   2.0000      -0.496935       -13.5223
 181   2.0000      -0.496760       -13.5175
 182   2.0000      -0.493617       -13.4320
 183   2.0000      -0.488768       -13.3000
 184   2.0000      -0.485345       -13.2069
 185   2.0000      -0.482544       -13.1307
 186   2.0000      -0.477849       -13.0029
 187   2.0000      -0.473281       -12.8786
 188   2.0000      -0.469964       -12.7884
 189   2.0000      -0.467824       -12.7301
 190   2.0000      -0.462913       -12.5965
 191   2.0000      -0.461027       -12.5452
 192   2.0000      -0.459158       -12.4943
 193   2.0000      -0.458877       -12.4867
 194   2.0000      -0.457290       -12.4435
 195   2.0000      -0.455701       -12.4003
 196   2.0000      -0.452994       -12.3266
 197   2.0000      -0.452255       -12.3065
 198   2.0000      -0.449978       -12.2445
 199   2.0000      -0.448584       -12.2066
 200   2.0000      -0.448130       -12.1942
 201   2.0000      -0.445657       -12.1269
 202   2.0000      -0.445047       -12.1103
 203   2.0000      -0.440332       -11.9820
 204   2.0000      -0.438099       -11.9213
 205   2.0000      -0.437120       -11.8946
 206   2.0000      -0.435522       -11.8512
 207   2.0000      -0.434500       -11.8233
 208   2.0000      -0.431342       -11.7374
 209   2.0000      -0.428447       -11.6586
 210   2.0000      -0.426587       -11.6080
 211   2.0000      -0.421728       -11.4758
 212   2.0000      -0.417940       -11.3727
 213   2.0000      -0.416948       -11.3457
 214   2.0000      -0.410784       -11.1780
 215   2.0000      -0.407544       -11.0898
 216   2.0000      -0.405318       -11.0293
 217   2.0000      -0.404595       -11.0096
 218   2.0000      -0.387357       -10.5405
 219   2.0000      -0.382787       -10.4162
 220   2.0000      -0.355210        -9.6658
 221   2.0000      -0.353953        -9.6316
 222   2.0000      -0.350870        -9.5477
 223   2.0000      -0.347963        -9.4686
 224   2.0000      -0.347117        -9.4455
 225   2.0000      -0.343212        -9.3393
 226   2.0000      -0.342012        -9.3066
 227   2.0000      -0.338216        -9.2033
 228   2.0000      -0.330910        -9.0045
 229   2.0000      -0.330177        -8.9846
 230   2.0000      -0.324174        -8.8212
 231   2.0000      -0.314060        -8.5460
 232   2.0000      -0.313038        -8.5182
 233   2.0000      -0.303969        -8.2714
 234   2.0000      -0.302713        -8.2372
 235   2.0000      -0.244939        -6.6651
 236   0.0000      -0.110075        -2.9953
 237   0.0000      -0.099480        -2.7070
 238   0.0000      -0.074095        -2.0162
 239   0.0000      -0.059760        -1.6262
 240   0.0000      -0.049993        -1.3604

MULLIKEN ATOMIC CHARGES
-----------------------
   0 C :    0.025279
   1 C :   -0.124082
   2 S :    0.191805
   3 C :   -0.168854
   4 Cl:    0.002036
   5 C :    0.082527
   6 C :    0.169060
   7 O :   -0.133011
   8 C :   -0.093052
   9 C :    0.298763
  10 C :   -0.338637
  11 C :   -0.191191
  12 N :    0.156745
  13 C :   -0.176596
  14 N :    0.158181
  15 C :    0.068234
  16 C :   -0.112239
  17 S :    0.178474
  18 C :   -0.162368
  19 C :    0.190537
  20 O :   -0.175363
  21 C :    0.020011
  22 C :    0.030342
  23 C :    0.089386
  24 N :   -0.232757
  25 C :    0.106373
  26 C :   -0.013440
  27 C :    0.175584
  28 O :   -0.212403
  29 C :   -0.081686
  30 C :   -0.029841
  31 C :    0.138886
  32 O :   -0.195328
  33 N :   -0.267711
  34 C :    0.095207
  35 C :    0.002644
  36 C :    0.134738
  37 C :    0.002888
  38 C :   -0.005551
  39 C :    0.069709
  40 C :   -0.084712
  41 C :    0.278419
  42 F :   -0.183368
  43 C :   -0.001084
  44 C :   -0.057066
  45 C :    0.259160
  46 F :   -0.187776
  47 C :    0.016500
  48 C :   -0.114251
  49 C :    0.130130
  50 O :   -0.125174
  51 C :    0.092769
  52 C :   -0.171787
  53 S :    0.187919
  54 C :   -0.126478
  55 C :    0.016188
  56 C :    0.282586
  57 C :   -0.311581
  58 C :   -0.192926
  59 N :    0.163267
  60 C :   -0.207557
  61 N :    0.184578
  62 Cl:    0.000974
  63 H :    0.056385
  64 H :    0.002777
  65 H :   -0.006184
  66 H :    0.032486
  67 H :    0.035042
  68 H :    0.041592
  69 H :    0.022223
  70 H :    0.023343
  71 H :    0.022661
  72 H :    0.029229
  73 H :    0.043000
  74 H :    0.018646
  75 H :    0.023119
  76 H :    0.028376
  77 H :   -0.011256
  78 H :    0.016971
  79 H :    0.012957
  80 H :   -0.003588
  81 H :    0.035391
  82 H :    0.054802
Sum of atomic charges:   -0.0000000

LOEWDIN ATOMIC CHARGES
----------------------
   0 C :   -0.060031
   1 C :   -0.147562
   2 S :    0.481105
   3 C :   -0.271399
   4 Cl:    0.194315
   5 C :   -0.115503
   6 C :    0.089491
   7 O :   -0.121402
   8 C :   -0.074543
   9 C :    0.076386
  10 C :   -0.134359
  11 C :   -0.014353
  12 N :   -0.048251
  13 C :   -0.025131
  14 N :   -0.042527
  15 C :    0.049284
  16 C :   -0.165872
  17 S :    0.491807
  18 C :   -0.216389
  19 C :    0.087730
  20 O :   -0.122399
  21 C :   -0.034227
  22 C :    0.018007
  23 C :    0.072018
  24 N :    0.015164
  25 C :    0.033421
  26 C :   -0.063489
  27 C :    0.084458
  28 O :   -0.199522
  29 C :   -0.125835
  30 C :   -0.115758
  31 C :    0.081800
  32 O :   -0.196654
  33 N :   -0.003420
  34 C :    0.035906
  35 C :   -0.061371
  36 C :    0.085626
  37 C :   -0.035646
  38 C :    0.033064
  39 C :   -0.028934
  40 C :   -0.014526
  41 C :    0.091146
  42 F :   -0.056660
  43 C :   -0.056587
  44 C :   -0.015248
  45 C :    0.095748
  46 F :   -0.058954
  47 C :    0.070929
  48 C :   -0.072990
  49 C :    0.082708
  50 O :   -0.128961
  51 C :   -0.119132
  52 C :   -0.271434
  53 S :    0.477559
  54 C :   -0.150868
  55 C :   -0.055088
  56 C :    0.068961
  57 C :   -0.126292
  58 C :   -0.015120
  59 N :   -0.045488
  60 C :   -0.020477
  61 N :   -0.039380
  62 Cl:    0.193203
  63 H :    0.038302
  64 H :    0.043703
  65 H :   -0.000297
  66 H :    0.040664
  67 H :    0.021864
  68 H :    0.035967
  69 H :    0.020928
  70 H :    0.031484
  71 H :    0.028180
  72 H :    0.024922
  73 H :    0.037293
  74 H :    0.023260
  75 H :    0.030574
  76 H :    0.031681
  77 H :    0.028010
  78 H :    0.040219
  79 H :    0.051138
  80 H :    0.044858
  81 H :    0.050899
  82 H :    0.038298

  Mayer bond orders larger than 0.100000
B(  0-C ,  1-C ) :   1.5444 B(  0-C ,  5-C ) :   1.2241 B(  0-C ,  9-C ) :   0.9960
B(  1-C ,  2-S ) :   1.1658 B(  1-C , 63-H ) :   0.9524 B(  2-S ,  3-C ) :   1.1520
B(  3-C ,  4-Cl) :   1.1293 B(  3-C ,  5-C ) :   1.4752 B(  5-C ,  6-C ) :   0.9564
B(  6-C ,  7-O ) :   2.1910 B(  6-C ,  8-C ) :   0.9158 B(  8-C ,  9-C ) :   1.0734
B(  8-C , 15-C ) :   1.6741 B(  9-C , 10-C ) :   1.6467 B( 10-C , 11-C ) :   1.1489
B( 10-C , 13-C ) :   1.1343 B( 11-C , 12-N ) :   2.9898 B( 13-C , 14-N ) :   2.9634
B( 15-C , 16-C ) :   1.1617 B( 15-C , 64-H ) :   0.9083 B( 16-C , 17-S ) :   1.1423
B( 16-C , 22-C ) :   1.4348 B( 17-S , 18-C ) :   1.1386 B( 18-C , 19-C ) :   1.0018
B( 18-C , 21-C ) :   1.4276 B( 19-C , 20-O ) :   2.1136 B( 19-C , 65-H ) :   0.9534
B( 21-C , 22-C ) :   1.2956 B( 21-C , 23-C ) :   0.9803 B( 22-C , 66-H ) :   0.9787
B( 23-C , 24-N ) :   1.2217 B( 23-C , 30-C ) :   1.4536 B( 24-N , 25-C ) :   0.9424
B( 24-N , 27-C ) :   1.0442 B( 25-C , 26-C ) :   1.1111 B( 25-C , 67-H ) :   0.9407
B( 25-C , 68-H ) :   0.9285 B( 26-C , 69-H ) :   0.9691 B( 26-C , 70-H ) :   0.9670
B( 26-C , 71-H ) :   0.9654 B( 27-C , 28-O ) :   2.0131 B( 27-C , 29-C ) :   1.0014
B( 28-O , 78-H ) :   0.1167 B( 29-C , 30-C ) :   1.2115 B( 29-C , 36-C ) :   1.3639
B( 30-C , 31-C ) :   0.9597 B( 31-C , 32-O ) :   2.1370 B( 31-C , 33-N ) :   1.0362
B( 33-N , 34-C ) :   0.9436 B( 33-N , 36-C ) :   1.1599 B( 34-C , 35-C ) :   1.1206
B( 34-C , 72-H ) :   0.9501 B( 34-C , 73-H ) :   0.9278 B( 35-C , 74-H ) :   0.9680
B( 35-C , 75-H ) :   0.9679 B( 35-C , 76-H ) :   0.9638 B( 36-C , 37-C ) :   1.1390
B( 37-C , 38-C ) :   1.6228 B( 37-C , 77-H ) :   0.9626 B( 38-C , 39-C ) :   1.0843
B( 38-C , 78-H ) :   0.9545 B( 39-C , 40-C ) :   1.2875 B( 39-C , 45-C ) :   1.2712
B( 40-C , 41-C ) :   1.3661 B( 40-C , 79-H ) :   1.0070 B( 41-C , 42-F ) :   1.1027
B( 41-C , 43-C ) :   1.3006 B( 43-C , 44-C ) :   1.2806 B( 43-C , 47-C ) :   1.0277
B( 44-C , 45-C ) :   1.3968 B( 44-C , 80-H ) :   0.9993 B( 45-C , 46-F ) :   1.0867
B( 47-C , 48-C ) :   1.7598 B( 47-C , 81-H ) :   0.9384 B( 48-C , 49-C ) :   0.9274
B( 48-C , 56-C ) :   1.0134 B( 49-C , 50-O ) :   2.2804 B( 49-C , 51-C ) :   0.9283
B( 51-C , 52-C ) :   1.4786 B( 51-C , 55-C ) :   1.2199 B( 52-C , 53-S ) :   1.1552
B( 52-C , 62-Cl) :   1.1305 B( 53-S , 54-C ) :   1.1587 B( 54-C , 55-C ) :   1.5498
B( 54-C , 82-H ) :   0.9560 B( 55-C , 56-C ) :   1.0176 B( 56-C , 57-C ) :   1.6837
B( 57-C , 58-C ) :   1.1344 B( 57-C , 60-C ) :   1.1624 B( 58-C , 59-N ) :   3.0024
B( 60-C , 61-N ) :   3.0101

-----------------------------------------------------------------------------
         ABSORPTION SPECTRUM VIA TRANSITION ELECTRIC DIPOLE MOMENTS
-----------------------------------------------------------------------------
State   Energy  Wavelength   fosc         T2         TX        TY        TZ
        (cm-1)    (nm)                  (au**2)     (au)      (au)      (au)
-----------------------------------------------------------------------------
   0   13570.9    736.9   0.062218120   1.50933   0.00257  -1.22689  -0.06363
   1   17595.1    568.3   0.562328949  10.52140  -0.45820  -2.77264  -1.61985
   2   22104.5    452.4   0.065754346   0.97931  -0.17834  -0.92922   0.28993
   3   25688.8    389.3   0.671341235   8.60351  -0.14046  -0.64040  -2.85896
   4   26211.8    381.5   0.010727099   0.13473  -0.05834  -0.18311  -0.31272
   5   26401.0    378.8   0.032018550   0.39926  -0.05392  -0.30248   0.55214
   6   27136.1    368.5   0.187055375   2.26933   0.28909   0.94189   1.13956
   7   27591.8    362.4   0.002350023   0.02804  -0.01371   0.16224  -0.03912
   8   27825.1    359.4   0.140708824   1.66479   0.16051   0.97341   0.83156
   9   28566.6    350.1   0.021581513   0.24871  -0.44247   0.22516  -0.04735
  10   28661.6    348.9   0.065751473   0.75523  -0.18020   0.15602  -0.83571
  11   28900.9    346.0   0.163146977   1.85842   0.08559  -0.05328   1.35950
  12   29286.8    341.5   0.104196935   1.17127  -0.27618   0.12187  -1.03930
  13   29490.8    339.1   0.036973600   0.41274  -0.10070  -0.23601  -0.58899
  14   29960.8    333.8   0.000570852   0.00627  -0.05231   0.05523   0.02203
  15   30888.2    323.7   0.022916160   0.24424   0.05910  -0.40143  -0.28214
  16   31031.2    322.3   0.045182774   0.47935  -0.13345  -0.12498  -0.66777
  17   31593.9    316.5   0.163642339   1.70517   0.54355  -0.73321  -0.93388
  18   31688.4    315.6   0.067604820   0.70235  -0.01793   0.04542   0.83664
  19   32033.1    312.2   0.045238702   0.46493   0.09128  -0.27843   0.61569
  20   32659.5    306.2   0.075523846   0.76129   0.31196  -0.56808   0.58417
  21   33599.2    297.6   0.081267069   0.79627   0.23801  -0.84641  -0.15234
  22   33661.9    297.1   0.005862928   0.05734   0.18859  -0.09490  -0.11300
  23   33856.3    295.4   0.328911601   3.19827   0.59286  -1.24071  -1.14343
  24   34706.9    288.1   0.049643768   0.47090   0.32616  -0.57903   0.17099
  25   34909.4    286.5   0.514418485   4.85121   0.89879  -1.77352   0.94763
  26   35640.3    280.6   0.121982639   1.12676  -0.51347   0.92028   0.12727
  27   35772.4    279.5   0.209790841   1.93070   0.27385  -0.12091  -1.35687
  28   36351.1    275.1   0.242036680   2.19199  -0.79901   0.96556   0.78821
  29   36525.1    273.8   0.049761035   0.44851  -0.26564   0.43929   0.43009
  30   36730.4    272.3   0.034492841   0.30916   0.14790  -0.01536  -0.53577
  31   36848.1    271.4   0.058579216   0.52336  -0.13250   0.22562   0.67447
  32   37771.3    264.8   0.096994960   0.84540  -0.38581   0.52385   0.64971
  33   38289.4    261.2   0.160605945   1.38089   0.15558  -0.90580   0.73226
  34   38341.2    260.8   0.322721101   2.77100   0.74672  -1.00931  -1.09302
  35   38604.0    259.0   0.240434614   2.05041  -0.70259   1.10638   0.57680
  36   38620.8    258.9   0.067068869   0.57171  -0.28135   0.45799  -0.53179
  37   39044.8    256.1   0.012192599   0.10280   0.07835  -0.13462  -0.28026
  38   39649.0    252.2   0.017554692   0.14576   0.24446  -0.29299   0.01258
  39   39943.0    250.4   0.065725684   0.54171  -0.21271   0.68579   0.16176
  40   40085.3    249.5   0.053601348   0.44022   0.14416  -0.50361  -0.40720

FINAL SINGLE POINT ENERGY     -4742.125662781810

DIPOLE MOMENT
-------------
                                X             Y             Z
Electronic contribution:      3.45851     -34.41285     -14.82705
Nuclear contribution   :     -2.02711      32.92162      15.15157
                        -----------------------------------------
Total Dipole Moment    :      1.43140      -1.49123       0.32452
                        -----------------------------------------
Magnitude (a.u.)       :      2.09236
Magnitude (Debye)      :      5.31836

Rotational constants in cm-1:     0.002720     0.000309     0.000287
Rotational constants in MHz :    81.551414     9.271271     8.615888

                             ****ORCA TERMINATED NORMALLY****
TOTAL RUN TIME: 0 days 0 hours 7 minutes 33 seconds 87 msec
