                         Program Version 4.2.0 -  RELEASE  -
|  1> # ORCA input file
|  2> # SCF done       -172.265304563596          0.000755437828
|  3> ! CAM-B3LYP def2-SVP def2/J RIJCOSX Grid4 TightSCF
|  4> %maxcore 5000
|  5> %tddft
|  6>     Mode sTDDFT
|  7>     Ethresh 5.0
|  8>     maxcore 5000
|  9> end
| 10>
| 11> %pal
| 12>   nprocs 6
| 13>   end
| 14> * xyz 0 1
| 15>    C        0.91146         2.46508         5.29480
| 16>    C        0.19036         3.07286         6.27553
| 17>    S        0.79166         2.65913         7.83863
| 18>    C        2.03914         1.64027         7.16008
| 19>   Cl        3.13230         0.80827         8.15063
| 20>    C        1.97109         1.64502         5.79859
| 21>    C        2.70049         1.01733         4.68958
| 22>    O        3.61516         0.23300         4.77119
| 23>    C        2.06033         1.58299         3.45590
| 24>    C        0.90707         2.38684         3.84865
| 25>    C       -0.06199         2.92101         3.04476
| 26>    C       -1.12117         3.68107         3.58760
| 27>    N       -1.98248         4.30656         4.01445
| 28>    C       -0.17613         2.74651         1.64935
| 29>    N       -0.35832         2.61704         0.52392
| 30>    C        2.52183         1.50198         2.17718
| 31>    C        3.61736         0.76576         1.66619
| 32>    O        4.31321        -0.15272         2.38083
| 33>    C        4.15950         0.81213         0.38990
| 34>    C        4.07166         1.47238        -0.92418
| 35>    O        3.34356         2.33791        -1.32424
| 36>    N        5.08612         0.86257        -1.65942
| 37>    C        5.83113        -0.09685        -0.97512
| 38>    O        6.75131        -0.72117        -1.43179
| 39>    C        5.21898        -0.11757         0.35838
| 40>    C        5.28078        -0.69667         1.61696
| 41>    C        6.15797        -1.69143         2.13581
| 42>    C        6.08247        -2.12128         3.41357
| 43>    C        6.89622        -3.13569         4.02551
| 44>    C        8.15886        -3.48304         3.72919
| 45>    C        9.02900        -2.80155         2.72365
| 46>    C        8.82530        -4.60438         4.48484
| 47>    N        9.69046        -4.07443         5.51805
| 48>    C       10.15708        -4.79445         6.54577
| 49>    C       11.05514        -4.34018         7.45789
| 50>    C       11.53583        -5.12638         8.52630
| 51>    O       11.10127        -6.39821         8.73075
| 52>    C       12.48088        -4.82603         9.49756
| 53>    C       13.39034        -3.79614         9.98706
| 54>    O       13.60243        -2.67140         9.61145
| 55>    N       14.02508        -4.40842        11.07438
| 56>    C       13.62696        -5.71320        11.33755
| 57>    O       14.04859        -6.41086        12.22386
| 58>    C       12.61703        -5.97653        10.30576
| 59>    C       11.75687        -6.93385         9.80630
| 60>    C       11.55638        -8.26699        10.22353
| 61>    C       10.66643        -9.12924         9.66565
| 62>    C       10.45867       -10.46157        10.09621
| 63>    C       11.29082       -11.31019        10.76658
| 64>    C       10.67831       -12.48811        11.45754
| 65>    O        9.54274       -12.88196        11.33163
| 66>    C       11.74183       -12.99932        12.32952
| 67>    C       11.88268       -13.95843        13.28642
| 68>    S       13.51513       -13.96486        13.91232
| 69>    C       13.98974       -12.67824        12.86271
| 70>    C       12.95129       -12.26866        12.08787
| 71>    C       12.71707       -11.30069        11.02966
| 72>    C       13.72088       -10.70824        10.30733
| 73>    C       15.07765       -10.90041        10.64125
| 74>    N       16.18607       -11.04746        10.89839
| 75>    C       13.53940        -9.94318         9.14149
| 76>    N       13.44961        -9.34926         8.16290
| 77>   Cl       10.71422       -15.04181        13.86282
| 78>    H       -0.64688         3.73704         6.19313
| 79>    H        2.02603         2.08549         1.41078
| 80>    H        5.27502         1.10833        -2.62111
| 81>    H        6.85201        -2.09820         1.41859
| 82>    H        5.30631        -1.69679         4.03913
| 83>    H        6.41314        -3.65337         4.84547
| 84>    H        8.76128        -1.75372         2.61340
| 85>    H        8.92899        -3.28123         1.74953
| 86>    H       10.07644        -2.87437         3.01179
| 87>    H        9.41083        -5.21118         3.77827
| 88>    H        8.08017        -5.25251         4.95458
| 89>    H       10.06603        -3.14805         5.37869
| 90>    H        9.76755        -5.79961         6.63197
| 91>    H       11.46579        -3.34467         7.39219
| 92>    H       14.72921        -3.93594        11.62300
| 93>    H       12.15680        -8.55968        11.07354
| 94>    H       10.00985        -8.75788         8.89076
| 95>    H        9.46471       -10.86666         9.92631
| 96>    H       14.99607       -12.31162        12.90288
| 97> *
| 98>
| 99>                          ****END OF INPUT****

CARTESIAN COORDINATES (ANGSTROEM)
---------------------------------
  C      0.911460    2.465080    5.294800
  C      0.190360    3.072860    6.275530
  S      0.791660    2.659130    7.838630
  C      2.039140    1.640270    7.160080
  Cl     3.132300    0.808270    8.150630
  C      1.971090    1.645020    5.798590
  C      2.700490    1.017330    4.689580
  O      3.615160    0.233000    4.771190
  C      2.060330    1.582990    3.455900
  C      0.907070    2.386840    3.848650
  C     -0.061990    2.921010    3.044760
  C     -1.121170    3.681070    3.587600
  N     -1.982480    4.306560    4.014450
  C     -0.176130    2.746510    1.649350
  N     -0.358320    2.617040    0.523920
  C      2.521830    1.501980    2.177180
  C      3.617360    0.765760    1.666190
  O      4.313210   -0.152720    2.380830
  C      4.159500    0.812130    0.389900
  C      4.071660    1.472380   -0.924180
  O      3.343560    2.337910   -1.324240
  N      5.086120    0.862570   -1.659420
  C      5.831130   -0.096850   -0.975120
  O      6.751310   -0.721170   -1.431790
  C      5.218980   -0.117570    0.358380
  C      5.280780   -0.696670    1.616960
  C      6.157970   -1.691430    2.135810
  C      6.082470   -2.121280    3.413570
  C      6.896220   -3.135690    4.025510
  C      8.158860   -3.483040    3.729190
  C      9.029000   -2.801550    2.723650
  C      8.825300   -4.604380    4.484840
  N      9.690460   -4.074430    5.518050
  C     10.157080   -4.794450    6.545770
  C     11.055140   -4.340180    7.457890
  C     11.535830   -5.126380    8.526300
  O     11.101270   -6.398210    8.730750
  C     12.480880   -4.826030    9.497560
  C     13.390340   -3.796140    9.987060
  O     13.602430   -2.671400    9.611450
  N     14.025080   -4.408420   11.074380
  C     13.626960   -5.713200   11.337550
  O     14.048590   -6.410860   12.223860
  C     12.617030   -5.976530   10.305760
  C     11.756870   -6.933850    9.806300
  C     11.556380   -8.266990   10.223530
  C     10.666430   -9.129240    9.665650
  C     10.458670  -10.461570   10.096210
  C     11.290820  -11.310190   10.766580
  C     10.678310  -12.488110   11.457540
  O      9.542740  -12.881960   11.331630
  C     11.741830  -12.999320   12.329520
  C     11.882680  -13.958430   13.286420
  S     13.515130  -13.964860   13.912320
  C     13.989740  -12.678240   12.862710
  C     12.951290  -12.268660   12.087870
  C     12.717070  -11.300690   11.029660
  C     13.720880  -10.708240   10.307330
  C     15.077650  -10.900410   10.641250
  N     16.186070  -11.047460   10.898390
  C     13.539400   -9.943180    9.141490
  N     13.449610   -9.349260    8.162900
  Cl    10.714220  -15.041810   13.862820
  H     -0.646880    3.737040    6.193130
  H      2.026030    2.085490    1.410780
  H      5.275020    1.108330   -2.621110
  H      6.852010   -2.098200    1.418590
  H      5.306310   -1.696790    4.039130
  H      6.413140   -3.653370    4.845470
  H      8.761280   -1.753720    2.613400
  H      8.928990   -3.281230    1.749530
  H     10.076440   -2.874370    3.011790
  H      9.410830   -5.211180    3.778270
  H      8.080170   -5.252510    4.954580
  H     10.066030   -3.148050    5.378690
  H      9.767550   -5.799610    6.631970
  H     11.465790   -3.344670    7.392190
  H     14.729210   -3.935940   11.623000
  H     12.156800   -8.559680   11.073540
  H     10.009850   -8.757880    8.890760
  H      9.464710  -10.866660    9.926310
  H     14.996070  -12.311620   12.902880

 Total Charge           Charge          ....    0
 Multiplicity           Mult            ....    1
 Number of Electrons    NEL             ....  462
 Basis Dimension        Dim             ....  993

ORBITAL ENERGIES
----------------

  NO   OCC          E(Eh)            E(eV)
   0   2.0000    -101.624847     -2765.3527
   1   2.0000    -101.610933     -2764.9741
   2   2.0000     -89.000346     -2421.8225
   3   2.0000     -88.985236     -2421.4114
   4   2.0000     -19.324718      -525.8523
   5   2.0000     -19.306578      -525.3587
   6   2.0000     -19.229351      -523.2572
   7   2.0000     -19.226895      -523.1904
   8   2.0000     -19.225006      -523.1390
   9   2.0000     -19.210582      -522.7465
  10   2.0000     -19.206999      -522.6490
  11   2.0000     -19.202435      -522.5248
  12   2.0000     -14.468053      -393.6957
  13   2.0000     -14.462939      -393.5566
  14   2.0000     -14.448217      -393.1560
  15   2.0000     -14.426172      -392.5561
  16   2.0000     -14.425499      -392.5378
  17   2.0000     -14.413880      -392.2216
  18   2.0000     -14.411268      -392.1505
  19   2.0000     -10.415870      -283.4302
  20   2.0000     -10.414504      -283.3931
  21   2.0000     -10.395906      -282.8870
  22   2.0000     -10.392169      -282.7853
  23   2.0000     -10.388543      -282.6866
  24   2.0000     -10.383766      -282.5567
  25   2.0000     -10.383046      -282.5370
  26   2.0000     -10.379228      -282.4332
  27   2.0000     -10.368553      -282.1427
  28   2.0000     -10.367135      -282.1041
  29   2.0000     -10.366295      -282.0812
  30   2.0000     -10.356318      -281.8098
  31   2.0000     -10.355670      -281.7921
  32   2.0000     -10.352334      -281.7013
  33   2.0000     -10.343960      -281.4735
  34   2.0000     -10.342046      -281.4214
  35   2.0000     -10.338948      -281.3371
  36   2.0000     -10.338743      -281.3315
  37   2.0000     -10.336497      -281.2704
  38   2.0000     -10.336043      -281.2580
  39   2.0000     -10.327894      -281.0363
  40   2.0000     -10.326608      -281.0013
  41   2.0000     -10.322668      -280.8941
  42   2.0000     -10.321238      -280.8552
  43   2.0000     -10.319515      -280.8083
  44   2.0000     -10.317455      -280.7522
  45   2.0000     -10.315337      -280.6946
  46   2.0000     -10.313817      -280.6532
  47   2.0000     -10.313576      -280.6467
  48   2.0000     -10.312138      -280.6075
  49   2.0000     -10.309300      -280.5303
  50   2.0000     -10.308650      -280.5126
  51   2.0000     -10.307248      -280.4745
  52   2.0000     -10.307020      -280.4683
  53   2.0000     -10.307008      -280.4679
  54   2.0000     -10.305056      -280.4148
  55   2.0000     -10.296910      -280.1932
  56   2.0000     -10.295394      -280.1519
  57   2.0000     -10.292700      -280.0786
  58   2.0000     -10.292495      -280.0730
  59   2.0000     -10.291789      -280.0538
  60   2.0000     -10.290434      -280.0169
  61   2.0000     -10.277768      -279.6723
  62   2.0000     -10.276769      -279.6451
  63   2.0000      -9.579606      -260.6743
  64   2.0000      -9.565704      -260.2960
  65   2.0000      -8.096038      -220.3044
  66   2.0000      -8.081073      -219.8972
  67   2.0000      -7.350202      -200.0092
  68   2.0000      -7.339658      -199.7223
  69   2.0000      -7.339151      -199.7084
  70   2.0000      -7.336341      -199.6320
  71   2.0000      -7.325737      -199.3434
  72   2.0000      -7.325222      -199.3294
  73   2.0000      -6.065412      -165.0482
  74   2.0000      -6.060789      -164.9224
  75   2.0000      -6.058328      -164.8555
  76   2.0000      -6.050470      -164.6417
  77   2.0000      -6.045889      -164.5170
  78   2.0000      -6.043241      -164.4449
  79   2.0000      -1.248072       -33.9618
  80   2.0000      -1.221227       -33.2313
  81   2.0000      -1.170704       -31.8565
  82   2.0000      -1.150456       -31.3055
  83   2.0000      -1.148998       -31.2658
  84   2.0000      -1.147134       -31.2151
  85   2.0000      -1.128047       -30.6957
  86   2.0000      -1.127458       -30.6797
  87   2.0000      -1.063622       -28.9426
  88   2.0000      -1.057845       -28.7854
  89   2.0000      -1.045486       -28.4491
  90   2.0000      -1.036468       -28.2037
  91   2.0000      -1.030437       -28.0396
  92   2.0000      -1.023623       -27.8542
  93   2.0000      -1.009985       -27.4831
  94   2.0000      -1.004175       -27.3250
  95   2.0000      -0.996219       -27.1085
  96   2.0000      -0.991229       -26.9727
  97   2.0000      -0.980570       -26.6827
  98   2.0000      -0.965043       -26.2602
  99   2.0000      -0.954154       -25.9638
 100   2.0000      -0.948764       -25.8172
 101   2.0000      -0.942479       -25.6462
 102   2.0000      -0.936640       -25.4873
 103   2.0000      -0.930530       -25.3210
 104   2.0000      -0.918502       -24.9937
 105   2.0000      -0.913762       -24.8647
 106   2.0000      -0.905758       -24.6469
 107   2.0000      -0.898808       -24.4578
 108   2.0000      -0.891775       -24.2664
 109   2.0000      -0.865266       -23.5451
 110   2.0000      -0.852748       -23.2045
 111   2.0000      -0.839445       -22.8425
 112   2.0000      -0.826583       -22.4925
 113   2.0000      -0.824152       -22.4263
 114   2.0000      -0.819615       -22.3029
 115   2.0000      -0.802402       -21.8345
 116   2.0000      -0.791654       -21.5420
 117   2.0000      -0.781108       -21.2550
 118   2.0000      -0.777345       -21.1526
 119   2.0000      -0.769428       -20.9372
 120   2.0000      -0.763147       -20.7663
 121   2.0000      -0.762428       -20.7467
 122   2.0000      -0.754347       -20.5268
 123   2.0000      -0.743926       -20.2433
 124   2.0000      -0.725476       -19.7412
 125   2.0000      -0.724815       -19.7232
 126   2.0000      -0.718086       -19.5401
 127   2.0000      -0.709052       -19.2943
 128   2.0000      -0.697833       -18.9890
 129   2.0000      -0.691986       -18.8299
 130   2.0000      -0.683935       -18.6108
 131   2.0000      -0.683353       -18.5950
 132   2.0000      -0.679780       -18.4978
 133   2.0000      -0.667929       -18.1753
 134   2.0000      -0.649463       -17.6728
 135   2.0000      -0.638628       -17.3779
 136   2.0000      -0.630837       -17.1660
 137   2.0000      -0.626253       -17.0412
 138   2.0000      -0.619200       -16.8493
 139   2.0000      -0.616110       -16.7652
 140   2.0000      -0.612629       -16.6705
 141   2.0000      -0.610038       -16.6000
 142   2.0000      -0.605738       -16.4830
 143   2.0000      -0.603993       -16.4355
 144   2.0000      -0.602829       -16.4038
 145   2.0000      -0.599091       -16.3021
 146   2.0000      -0.592905       -16.1338
 147   2.0000      -0.588803       -16.0222
 148   2.0000      -0.588385       -16.0108
 149   2.0000      -0.580199       -15.7880
 150   2.0000      -0.579095       -15.7580
 151   2.0000      -0.571559       -15.5529
 152   2.0000      -0.566739       -15.4218
 153   2.0000      -0.561294       -15.2736
 154   2.0000      -0.559528       -15.2255
 155   2.0000      -0.554841       -15.0980
 156   2.0000      -0.551102       -14.9962
 157   2.0000      -0.548412       -14.9230
 158   2.0000      -0.543513       -14.7898
 159   2.0000      -0.541105       -14.7242
 160   2.0000      -0.539978       -14.6936
 161   2.0000      -0.538160       -14.6441
 162   2.0000      -0.537719       -14.6321
 163   2.0000      -0.535327       -14.5670
 164   2.0000      -0.533830       -14.5263
 165   2.0000      -0.530182       -14.4270
 166   2.0000      -0.525338       -14.2952
 167   2.0000      -0.523266       -14.2388
 168   2.0000      -0.523055       -14.2331
 169   2.0000      -0.517961       -14.0944
 170   2.0000      -0.515715       -14.0333
 171   2.0000      -0.512865       -13.9558
 172   2.0000      -0.511673       -13.9233
 173   2.0000      -0.510064       -13.8795
 174   2.0000      -0.504198       -13.7199
 175   2.0000      -0.500411       -13.6169
 176   2.0000      -0.498269       -13.5586
 177   2.0000      -0.497226       -13.5302
 178   2.0000      -0.495821       -13.4920
 179   2.0000      -0.494356       -13.4521
 180   2.0000      -0.491541       -13.3755
 181   2.0000      -0.490148       -13.3376
 182   2.0000      -0.482479       -13.1289
 183   2.0000      -0.481240       -13.0952
 184   2.0000      -0.478675       -13.0254
 185   2.0000      -0.476174       -12.9574
 186   2.0000      -0.468261       -12.7420
 187   2.0000      -0.466176       -12.6853
 188   2.0000      -0.460911       -12.5420
 189   2.0000      -0.459332       -12.4991
 190   2.0000      -0.457435       -12.4475
 191   2.0000      -0.453022       -12.3274
 192   2.0000      -0.451714       -12.2918
 193   2.0000      -0.451569       -12.2878
 194   2.0000      -0.447856       -12.1868
 195   2.0000      -0.447441       -12.1755
 196   2.0000      -0.445762       -12.1298
 197   2.0000      -0.440787       -11.9944
 198   2.0000      -0.438833       -11.9412
 199   2.0000      -0.438543       -11.9334
 200   2.0000      -0.437591       -11.9074
 201   2.0000      -0.435286       -11.8447
 202   2.0000      -0.433423       -11.7940
 203   2.0000      -0.425379       -11.5752
 204   2.0000      -0.423080       -11.5126
 205   2.0000      -0.418997       -11.4015
 206   2.0000      -0.418751       -11.3948
 207   2.0000      -0.410757       -11.1773
 208   2.0000      -0.405195       -11.0259
 209   2.0000      -0.397356       -10.8126
 210   2.0000      -0.397128       -10.8064
 211   2.0000      -0.387567       -10.5462
 212   2.0000      -0.385844       -10.4993
 213   2.0000      -0.384495       -10.4626
 214   2.0000      -0.375282       -10.2119
 215   2.0000      -0.374130       -10.1806
 216   2.0000      -0.364139        -9.9087
 217   2.0000      -0.361184        -9.8283
 218   2.0000      -0.359927        -9.7941
 219   2.0000      -0.355948        -9.6858
 220   2.0000      -0.350205        -9.5296
 221   2.0000      -0.348667        -9.4877
 222   2.0000      -0.340358        -9.2616
 223   2.0000      -0.339662        -9.2427
 224   2.0000      -0.336231        -9.1493
 225   2.0000      -0.327518        -8.9122
 226   2.0000      -0.319310        -8.6889
 227   2.0000      -0.313578        -8.5329
 228   2.0000      -0.300854        -8.1866
 229   2.0000      -0.287344        -7.8190
 230   2.0000      -0.248898        -6.7729
 231   0.0000      -0.112346        -3.0571
 232   0.0000      -0.095048        -2.5864
 233   0.0000      -0.064166        -1.7461
 234   0.0000      -0.059916        -1.6304
 235   0.0000      -0.048031        -1.3070

MULLIKEN ATOMIC CHARGES
-----------------------
   0 C :    0.037355
   1 C :   -0.130388
   2 S :    0.191347
   3 C :   -0.170882
   4 Cl:   -0.002811
   5 C :    0.070506
   6 C :    0.146117
   7 O :   -0.117127
   8 C :   -0.076011
   9 C :    0.283612
  10 C :   -0.322428
  11 C :   -0.191175
  12 N :    0.157459
  13 C :   -0.199518
  14 N :    0.181702
  15 C :   -0.056302
  16 C :    0.080731
  17 O :   -0.165556
  18 C :   -0.020753
  19 C :    0.178077
  20 O :   -0.120943
  21 N :   -0.168133
  22 C :    0.172622
  23 O :   -0.137329
  24 C :   -0.050307
  25 C :    0.093642
  26 C :   -0.039904
  27 C :    0.035539
  28 C :    0.026083
  29 C :   -0.231624
  30 C :    0.081761
  31 C :    0.223847
  32 N :   -0.153674
  33 C :    0.095685
  34 C :   -0.078198
  35 C :    0.114375
  36 O :   -0.229694
  37 C :   -0.054645
  38 C :    0.157948
  39 O :   -0.150697
  40 N :   -0.168159
  41 C :    0.165846
  42 O :   -0.145893
  43 C :   -0.014758
  44 C :    0.073290
  45 C :    0.006712
  46 C :    0.011636
  47 C :    0.046919
  48 C :   -0.139082
  49 C :    0.124340
  50 O :   -0.136418
  51 C :    0.099637
  52 C :   -0.173848
  53 S :    0.177991
  54 C :   -0.126752
  55 C :    0.008249
  56 C :    0.273010
  57 C :   -0.326527
  58 C :   -0.181065
  59 N :    0.150152
  60 C :   -0.194675
  61 N :    0.165082
  62 Cl:   -0.006323
  63 H :    0.056504
  64 H :    0.036784
  65 H :    0.144219
  66 H :    0.009155
  67 H :    0.037729
  68 H :   -0.000194
  69 H :    0.041722
  70 H :    0.055115
  71 H :    0.015136
  72 H :    0.026340
  73 H :    0.021169
  74 H :    0.131426
  75 H :    0.021487
  76 H :   -0.001571
  77 H :    0.136898
  78 H :    0.032360
  79 H :    0.004443
  80 H :    0.028034
  81 H :    0.053569
Sum of atomic charges:    0.0000000

LOEWDIN ATOMIC CHARGES
----------------------
   0 C :   -0.059518
   1 C :   -0.148784
   2 S :    0.479509
   3 C :   -0.273564
   4 Cl:    0.189864
   5 C :   -0.117699
   6 C :    0.077283
   7 O :   -0.129986
   8 C :   -0.073825
   9 C :    0.070064
  10 C :   -0.128543
  11 C :   -0.014501
  12 N :   -0.046640
  13 C :   -0.030759
  14 N :   -0.030243
  15 C :    0.047004
  16 C :    0.041390
  17 O :    0.049811
  18 C :   -0.057706
  19 C :    0.085044
  20 O :   -0.136428
  21 N :   -0.004653
  22 C :    0.085753
  23 O :   -0.154551
  24 C :   -0.105540
  25 C :    0.090063
  26 C :   -0.048497
  27 C :    0.023148
  28 C :   -0.042969
  29 C :   -0.017574
  30 C :   -0.052068
  31 C :    0.050697
  32 N :    0.010397
  33 C :    0.078430
  34 C :   -0.142106
  35 C :    0.103982
  36 O :    0.001846
  37 C :   -0.129650
  38 C :    0.085187
  39 O :   -0.169149
  40 N :   -0.007415
  41 C :    0.083518
  42 O :   -0.161379
  43 C :   -0.065491
  44 C :    0.045274
  45 C :    0.023085
  46 C :   -0.042305
  47 C :    0.065982
  48 C :   -0.094832
  49 C :    0.079291
  50 O :   -0.140271
  51 C :   -0.117378
  52 C :   -0.274044
  53 S :    0.468064
  54 C :   -0.151338
  55 C :   -0.056458
  56 C :    0.065387
  57 C :   -0.141324
  58 C :   -0.015986
  59 N :   -0.054671
  60 C :   -0.015990
  61 N :   -0.047145
  62 Cl:    0.187053
  63 H :    0.038500
  64 H :    0.061211
  65 H :    0.097997
  66 H :    0.043059
  67 H :    0.044434
  68 H :    0.034815
  69 H :    0.039503
  70 H :    0.047480
  71 H :    0.029505
  72 H :    0.025709
  73 H :    0.030821
  74 H :    0.083205
  75 H :    0.035460
  76 H :    0.039856
  77 H :    0.093680
  78 H :    0.049265
  79 H :    0.034779
  80 H :    0.046979
  81 H :    0.037592

  Mayer bond orders larger than 0.100000
B(  0-C ,  1-C ) :   1.5434 B(  0-C ,  5-C ) :   1.2237 B(  0-C ,  9-C ) :   1.0004
B(  1-C ,  2-S ) :   1.1635 B(  1-C , 63-H ) :   0.9543 B(  2-S ,  3-C ) :   1.1537
B(  3-C ,  4-Cl) :   1.1245 B(  3-C ,  5-C ) :   1.4802 B(  5-C ,  6-C ) :   0.9494
B(  6-C ,  7-O ) :   2.2486 B(  6-C ,  8-C ) :   0.9152 B(  8-C ,  9-C ) :   1.0547
B(  8-C , 15-C ) :   1.5863 B(  9-C , 10-C ) :   1.6662 B( 10-C , 11-C ) :   1.1457
B( 10-C , 13-C ) :   1.1305 B( 11-C , 12-N ) :   2.9916 B( 13-C , 14-N ) :   2.9969
B( 15-C , 16-C ) :   1.1997 B( 15-C , 64-H ) :   0.9358 B( 16-C , 17-O ) :   1.1504
B( 16-C , 18-C ) :   1.3832 B( 17-O , 25-C ) :   1.2057 B( 18-C , 19-C ) :   0.8640
B( 18-C , 24-C ) :   1.3153 B( 19-C , 20-O ) :   2.2685 B( 19-C , 21-N ) :   1.0837
B( 21-N , 22-C ) :   1.0762 B( 21-N , 65-H ) :   0.9130 B( 22-C , 23-O ) :   2.2729
B( 22-C , 24-C ) :   0.8761 B( 24-C , 25-C ) :   1.3535 B( 25-C , 26-C ) :   1.1745
B( 26-C , 27-C ) :   1.6816 B( 26-C , 66-H ) :   0.9547 B( 27-C , 28-C ) :   1.0803
B( 27-C , 67-H ) :   0.9572 B( 28-C , 29-C ) :   1.8411 B( 28-C , 68-H ) :   0.9519
B( 29-C , 30-C ) :   1.0784 B( 29-C , 31-C ) :   1.0304 B( 30-C , 69-H ) :   0.9478
B( 30-C , 70-H ) :   0.9370 B( 30-C , 71-H ) :   0.9472 B( 31-C , 32-N ) :   0.9759
B( 31-C , 72-H ) :   0.9341 B( 31-C , 73-H ) :   0.9401 B( 32-N , 33-C ) :   1.2828
B( 32-N , 74-H ) :   0.9343 B( 33-C , 34-C ) :   1.5282 B( 33-C , 75-H ) :   0.9686
B( 34-C , 35-C ) :   1.2622 B( 34-C , 76-H ) :   0.9459 B( 35-C , 36-O ) :   1.1623
B( 35-C , 37-C ) :   1.3472 B( 36-O , 44-C ) :   1.1123 B( 37-C , 38-C ) :   0.8994
B( 37-C , 43-C ) :   1.2865 B( 38-C , 39-O ) :   2.2631 B( 38-C , 40-N ) :   1.0613
B( 40-N , 41-C ) :   1.0944 B( 40-N , 77-H ) :   0.9144 B( 41-C , 42-O ) :   2.2584
B( 41-C , 43-C ) :   0.8715 B( 43-C , 44-C ) :   1.4039 B( 44-C , 45-C ) :   1.2453
B( 45-C , 46-C ) :   1.5669 B( 45-C , 78-H ) :   0.9440 B( 46-C , 47-C ) :   1.1558
B( 46-C , 79-H ) :   0.9687 B( 47-C , 48-C ) :   1.6482 B( 47-C , 80-H ) :   0.9284
B( 48-C , 49-C ) :   0.9490 B( 48-C , 56-C ) :   1.0476 B( 49-C , 50-O ) :   2.2678
B( 49-C , 51-C ) :   0.9248 B( 51-C , 52-C ) :   1.4852 B( 51-C , 55-C ) :   1.2216
B( 52-C , 53-S ) :   1.1476 B( 52-C , 62-Cl) :   1.1233 B( 53-S , 54-C ) :   1.1549
B( 54-C , 55-C ) :   1.5569 B( 54-C , 81-H ) :   0.9555 B( 55-C , 56-C ) :   1.0054
B( 56-C , 57-C ) :   1.6476 B( 57-C , 58-C ) :   1.1314 B( 57-C , 60-C ) :   1.1698
B( 58-C , 59-N ) :   2.9977 B( 60-C , 61-N ) :   2.9839

-----------------------------------------------------------------------------
         ABSORPTION SPECTRUM VIA TRANSITION ELECTRIC DIPOLE MOMENTS
-----------------------------------------------------------------------------
State   Energy  Wavelength   fosc         T2         TX        TY        TZ
        (cm-1)    (nm)                  (au**2)     (au)      (au)      (au)
-----------------------------------------------------------------------------
   0   16725.3    597.9   0.637679059  12.55174  -0.77760   3.27550  -1.10372
   1   20639.8    484.5   0.121456139   1.93727  -1.18019   0.69789   0.23950
   2   21674.9    461.4   0.637283974   9.67949   2.48811  -1.59025  -0.97974
   3   26238.3    381.1   0.011019348   0.13826  -0.17374   0.24082   0.22378
   4   26682.4    374.8   0.064131073   0.79126  -0.33013  -0.82373   0.06121
   5   27591.4    362.4   0.019372684   0.23115   0.03614  -0.33666  -0.34132
   6   27687.0    361.2   0.197025295   2.34273   0.92342   0.79824  -0.92349
   7   28511.9    350.7   0.044268332   0.51114   0.43209  -0.18994   0.53700
   8   29037.5    344.4   0.003026007   0.03431  -0.01267   0.00040  -0.18479
   9   30328.3    329.7   0.211681543   2.29779   0.54490  -1.17320   0.79023
  10   31134.6    321.2   0.074818141   0.79111   0.42731  -0.27752   0.72904
  11   31348.7    319.0   0.497472388   5.22426  -1.22146   0.63168  -1.82573
  12   31405.2    318.4   0.292886461   3.07024   0.77423  -0.31337   1.54033
  13   32243.5    310.1   0.084182519   0.85952  -0.29530   0.87870  -0.01425
  14   32396.3    308.7   0.001982378   0.02014   0.03645   0.13233   0.03612
  15   32735.0    305.5   0.002768998   0.02785  -0.10899  -0.09418   0.08426
  16   32827.0    304.6   0.007227424   0.07248  -0.11580   0.13018  -0.20524
  17   32837.9    304.5   0.106229260   1.06499  -0.30785  -0.95629   0.23607
  18   33588.8    297.7   0.126988721   1.24465  -0.30941   0.34478  -1.01491
  19   33865.9    295.3   0.017055697   0.16580   0.03028  -0.01683  -0.40571
  20   33940.2    294.6   0.000312390   0.00303  -0.01596   0.00337   0.05257
  21   34550.7    289.4   0.001420694   0.01354   0.09642  -0.02588   0.05975
  22   34889.8    286.6   0.072890263   0.68778   0.54314   0.57350  -0.25273
  23   35841.3    279.0   0.384524515   3.53196  -0.31682  -0.15268   1.84615
  24   37149.2    269.2   0.606121538   5.37137   0.67317  -0.40493   2.18042
  25   37431.7    267.2   0.276379979   2.43076   0.68207   1.25178  -0.63135
  26   37440.7    267.1   0.430111969   3.78193   0.64431   1.35803  -1.23392
  27   38781.7    257.9   0.000742731   0.00630  -0.05451   0.04864  -0.03111
  28   38808.6    257.7   0.025115023   0.21305   0.36042  -0.22119   0.18500
  29   38846.0    257.4   0.001418635   0.01202  -0.08795   0.04484   0.04772
  30   39461.1    253.4   0.058825405   0.49076   0.59865  -0.31309   0.18536
  31   39462.9    253.4   0.044279438   0.36939   0.17038   0.48630   0.32229
  32   39826.0    251.1   0.000890714   0.00736   0.07338   0.03899   0.02142
  33   39886.4    250.7   0.008622078   0.07116   0.05721   0.22457  -0.13213
  34   40288.2    248.2   0.043673102   0.35687   0.48096  -0.26667  -0.23332

FINAL SINGLE POINT ENERGY     -4386.009530097311

DIPOLE MOMENT
-------------
                                X             Y             Z
Electronic contribution:    -17.52212     -11.49776      36.54294
Nuclear contribution   :     16.76426      11.96004     -36.41677
                        -----------------------------------------
Total Dipole Moment    :     -0.75785       0.46228       0.12617
                        -----------------------------------------
Magnitude (a.u.)       :      0.89664
Magnitude (Debye)      :      2.27907

Rotational constants in cm-1:     0.001723     0.000253     0.000243
Rotational constants in MHz :    51.663447     7.595886     7.277354

                             ****ORCA TERMINATED NORMALLY****
TOTAL RUN TIME: 0 days 0 hours 6 minutes 19 seconds 397 msec
