                         Program Version 4.2.0 -  RELEASE  -
|  1> # ORCA input file
|  2> # SCF done       -238.047704290419          0.000815592818
|  3> ! CAM-B3LYP def2-SVP def2/J RIJCOSX Grid4 TightSCF
|  4> %maxcore 5000
|  5> %tddft
|  6>     Mode sTDDFT
|  7>     Ethresh 5.0
|  8>     maxcore 5000
|  9> end
| 10>
| 11> %pal
| 12>   nprocs 6
| 13>   end
| 14> * xyz 0 1
| 15>    C       -0.01372         0.46284         0.75893
| 16>    C       -0.74821         1.30962         1.53126
| 17>    S       -0.11819         1.39680         3.13426
| 18>    C        1.16392         0.26957         2.76320
| 19>   Cl        2.29761        -0.19516         3.93150
| 20>    C        1.08134        -0.13483         1.46276
| 21>    C        1.82321        -1.03500         0.57751
| 22>    O        2.80826        -1.68382         0.84045
| 23>    C        1.12708        -0.91857        -0.74961
| 24>    C       -0.02346        -0.02632        -0.60283
| 25>    C       -0.98236         0.26509        -1.53176
| 26>    C       -2.05620         1.13122        -1.22846
| 27>    N       -2.93237         1.83318        -0.99555
| 28>    C       -1.04323        -0.24995        -2.84345
| 29>    N       -1.15418        -0.64445        -3.91517
| 30>    C        1.59079        -1.40697        -1.92212
| 31>    C        2.68946        -2.33294        -2.10499
| 32>    C        3.55046        -2.15355        -3.18703
| 33>    C        4.62147        -3.00839        -3.37818
| 34>    N        5.55730        -2.70409        -4.43211
| 35>    O        5.19138        -1.94795        -5.30333
| 36>    O        6.66031        -3.20475        -4.36269
| 37>    C        4.84985        -4.10564        -2.53275
| 38>    C        3.95853        -4.28885        -1.47134
| 39>    C        2.90516        -3.42748        -1.25839
| 40>    C        5.90773        -5.06317        -2.78244
| 41>    C        6.72452        -5.53375        -1.81805
| 42>    C        7.71954        -6.51366        -2.09653
| 43>    N        8.67953        -6.91701        -1.20493
| 44>    C        8.84413        -6.46424         0.15563
| 45>    C        7.87658        -7.16567         1.10590
| 46>    C        9.52397        -7.90843        -1.75167
| 47>    O       10.45027        -8.41408        -1.15745
| 48>    C        9.01288        -8.09650        -3.09236
| 49>    C        7.91175        -7.23310        -3.27610
| 50>    C        7.40444        -7.45615        -4.61323
| 51>    O        6.49032        -6.94841        -5.22911
| 52>    N        8.23078        -8.46730        -5.14382
| 53>    C        8.08913        -8.85909        -6.52712
| 54>    C        7.06235        -9.97556        -6.70766
| 55>    C        9.18460        -8.86844        -4.23920
| 56>    C       10.16003        -9.88995        -4.32129
| 57>    C       10.20887       -10.95131        -5.16928
| 58>    C       11.19455       -11.97462        -5.09368
| 59>    C       12.03258       -12.02940        -3.87488
| 60>    C       13.42410       -11.95818        -3.93683
| 61>    C       14.20361       -11.97969        -2.78396
| 62>    C       13.59378       -12.08906        -1.53687
| 63>    C       12.20617       -12.17865        -1.45164
| 64>    C       11.44482       -12.14365        -2.61381
| 65>    F       10.11653       -12.25659        -2.51877
| 66>    F       11.61685       -12.30658        -0.26535
| 67>    F       14.33353       -12.11708        -0.43256
| 68>    F       15.53003       -11.90102        -2.87019
| 69>    F       14.02606       -11.85448        -5.12023
| 70>    C       11.36710       -12.93122        -6.07821
| 71>    C       10.60831       -12.84328        -7.34036
| 72>    C       10.55185       -11.67151        -8.10291
| 73>    C        9.84820       -11.60509        -9.30106
| 74>    C        9.17709       -12.72644        -9.78048
| 75>    C        9.20408       -13.90125        -9.03491
| 76>    C        9.90025       -13.94337        -7.83279
| 77>    F        9.85246       -15.07974        -7.12624
| 78>    F        8.55611       -14.98421        -9.46502
| 79>    F        8.50411       -12.67106       -10.92525
| 80>    F        9.80895       -10.46252        -9.98470
| 81>    F       11.18136       -10.57190        -7.69055
| 82>    C       12.17745       -14.07908        -5.82494
| 83>    C       12.62508       -15.05706        -6.65601
| 84>    C       12.98029       -16.37968        -6.03868
| 85>    O       13.23129       -16.57978        -4.87623
| 86>    C       12.87694       -17.32862        -7.15129
| 87>    C       12.93603       -18.67961        -7.32635
| 88>    S       12.68231       -19.09115        -9.00619
| 89>    C       12.51300       -17.43361        -9.45609
| 90>    C       12.63567       -16.61919        -8.37534
| 91>    C       12.64306       -15.19689        -8.09847
| 92>    C       12.84324       -14.21024        -9.02598
| 93>    C       12.81487       -14.48100       -10.40847
| 94>    N       12.74607       -14.68891       -11.53460
| 95>    C       13.20119       -12.88991        -8.68525
| 96>    N       13.57145       -11.83172        -8.44375
| 97>   Cl       13.20946       -19.87304        -6.15778
| 98>    H       -1.61085         1.89091         1.27230
| 99>    H        1.13556        -1.05852        -2.84158
|100>    H        3.42253        -1.32278        -3.86600
|101>    H        4.09013        -5.14363        -0.82628
|102>    H        2.22176        -3.61765        -0.44752
|103>    H        6.02033        -5.42429        -3.79834
|104>    H        6.66797        -5.13271        -0.81587
|105>    H        8.71734        -5.37935         0.19642
|106>    H        9.87202        -6.71043         0.43581
|107>    H        6.84322        -6.97629         0.82373
|108>    H        8.03369        -6.80817         2.11953
|109>    H        8.04970        -8.23874         1.08578
|110>    H        9.07024        -9.13558        -6.91695
|111>    H        7.73735        -7.97361        -7.06552
|112>    H        7.30996       -10.85186        -6.11134
|113>    H        7.01063       -10.26130        -7.75502
|114>    H        6.08278        -9.62008        -6.39887
|115>    H       10.90912        -9.80003        -3.54481
|116>    H        9.45394       -11.06786        -5.92903
|117>    H       12.38878       -14.27592        -4.77827
|118>    H       12.32300       -17.17951       -10.48022
|119> *
|120>
|121>                          ****END OF INPUT****

CARTESIAN COORDINATES (ANGSTROEM)
---------------------------------
  C     -0.013720    0.462840    0.758930
  C     -0.748210    1.309620    1.531260
  S     -0.118190    1.396800    3.134260
  C      1.163920    0.269570    2.763200
  Cl     2.297610   -0.195160    3.931500
  C      1.081340   -0.134830    1.462760
  C      1.823210   -1.035000    0.577510
  O      2.808260   -1.683820    0.840450
  C      1.127080   -0.918570   -0.749610
  C     -0.023460   -0.026320   -0.602830
  C     -0.982360    0.265090   -1.531760
  C     -2.056200    1.131220   -1.228460
  N     -2.932370    1.833180   -0.995550
  C     -1.043230   -0.249950   -2.843450
  N     -1.154180   -0.644450   -3.915170
  C      1.590790   -1.406970   -1.922120
  C      2.689460   -2.332940   -2.104990
  C      3.550460   -2.153550   -3.187030
  C      4.621470   -3.008390   -3.378180
  N      5.557300   -2.704090   -4.432110
  O      5.191380   -1.947950   -5.303330
  O      6.660310   -3.204750   -4.362690
  C      4.849850   -4.105640   -2.532750
  C      3.958530   -4.288850   -1.471340
  C      2.905160   -3.427480   -1.258390
  C      5.907730   -5.063170   -2.782440
  C      6.724520   -5.533750   -1.818050
  C      7.719540   -6.513660   -2.096530
  N      8.679530   -6.917010   -1.204930
  C      8.844130   -6.464240    0.155630
  C      7.876580   -7.165670    1.105900
  C      9.523970   -7.908430   -1.751670
  O     10.450270   -8.414080   -1.157450
  C      9.012880   -8.096500   -3.092360
  C      7.911750   -7.233100   -3.276100
  C      7.404440   -7.456150   -4.613230
  O      6.490320   -6.948410   -5.229110
  N      8.230780   -8.467300   -5.143820
  C      8.089130   -8.859090   -6.527120
  C      7.062350   -9.975560   -6.707660
  C      9.184600   -8.868440   -4.239200
  C     10.160030   -9.889950   -4.321290
  C     10.208870  -10.951310   -5.169280
  C     11.194550  -11.974620   -5.093680
  C     12.032580  -12.029400   -3.874880
  C     13.424100  -11.958180   -3.936830
  C     14.203610  -11.979690   -2.783960
  C     13.593780  -12.089060   -1.536870
  C     12.206170  -12.178650   -1.451640
  C     11.444820  -12.143650   -2.613810
  F     10.116530  -12.256590   -2.518770
  F     11.616850  -12.306580   -0.265350
  F     14.333530  -12.117080   -0.432560
  F     15.530030  -11.901020   -2.870190
  F     14.026060  -11.854480   -5.120230
  C     11.367100  -12.931220   -6.078210
  C     10.608310  -12.843280   -7.340360
  C     10.551850  -11.671510   -8.102910
  C      9.848200  -11.605090   -9.301060
  C      9.177090  -12.726440   -9.780480
  C      9.204080  -13.901250   -9.034910
  C      9.900250  -13.943370   -7.832790
  F      9.852460  -15.079740   -7.126240
  F      8.556110  -14.984210   -9.465020
  F      8.504110  -12.671060  -10.925250
  F      9.808950  -10.462520   -9.984700
  F     11.181360  -10.571900   -7.690550
  C     12.177450  -14.079080   -5.824940
  C     12.625080  -15.057060   -6.656010
  C     12.980290  -16.379680   -6.038680
  O     13.231290  -16.579780   -4.876230
  C     12.876940  -17.328620   -7.151290
  C     12.936030  -18.679610   -7.326350
  S     12.682310  -19.091150   -9.006190
  C     12.513000  -17.433610   -9.456090
  C     12.635670  -16.619190   -8.375340
  C     12.643060  -15.196890   -8.098470
  C     12.843240  -14.210240   -9.025980
  C     12.814870  -14.481000  -10.408470
  N     12.746070  -14.688910  -11.534600
  C     13.201190  -12.889910   -8.685250
  N     13.571450  -11.831720   -8.443750
  Cl    13.209460  -19.873040   -6.157780
  H     -1.610850    1.890910    1.272300
  H      1.135560   -1.058520   -2.841580
  H      3.422530   -1.322780   -3.866000
  H      4.090130   -5.143630   -0.826280
  H      2.221760   -3.617650   -0.447520
  H      6.020330   -5.424290   -3.798340
  H      6.667970   -5.132710   -0.815870
  H      8.717340   -5.379350    0.196420
  H      9.872020   -6.710430    0.435810
  H      6.843220   -6.976290    0.823730
  H      8.033690   -6.808170    2.119530
  H      8.049700   -8.238740    1.085780
  H      9.070240   -9.135580   -6.916950
  H      7.737350   -7.973610   -7.065520
  H      7.309960  -10.851860   -6.111340
  H      7.010630  -10.261300   -7.755020
  H      6.082780   -9.620080   -6.398870
  H     10.909120   -9.800030   -3.544810
  H      9.453940  -11.067860   -5.929030
  H     12.388780  -14.275920   -4.778270
  H     12.323000  -17.179510  -10.480220

 Total Charge           Charge          ....    0
 Multiplicity           Mult            ....    1
 Number of Electrons    NEL             ....  610
 Basis Dimension        Dim             .... 1283

ORBITAL ENERGIES
----------------

  NO   OCC          E(Eh)            E(eV)
   0   2.0000    -101.629960     -2765.4918
   1   2.0000    -101.616959     -2765.1380
   2   2.0000     -89.006731     -2421.9963
   3   2.0000     -88.992397     -2421.6062
   4   2.0000     -24.819133      -675.3630
   5   2.0000     -24.817881      -675.3289
   6   2.0000     -24.815988      -675.2774
   7   2.0000     -24.813817      -675.2183
   8   2.0000     -24.813791      -675.2176
   9   2.0000     -24.812860      -675.1923
  10   2.0000     -24.812702      -675.1879
  11   2.0000     -24.810205      -675.1200
  12   2.0000     -24.808264      -675.0672
  13   2.0000     -24.807909      -675.0575
  14   2.0000     -19.254225      -523.9341
  15   2.0000     -19.252367      -523.8835
  16   2.0000     -19.237517      -523.4794
  17   2.0000     -19.219483      -522.9887
  18   2.0000     -19.205760      -522.6153
  19   2.0000     -19.196488      -522.3630
  20   2.0000     -14.658989      -398.8914
  21   2.0000     -14.465503      -393.6264
  22   2.0000     -14.460486      -393.4898
  23   2.0000     -14.433195      -392.7472
  24   2.0000     -14.432290      -392.7226
  25   2.0000     -14.422951      -392.4685
  26   2.0000     -14.417388      -392.3171
  27   2.0000     -10.401840      -283.0485
  28   2.0000     -10.398542      -282.9587
  29   2.0000     -10.398199      -282.9494
  30   2.0000     -10.398144      -282.9479
  31   2.0000     -10.395612      -282.8790
  32   2.0000     -10.395430      -282.8740
  33   2.0000     -10.395130      -282.8659
  34   2.0000     -10.395087      -282.8647
  35   2.0000     -10.394456      -282.8475
  36   2.0000     -10.390915      -282.7512
  37   2.0000     -10.390518      -282.7404
  38   2.0000     -10.389675      -282.7174
  39   2.0000     -10.387272      -282.6520
  40   2.0000     -10.380049      -282.4555
  41   2.0000     -10.375824      -282.3405
  42   2.0000     -10.375705      -282.3373
  43   2.0000     -10.363050      -281.9929
  44   2.0000     -10.362177      -281.9692
  45   2.0000     -10.355119      -281.7771
  46   2.0000     -10.350229      -281.6440
  47   2.0000     -10.348975      -281.6099
  48   2.0000     -10.345920      -281.5268
  49   2.0000     -10.344264      -281.4817
  50   2.0000     -10.342193      -281.4254
  51   2.0000     -10.337976      -281.3106
  52   2.0000     -10.334977      -281.2290
  53   2.0000     -10.334694      -281.2213
  54   2.0000     -10.333771      -281.1962
  55   2.0000     -10.330142      -281.0975
  56   2.0000     -10.328883      -281.0632
  57   2.0000     -10.328682      -281.0577
  58   2.0000     -10.326201      -280.9902
  59   2.0000     -10.325976      -280.9841
  60   2.0000     -10.325031      -280.9584
  61   2.0000     -10.324727      -280.9501
  62   2.0000     -10.324453      -280.9426
  63   2.0000     -10.320157      -280.8258
  64   2.0000     -10.319832      -280.8169
  65   2.0000     -10.319160      -280.7986
  66   2.0000     -10.318785      -280.7884
  67   2.0000     -10.318766      -280.7879
  68   2.0000     -10.313853      -280.6542
  69   2.0000     -10.313646      -280.6486
  70   2.0000     -10.313191      -280.6362
  71   2.0000     -10.312320      -280.6125
  72   2.0000     -10.309814      -280.5443
  73   2.0000     -10.309706      -280.5414
  74   2.0000     -10.307314      -280.4763
  75   2.0000     -10.304840      -280.4090
  76   2.0000     -10.304759      -280.4068
  77   2.0000     -10.302337      -280.3408
  78   2.0000     -10.300322      -280.2860
  79   2.0000     -10.274428      -279.5814
  80   2.0000     -10.273607      -279.5591
  81   2.0000     -10.268365      -279.4164
  82   2.0000     -10.267993      -279.4063
  83   2.0000      -9.584701      -260.8130
  84   2.0000      -9.571719      -260.4597
  85   2.0000      -8.102491      -220.4800
  86   2.0000      -8.088176      -220.0905
  87   2.0000      -7.355358      -200.1495
  88   2.0000      -7.344740      -199.8605
  89   2.0000      -7.344179      -199.8453
  90   2.0000      -7.342352      -199.7955
  91   2.0000      -7.331756      -199.5072
  92   2.0000      -7.331232      -199.4930
  93   2.0000      -6.071842      -165.2232
  94   2.0000      -6.067207      -165.0971
  95   2.0000      -6.064796      -165.0315
  96   2.0000      -6.057561      -164.8346
  97   2.0000      -6.052980      -164.7100
  98   2.0000      -6.050370      -164.6389
  99   2.0000      -1.346121       -36.6298
 100   2.0000      -1.341417       -36.5018
 101   2.0000      -1.340031       -36.4641
 102   2.0000      -1.335095       -36.3298
 103   2.0000      -1.334514       -36.3140
 104   2.0000      -1.334457       -36.3124
 105   2.0000      -1.329574       -36.1796
 106   2.0000      -1.323645       -36.0182
 107   2.0000      -1.319061       -35.8935
 108   2.0000      -1.319027       -35.8926
 109   2.0000      -1.314564       -35.7711
 110   2.0000      -1.155258       -31.4362
 111   2.0000      -1.154611       -31.4186
 112   2.0000      -1.144780       -31.1510
 113   2.0000      -1.136936       -30.9376
 114   2.0000      -1.135436       -30.8968
 115   2.0000      -1.075196       -29.2576
 116   2.0000      -1.063410       -28.9369
 117   2.0000      -1.051639       -28.6166
 118   2.0000      -1.038262       -28.2526
 119   2.0000      -1.030263       -28.0349
 120   2.0000      -1.019447       -27.7406
 121   2.0000      -1.011274       -27.5182
 122   2.0000      -1.011096       -27.5133
 123   2.0000      -1.009490       -27.4696
 124   2.0000      -1.003132       -27.2966
 125   2.0000      -1.000724       -27.2311
 126   2.0000      -0.998439       -27.1689
 127   2.0000      -0.988580       -26.9006
 128   2.0000      -0.968726       -26.3604
 129   2.0000      -0.967272       -26.3208
 130   2.0000      -0.952455       -25.9176
 131   2.0000      -0.943223       -25.6664
 132   2.0000      -0.937321       -25.5058
 133   2.0000      -0.922054       -25.0904
 134   2.0000      -0.919214       -25.0131
 135   2.0000      -0.917260       -24.9599
 136   2.0000      -0.906772       -24.6745
 137   2.0000      -0.897508       -24.4224
 138   2.0000      -0.892124       -24.2759
 139   2.0000      -0.880875       -23.9698
 140   2.0000      -0.874267       -23.7900
 141   2.0000      -0.871716       -23.7206
 142   2.0000      -0.868362       -23.6293
 143   2.0000      -0.865475       -23.5508
 144   2.0000      -0.850295       -23.1377
 145   2.0000      -0.845936       -23.0191
 146   2.0000      -0.832529       -22.6543
 147   2.0000      -0.829256       -22.5652
 148   2.0000      -0.823846       -22.4180
 149   2.0000      -0.813534       -22.1374
 150   2.0000      -0.803568       -21.8662
 151   2.0000      -0.782720       -21.2989
 152   2.0000      -0.779283       -21.2054
 153   2.0000      -0.771719       -20.9995
 154   2.0000      -0.768704       -20.9175
 155   2.0000      -0.768129       -20.9019
 156   2.0000      -0.758016       -20.6267
 157   2.0000      -0.754595       -20.5336
 158   2.0000      -0.751528       -20.4501
 159   2.0000      -0.748379       -20.3644
 160   2.0000      -0.738202       -20.0875
 161   2.0000      -0.720997       -19.6193
 162   2.0000      -0.714651       -19.4466
 163   2.0000      -0.712669       -19.3927
 164   2.0000      -0.704396       -19.1676
 165   2.0000      -0.697672       -18.9846
 166   2.0000      -0.696956       -18.9651
 167   2.0000      -0.694399       -18.8956
 168   2.0000      -0.692685       -18.8489
 169   2.0000      -0.690441       -18.7878
 170   2.0000      -0.688259       -18.7285
 171   2.0000      -0.684719       -18.6321
 172   2.0000      -0.676197       -18.4003
 173   2.0000      -0.675435       -18.3795
 174   2.0000      -0.672902       -18.3106
 175   2.0000      -0.664262       -18.0755
 176   2.0000      -0.662423       -18.0255
 177   2.0000      -0.660548       -17.9744
 178   2.0000      -0.653704       -17.7882
 179   2.0000      -0.644354       -17.5338
 180   2.0000      -0.639050       -17.3894
 181   2.0000      -0.638152       -17.3650
 182   2.0000      -0.636447       -17.3186
 183   2.0000      -0.635147       -17.2832
 184   2.0000      -0.632518       -17.2117
 185   2.0000      -0.628860       -17.1121
 186   2.0000      -0.627846       -17.0845
 187   2.0000      -0.624540       -16.9946
 188   2.0000      -0.622350       -16.9350
 189   2.0000      -0.619541       -16.8586
 190   2.0000      -0.618228       -16.8228
 191   2.0000      -0.615970       -16.7614
 192   2.0000      -0.613801       -16.7024
 193   2.0000      -0.609571       -16.5873
 194   2.0000      -0.607480       -16.5304
 195   2.0000      -0.606881       -16.5141
 196   2.0000      -0.602860       -16.4047
 197   2.0000      -0.598799       -16.2942
 198   2.0000      -0.595881       -16.2148
 199   2.0000      -0.593520       -16.1505
 200   2.0000      -0.587534       -15.9876
 201   2.0000      -0.586789       -15.9673
 202   2.0000      -0.581878       -15.8337
 203   2.0000      -0.579491       -15.7687
 204   2.0000      -0.577834       -15.7237
 205   2.0000      -0.570658       -15.5284
 206   2.0000      -0.569186       -15.4883
 207   2.0000      -0.567665       -15.4469
 208   2.0000      -0.564447       -15.3594
 209   2.0000      -0.560879       -15.2623
 210   2.0000      -0.559062       -15.2128
 211   2.0000      -0.555287       -15.1101
 212   2.0000      -0.554083       -15.0774
 213   2.0000      -0.551867       -15.0171
 214   2.0000      -0.549584       -14.9549
 215   2.0000      -0.549237       -14.9455
 216   2.0000      -0.548572       -14.9274
 217   2.0000      -0.547003       -14.8847
 218   2.0000      -0.544917       -14.8279
 219   2.0000      -0.543492       -14.7892
 220   2.0000      -0.540467       -14.7069
 221   2.0000      -0.537852       -14.6357
 222   2.0000      -0.534509       -14.5447
 223   2.0000      -0.532558       -14.4916
 224   2.0000      -0.531830       -14.4718
 225   2.0000      -0.530026       -14.4227
 226   2.0000      -0.529307       -14.4032
 227   2.0000      -0.527474       -14.3533
 228   2.0000      -0.525137       -14.2897
 229   2.0000      -0.524128       -14.2623
 230   2.0000      -0.523723       -14.2512
 231   2.0000      -0.522877       -14.2282
 232   2.0000      -0.518828       -14.1180
 233   2.0000      -0.513632       -13.9766
 234   2.0000      -0.509815       -13.8728
 235   2.0000      -0.509301       -13.8588
 236   2.0000      -0.506668       -13.7871
 237   2.0000      -0.504967       -13.7408
 238   2.0000      -0.503777       -13.7085
 239   2.0000      -0.503673       -13.7056
 240   2.0000      -0.499554       -13.5936
 241   2.0000      -0.499274       -13.5859
 242   2.0000      -0.496035       -13.4978
 243   2.0000      -0.491664       -13.3789
 244   2.0000      -0.487310       -13.2604
 245   2.0000      -0.486158       -13.2290
 246   2.0000      -0.484189       -13.1754
 247   2.0000      -0.477923       -13.0049
 248   2.0000      -0.474095       -12.9008
 249   2.0000      -0.473318       -12.8796
 250   2.0000      -0.472391       -12.8544
 251   2.0000      -0.469836       -12.7849
 252   2.0000      -0.468983       -12.7617
 253   2.0000      -0.466779       -12.7017
 254   2.0000      -0.465294       -12.6613
 255   2.0000      -0.463890       -12.6231
 256   2.0000      -0.463579       -12.6146
 257   2.0000      -0.461105       -12.5473
 258   2.0000      -0.458594       -12.4790
 259   2.0000      -0.458468       -12.4756
 260   2.0000      -0.456879       -12.4323
 261   2.0000      -0.456309       -12.4168
 262   2.0000      -0.454041       -12.3551
 263   2.0000      -0.451141       -12.2762
 264   2.0000      -0.448004       -12.1908
 265   2.0000      -0.446133       -12.1399
 266   2.0000      -0.445414       -12.1203
 267   2.0000      -0.443558       -12.0698
 268   2.0000      -0.443147       -12.0586
 269   2.0000      -0.441658       -12.0181
 270   2.0000      -0.438319       -11.9273
 271   2.0000      -0.437049       -11.8927
 272   2.0000      -0.434967       -11.8360
 273   2.0000      -0.430911       -11.7257
 274   2.0000      -0.430272       -11.7083
 275   2.0000      -0.429213       -11.6795
 276   2.0000      -0.426322       -11.6008
 277   2.0000      -0.423987       -11.5373
 278   2.0000      -0.415879       -11.3166
 279   2.0000      -0.415348       -11.3022
 280   2.0000      -0.407152       -11.0792
 281   2.0000      -0.403819       -10.9885
 282   2.0000      -0.400315       -10.8931
 283   2.0000      -0.392766       -10.6877
 284   2.0000      -0.390762       -10.6332
 285   2.0000      -0.379782       -10.3344
 286   2.0000      -0.372386       -10.1331
 287   2.0000      -0.369240       -10.0475
 288   2.0000      -0.362088        -9.8529
 289   2.0000      -0.357603        -9.7309
 290   2.0000      -0.350654        -9.5418
 291   2.0000      -0.350023        -9.5246
 292   2.0000      -0.347965        -9.4686
 293   2.0000      -0.345005        -9.3881
 294   2.0000      -0.343693        -9.3524
 295   2.0000      -0.340693        -9.2707
 296   2.0000      -0.336095        -9.1456
 297   2.0000      -0.331077        -9.0091
 298   2.0000      -0.329569        -8.9680
 299   2.0000      -0.329438        -8.9645
 300   2.0000      -0.325157        -8.8480
 301   2.0000      -0.315851        -8.5948
 302   2.0000      -0.312336        -8.4991
 303   2.0000      -0.300660        -8.1814
 304   2.0000      -0.247457        -6.7336
 305   0.0000      -0.117530        -3.1982
 306   0.0000      -0.106045        -2.8856
 307   0.0000      -0.077049        -2.0966
 308   0.0000      -0.065647        -1.7864
 309   0.0000      -0.058876        -1.6021

MULLIKEN ATOMIC CHARGES
-----------------------
   0 C :    0.033198
   1 C :   -0.125870
   2 S :    0.197353
   3 C :   -0.166600
   4 Cl:    0.003801
   5 C :    0.073359
   6 C :    0.143668
   7 O :   -0.128285
   8 C :   -0.086169
   9 C :    0.279895
  10 C :   -0.316658
  11 C :   -0.191357
  12 N :    0.160190
  13 C :   -0.193496
  14 N :    0.171960
  15 C :   -0.030953
  16 C :    0.061560
  17 C :   -0.061422
  18 C :    0.166673
  19 N :    0.248363
  20 O :   -0.225527
  21 O :   -0.220548
  22 C :    0.034341
  23 C :   -0.039501
  24 C :    0.111254
  25 C :    0.038550
  26 C :   -0.041295
  27 C :    0.147100
  28 N :   -0.266535
  29 C :    0.098412
  30 C :    0.002226
  31 C :    0.156547
  32 O :   -0.183105
  33 C :   -0.036824
  34 C :   -0.074707
  35 C :    0.174598
  36 O :   -0.210417
  37 N :   -0.263376
  38 C :    0.105035
  39 C :   -0.002188
  40 C :    0.110440
  41 C :    0.001532
  42 C :   -0.027260
  43 C :    0.094046
  44 C :   -0.207554
  45 C :    0.208287
  46 C :    0.177319
  47 C :    0.136912
  48 C :    0.188101
  49 C :    0.198882
  50 F :   -0.156321
  51 F :   -0.150836
  52 F :   -0.147423
  53 F :   -0.152304
  54 F :   -0.141453
  55 C :    0.078234
  56 C :   -0.175560
  57 C :    0.185190
  58 C :    0.164834
  59 C :    0.139663
  60 C :    0.158793
  61 C :    0.206840
  62 F :   -0.159362
  63 F :   -0.153638
  64 F :   -0.143895
  65 F :   -0.151262
  66 F :   -0.141284
  67 C :    0.005849
  68 C :   -0.121649
  69 C :    0.136226
  70 O :   -0.128390
  71 C :    0.096133
  72 C :   -0.174000
  73 S :    0.184107
  74 C :   -0.127819
  75 C :    0.025033
  76 C :    0.238327
  77 C :   -0.317527
  78 C :   -0.191939
  79 N :    0.160246
  80 C :   -0.191796
  81 N :    0.177251
  82 Cl:    0.000333
  83 H :    0.057455
  84 H :    0.041555
  85 H :    0.012916
  86 H :   -0.005884
  87 H :   -0.002382
  88 H :    0.054556
  89 H :   -0.016218
  90 H :    0.029120
  91 H :    0.045733
  92 H :    0.011240
  93 H :    0.027066
  94 H :    0.034198
  95 H :    0.024072
  96 H :    0.041308
  97 H :    0.020787
  98 H :    0.023893
  99 H :    0.033177
 100 H :    0.031065
 101 H :   -0.004277
 102 H :    0.033288
 103 H :    0.052779
Sum of atomic charges:   -0.0000000

LOEWDIN ATOMIC CHARGES
----------------------
   0 C :   -0.059842
   1 C :   -0.146820
   2 S :    0.485762
   3 C :   -0.270731
   4 Cl:    0.195963
   5 C :   -0.118995
   6 C :    0.081405
   7 O :   -0.124751
   8 C :   -0.077970
   9 C :    0.072208
  10 C :   -0.126826
  11 C :   -0.015268
  12 N :   -0.042876
  13 C :   -0.026104
  14 N :   -0.035122
  15 C :    0.078448
  16 C :   -0.036419
  17 C :    0.026380
  18 C :   -0.025743
  19 N :    0.285824
  20 O :   -0.193185
  21 O :   -0.178566
  22 C :    0.006888
  23 C :   -0.008354
  24 C :    0.045900
  25 C :    0.053215
  26 C :   -0.051542
  27 C :    0.095830
  28 N :   -0.001701
  29 C :    0.037437
  30 C :   -0.060702
  31 C :    0.084625
  32 O :   -0.184523
  33 C :   -0.097103
  34 C :   -0.129232
  35 C :    0.082516
  36 O :   -0.198058
  37 N :    0.000594
  38 C :    0.037343
  39 C :   -0.064022
  40 C :    0.058849
  41 C :    0.006761
  42 C :   -0.020288
  43 C :    0.039919
  44 C :   -0.088572
  45 C :    0.068180
  46 C :    0.029054
  47 C :    0.050439
  48 C :    0.032154
  49 C :    0.069531
  50 F :   -0.035638
  51 F :   -0.030525
  52 F :   -0.024756
  53 F :   -0.031839
  54 F :   -0.024170
  55 C :   -0.027414
  56 C :   -0.081876
  57 C :    0.059824
  58 C :    0.027449
  59 C :    0.044840
  60 C :    0.026270
  61 C :    0.063640
  62 F :   -0.034985
  63 F :   -0.034620
  64 F :   -0.023552
  65 F :   -0.031086
  66 F :   -0.014118
  67 C :    0.059962
  68 C :   -0.081036
  69 C :    0.083673
  70 O :   -0.132686
  71 C :   -0.115916
  72 C :   -0.272072
  73 S :    0.474341
  74 C :   -0.152795
  75 C :   -0.054805
  76 C :    0.062242
  77 C :   -0.135397
  78 C :   -0.021216
  79 N :   -0.047236
  80 C :   -0.030447
  81 N :   -0.038977
  82 Cl:    0.193063
  83 H :    0.039225
  84 H :    0.050030
  85 H :    0.045782
  86 H :    0.037328
  87 H :    0.037286
  88 H :    0.041782
  89 H :    0.030487
  90 H :    0.025855
  91 H :    0.039120
  92 H :    0.020118
  93 H :    0.032256
  94 H :    0.033829
  95 H :    0.022131
  96 H :    0.039185
  97 H :    0.019142
  98 H :    0.029841
  99 H :    0.034969
 100 H :    0.046923
 101 H :    0.030877
 102 H :    0.045806
 103 H :    0.037983

  Mayer bond orders larger than 0.100000
B(  0-C ,  1-C ) :   1.5385 B(  0-C ,  5-C ) :   1.2201 B(  0-C ,  9-C ) :   1.0059
B(  1-C ,  2-S ) :   1.1663 B(  1-C , 83-H ) :   0.9551 B(  2-S ,  3-C ) :   1.1579
B(  3-C ,  4-Cl) :   1.1318 B(  3-C ,  5-C ) :   1.4680 B(  5-C ,  6-C ) :   0.9583
B(  6-C ,  7-O ) :   2.2404 B(  6-C ,  8-C ) :   0.9175 B(  8-C ,  9-C ) :   1.0401
B(  8-C , 15-C ) :   1.7160 B(  9-C , 10-C ) :   1.6812 B( 10-C , 11-C ) :   1.1405
B( 10-C , 13-C ) :   1.1319 B( 11-C , 12-N ) :   2.9932 B( 13-C , 14-N ) :   2.9865
B( 15-C , 16-C ) :   1.0387 B( 15-C , 84-H ) :   0.9486 B( 16-C , 17-C ) :   1.2858
B( 16-C , 24-C ) :   1.3419 B( 17-C , 18-C ) :   1.3793 B( 17-C , 85-H ) :   0.9994
B( 18-C , 19-N ) :   0.8815 B( 18-C , 22-C ) :   1.3484 B( 19-N , 20-O ) :   1.5638
B( 19-N , 21-O ) :   1.5302 B( 20-O , 21-O ) :   0.2680 B( 22-C , 23-C ) :   1.3606
B( 22-C , 25-C ) :   1.0251 B( 23-C , 24-C ) :   1.3949 B( 23-C , 86-H ) :   0.9961
B( 24-C , 87-H ) :   0.9830 B( 25-C , 26-C ) :   1.7019 B( 25-C , 88-H ) :   0.9043
B( 26-C , 27-C ) :   1.1439 B( 26-C , 89-H ) :   0.9677 B( 27-C , 28-N ) :   1.1785
B( 27-C , 34-C ) :   1.3323 B( 28-N , 29-C ) :   0.9421 B( 28-N , 31-C ) :   1.0290
B( 29-C , 30-C ) :   1.1183 B( 29-C , 90-H ) :   0.9513 B( 29-C , 91-H ) :   0.9297
B( 30-C , 92-H ) :   0.9693 B( 30-C , 93-H ) :   0.9683 B( 30-C , 94-H ) :   0.9640
B( 31-C , 32-O ) :   2.1395 B( 31-C , 33-C ) :   0.9659 B( 33-C , 34-C ) :   1.2518
B( 33-C , 40-C ) :   1.3527 B( 34-C , 35-C ) :   0.9888 B( 35-C , 36-O ) :   2.0237
B( 35-C , 37-N ) :   1.0621 B( 36-O , 88-H ) :   0.1101 B( 37-N , 38-C ) :   0.9368
B( 37-N , 40-C ) :   1.1705 B( 38-C , 39-C ) :   1.1144 B( 38-C , 95-H ) :   0.9491
B( 38-C , 96-H ) :   0.9298 B( 39-C , 97-H ) :   0.9627 B( 39-C , 98-H ) :   0.9686
B( 39-C , 99-H ) :   0.9581 B( 40-C , 41-C ) :   1.1835 B( 41-C , 42-C ) :   1.5734
B( 41-C ,100-H ) :   0.9322 B( 42-C , 43-C ) :   1.1921 B( 42-C ,101-H ) :   0.9545
B( 43-C , 44-C ) :   0.9304 B( 43-C , 55-C ) :   1.6243 B( 44-C , 45-C ) :   1.3389
B( 44-C , 47-C ) :   0.1088 B( 44-C , 49-C ) :   1.3304 B( 45-C , 46-C ) :   1.2729
B( 45-C , 54-F ) :   1.1913 B( 46-C , 47-C ) :   1.2764 B( 46-C , 53-F ) :   1.1781
B( 47-C , 48-C ) :   1.2692 B( 47-C , 52-F ) :   1.1816 B( 48-C , 49-C ) :   1.2812
B( 48-C , 51-F ) :   1.1838 B( 49-C , 50-F ) :   1.1754 B( 55-C , 56-C ) :   0.9470
B( 55-C , 67-C ) :   1.1451 B( 56-C , 57-C ) :   1.3236 B( 56-C , 59-C ) :   0.1110
B( 56-C , 61-C ) :   1.3389 B( 57-C , 58-C ) :   1.2794 B( 57-C , 66-F ) :   1.1428
B( 58-C , 59-C ) :   1.2729 B( 58-C , 65-F ) :   1.1850 B( 59-C , 60-C ) :   1.2721
B( 59-C , 64-F ) :   1.1880 B( 60-C , 61-C ) :   1.2941 B( 60-C , 63-F ) :   1.1820
B( 61-C , 62-F ) :   1.1522 B( 67-C , 68-C ) :   1.6835 B( 67-C ,102-H ) :   0.9146
B( 68-C , 69-C ) :   0.9352 B( 68-C , 76-C ) :   1.0225 B( 69-C , 70-O ) :   2.2604
B( 69-C , 71-C ) :   0.9294 B( 71-C , 72-C ) :   1.4822 B( 71-C , 75-C ) :   1.2222
B( 72-C , 73-S ) :   1.1522 B( 72-C , 82-Cl) :   1.1283 B( 73-S , 74-C ) :   1.1538
B( 74-C , 75-C ) :   1.5532 B( 74-C ,103-H ) :   0.9590 B( 75-C , 76-C ) :   1.0137
B( 76-C , 77-C ) :   1.6745 B( 77-C , 78-C ) :   1.1283 B( 77-C , 80-C ) :   1.1553
B( 78-C , 79-N ) :   3.0026 B( 80-C , 81-N ) :   2.9703

-----------------------------------------------------------------------------
         ABSORPTION SPECTRUM VIA TRANSITION ELECTRIC DIPOLE MOMENTS
-----------------------------------------------------------------------------
State   Energy  Wavelength   fosc         T2         TX        TY        TZ
        (cm-1)    (nm)                  (au**2)     (au)      (au)      (au)
-----------------------------------------------------------------------------
   0   13751.7    727.2   1.120785105  26.83135   2.23959  -3.85864  -2.63182
   1   19257.1    519.3   0.020662028   0.35323   0.53676  -0.14512   0.20991
   2   23011.0    434.6   0.030707351   0.43932  -0.57934   0.24799   0.20540
   3   24440.8    409.2   0.210279335   2.83242   0.45215  -0.97659  -1.29393
   4   25238.5    396.2   0.074120376   0.96683  -0.29197   0.28797   0.89368
   5   26136.5    382.6   0.010796352   0.13599   0.20415   0.06814   0.29945
   6   26271.4    380.6   0.192530161   2.41263  -0.16306   1.24406   0.91562
   7   26356.3    379.4   0.228896489   2.85911  -1.42251   0.91407   0.00659
   8   27806.0    359.6   0.006024140   0.07132   0.25681   0.06121  -0.04030
   9   28279.8    353.6   0.001068380   0.01244   0.10593   0.00998   0.03341
  10   28376.6    352.4   0.016624828   0.19287   0.02671  -0.40338   0.17159
  11   28618.7    349.4   0.100990796   1.16174  -0.23768   1.03769   0.16866
  12   28922.3    345.8   0.003174511   0.03613   0.15615  -0.04890   0.09675
  13   29378.2    340.4   0.046846461   0.52496   0.58858  -0.22646   0.35673
  14   29612.5    337.7   0.019359376   0.21522   0.43990  -0.11125   0.09663
  15   30693.1    325.8   0.195769910   2.09981  -0.99444   1.01056   0.29943
  16   31156.5    321.0   0.403374481   4.26221   1.54336  -1.33669  -0.30576
  17   31819.3    314.3   0.118855923   1.22972   0.67895  -0.82714   0.29082
  18   31957.9    312.9   0.028177577   0.29027  -0.33132  -0.05834   0.42083
  19   32073.7    311.8   0.069037938   0.70862  -0.56046   0.49698  -0.38408
  20   32557.1    307.2   0.029364154   0.29693  -0.07462  -0.30294   0.44675
  21   32920.6    303.8   0.003993267   0.03993  -0.11057  -0.15156  -0.06882
  22   33352.7    299.8   0.096406523   0.95159  -0.26474   0.79764   0.49525
  23   33454.5    298.9   0.027952444   0.27507  -0.03670   0.51580   0.08758
  24   34213.2    292.3   0.014838700   0.14278   0.23559  -0.27545   0.10680
  25   34642.8    288.7   0.093707209   0.89050  -0.09344   0.34963   0.87151
  26   35257.7    283.6   0.067872080   0.63374   0.04381   0.78649   0.11511
  27   35604.1    280.9   0.017987098   0.16632   0.02373   0.39808  -0.08536
  28   35834.7    279.1   0.298196030   2.73951   0.27453  -1.62330   0.17046
  29   35869.0    278.8   0.109775877   1.00754  -0.35440  -0.43302   0.83333
  30   36476.5    274.1   0.023943339   0.21610  -0.21592  -0.09012  -0.40169
  31   36761.1    272.0   0.023587070   0.21123   0.25483  -0.30115  -0.23581
  32   37177.6    269.0   0.495282731   4.38578   0.71226   0.35622   1.93690
  33   37533.4    266.4   0.037878105   0.33224  -0.52744   0.15257  -0.17540
  34   37889.7    263.9   0.108351810   0.94144  -0.33769   0.12958  -0.90034
  35   38191.4    261.8   0.088247349   0.76070   0.33367  -0.55137   0.58767
  36   38279.3    261.2   0.151328854   1.30147   0.30206   1.09545   0.10103
  37   38482.7    259.9   0.040690345   0.34810  -0.41647   0.22670  -0.35108
  38   38613.0    259.0   0.121638243   1.03708   0.22841  -0.10128   0.98724
  39   38800.9    257.7   0.029565782   0.25086  -0.15358   0.44344  -0.17502
  40   39045.4    256.1   0.033385366   0.28149  -0.08682  -0.35036  -0.38884
  41   39151.1    255.4   0.041085935   0.34548  -0.27850   0.07211  -0.51256
  42   39233.7    254.9   0.040362230   0.33868   0.05271   0.44972  -0.36559
  43   39471.4    253.3   0.015078971   0.12577   0.34250  -0.00302   0.09194
  44   39530.5    253.0   0.054445504   0.45342  -0.02368   0.31596  -0.59416
  45   39716.5    251.8   0.018236168   0.15116  -0.25484  -0.29260  -0.02452
  46   39892.0    250.7   0.024150571   0.19930  -0.12179   0.27204   0.33236
  47   39973.1    250.2   0.072349843   0.59586   0.60130  -0.37809  -0.30223

FINAL SINGLE POINT ENERGY     -5690.874176024849

DIPOLE MOMENT
-------------
                                X             Y             Z
Electronic contribution:     50.54923     -66.21796     -21.59371
Nuclear contribution   :    -52.39095      66.40884      25.24658
                        -----------------------------------------
Total Dipole Moment    :     -1.84172       0.19088       3.65286
                        -----------------------------------------
Magnitude (a.u.)       :      4.09534
Magnitude (Debye)      :     10.40952

Rotational constants in cm-1:     0.001499     0.000203     0.000188
Rotational constants in MHz :    44.931769     6.077337     5.640631

                             ****ORCA TERMINATED NORMALLY****
TOTAL RUN TIME: 0 days 0 hours 11 minutes 21 seconds 661 msec
