                         Program Version 4.2.0 -  RELEASE  -
|  1> # ORCA input file
|  2> # SCF done       -174.336960739456          0.000577216113
|  3> ! CAM-B3LYP def2-SVP def2/J RIJCOSX Grid4 TightSCF
|  4> %maxcore 5000
|  5> %tddft
|  6>     Mode sTDDFT
|  7>     Ethresh 5.0
|  8>     maxcore 5000
|  9> end
| 10>
| 11> %pal
| 12>   nprocs 6
| 13>   end
| 14> * xyz 0 1
| 15>    C       -1.90024        -1.51994        -6.06901
| 16>    C       -3.12024        -1.05767        -6.45419
| 17>    S       -4.20010        -2.35910        -6.79885
| 18>    C       -2.98500        -3.55537        -6.41226
| 19>   Cl       -3.31298        -5.21374        -6.52056
| 20>    C       -1.82022        -2.94994        -6.04628
| 21>    C       -0.48497        -3.37056        -5.60788
| 22>    O       -0.09150        -4.49658        -5.40810
| 23>    C        0.25382        -2.09265        -5.36662
| 24>    C       -0.62113        -0.96989        -5.66793
| 25>    C       -0.31538         0.36478        -5.64972
| 26>    C       -1.27690         1.34110        -5.98636
| 27>    N       -2.04796         2.14719        -6.25403
| 28>    C        0.94369         0.91404        -5.33444
| 29>    N        1.94844         1.42080        -5.10792
| 30>    C        1.48603        -2.01378        -4.79169
| 31>    C        2.40269        -3.08191        -4.59081
| 32>    C        3.30704        -3.15413        -3.55244
| 33>    C        4.04138        -4.37322        -3.65530
| 34>    C        3.57215        -5.02479        -4.88657
| 35>    C        2.59312        -4.25390        -5.43241
| 36>    C        4.04972        -6.22131        -5.43261
| 37>    N        4.43403        -7.19883        -5.89867
| 38>    C        4.98018        -4.86548        -2.77519
| 39>    C        5.69580        -6.08476        -2.87445
| 40>    C        6.50569        -6.22413        -1.76461
| 41>    C        6.31685        -5.05480        -0.91690
| 42>    C        5.41601        -4.23321        -1.50982
| 43>    C        4.97930        -3.01125        -0.98449
| 44>    N        4.64223        -2.01582        -0.52160
| 45>    C        7.36398        -7.29871        -1.46539
| 46>    S        8.26185        -7.38527         0.03492
| 47>    C        8.98547        -8.91729        -0.35298
| 48>    C        8.54991        -9.33578        -1.61030
| 49>    C        7.64229        -8.42870        -2.22102
| 50>    S        7.15402        -9.03407        -3.76288
| 51>    C        8.18892       -10.42000        -3.45811
| 52>    N        8.82379       -10.44303        -2.34979
| 53>    C        9.85320        -9.56100         0.56100
| 54>    C       10.45978       -10.74131         0.29158
| 55>    C       11.32993       -11.45937         1.18238
| 56>    C       11.47270       -11.13513         2.53628
| 57>    C       12.31696       -11.85949         3.35256
| 58>    N       12.26111       -11.55041         4.76273
| 59>    O       12.19313       -10.38139         5.07236
| 60>    O       12.23767       -12.47995         5.53975
| 61>    C       13.10525       -12.91522         2.86000
| 62>    C       12.91623       -13.26184         1.51528
| 63>    C       12.05285       -12.56393         0.70391
| 64>    C       14.12976       -13.58505         3.62320
| 65>    C       14.88137       -13.00556         4.58318
| 66>    C       15.91435       -13.69303         5.27304
| 67>    C       16.82232       -13.15013         6.12491
| 68>    C       17.58259       -14.04762         7.05413
| 69>    O       17.68758       -15.24621         6.96520
| 70>    C       18.10278       -13.14265         8.08501
| 71>    C       18.78036       -13.24959         9.26283
| 72>    S       19.04092       -11.67000         9.96481
| 73>    C       18.24107       -10.88358         8.65329
| 74>    C       17.79625       -11.78491         7.73767
| 75>    C       17.11899       -11.76605         6.45396
| 76>    C       16.98772       -10.65453         5.66478
| 77>    C       17.37122        -9.37837         6.13182
| 78>    N       17.66786        -8.33486         6.50382
| 79>    C       16.57873       -10.65216         4.31581
| 80>    N       16.29352       -10.59974         3.20505
| 81>   Cl       19.33571       -14.65591        10.02533
| 82>    H       -3.46435        -0.04766        -6.55660
| 83>    H        1.81049        -1.05517        -4.40325
| 84>    H        3.41050        -2.43790        -2.76048
| 85>    H        2.07892        -4.44673        -6.35330
| 86>    H        5.60625        -6.78177        -3.68308
| 87>    H        6.82268        -4.89305         0.01729
| 88>    H        8.26189       -11.19830        -4.19251
| 89>    H       10.01369        -9.04553         1.49734
| 90>    H       10.29245       -11.18619        -0.68000
| 91>    H       10.89765       -10.33737         2.98056
| 92>    H       13.48962       -14.08104         1.10866
| 93>    H       11.93663       -12.85515        -0.32921
| 94>    H       14.36865       -14.59321         3.31034
| 95>    H       14.71055       -11.97523         4.85741
| 96>    H       15.94438       -14.77311         5.17949
| 97>    H       18.14731        -9.81574         8.65817
| 98> *
| 99>
|100>                          ****END OF INPUT****

CARTESIAN COORDINATES (ANGSTROEM)
---------------------------------
  C     -1.900240   -1.519940   -6.069010
  C     -3.120240   -1.057670   -6.454190
  S     -4.200100   -2.359100   -6.798850
  C     -2.985000   -3.555370   -6.412260
  Cl    -3.312980   -5.213740   -6.520560
  C     -1.820220   -2.949940   -6.046280
  C     -0.484970   -3.370560   -5.607880
  O     -0.091500   -4.496580   -5.408100
  C      0.253820   -2.092650   -5.366620
  C     -0.621130   -0.969890   -5.667930
  C     -0.315380    0.364780   -5.649720
  C     -1.276900    1.341100   -5.986360
  N     -2.047960    2.147190   -6.254030
  C      0.943690    0.914040   -5.334440
  N      1.948440    1.420800   -5.107920
  C      1.486030   -2.013780   -4.791690
  C      2.402690   -3.081910   -4.590810
  C      3.307040   -3.154130   -3.552440
  C      4.041380   -4.373220   -3.655300
  C      3.572150   -5.024790   -4.886570
  C      2.593120   -4.253900   -5.432410
  C      4.049720   -6.221310   -5.432610
  N      4.434030   -7.198830   -5.898670
  C      4.980180   -4.865480   -2.775190
  C      5.695800   -6.084760   -2.874450
  C      6.505690   -6.224130   -1.764610
  C      6.316850   -5.054800   -0.916900
  C      5.416010   -4.233210   -1.509820
  C      4.979300   -3.011250   -0.984490
  N      4.642230   -2.015820   -0.521600
  C      7.363980   -7.298710   -1.465390
  S      8.261850   -7.385270    0.034920
  C      8.985470   -8.917290   -0.352980
  C      8.549910   -9.335780   -1.610300
  C      7.642290   -8.428700   -2.221020
  S      7.154020   -9.034070   -3.762880
  C      8.188920  -10.420000   -3.458110
  N      8.823790  -10.443030   -2.349790
  C      9.853200   -9.561000    0.561000
  C     10.459780  -10.741310    0.291580
  C     11.329930  -11.459370    1.182380
  C     11.472700  -11.135130    2.536280
  C     12.316960  -11.859490    3.352560
  N     12.261110  -11.550410    4.762730
  O     12.193130  -10.381390    5.072360
  O     12.237670  -12.479950    5.539750
  C     13.105250  -12.915220    2.860000
  C     12.916230  -13.261840    1.515280
  C     12.052850  -12.563930    0.703910
  C     14.129760  -13.585050    3.623200
  C     14.881370  -13.005560    4.583180
  C     15.914350  -13.693030    5.273040
  C     16.822320  -13.150130    6.124910
  C     17.582590  -14.047620    7.054130
  O     17.687580  -15.246210    6.965200
  C     18.102780  -13.142650    8.085010
  C     18.780360  -13.249590    9.262830
  S     19.040920  -11.670000    9.964810
  C     18.241070  -10.883580    8.653290
  C     17.796250  -11.784910    7.737670
  C     17.118990  -11.766050    6.453960
  C     16.987720  -10.654530    5.664780
  C     17.371220   -9.378370    6.131820
  N     17.667860   -8.334860    6.503820
  C     16.578730  -10.652160    4.315810
  N     16.293520  -10.599740    3.205050
  Cl    19.335710  -14.655910   10.025330
  H     -3.464350   -0.047660   -6.556600
  H      1.810490   -1.055170   -4.403250
  H      3.410500   -2.437900   -2.760480
  H      2.078920   -4.446730   -6.353300
  H      5.606250   -6.781770   -3.683080
  H      6.822680   -4.893050    0.017290
  H      8.261890  -11.198300   -4.192510
  H     10.013690   -9.045530    1.497340
  H     10.292450  -11.186190   -0.680000
  H     10.897650  -10.337370    2.980560
  H     13.489620  -14.081040    1.108660
  H     11.936630  -12.855150   -0.329210
  H     14.368650  -14.593210    3.310340
  H     14.710550  -11.975230    4.857410
  H     15.944380  -14.773110    5.179490
  H     18.147310   -9.815740    8.658170

 Total Charge           Charge          ....    0
 Multiplicity           Mult            ....    1
 Number of Electrons    NEL             ....  496
 Basis Dimension        Dim             .... 1042

ORBITAL ENERGIES
----------------

  NO   OCC          E(Eh)            E(eV)
   0   2.0000    -101.620914     -2765.2457
   1   2.0000    -101.617319     -2765.1478
   2   2.0000     -88.997168     -2421.7361
   3   2.0000     -88.993264     -2421.6298
   4   2.0000     -88.991751     -2421.5887
   5   2.0000     -88.985483     -2421.4181
   6   2.0000     -19.255745      -523.9755
   7   2.0000     -19.254489      -523.9413
   8   2.0000     -19.228369      -523.2305
   9   2.0000     -19.219984      -523.0024
  10   2.0000     -14.659128      -398.8951
  11   2.0000     -14.439378      -392.9155
  12   2.0000     -14.423519      -392.4839
  13   2.0000     -14.423203      -392.4753
  14   2.0000     -14.421702      -392.4345
  15   2.0000     -14.421057      -392.4169
  16   2.0000     -14.418052      -392.3352
  17   2.0000     -14.407635      -392.0517
  18   2.0000     -10.384562      -282.5783
  19   2.0000     -10.380294      -282.4622
  20   2.0000     -10.376302      -282.3535
  21   2.0000     -10.376258      -282.3523
  22   2.0000     -10.360077      -281.9120
  23   2.0000     -10.352611      -281.7089
  24   2.0000     -10.352031      -281.6931
  25   2.0000     -10.351989      -281.6919
  26   2.0000     -10.351210      -281.6708
  27   2.0000     -10.345277      -281.5093
  28   2.0000     -10.339542      -281.3532
  29   2.0000     -10.336974      -281.2834
  30   2.0000     -10.333172      -281.1799
  31   2.0000     -10.332809      -281.1700
  32   2.0000     -10.331637      -281.1381
  33   2.0000     -10.331166      -281.1253
  34   2.0000     -10.329444      -281.0785
  35   2.0000     -10.329296      -281.0744
  36   2.0000     -10.328757      -281.0598
  37   2.0000     -10.325172      -280.9622
  38   2.0000     -10.325048      -280.9588
  39   2.0000     -10.324488      -280.9436
  40   2.0000     -10.323413      -280.9143
  41   2.0000     -10.323383      -280.9135
  42   2.0000     -10.322497      -280.8894
  43   2.0000     -10.322009      -280.8761
  44   2.0000     -10.321793      -280.8703
  45   2.0000     -10.320951      -280.8473
  46   2.0000     -10.319351      -280.8038
  47   2.0000     -10.316486      -280.7259
  48   2.0000     -10.314326      -280.6671
  49   2.0000     -10.313623      -280.6479
  50   2.0000     -10.313606      -280.6475
  51   2.0000     -10.312955      -280.6298
  52   2.0000     -10.311192      -280.5818
  53   2.0000     -10.311147      -280.5806
  54   2.0000     -10.310593      -280.5655
  55   2.0000     -10.308768      -280.5158
  56   2.0000     -10.308439      -280.5069
  57   2.0000     -10.307868      -280.4914
  58   2.0000     -10.306401      -280.4514
  59   2.0000     -10.306056      -280.4420
  60   2.0000     -10.304311      -280.3946
  61   2.0000     -10.304146      -280.3901
  62   2.0000     -10.302234      -280.3380
  63   2.0000     -10.302047      -280.3330
  64   2.0000     -10.300679      -280.2957
  65   2.0000     -10.300625      -280.2943
  66   2.0000     -10.287619      -279.9403
  67   2.0000      -9.575693      -260.5678
  68   2.0000      -9.572127      -260.4708
  69   2.0000      -8.092932      -220.2199
  70   2.0000      -8.089024      -220.1135
  71   2.0000      -8.086640      -220.0487
  72   2.0000      -8.080878      -219.8919
  73   2.0000      -7.346341      -199.9041
  74   2.0000      -7.342757      -199.8066
  75   2.0000      -7.335726      -199.6153
  76   2.0000      -7.335172      -199.6002
  77   2.0000      -7.332167      -199.5184
  78   2.0000      -7.331621      -199.5036
  79   2.0000      -6.062320      -164.9641
  80   2.0000      -6.058412      -164.8578
  81   2.0000      -6.057695      -164.8383
  82   2.0000      -6.055891      -164.7892
  83   2.0000      -6.055164      -164.7694
  84   2.0000      -6.053804      -164.7324
  85   2.0000      -6.051845      -164.6791
  86   2.0000      -6.051242      -164.6627
  87   2.0000      -6.050328      -164.6378
  88   2.0000      -6.048825      -164.5969
  89   2.0000      -6.046109      -164.5230
  90   2.0000      -6.042602      -164.4276
  91   2.0000      -1.336229       -36.3607
  92   2.0000      -1.154904       -31.4265
  93   2.0000      -1.145582       -31.1729
  94   2.0000      -1.137095       -30.9419
  95   2.0000      -1.093364       -29.7520
  96   2.0000      -1.042140       -28.3581
  97   2.0000      -1.038562       -28.2607
  98   2.0000      -1.025533       -27.9062
  99   2.0000      -1.020687       -27.7743
 100   2.0000      -1.018615       -27.7179
 101   2.0000      -1.008504       -27.4428
 102   2.0000      -1.004331       -27.3292
 103   2.0000      -1.002869       -27.2894
 104   2.0000      -1.001705       -27.2578
 105   2.0000      -0.999852       -27.2074
 106   2.0000      -0.992402       -27.0046
 107   2.0000      -0.989558       -26.9272
 108   2.0000      -0.989000       -26.9121
 109   2.0000      -0.983912       -26.7736
 110   2.0000      -0.958125       -26.0719
 111   2.0000      -0.956739       -26.0342
 112   2.0000      -0.945377       -25.7250
 113   2.0000      -0.931148       -25.3378
 114   2.0000      -0.918700       -24.9991
 115   2.0000      -0.915001       -24.8984
 116   2.0000      -0.907695       -24.6996
 117   2.0000      -0.902764       -24.5655
 118   2.0000      -0.900209       -24.4959
 119   2.0000      -0.887914       -24.1614
 120   2.0000      -0.873299       -23.7637
 121   2.0000      -0.862738       -23.4763
 122   2.0000      -0.850167       -23.1342
 123   2.0000      -0.848155       -23.0795
 124   2.0000      -0.844634       -22.9837
 125   2.0000      -0.836460       -22.7612
 126   2.0000      -0.833104       -22.6699
 127   2.0000      -0.818360       -22.2687
 128   2.0000      -0.805097       -21.9078
 129   2.0000      -0.798234       -21.7210
 130   2.0000      -0.783392       -21.3172
 131   2.0000      -0.770939       -20.9783
 132   2.0000      -0.760543       -20.6954
 133   2.0000      -0.758794       -20.6478
 134   2.0000      -0.747766       -20.3478
 135   2.0000      -0.727706       -19.8019
 136   2.0000      -0.723234       -19.6802
 137   2.0000      -0.721702       -19.6385
 138   2.0000      -0.712898       -19.3989
 139   2.0000      -0.707279       -19.2460
 140   2.0000      -0.697254       -18.9732
 141   2.0000      -0.695805       -18.9338
 142   2.0000      -0.685368       -18.6498
 143   2.0000      -0.680564       -18.5191
 144   2.0000      -0.677628       -18.4392
 145   2.0000      -0.676914       -18.4198
 146   2.0000      -0.671286       -18.2666
 147   2.0000      -0.656408       -17.8618
 148   2.0000      -0.650144       -17.6913
 149   2.0000      -0.645084       -17.5536
 150   2.0000      -0.638900       -17.3854
 151   2.0000      -0.638429       -17.3725
 152   2.0000      -0.632391       -17.2082
 153   2.0000      -0.622945       -16.9512
 154   2.0000      -0.620844       -16.8940
 155   2.0000      -0.618771       -16.8376
 156   2.0000      -0.610310       -16.6074
 157   2.0000      -0.607757       -16.5379
 158   2.0000      -0.602941       -16.4069
 159   2.0000      -0.602262       -16.3884
 160   2.0000      -0.590780       -16.0759
 161   2.0000      -0.583817       -15.8865
 162   2.0000      -0.577140       -15.7048
 163   2.0000      -0.566608       -15.4182
 164   2.0000      -0.559353       -15.2208
 165   2.0000      -0.557131       -15.1603
 166   2.0000      -0.555996       -15.1294
 167   2.0000      -0.554331       -15.0841
 168   2.0000      -0.550786       -14.9876
 169   2.0000      -0.549982       -14.9658
 170   2.0000      -0.549198       -14.9444
 171   2.0000      -0.543813       -14.7979
 172   2.0000      -0.543096       -14.7784
 173   2.0000      -0.538485       -14.6529
 174   2.0000      -0.536413       -14.5965
 175   2.0000      -0.533083       -14.5059
 176   2.0000      -0.531829       -14.4718
 177   2.0000      -0.529643       -14.4123
 178   2.0000      -0.526443       -14.3252
 179   2.0000      -0.524847       -14.2818
 180   2.0000      -0.521406       -14.1882
 181   2.0000      -0.517292       -14.0762
 182   2.0000      -0.514983       -14.0134
 183   2.0000      -0.508807       -13.8454
 184   2.0000      -0.506673       -13.7873
 185   2.0000      -0.505753       -13.7622
 186   2.0000      -0.504756       -13.7351
 187   2.0000      -0.501103       -13.6357
 188   2.0000      -0.499102       -13.5812
 189   2.0000      -0.495453       -13.4819
 190   2.0000      -0.491962       -13.3870
 191   2.0000      -0.490578       -13.3493
 192   2.0000      -0.488724       -13.2988
 193   2.0000      -0.487717       -13.2714
 194   2.0000      -0.480887       -13.0856
 195   2.0000      -0.478274       -13.0145
 196   2.0000      -0.474495       -12.9117
 197   2.0000      -0.470894       -12.8137
 198   2.0000      -0.466885       -12.7046
 199   2.0000      -0.458988       -12.4897
 200   2.0000      -0.458127       -12.4663
 201   2.0000      -0.457963       -12.4618
 202   2.0000      -0.455389       -12.3918
 203   2.0000      -0.453861       -12.3502
 204   2.0000      -0.453360       -12.3366
 205   2.0000      -0.450856       -12.2684
 206   2.0000      -0.450078       -12.2473
 207   2.0000      -0.448137       -12.1944
 208   2.0000      -0.447374       -12.1737
 209   2.0000      -0.447155       -12.1677
 210   2.0000      -0.445183       -12.1140
 211   2.0000      -0.441472       -12.0131
 212   2.0000      -0.441255       -12.0072
 213   2.0000      -0.438701       -11.9377
 214   2.0000      -0.436953       -11.8901
 215   2.0000      -0.435989       -11.8639
 216   2.0000      -0.433577       -11.7982
 217   2.0000      -0.432959       -11.7814
 218   2.0000      -0.429811       -11.6958
 219   2.0000      -0.423608       -11.5270
 220   2.0000      -0.421639       -11.4734
 221   2.0000      -0.420115       -11.4319
 222   2.0000      -0.414836       -11.2883
 223   2.0000      -0.411661       -11.2019
 224   2.0000      -0.406958       -11.0739
 225   2.0000      -0.405808       -11.0426
 226   2.0000      -0.403234       -10.9726
 227   2.0000      -0.401720       -10.9314
 228   2.0000      -0.397247       -10.8096
 229   2.0000      -0.392987       -10.6937
 230   2.0000      -0.386277       -10.5111
 231   2.0000      -0.382483       -10.4079
 232   2.0000      -0.374752       -10.1975
 233   2.0000      -0.373740       -10.1700
 234   2.0000      -0.358247        -9.7484
 235   2.0000      -0.354041        -9.6340
 236   2.0000      -0.350921        -9.5490
 237   2.0000      -0.344597        -9.3770
 238   2.0000      -0.341392        -9.2897
 239   2.0000      -0.338229        -9.2037
 240   2.0000      -0.335971        -9.1422
 241   2.0000      -0.329410        -8.9637
 242   2.0000      -0.326730        -8.8908
 243   2.0000      -0.317573        -8.6416
 244   2.0000      -0.315210        -8.5773
 245   2.0000      -0.301646        -8.2082
 246   2.0000      -0.295678        -8.0458
 247   2.0000      -0.257916        -7.0183
 248   0.0000      -0.136777        -3.7219
 249   0.0000      -0.103399        -2.8136
 250   0.0000      -0.085744        -2.3332
 251   0.0000      -0.068628        -1.8675
 252   0.0000      -0.055232        -1.5029

MULLIKEN ATOMIC CHARGES
-----------------------
   0 C :    0.035051
   1 C :   -0.130448
   2 S :    0.190147
   3 C :   -0.170147
   4 Cl:    0.002090
   5 C :    0.073189
   6 C :    0.141950
   7 O :   -0.130105
   8 C :   -0.100945
   9 C :    0.290745
  10 C :   -0.321826
  11 C :   -0.193743
  12 N :    0.157340
  13 C :   -0.191352
  14 N :    0.169837
  15 C :   -0.031231
  16 C :    0.079687
  17 C :   -0.074391
  18 C :    0.096954
  19 C :   -0.133038
  20 C :    0.074226
  21 C :   -0.166829
  22 N :    0.122503
  23 C :    0.127243
  24 C :   -0.159002
  25 C :    0.135328
  26 C :   -0.023432
  27 C :   -0.086445
  28 C :   -0.179448
  29 N :    0.148699
  30 C :   -0.185301
  31 S :    0.171958
  32 C :   -0.138325
  33 C :    0.074680
  34 C :   -0.010262
  35 S :    0.143856
  36 C :    0.030367
  37 N :   -0.048280
  38 C :    0.049055
  39 C :    0.000536
  40 C :    0.108793
  41 C :   -0.023826
  42 C :    0.116539
  43 N :    0.218250
  44 O :   -0.227333
  45 O :   -0.218190
  46 C :    0.093092
  47 C :   -0.010433
  48 C :    0.009965
  49 C :    0.006281
  50 C :    0.032826
  51 C :    0.011670
  52 C :   -0.114223
  53 C :    0.138499
  54 O :   -0.127103
  55 C :    0.083761
  56 C :   -0.170468
  57 S :    0.186276
  58 C :   -0.127053
  59 C :    0.019346
  60 C :    0.273216
  61 C :   -0.314430
  62 C :   -0.184662
  63 N :    0.155418
  64 C :   -0.214309
  65 N :    0.174400
  66 Cl:    0.000363
  67 H :    0.055149
  68 H :    0.038177
  69 H :    0.013597
  70 H :    0.000314
  71 H :   -0.002259
  72 H :    0.009085
  73 H :    0.054627
  74 H :   -0.016484
  75 H :    0.003743
  76 H :   -0.002778
  77 H :   -0.007621
  78 H :   -0.003304
  79 H :    0.007917
  80 H :    0.035019
  81 H :    0.021484
  82 H :    0.055779
Sum of atomic charges:   -0.0000000

LOEWDIN ATOMIC CHARGES
----------------------
   0 C :   -0.058924
   1 C :   -0.148121
   2 S :    0.478280
   3 C :   -0.271320
   4 Cl:    0.193747
   5 C :   -0.117898
   6 C :    0.081515
   7 O :   -0.123623
   8 C :   -0.083103
   9 C :    0.071794
  10 C :   -0.130742
  11 C :   -0.015256
  12 N :   -0.047890
  13 C :   -0.025774
  14 N :   -0.038773
  15 C :    0.076866
  16 C :   -0.035334
  17 C :    0.021599
  18 C :    0.020801
  19 C :   -0.096781
  20 C :    0.074424
  21 C :   -0.025427
  22 N :   -0.074540
  23 C :    0.050003
  24 C :   -0.054871
  25 C :   -0.018355
  26 C :    0.046291
  27 C :   -0.067464
  28 C :   -0.032141
  29 N :   -0.051833
  30 C :   -0.194143
  31 S :    0.471993
  32 C :   -0.153459
  33 C :   -0.064606
  34 C :   -0.185734
  35 S :    0.432843
  36 C :   -0.086178
  37 N :   -0.084284
  38 C :   -0.036732
  39 C :    0.008547
  40 C :   -0.016930
  41 C :    0.015406
  42 C :   -0.011035
  43 N :    0.278882
  44 O :   -0.195411
  45 O :   -0.190409
  46 C :   -0.011423
  47 C :    0.004373
  48 C :    0.008543
  49 C :    0.029442
  50 C :   -0.014026
  51 C :    0.070536
  52 C :   -0.081230
  53 C :    0.080443
  54 O :   -0.131871
  55 C :   -0.117916
  56 C :   -0.272353
  57 S :    0.475524
  58 C :   -0.150697
  59 C :   -0.056808
  60 C :    0.070935
  61 C :   -0.132730
  62 C :   -0.015315
  63 N :   -0.047117
  64 C :   -0.026159
  65 N :   -0.045549
  66 Cl:    0.192236
  67 H :    0.038313
  68 H :    0.052927
  69 H :    0.039133
  70 H :    0.036595
  71 H :    0.024700
  72 H :    0.034942
  73 H :    0.025833
  74 H :    0.030432
  75 H :    0.035172
  76 H :    0.038067
  77 H :    0.037477
  78 H :    0.037430
  79 H :    0.038534
  80 H :    0.030355
  81 H :    0.047171
  82 H :    0.038187

  Mayer bond orders larger than 0.100000
B(  0-C ,  1-C ) :   1.5450 B(  0-C ,  5-C ) :   1.2214 B(  0-C ,  9-C ) :   0.9988
B(  1-C ,  2-S ) :   1.1622 B(  1-C , 67-H ) :   0.9548 B(  2-S ,  3-C ) :   1.1526
B(  3-C ,  4-Cl) :   1.1304 B(  3-C ,  5-C ) :   1.4764 B(  5-C ,  6-C ) :   0.9513
B(  6-C ,  7-O ) :   2.2276 B(  6-C ,  8-C ) :   0.9355 B(  8-C ,  9-C ) :   1.0540
B(  8-C , 15-C ) :   1.6296 B(  9-C , 10-C ) :   1.6675 B( 10-C , 11-C ) :   1.1454
B( 10-C , 13-C ) :   1.1342 B( 11-C , 12-N ) :   2.9904 B( 13-C , 14-N ) :   2.9855
B( 15-C , 16-C ) :   1.0989 B( 15-C , 68-H ) :   0.9492 B( 16-C , 17-C ) :   1.5025
B( 16-C , 20-C ) :   1.0683 B( 17-C , 18-C ) :   1.1131 B( 17-C , 69-H ) :   1.0061
B( 18-C , 19-C ) :   1.1272 B( 18-C , 23-C ) :   1.3850 B( 19-C , 20-C ) :   1.6586
B( 19-C , 21-C ) :   1.0938 B( 20-C , 70-H ) :   1.0077 B( 21-C , 22-N ) :   2.9645
B( 23-C , 24-C ) :   1.1745 B( 23-C , 27-C ) :   1.0916 B( 24-C , 25-C ) :   1.5116
B( 24-C , 71-H ) :   0.9942 B( 25-C , 26-C ) :   1.0230 B( 25-C , 30-C ) :   1.1697
B( 26-C , 27-C ) :   1.7069 B( 26-C , 72-H ) :   1.0139 B( 27-C , 28-C ) :   1.0816
B( 28-C , 29-N ) :   2.9701 B( 30-C , 31-S ) :   1.1095 B( 30-C , 32-C ) :   0.1143
B( 30-C , 34-C ) :   1.4808 B( 31-S , 32-C ) :   1.1466 B( 32-C , 33-C ) :   1.3858
B( 32-C , 38-C ) :   1.1473 B( 33-C , 34-C ) :   1.2697 B( 33-C , 37-N ) :   1.3037
B( 34-C , 35-S ) :   1.0822 B( 35-S , 36-C ) :   1.0993 B( 35-S , 37-N ) :   0.1014
B( 36-C , 37-N ) :   1.7649 B( 36-C , 73-H ) :   0.9636 B( 38-C , 39-C ) :   1.6628
B( 38-C , 74-H ) :   0.9509 B( 39-C , 40-C ) :   1.0738 B( 39-C , 75-H ) :   0.9687
B( 40-C , 41-C ) :   1.2850 B( 40-C , 48-C ) :   1.3264 B( 41-C , 42-C ) :   1.4311
B( 41-C , 76-H ) :   0.9868 B( 42-C , 43-N ) :   0.8539 B( 42-C , 46-C ) :   1.3370
B( 43-N , 44-O ) :   1.5317 B( 43-N , 45-O ) :   1.5486 B( 44-O , 45-O ) :   0.2743
B( 46-C , 47-C ) :   1.3379 B( 46-C , 49-C ) :   1.0585 B( 47-C , 48-C ) :   1.3864
B( 47-C , 77-H ) :   0.9932 B( 48-C , 78-H ) :   1.0010 B( 49-C , 50-C ) :   1.7051
B( 49-C , 79-H ) :   0.9696 B( 50-C , 51-C ) :   1.1353 B( 50-C , 80-H ) :   0.9437
B( 51-C , 52-C ) :   1.6503 B( 51-C , 81-H ) :   0.9584 B( 52-C , 53-C ) :   0.9331
B( 52-C , 60-C ) :   1.0321 B( 53-C , 54-O ) :   2.2796 B( 53-C , 55-C ) :   0.9280
B( 55-C , 56-C ) :   1.4858 B( 55-C , 59-C ) :   1.2201 B( 56-C , 57-S ) :   1.1514
B( 56-C , 66-Cl) :   1.1288 B( 57-S , 58-C ) :   1.1601 B( 58-C , 59-C ) :   1.5523
B( 58-C , 82-H ) :   0.9550 B( 59-C , 60-C ) :   1.0138 B( 60-C , 61-C ) :   1.6626
B( 61-C , 62-C ) :   1.1341 B( 61-C , 64-C ) :   1.1513 B( 62-C , 63-N ) :   2.9994
B( 64-C , 65-N ) :   3.0128

-----------------------------------------------------------------------------
         ABSORPTION SPECTRUM VIA TRANSITION ELECTRIC DIPOLE MOMENTS
-----------------------------------------------------------------------------
State   Energy  Wavelength   fosc         T2         TX        TY        TZ
        (cm-1)    (nm)                  (au**2)     (au)      (au)      (au)
-----------------------------------------------------------------------------
   0   11784.8    848.6   1.103123067  30.81610  -3.91990   2.98084  -2.56224
   1   17773.4    562.6   0.008155541   0.15106   0.31046  -0.04445   0.22957
   2   20627.7    484.8   1.118537344  17.85150  -3.19444   1.35608  -2.41001
   3   22142.1    451.6   0.117051547   1.74034  -0.62346   1.15507  -0.13209
   4   23609.8    423.6   0.118321302   1.64986   0.74326  -0.94736   0.44713
   5   24967.2    400.5   0.053921875   0.71100  -0.76152   0.35571  -0.06752
   6   25678.6    389.4   0.015267099   0.19573   0.10190  -0.39095   0.18030
   7   26393.5    378.9   0.208757360   2.60388   0.11273  -1.60959  -0.01966
   8   26736.8    374.0   0.191583944   2.35899  -0.79533   1.14854  -0.63819
   9   27455.2    364.2   0.099111955   1.18844   0.30367  -0.61658   0.84620
  10   27896.0    358.5   0.054737362   0.64598  -0.71841   0.31793  -0.16964
  11   28489.7    351.0   0.016007368   0.18497  -0.05613  -0.22403  -0.36281
  12   28701.0    348.4   0.078085781   0.89568  -0.69623  -0.17189  -0.61757
  13   29032.8    344.4   0.249943350   2.83418  -1.32984   0.45150  -0.92836
  14   29158.2    343.0   0.073895596   0.83432  -0.66857   0.17819  -0.59631
  15   29449.9    339.6   0.079615464   0.89000  -0.39596  -0.72294  -0.45888
  16   30515.1    327.7   0.041195308   0.44443  -0.49210   0.11029  -0.43602
  17   31303.9    319.4   0.126988572   1.33549  -0.85013  -0.60786  -0.49324
  18   32259.7    310.0   0.087115416   0.88902  -0.70631   0.17192  -0.60050
  19   32725.5    305.6   0.013605758   0.13687  -0.35921   0.08458  -0.02617
  20   33647.9    297.2   0.124403271   1.21716   0.45539  -0.69170   0.72893
  21   33925.5    294.8   0.081251389   0.78846   0.86419   0.16205   0.12399
  22   34016.8    294.0   0.126704467   1.22623   1.03129  -0.00848   0.40324
  23   34504.7    289.8   0.268438460   2.56119  -0.64606  -0.12590  -1.45875
  24   34662.9    288.5   0.011592082   0.11010  -0.09755  -0.29863   0.10676
  25   34866.3    286.8   0.104560184   0.98727  -0.84024  -0.35599  -0.39310
  26   35022.9    285.5   0.054505642   0.51235   0.04474  -0.54565   0.46110
  27   35130.5    284.7   0.003439818   0.03223   0.00901  -0.17916  -0.00756
  28   35196.8    284.1   0.062911582   0.58844   0.37896  -0.30123   0.59505
  29   35956.7    278.1   0.025772424   0.23597   0.38716   0.24576  -0.16023
  30   36058.7    277.3   0.006939362   0.06336  -0.05577  -0.10177  -0.22336
  31   36187.2    276.3   0.044867548   0.40818   0.33990   0.26741   0.47025
  32   36508.1    273.9   0.068891737   0.62123   0.17647  -0.64464   0.41777
  33   36696.9    272.5   0.003908310   0.03506  -0.05128  -0.17680   0.03424
  34   36891.2    271.1   0.107404984   0.95847   0.40750   0.16815   0.87415
  35   37079.0    269.7   0.006563304   0.05827   0.23651   0.02381  -0.04204
  36   37286.3    268.2   0.000650489   0.00574   0.06312   0.01293   0.03990
  37   37837.2    264.3   0.041026123   0.35696  -0.54226   0.22377  -0.11330
  38   37944.3    263.5   0.009913394   0.08601   0.14774  -0.17968   0.17860
  39   38314.0    261.0   0.205336214   1.76435  -0.61386   0.53539  -1.04922
  40   38468.8    260.0   0.234536165   2.00714   0.47298   0.84551   1.03370
  41   38535.2    259.5   0.403904139   3.45061   0.64052   1.68469  -0.44964
  42   38603.7    259.0   0.300172018   2.55986  -1.22682   0.53082  -0.87921
  43   39389.3    253.9   0.030730506   0.25684   0.44962  -0.07384  -0.22187
  44   39451.3    253.5   0.019374615   0.16168   0.24487   0.21168  -0.23855
  45   39625.5    252.4   0.080932572   0.67239   0.07042  -0.75768  -0.30553
  46   39980.5    250.1   0.073722420   0.60705  -0.00851  -0.77667   0.06140
  47   40327.3    248.0   0.041797961   0.34122  -0.40119  -0.02857  -0.42361

FINAL SINGLE POINT ENERGY     -5124.538591222175

DIPOLE MOMENT
-------------
                                X             Y             Z
Electronic contribution:    -13.31873       5.95761       5.98425
Nuclear contribution   :     12.96083      -9.12857      -6.32364
                        -----------------------------------------
Total Dipole Moment    :     -0.35790      -3.17096      -0.33939
                        -----------------------------------------
Magnitude (a.u.)       :      3.20909
Magnitude (Debye)      :      8.15686

Rotational constants in cm-1:     0.002933     0.000171     0.000165
Rotational constants in MHz :    87.932230     5.112598     4.957515

                             ****ORCA TERMINATED NORMALLY****
TOTAL RUN TIME: 0 days 0 hours 8 minutes 12 seconds 23 msec
