                         Program Version 4.2.0 -  RELEASE  -
|  1> # ORCA input file
|  2> # SCF done       -179.494345185694          0.000654584983
|  3> ! CAM-B3LYP def2-SVP def2/J RIJCOSX Grid4 TightSCF
|  4> %maxcore 5000
|  5> %tddft
|  6>     Mode sTDDFT
|  7>     Ethresh 5.0
|  8>     maxcore 5000
|  9> end
| 10>
| 11> %pal
| 12>   nprocs 6
| 13>   end
| 14> * xyz 0 1
| 15>    C        1.88615         1.84550        -0.91480
| 16>    C        1.83178         3.17129        -1.24006
| 17>    C        2.13255         3.67555        -2.52253
| 18>    N        2.36012         4.13130        -3.55098
| 19>    C        1.58006         4.19848        -0.30541
| 20>    N        1.46372         5.07134         0.43047
| 21>    C        2.42148         0.78300        -1.75712
| 22>    C        2.77223        -0.32451        -0.92856
| 23>    C        3.34697        -1.45157        -1.44371
| 24>    C        3.59378        -1.52649        -2.83256
| 25>    C        3.22846        -0.43067        -3.66797
| 26>    C        2.63806         0.72499        -3.10788
| 27>    C        3.47539        -0.52124        -5.05310
| 28>    C        4.05888        -1.63684        -5.58873
| 29>    C        4.41980        -2.71429        -4.76549
| 30>    C        4.19204        -2.66048        -3.41729
| 31>    C        2.40684        -0.02944         0.46649
| 32>    O        2.59597        -0.70041         1.45304
| 33>    C        1.67545         1.27480         0.40478
| 34>    C        0.87317         1.64424         1.42887
| 35>    C       -0.15153         2.63111         1.39340
| 36>    S       -0.80371         3.36446         2.84787
| 37>    C       -1.86997         4.24586         1.76903
| 38>    N       -1.68689         3.92404         0.51376
| 39>    N       -0.74883         3.05287         0.31065
| 40>    C       -2.80937         5.20075         2.23801
| 41>    C       -3.59263         5.90227         1.38141
| 42>    C       -4.53182         6.87133         1.81504
| 43>    N       -5.34465         7.58057         0.96083
| 44>    C       -5.42611         7.43166        -0.47226
| 45>    C       -6.23311         6.19826        -0.86962
| 46>    C       -6.17514         8.47967         1.64789
| 47>    O       -6.97999         9.20581         1.09709
| 48>    C       -5.82018         8.30438         3.03918
| 49>    C       -4.81307         7.30751         3.10747
| 50>    C       -4.46311         7.12424         4.49821
| 51>    O       -3.67484         6.38317         5.05110
| 52>    N       -5.28834         8.03109         5.18636
| 53>    C       -5.19545         8.18174         6.61837
| 54>    C       -4.37481         9.40852         7.00907
| 55>    C       -6.09819         8.74265         4.33175
| 56>    C       -7.03867         9.71597         4.76610
| 57>    C       -7.82754        10.39429         3.90100
| 58>    C       -8.81852        11.36610         4.26801
| 59>    C       -8.95686        11.95060         5.53704
| 60>    N       -9.89959        12.82027         5.82016
| 61>    C      -10.72581        13.17875         4.83662
| 62>    N      -10.70107        12.67746         3.60177
| 63>    C       -9.77237        11.79601         3.32564
| 64>    C      -11.77003        14.13139         5.17535
| 65>    C      -12.21649        15.09988         4.35177
| 66>    C      -13.37514        15.96689         4.55223
| 67>    C      -14.17080        16.02363         5.66286
| 68>    C      -15.28586        16.88054         5.79516
| 69>    N      -16.20005        17.55216         5.96924
| 70>    C      -14.00087        15.25968         6.83834
| 71>    N      -13.94353        14.68019         7.82745
| 72>    C      -13.55013        16.75376         3.33905
| 73>    C      -12.47872        16.47006         2.44387
| 74>    C      -11.56096        15.49784         3.06157
| 75>    O      -10.46743        15.17668         2.66483
| 76>    C      -12.38403        17.06747         1.21962
| 77>    C      -13.38192        17.98336         0.81958
| 78>    C      -14.45848        18.27202         1.70816
| 79>    C      -14.52557        17.64602         2.97260
| 80>    C      -15.44885        19.18955         1.29980
| 81>    C      -15.38179        19.79150         0.07323
| 82>    C      -14.32226        19.50522        -0.80139
| 83>    C      -13.34382        18.62097        -0.43625
| 84>    H        3.61221        -2.27592        -0.79850
| 85>    H        2.36161         1.53669        -3.76251
| 86>    H        3.19871         0.31203        -5.68205
| 87>    H        4.24661        -1.69532        -6.65035
| 88>    H        4.87921        -3.58682        -5.20523
| 89>    H        4.46784        -3.48683        -2.77869
| 90>    H        0.97207         1.08324         2.35117
| 91>    H       -2.87174         5.35624         3.30592
| 92>    H       -3.48877         5.71543         0.32270
| 93>    H       -4.41818         7.38916        -0.89326
| 94>    H       -5.92603         8.33192        -0.84069
| 95>    H       -5.77302         5.29067        -0.48551
| 96>    H       -6.28931         6.13025        -1.95235
| 97>    H       -7.24290         6.27116        -0.47287
| 98>    H       -4.69937         7.27839         6.98445
| 99>    H       -6.19979         8.22911         7.04879
|100>    H       -3.36525         9.31922         6.61572
|101>    H       -4.32020         9.48506         8.09148
|102>    H       -4.81921        10.31970         6.61438
|103>    H       -7.11978         9.88622         5.82983
|104>    H       -7.74372        10.18980         2.84115
|105>    H       -8.28031        11.72157         6.35066
|106>    H       -9.77825        11.39023         2.32179
|107>    H      -12.18653        14.00196         6.16507
|108>    H      -11.55954        16.83660         0.56164
|109>    H      -15.35245        17.88722         3.62140
|110>    H      -16.26227        19.40642         1.97653
|111>    H      -16.14524        20.49171        -0.23096
|112>    H      -14.28575        19.98939        -1.76578
|113>    H      -12.52567        18.39723        -1.10500
|114> *
|115>
|116>                          ****END OF INPUT****

CARTESIAN COORDINATES (ANGSTROEM)
---------------------------------
  C      1.886150    1.845500   -0.914800
  C      1.831780    3.171290   -1.240060
  C      2.132550    3.675550   -2.522530
  N      2.360120    4.131300   -3.550980
  C      1.580060    4.198480   -0.305410
  N      1.463720    5.071340    0.430470
  C      2.421480    0.783000   -1.757120
  C      2.772230   -0.324510   -0.928560
  C      3.346970   -1.451570   -1.443710
  C      3.593780   -1.526490   -2.832560
  C      3.228460   -0.430670   -3.667970
  C      2.638060    0.724990   -3.107880
  C      3.475390   -0.521240   -5.053100
  C      4.058880   -1.636840   -5.588730
  C      4.419800   -2.714290   -4.765490
  C      4.192040   -2.660480   -3.417290
  C      2.406840   -0.029440    0.466490
  O      2.595970   -0.700410    1.453040
  C      1.675450    1.274800    0.404780
  C      0.873170    1.644240    1.428870
  C     -0.151530    2.631110    1.393400
  S     -0.803710    3.364460    2.847870
  C     -1.869970    4.245860    1.769030
  N     -1.686890    3.924040    0.513760
  N     -0.748830    3.052870    0.310650
  C     -2.809370    5.200750    2.238010
  C     -3.592630    5.902270    1.381410
  C     -4.531820    6.871330    1.815040
  N     -5.344650    7.580570    0.960830
  C     -5.426110    7.431660   -0.472260
  C     -6.233110    6.198260   -0.869620
  C     -6.175140    8.479670    1.647890
  O     -6.979990    9.205810    1.097090
  C     -5.820180    8.304380    3.039180
  C     -4.813070    7.307510    3.107470
  C     -4.463110    7.124240    4.498210
  O     -3.674840    6.383170    5.051100
  N     -5.288340    8.031090    5.186360
  C     -5.195450    8.181740    6.618370
  C     -4.374810    9.408520    7.009070
  C     -6.098190    8.742650    4.331750
  C     -7.038670    9.715970    4.766100
  C     -7.827540   10.394290    3.901000
  C     -8.818520   11.366100    4.268010
  C     -8.956860   11.950600    5.537040
  N     -9.899590   12.820270    5.820160
  C    -10.725810   13.178750    4.836620
  N    -10.701070   12.677460    3.601770
  C     -9.772370   11.796010    3.325640
  C    -11.770030   14.131390    5.175350
  C    -12.216490   15.099880    4.351770
  C    -13.375140   15.966890    4.552230
  C    -14.170800   16.023630    5.662860
  C    -15.285860   16.880540    5.795160
  N    -16.200050   17.552160    5.969240
  C    -14.000870   15.259680    6.838340
  N    -13.943530   14.680190    7.827450
  C    -13.550130   16.753760    3.339050
  C    -12.478720   16.470060    2.443870
  C    -11.560960   15.497840    3.061570
  O    -10.467430   15.176680    2.664830
  C    -12.384030   17.067470    1.219620
  C    -13.381920   17.983360    0.819580
  C    -14.458480   18.272020    1.708160
  C    -14.525570   17.646020    2.972600
  C    -15.448850   19.189550    1.299800
  C    -15.381790   19.791500    0.073230
  C    -14.322260   19.505220   -0.801390
  C    -13.343820   18.620970   -0.436250
  H      3.612210   -2.275920   -0.798500
  H      2.361610    1.536690   -3.762510
  H      3.198710    0.312030   -5.682050
  H      4.246610   -1.695320   -6.650350
  H      4.879210   -3.586820   -5.205230
  H      4.467840   -3.486830   -2.778690
  H      0.972070    1.083240    2.351170
  H     -2.871740    5.356240    3.305920
  H     -3.488770    5.715430    0.322700
  H     -4.418180    7.389160   -0.893260
  H     -5.926030    8.331920   -0.840690
  H     -5.773020    5.290670   -0.485510
  H     -6.289310    6.130250   -1.952350
  H     -7.242900    6.271160   -0.472870
  H     -4.699370    7.278390    6.984450
  H     -6.199790    8.229110    7.048790
  H     -3.365250    9.319220    6.615720
  H     -4.320200    9.485060    8.091480
  H     -4.819210   10.319700    6.614380
  H     -7.119780    9.886220    5.829830
  H     -7.743720   10.189800    2.841150
  H     -8.280310   11.721570    6.350660
  H     -9.778250   11.390230    2.321790
  H    -12.186530   14.001960    6.165070
  H    -11.559540   16.836600    0.561640
  H    -15.352450   17.887220    3.621400
  H    -16.262270   19.406420    1.976530
  H    -16.145240   20.491710   -0.230960
  H    -14.285750   19.989390   -1.765780
  H    -12.525670   18.397230   -1.105000

 Total Charge           Charge          ....    0
 Multiplicity           Mult            ....    1
 Number of Electrons    NEL             ....  472
 Basis Dimension        Dim             .... 1120

ORBITAL ENERGIES
----------------

  NO   OCC          E(Eh)            E(eV)
   0   2.0000     -88.982934     -2421.3487
   1   2.0000     -19.220284      -523.0105
   2   2.0000     -19.214233      -522.8459
   3   2.0000     -19.199684      -522.4500
   4   2.0000     -19.195102      -522.3253
   5   2.0000     -14.460418      -393.4880
   6   2.0000     -14.457416      -393.4063
   7   2.0000     -14.451753      -393.2522
   8   2.0000     -14.445619      -393.0853
   9   2.0000     -14.422604      -392.4590
  10   2.0000     -14.418366      -392.3437
  11   2.0000     -14.418307      -392.3421
  12   2.0000     -14.417959      -392.3326
  13   2.0000     -14.416249      -392.2861
  14   2.0000     -14.412659      -392.1884
  15   2.0000     -10.381254      -282.4883
  16   2.0000     -10.378082      -282.4020
  17   2.0000     -10.370977      -282.2086
  18   2.0000     -10.365705      -282.0652
  19   2.0000     -10.354150      -281.7507
  20   2.0000     -10.350920      -281.6629
  21   2.0000     -10.350693      -281.6567
  22   2.0000     -10.346979      -281.5556
  23   2.0000     -10.346716      -281.5485
  24   2.0000     -10.344795      -281.4962
  25   2.0000     -10.343453      -281.4597
  26   2.0000     -10.342605      -281.4366
  27   2.0000     -10.340211      -281.3714
  28   2.0000     -10.332211      -281.1537
  29   2.0000     -10.327478      -281.0250
  30   2.0000     -10.325009      -280.9578
  31   2.0000     -10.320253      -280.8284
  32   2.0000     -10.320186      -280.8265
  33   2.0000     -10.317941      -280.7654
  34   2.0000     -10.315219      -280.6914
  35   2.0000     -10.314574      -280.6738
  36   2.0000     -10.311706      -280.5958
  37   2.0000     -10.309434      -280.5340
  38   2.0000     -10.309206      -280.5277
  39   2.0000     -10.305658      -280.4312
  40   2.0000     -10.305281      -280.4210
  41   2.0000     -10.304581      -280.4019
  42   2.0000     -10.303989      -280.3858
  43   2.0000     -10.300538      -280.2919
  44   2.0000     -10.300506      -280.2910
  45   2.0000     -10.299898      -280.2745
  46   2.0000     -10.299606      -280.2665
  47   2.0000     -10.299517      -280.2641
  48   2.0000     -10.299464      -280.2627
  49   2.0000     -10.299046      -280.2513
  50   2.0000     -10.298879      -280.2467
  51   2.0000     -10.298633      -280.2400
  52   2.0000     -10.298203      -280.2283
  53   2.0000     -10.297374      -280.2058
  54   2.0000     -10.296736      -280.1884
  55   2.0000     -10.292001      -280.0596
  56   2.0000     -10.288984      -279.9775
  57   2.0000     -10.287871      -279.9472
  58   2.0000     -10.287571      -279.9390
  59   2.0000     -10.287460      -279.9360
  60   2.0000     -10.287189      -279.9286
  61   2.0000     -10.286867      -279.9199
  62   2.0000     -10.286709      -279.9156
  63   2.0000     -10.286434      -279.9081
  64   2.0000     -10.286286      -279.9041
  65   2.0000     -10.269382      -279.4441
  66   2.0000     -10.268268      -279.4138
  67   2.0000     -10.266480      -279.3651
  68   2.0000     -10.264091      -279.3001
  69   2.0000      -8.079066      -219.8426
  70   2.0000      -6.047630      -164.5644
  71   2.0000      -6.044256      -164.4726
  72   2.0000      -6.041651      -164.4017
  73   2.0000      -1.153470       -31.3875
  74   2.0000      -1.140160       -31.0253
  75   2.0000      -1.135462       -30.8975
  76   2.0000      -1.132638       -30.8206
  77   2.0000      -1.130455       -30.7612
  78   2.0000      -1.093659       -29.7600
  79   2.0000      -1.069988       -29.1159
  80   2.0000      -1.061031       -28.8721
  81   2.0000      -1.020191       -27.7608
  82   2.0000      -1.018612       -27.7178
  83   2.0000      -0.999612       -27.2008
  84   2.0000      -0.999204       -27.1897
  85   2.0000      -0.996198       -27.1079
  86   2.0000      -0.992944       -27.0194
  87   2.0000      -0.988208       -26.8905
  88   2.0000      -0.974736       -26.5239
  89   2.0000      -0.972395       -26.4602
  90   2.0000      -0.954416       -25.9710
  91   2.0000      -0.941032       -25.6068
  92   2.0000      -0.936947       -25.4956
  93   2.0000      -0.931383       -25.3442
  94   2.0000      -0.924733       -25.1633
  95   2.0000      -0.921488       -25.0750
  96   2.0000      -0.906125       -24.6569
  97   2.0000      -0.898085       -24.4381
  98   2.0000      -0.892171       -24.2772
  99   2.0000      -0.885020       -24.0826
 100   2.0000      -0.882501       -24.0141
 101   2.0000      -0.881512       -23.9872
 102   2.0000      -0.874174       -23.7875
 103   2.0000      -0.859282       -23.3823
 104   2.0000      -0.858058       -23.3489
 105   2.0000      -0.829749       -22.5786
 106   2.0000      -0.829125       -22.5616
 107   2.0000      -0.824505       -22.4359
 108   2.0000      -0.816650       -22.2222
 109   2.0000      -0.807090       -21.9620
 110   2.0000      -0.797290       -21.6954
 111   2.0000      -0.780359       -21.2347
 112   2.0000      -0.764847       -20.8126
 113   2.0000      -0.763427       -20.7739
 114   2.0000      -0.762689       -20.7538
 115   2.0000      -0.759598       -20.6697
 116   2.0000      -0.742895       -20.2152
 117   2.0000      -0.732759       -19.9394
 118   2.0000      -0.727036       -19.7836
 119   2.0000      -0.713600       -19.4181
 120   2.0000      -0.712135       -19.3782
 121   2.0000      -0.706252       -19.2181
 122   2.0000      -0.704321       -19.1655
 123   2.0000      -0.703302       -19.1378
 124   2.0000      -0.700341       -19.0573
 125   2.0000      -0.692056       -18.8318
 126   2.0000      -0.684656       -18.6304
 127   2.0000      -0.676301       -18.4031
 128   2.0000      -0.675958       -18.3938
 129   2.0000      -0.665739       -18.1157
 130   2.0000      -0.655874       -17.8472
 131   2.0000      -0.650684       -17.7060
 132   2.0000      -0.643848       -17.5200
 133   2.0000      -0.633973       -17.2513
 134   2.0000      -0.633151       -17.2289
 135   2.0000      -0.624454       -16.9923
 136   2.0000      -0.619103       -16.8467
 137   2.0000      -0.609095       -16.5743
 138   2.0000      -0.608355       -16.5542
 139   2.0000      -0.604356       -16.4454
 140   2.0000      -0.603590       -16.4245
 141   2.0000      -0.598483       -16.2855
 142   2.0000      -0.589302       -16.0357
 143   2.0000      -0.586573       -15.9615
 144   2.0000      -0.575961       -15.6727
 145   2.0000      -0.574668       -15.6375
 146   2.0000      -0.569877       -15.5071
 147   2.0000      -0.566845       -15.4246
 148   2.0000      -0.559899       -15.2356
 149   2.0000      -0.555879       -15.1262
 150   2.0000      -0.552431       -15.0324
 151   2.0000      -0.548257       -14.9188
 152   2.0000      -0.547516       -14.8987
 153   2.0000      -0.546082       -14.8596
 154   2.0000      -0.540322       -14.7029
 155   2.0000      -0.539573       -14.6825
 156   2.0000      -0.536976       -14.6119
 157   2.0000      -0.536475       -14.5982
 158   2.0000      -0.536078       -14.5874
 159   2.0000      -0.533575       -14.5193
 160   2.0000      -0.531852       -14.4724
 161   2.0000      -0.529131       -14.3984
 162   2.0000      -0.524855       -14.2820
 163   2.0000      -0.522291       -14.2123
 164   2.0000      -0.521345       -14.1865
 165   2.0000      -0.518615       -14.1122
 166   2.0000      -0.516704       -14.0602
 167   2.0000      -0.516431       -14.0528
 168   2.0000      -0.513347       -13.9689
 169   2.0000      -0.512744       -13.9525
 170   2.0000      -0.511073       -13.9070
 171   2.0000      -0.508595       -13.8396
 172   2.0000      -0.504984       -13.7413
 173   2.0000      -0.500775       -13.6268
 174   2.0000      -0.497636       -13.5414
 175   2.0000      -0.496904       -13.5215
 176   2.0000      -0.492421       -13.3995
 177   2.0000      -0.490545       -13.3484
 178   2.0000      -0.489708       -13.3256
 179   2.0000      -0.485959       -13.2236
 180   2.0000      -0.484590       -13.1864
 181   2.0000      -0.483529       -13.1575
 182   2.0000      -0.475646       -12.9430
 183   2.0000      -0.471960       -12.8427
 184   2.0000      -0.470439       -12.8013
 185   2.0000      -0.467095       -12.7103
 186   2.0000      -0.465537       -12.6679
 187   2.0000      -0.461083       -12.5467
 188   2.0000      -0.456202       -12.4139
 189   2.0000      -0.452116       -12.3027
 190   2.0000      -0.450855       -12.2684
 191   2.0000      -0.450722       -12.2648
 192   2.0000      -0.447498       -12.1770
 193   2.0000      -0.446092       -12.1388
 194   2.0000      -0.444864       -12.1054
 195   2.0000      -0.444122       -12.0852
 196   2.0000      -0.441375       -12.0104
 197   2.0000      -0.441144       -12.0041
 198   2.0000      -0.435529       -11.8513
 199   2.0000      -0.435305       -11.8453
 200   2.0000      -0.433614       -11.7992
 201   2.0000      -0.432823       -11.7777
 202   2.0000      -0.431798       -11.7498
 203   2.0000      -0.429936       -11.6992
 204   2.0000      -0.428919       -11.6715
 205   2.0000      -0.426861       -11.6155
 206   2.0000      -0.422100       -11.4859
 207   2.0000      -0.421017       -11.4564
 208   2.0000      -0.417118       -11.3504
 209   2.0000      -0.412308       -11.2195
 210   2.0000      -0.409043       -11.1306
 211   2.0000      -0.406495       -11.0613
 212   2.0000      -0.400526       -10.8989
 213   2.0000      -0.399013       -10.8577
 214   2.0000      -0.395849       -10.7716
 215   2.0000      -0.389383       -10.5957
 216   2.0000      -0.388925       -10.5832
 217   2.0000      -0.383568       -10.4374
 218   2.0000      -0.376635       -10.2488
 219   2.0000      -0.373926       -10.1750
 220   2.0000      -0.355276        -9.6675
 221   2.0000      -0.352124        -9.5818
 222   2.0000      -0.347323        -9.4511
 223   2.0000      -0.340100        -9.2546
 224   2.0000      -0.338963        -9.2237
 225   2.0000      -0.337081        -9.1724
 226   2.0000      -0.333681        -9.0799
 227   2.0000      -0.323528        -8.8037
 228   2.0000      -0.321104        -8.7377
 229   2.0000      -0.319213        -8.6862
 230   2.0000      -0.317738        -8.6461
 231   2.0000      -0.310241        -8.4421
 232   2.0000      -0.307289        -8.3618
 233   2.0000      -0.294184        -8.0052
 234   2.0000      -0.293283        -7.9806
 235   2.0000      -0.244122        -6.6429
 236   0.0000      -0.108701        -2.9579
 237   0.0000      -0.096317        -2.6209
 238   0.0000      -0.079422        -2.1612
 239   0.0000      -0.057650        -1.5687
 240   0.0000      -0.054134        -1.4731

MULLIKEN ATOMIC CHARGES
-----------------------
   0 C :    0.282234
   1 C :   -0.290213
   2 C :   -0.182407
   3 N :    0.153403
   4 C :   -0.188209
   5 N :    0.163807
   6 C :    0.037398
   7 C :    0.006707
   8 C :   -0.078535
   9 C :    0.093524
  10 C :    0.095582
  11 C :   -0.078291
  12 C :   -0.018185
  13 C :    0.036032
  14 C :    0.036681
  15 C :   -0.013506
  16 C :    0.137722
  17 O :   -0.136407
  18 C :   -0.105115
  19 C :    0.093194
  20 C :   -0.118287
  21 S :    0.158295
  22 C :   -0.090842
  23 N :   -0.049777
  24 N :   -0.044729
  25 C :    0.073268
  26 C :   -0.021126
  27 C :    0.137923
  28 N :   -0.255243
  29 C :    0.097472
  30 C :    0.001114
  31 C :    0.166334
  32 O :   -0.212418
  33 C :   -0.065691
  34 C :   -0.057433
  35 C :    0.165600
  36 O :   -0.205464
  37 N :   -0.258581
  38 C :    0.099011
  39 C :    0.000735
  40 C :    0.129760
  41 C :   -0.002304
  42 C :    0.016304
  43 C :    0.012786
  44 C :    0.035653
  45 N :   -0.050509
  46 C :   -0.062393
  47 N :   -0.034167
  48 C :    0.044470
  49 C :    0.027750
  50 C :   -0.053568
  51 C :    0.313669
  52 C :   -0.343386
  53 C :   -0.182009
  54 N :    0.152016
  55 C :   -0.189300
  56 N :    0.162847
  57 C :    0.051070
  58 C :   -0.004802
  59 C :    0.149634
  60 O :   -0.122776
  61 C :   -0.078683
  62 C :    0.099251
  63 C :    0.096652
  64 C :   -0.083700
  65 C :   -0.018850
  66 C :    0.035708
  67 C :    0.039309
  68 C :   -0.016129
  69 H :   -0.010720
  70 H :   -0.003009
  71 H :   -0.009704
  72 H :   -0.003158
  73 H :   -0.004989
  74 H :   -0.016566
  75 H :    0.026802
  76 H :    0.013860
  77 H :    0.007851
  78 H :    0.031572
  79 H :    0.043715
  80 H :    0.020356
  81 H :    0.027439
  82 H :    0.027065
  83 H :    0.044944
  84 H :    0.024917
  85 H :    0.032503
  86 H :    0.027620
  87 H :    0.015151
  88 H :   -0.025119
  89 H :    0.022346
  90 H :    0.007905
  91 H :    0.021987
  92 H :    0.041146
  93 H :   -0.011483
  94 H :   -0.008548
  95 H :   -0.008588
  96 H :   -0.004092
  97 H :   -0.004815
  98 H :   -0.016267
Sum of atomic charges:   -0.0000000

LOEWDIN ATOMIC CHARGES
----------------------
   0 C :    0.069176
   1 C :   -0.111039
   2 C :   -0.015425
   3 N :   -0.047240
   4 C :   -0.016619
   5 N :   -0.050360
   6 C :   -0.019940
   7 C :   -0.059502
   8 C :    0.034800
   9 C :   -0.009379
  10 C :   -0.003609
  11 C :    0.016809
  12 C :   -0.006174
  13 C :   -0.011484
  14 C :   -0.012800
  15 C :   -0.008573
  16 C :    0.084666
  17 O :   -0.135785
  18 C :   -0.051826
  19 C :    0.028023
  20 C :   -0.162752
  21 S :    0.436150
  22 C :   -0.136692
  23 N :   -0.071058
  24 N :   -0.051824
  25 C :   -0.012923
  26 C :   -0.003257
  27 C :    0.070111
  28 N :    0.003872
  29 C :    0.037248
  30 C :   -0.060438
  31 C :    0.080014
  32 O :   -0.202702
  33 C :   -0.121891
  34 C :   -0.113124
  35 C :    0.082562
  36 O :   -0.196193
  37 N :    0.000546
  38 C :    0.036295
  39 C :   -0.060853
  40 C :    0.080551
  41 C :   -0.042656
  42 C :    0.034769
  43 C :   -0.067313
  44 C :    0.056807
  45 N :   -0.067701
  46 C :    0.022913
  47 N :   -0.053729
  48 C :    0.065312
  49 C :    0.064118
  50 C :   -0.056809
  51 C :    0.075162
  52 C :   -0.127373
  53 C :   -0.015827
  54 N :   -0.048006
  55 C :   -0.021104
  56 N :   -0.040886
  57 C :   -0.027188
  58 C :   -0.054543
  59 C :    0.083558
  60 O :   -0.120557
  61 C :    0.032652
  62 C :   -0.006428
  63 C :   -0.005997
  64 C :    0.020656
  65 C :   -0.004757
  66 C :   -0.013190
  67 C :   -0.010688
  68 C :   -0.009417
  69 H :    0.039814
  70 H :    0.039634
  71 H :    0.034811
  72 H :    0.033685
  73 H :    0.032927
  74 H :    0.032177
  75 H :    0.049453
  76 H :    0.037952
  77 H :    0.039180
  78 H :    0.026898
  79 H :    0.037789
  80 H :    0.024033
  81 H :    0.032460
  82 H :    0.031034
  83 H :    0.038520
  84 H :    0.023352
  85 H :    0.033497
  86 H :    0.032182
  87 H :    0.021667
  88 H :    0.027803
  89 H :    0.040109
  90 H :    0.024735
  91 H :    0.033707
  92 H :    0.050925
  93 H :    0.039634
  94 H :    0.038913
  95 H :    0.034958
  96 H :    0.033509
  97 H :    0.033122
  98 H :    0.032378

  Mayer bond orders larger than 0.100000
B(  0-C ,  1-C ) :   1.6988 B(  0-C ,  6-C ) :   1.0031 B(  0-C , 18-C ) :   1.0096
B(  1-C ,  2-C ) :   1.1374 B(  1-C ,  4-C ) :   1.1516 B(  2-C ,  3-N ) :   2.9848
B(  4-C ,  5-N ) :   3.0098 B(  6-C ,  7-C ) :   1.2122 B(  6-C , 11-C ) :   1.4554
B(  7-C ,  8-C ) :   1.4694 B(  7-C , 16-C ) :   0.9227 B(  8-C ,  9-C ) :   1.1897
B(  8-C , 69-H ) :   1.0153 B(  9-C , 10-C ) :   1.2540 B(  9-C , 15-C ) :   1.2439
B( 10-C , 11-C ) :   1.2076 B( 10-C , 12-C ) :   1.2394 B( 11-C , 70-H ) :   0.9926
B( 12-C , 13-C ) :   1.4915 B( 12-C , 71-H ) :   0.9974 B( 13-C , 14-C ) :   1.2585
B( 13-C , 72-H ) :   0.9889 B( 14-C , 15-C ) :   1.4913 B( 14-C , 73-H ) :   0.9882
B( 15-C , 74-H ) :   0.9971 B( 16-C , 17-O ) :   2.2803 B( 16-C , 18-C ) :   0.9234
B( 18-C , 19-C ) :   1.7415 B( 19-C , 20-C ) :   1.0692 B( 19-C , 75-H ) :   0.9336
B( 20-C , 21-S ) :   1.1013 B( 20-C , 24-N ) :   1.6047 B( 21-S , 22-C ) :   1.1219
B( 21-S , 24-N ) :   0.1005 B( 22-C , 23-N ) :   1.6331 B( 22-C , 25-C ) :   1.1107
B( 23-N , 24-N ) :   1.2684 B( 25-C , 26-C ) :   1.6553 B( 25-C , 76-H ) :   0.9258
B( 26-C , 27-C ) :   1.1325 B( 26-C , 77-H ) :   0.9700 B( 27-C , 28-N ) :   1.1589
B( 27-C , 34-C ) :   1.3488 B( 28-N , 29-C ) :   0.9418 B( 28-N , 31-C ) :   1.0675
B( 29-C , 30-C ) :   1.1210 B( 29-C , 78-H ) :   0.9500 B( 29-C , 79-H ) :   0.9289
B( 30-C , 80-H ) :   0.9689 B( 30-C , 81-H ) :   0.9680 B( 30-C , 82-H ) :   0.9641
B( 31-C , 32-O ) :   2.0200 B( 31-C , 33-C ) :   0.9864 B( 32-O , 89-H ) :   0.1165
B( 33-C , 34-C ) :   1.2534 B( 33-C , 40-C ) :   1.3469 B( 34-C , 35-C ) :   0.9831
B( 35-C , 36-O ) :   2.0350 B( 35-C , 37-N ) :   1.0571 B( 36-O , 76-H ) :   0.1075
B( 37-N , 38-C ) :   0.9440 B( 37-N , 40-C ) :   1.1625 B( 38-C , 39-C ) :   1.1196
B( 38-C , 83-H ) :   0.9278 B( 38-C , 84-H ) :   0.9499 B( 39-C , 85-H ) :   0.9640
B( 39-C , 86-H ) :   0.9681 B( 39-C , 87-H ) :   0.9688 B( 40-C , 41-C ) :   1.1535
B( 41-C , 42-C ) :   1.6309 B( 41-C , 88-H ) :   0.9578 B( 42-C , 43-C ) :   1.0676
B( 42-C , 89-H ) :   0.9563 B( 43-C , 44-C ) :   1.3109 B( 43-C , 48-C ) :   1.2947
B( 44-C , 45-N ) :   1.5820 B( 44-C , 90-H ) :   0.9833 B( 45-N , 46-C ) :   1.5030
B( 46-C , 47-N ) :   1.4898 B( 46-C , 49-C ) :   0.9951 B( 47-N , 48-C ) :   1.5798
B( 48-C , 91-H ) :   0.9877 B( 49-C , 50-C ) :   1.7623 B( 49-C , 92-H ) :   0.9325
B( 50-C , 51-C ) :   1.0352 B( 50-C , 59-C ) :   0.9071 B( 51-C , 52-C ) :   1.6579
B( 51-C , 57-C ) :   1.0004 B( 52-C , 53-C ) :   1.1406 B( 52-C , 55-C ) :   1.1386
B( 53-C , 54-N ) :   2.9672 B( 55-C , 56-N ) :   2.9742 B( 57-C , 58-C ) :   1.2136
B( 57-C , 64-C ) :   1.4372 B( 58-C , 59-C ) :   0.9345 B( 58-C , 61-C ) :   1.4693
B( 59-C , 60-O ) :   2.2694 B( 61-C , 62-C ) :   1.1853 B( 61-C , 93-H ) :   1.0159
B( 62-C , 63-C ) :   1.2522 B( 62-C , 68-C ) :   1.2422 B( 63-C , 64-C ) :   1.2161
B( 63-C , 65-C ) :   1.2361 B( 64-C , 94-H ) :   0.9891 B( 65-C , 66-C ) :   1.4930
B( 65-C , 95-H ) :   0.9974 B( 66-C , 67-C ) :   1.2559 B( 66-C , 96-H ) :   0.9889
B( 67-C , 68-C ) :   1.4913 B( 67-C , 97-H ) :   0.9884 B( 68-C , 98-H ) :   0.9978

-----------------------------------------------------------------------------
         ABSORPTION SPECTRUM VIA TRANSITION ELECTRIC DIPOLE MOMENTS
-----------------------------------------------------------------------------
State   Energy  Wavelength   fosc         T2         TX        TY        TZ
        (cm-1)    (nm)                  (au**2)     (au)      (au)      (au)
-----------------------------------------------------------------------------
   0   14875.1    672.3   1.078133919  23.86093   3.17731  -3.12923  -1.99338
   1   19825.3    504.4   0.025905273   0.43017  -0.20743   0.62191  -0.01930
   2   22824.2    438.1   0.055345000   0.79829   0.64609  -0.23353   0.57124
   3   24135.8    414.3   0.019135460   0.26101  -0.42299  -0.25331   0.13388
   4   24760.6    403.9   0.001729096   0.02299  -0.10520   0.10778  -0.01752
   5   26142.2    382.5   0.027300735   0.34380  -0.30105   0.06751   0.49861
   6   26262.9    380.8   0.016689657   0.20921  -0.05084   0.31481   0.32790
   7   26381.2    379.1   0.032388533   0.40418  -0.14812  -0.12677   0.60512
   8   27302.5    366.3   0.336447912   4.05687   1.54674  -0.96357  -0.85791
   9   27420.9    364.7   0.131895048   1.58352   0.80853  -0.94401   0.19659
  10   28001.6    357.1   0.029482690   0.34662   0.28716  -0.45177  -0.24509
  11   28692.3    348.5   0.404535302   4.64158  -1.52450   1.41653   0.55761
  12   28853.2    346.6   0.069205369   0.78963  -0.67269   0.57680   0.06645
  13   28896.6    346.1   0.034542182   0.39353  -0.45279   0.13324   0.41323
  14   29355.0    340.7   0.028279355   0.31715  -0.28577   0.35442   0.33147
  15   30244.8    330.6   0.009861367   0.10734   0.07831   0.04711   0.31463
  16   30611.8    326.7   0.843685355   9.07335  -1.71827   2.34209  -0.79718
  17   31055.2    322.0   0.032748654   0.34716   0.16380  -0.44867  -0.34500
  18   31421.0    318.3   0.011123749   0.11655   0.05798   0.33642   0.00224
  19   32191.1    310.6   0.006502898   0.06650  -0.08767   0.23878   0.04243
  20   32976.3    303.2   0.007008816   0.06997  -0.18065  -0.02660   0.19138
  21   33232.3    300.9   0.421074553   4.17132   0.09184  -1.18753   1.65912
  22   33497.5    298.5   0.201053813   1.97595  -0.37101   0.95444   0.96299
  23   33610.3    297.5   0.488689813   4.78671   0.73238  -1.74578  -1.09662
  24   34416.5    290.6   0.016346135   0.15636  -0.14489   0.16340   0.32965
  25   34640.0    288.7   0.351840244   3.34382  -0.40289   1.16944  -1.34681
  26   34743.0    287.8   0.086520334   0.81984   0.12218  -0.22479   0.86855
  27   35202.1    284.1   0.010212484   0.09551  -0.24629   0.08972   0.16370
  28   35633.7    280.6   0.009789521   0.09044  -0.07086  -0.18749   0.22421
  29   35709.2    280.0   0.008872002   0.08179  -0.07493   0.03867   0.27328
  30   36308.4    275.4   0.075612799   0.68559  -0.56668   0.60370  -0.00365
  31   36754.0    272.1   0.273805531   2.45252   0.85568  -1.30484  -0.13319
  32   37194.6    268.9   0.190757174   1.68840   0.38364  -0.24658   1.21673
  33   37510.5    266.6   0.136035493   1.19392   0.59331   0.29928  -0.86737
  34   38103.9    262.4   0.112110677   0.96862  -0.38055   0.42582   0.80155
  35   38367.4    260.6   0.010065238   0.08636   0.19904  -0.13621   0.16791
  36   38487.8    259.8   0.083546113   0.71463   0.64392  -0.39860  -0.37565
  37   38671.8    258.6   0.000876995   0.00747  -0.02457  -0.08284   0.00015
  38   38927.0    256.9   0.103529726   0.87557   0.55783   0.37352  -0.65182
  39   39001.5    256.4   0.016804822   0.14185  -0.13235  -0.35260   0.00273
  40   39039.0    256.2   0.025401194   0.21421   0.22929  -0.39944   0.04558
  41   39284.3    254.6   0.058546281   0.49063   0.02558   0.51983  -0.46878
  42   39378.0    253.9   0.110651354   0.92508  -0.30222   0.72850  -0.55048
  43   39473.0    253.3   0.009441370   0.07874   0.14709  -0.20042  -0.13015
  44   39725.9    251.7   0.049231707   0.40799  -0.01842  -0.21705   0.60045
  45   39861.5    250.9   0.001024436   0.00846   0.02566   0.06561   0.05914
  46   39930.6    250.4   0.040919028   0.33736  -0.05177   0.23607  -0.52816
  47   40231.1    248.6   0.079475517   0.65035   0.15530  -0.41750   0.67225

FINAL SINGLE POINT ENERGY     -3318.536004863981

DIPOLE MOMENT
-------------
                                X             Y             Z
Electronic contribution:      5.53298      -2.63140      10.96070
Nuclear contribution   :     -5.00932       1.14040     -13.07793
                        -----------------------------------------
Total Dipole Moment    :      0.52366      -1.49100      -2.11723
                        -----------------------------------------
Magnitude (a.u.)       :      2.64196
Magnitude (Debye)      :      6.71534

Rotational constants in cm-1:     0.002719     0.000208     0.000196
Rotational constants in MHz :    81.522547     6.237769     5.886127

                             ****ORCA TERMINATED NORMALLY****
TOTAL RUN TIME: 0 days 0 hours 8 minutes 54 seconds 428 msec
