                         Program Version 4.2.0 -  RELEASE  -
|  1> # ORCA input file
|  2> # SCF done       -212.521210480125          0.000518894821
|  3> ! CAM-B3LYP def2-SVP def2/J RIJCOSX Grid4 TightSCF
|  4> %maxcore 5000
|  5> %tddft
|  6>     Mode sTDDFT
|  7>     Ethresh 5.0
|  8>     maxcore 5000
|  9> end
| 10>
| 11> %pal
| 12>   nprocs 6
| 13>   end
| 14> * xyz 0 1
| 15>    C       -4.49017        -3.20711        -2.24709
| 16>    C       -5.72502        -3.80572        -2.04885
| 17>    F       -6.83324        -3.07764        -2.22766
| 18>    C       -5.84038        -5.14401        -1.67100
| 19>    F       -7.05404        -5.67922        -1.48839
| 20>    C       -4.71065        -5.92326        -1.48575
| 21>    C       -3.48163        -5.32640        -1.68712
| 22>    C       -3.35410        -3.98101        -2.06138
| 23>    C       -1.93232        -3.66610        -2.18178
| 24>    C       -1.43376        -2.41033        -2.40890
| 25>    C       -2.23807        -1.26664        -2.60747
| 26>    N       -2.82875        -0.29807        -2.78138
| 27>    C       -0.07267        -2.03546        -2.45128
| 28>    N        0.99615        -1.61551        -2.48894
| 29>    C       -1.17709        -4.89216        -1.94753
| 30>    C       -2.14285        -5.94673        -1.56407
| 31>    O       -1.94797        -7.09635        -1.23000
| 32>    C        0.16979        -4.97018        -2.18420
| 33>    C        1.15565        -5.98678        -2.01120
| 34>    C        0.95495        -7.20142        -1.32704
| 35>    C        1.99249        -8.08813        -1.21183
| 36>    C        3.25854        -7.80854        -1.76173
| 37>    C        3.47675        -6.60761        -2.43143
| 38>    C        2.43697        -5.71506        -2.54316
| 39>    C        4.13629        -8.91657        -1.48124
| 40>    C        3.41698        -9.88821        -0.75886
| 41>    C        1.99538        -9.43464        -0.52842
| 42>    C        1.68214        -9.29879         0.97349
| 43>    C        2.64480        -8.36539         1.69776
| 44>    C        0.97894       -10.39060        -1.18046
| 45>    C        1.23241       -10.59826        -2.66867
| 46>    C        4.02161       -11.05111        -0.35572
| 47>    C        5.37421       -11.27650        -0.66084
| 48>    C        6.07569       -10.30055        -1.38637
| 49>    C        5.47155        -9.13139        -1.79753
| 50>    C        6.01505       -12.49148        -0.22436
| 51>    N        7.38725       -12.62613        -0.17206
| 52>    C        7.68505       -13.86817         0.29370
| 53>    C        8.73188       -14.72342         0.63321
| 54>    C        8.13610       -15.91473         1.05484
| 55>    N        6.76257       -15.79070         0.97174
| 56>    C        6.46493       -14.54617         0.51683
| 57>    C        5.41956       -13.67964         0.19775
| 58>    C        8.72015       -17.12585         1.52067
| 59>    C       10.04048       -17.32869         1.71554
| 60>    C       10.65889       -18.53692         2.19950
| 61>    C       12.02370       -18.50215         2.53451
| 62>    C       12.64091       -19.62822         3.01715
| 63>    C       11.92243       -20.82847         3.16720
| 64>    C       10.57647       -20.88266         2.82717
| 65>    C        9.96069       -19.74523         2.35184
| 66>    C       12.81058       -21.83659         3.69184
| 67>    C       14.08465       -21.26147         3.86871
| 68>    C       14.07730       -19.81091         3.44788
| 69>    C       15.05054       -19.56461         2.27884
| 70>    C       14.70335       -20.37357         1.03508
| 71>    C       14.43559       -18.88416         4.62463
| 72>    C       13.51950       -19.07334         5.82784
| 73>    C       15.12200       -22.00206         4.36885
| 74>    C       14.90742       -23.34895         4.71688
| 75>    C       13.62337       -23.89755         4.56757
| 76>    C       12.58390       -23.16217         4.04212
| 77>    C       15.94514       -24.15572         5.28649
| 78>    C       17.29506       -24.03704         5.16938
| 79>    C       18.17748       -24.68748         6.17273
| 80>    O       17.86495       -25.51843         6.99234
| 81>    C       19.50486       -24.05483         5.98546
| 82>    C       19.46164       -23.19508         4.87349
| 83>    C       20.58370       -22.46612         4.51324
| 84>    C       21.72875       -22.61611         5.28097
| 85>    C       21.76735       -23.47822         6.37766
| 86>    C       20.64926       -24.21121         6.74233
| 87>    F       22.89660       -23.59504         7.08676
| 88>    F       22.82027       -21.91176         4.96143
| 89>    C       18.13556       -23.28233         4.26320
| 90>    C       17.83384       -22.93748         2.97248
| 91>    C       16.63259       -23.30263         2.33037
| 92>    N       15.70400       -23.62073         1.73574
| 93>    C       18.70981       -22.24141         2.11558
| 94>    N       19.37303       -21.64423         1.39369
| 95>    H       -4.45840        -2.17119        -2.54104
| 96>    H       -4.79233        -6.95859        -1.19554
| 97>    H        0.59286        -4.06861        -2.61317
| 98>    H       -0.00684        -7.42713        -0.90180
| 99>    H        4.44442        -6.37796        -2.85139
|100>    H        2.59750        -4.77681        -3.05495
|101>    H        1.72649       -10.28947         1.43055
|102>    H        0.66249        -8.92463         1.08151
|103>    H        3.66725        -8.72873         1.61802
|104>    H        2.38329        -8.30361         2.75149
|105>    H        2.60241        -7.36415         1.27466
|106>    H       -0.02212        -9.97966        -1.03872
|107>    H        1.02494       -11.35320        -0.66688
|108>    H        1.16215        -9.65464        -3.20504
|109>    H        0.49369       -11.28164        -3.08059
|110>    H        2.22208       -11.01769        -2.83801
|111>    H        3.47407       -11.78751         0.21075
|112>    H        7.10810       -10.47220        -1.65421
|113>    H        6.02981        -8.39699        -2.35881
|114>    H        8.04414       -11.89303        -0.37273
|115>    H        9.78384       -14.52960         0.58253
|116>    H        6.10937       -16.51122         1.22656
|117>    H        4.36870       -13.88306         0.23566
|118>    H        8.01568       -17.91721         1.74232
|119>    H       10.71856       -16.50949         1.51864
|120>    H       12.57304       -17.57900         2.41540
|121>    H       10.02044       -21.80244         2.93103
|122>    H        8.91791       -19.79292         2.07913
|123>    H       16.06203       -19.81680         2.60626
|124>    H       15.03837       -18.50038         2.03329
|125>    H       14.69550       -21.43928         1.25267
|126>    H       15.44026       -20.19036         0.25657
|127>    H       13.72333       -20.09343         0.65560
|128>    H       14.37453       -17.84866         4.28373
|129>    H       15.46939       -19.07633         4.92017
|130>    H       12.48620       -18.86503         5.55927
|131>    H       13.81002       -18.39765         6.62894
|132>    H       13.57746       -20.09375         6.20065
|133>    H       16.08781       -21.55063         4.54485
|134>    H       13.46689       -24.92942         4.84561
|135>    H       11.60841       -23.60609         3.91443
|136>    H       15.62016       -24.93406         5.97083
|137>    H       20.59940       -21.78790         3.67549
|138>    H       20.67823       -24.87816         7.58913
|139> *
|140>
|141>                          ****END OF INPUT****

CARTESIAN COORDINATES (ANGSTROEM)
---------------------------------
  C     -4.490170   -3.207110   -2.247090
  C     -5.725020   -3.805720   -2.048850
  F     -6.833240   -3.077640   -2.227660
  C     -5.840380   -5.144010   -1.671000
  F     -7.054040   -5.679220   -1.488390
  C     -4.710650   -5.923260   -1.485750
  C     -3.481630   -5.326400   -1.687120
  C     -3.354100   -3.981010   -2.061380
  C     -1.932320   -3.666100   -2.181780
  C     -1.433760   -2.410330   -2.408900
  C     -2.238070   -1.266640   -2.607470
  N     -2.828750   -0.298070   -2.781380
  C     -0.072670   -2.035460   -2.451280
  N      0.996150   -1.615510   -2.488940
  C     -1.177090   -4.892160   -1.947530
  C     -2.142850   -5.946730   -1.564070
  O     -1.947970   -7.096350   -1.230000
  C      0.169790   -4.970180   -2.184200
  C      1.155650   -5.986780   -2.011200
  C      0.954950   -7.201420   -1.327040
  C      1.992490   -8.088130   -1.211830
  C      3.258540   -7.808540   -1.761730
  C      3.476750   -6.607610   -2.431430
  C      2.436970   -5.715060   -2.543160
  C      4.136290   -8.916570   -1.481240
  C      3.416980   -9.888210   -0.758860
  C      1.995380   -9.434640   -0.528420
  C      1.682140   -9.298790    0.973490
  C      2.644800   -8.365390    1.697760
  C      0.978940  -10.390600   -1.180460
  C      1.232410  -10.598260   -2.668670
  C      4.021610  -11.051110   -0.355720
  C      5.374210  -11.276500   -0.660840
  C      6.075690  -10.300550   -1.386370
  C      5.471550   -9.131390   -1.797530
  C      6.015050  -12.491480   -0.224360
  N      7.387250  -12.626130   -0.172060
  C      7.685050  -13.868170    0.293700
  C      8.731880  -14.723420    0.633210
  C      8.136100  -15.914730    1.054840
  N      6.762570  -15.790700    0.971740
  C      6.464930  -14.546170    0.516830
  C      5.419560  -13.679640    0.197750
  C      8.720150  -17.125850    1.520670
  C     10.040480  -17.328690    1.715540
  C     10.658890  -18.536920    2.199500
  C     12.023700  -18.502150    2.534510
  C     12.640910  -19.628220    3.017150
  C     11.922430  -20.828470    3.167200
  C     10.576470  -20.882660    2.827170
  C      9.960690  -19.745230    2.351840
  C     12.810580  -21.836590    3.691840
  C     14.084650  -21.261470    3.868710
  C     14.077300  -19.810910    3.447880
  C     15.050540  -19.564610    2.278840
  C     14.703350  -20.373570    1.035080
  C     14.435590  -18.884160    4.624630
  C     13.519500  -19.073340    5.827840
  C     15.122000  -22.002060    4.368850
  C     14.907420  -23.348950    4.716880
  C     13.623370  -23.897550    4.567570
  C     12.583900  -23.162170    4.042120
  C     15.945140  -24.155720    5.286490
  C     17.295060  -24.037040    5.169380
  C     18.177480  -24.687480    6.172730
  O     17.864950  -25.518430    6.992340
  C     19.504860  -24.054830    5.985460
  C     19.461640  -23.195080    4.873490
  C     20.583700  -22.466120    4.513240
  C     21.728750  -22.616110    5.280970
  C     21.767350  -23.478220    6.377660
  C     20.649260  -24.211210    6.742330
  F     22.896600  -23.595040    7.086760
  F     22.820270  -21.911760    4.961430
  C     18.135560  -23.282330    4.263200
  C     17.833840  -22.937480    2.972480
  C     16.632590  -23.302630    2.330370
  N     15.704000  -23.620730    1.735740
  C     18.709810  -22.241410    2.115580
  N     19.373030  -21.644230    1.393690
  H     -4.458400   -2.171190   -2.541040
  H     -4.792330   -6.958590   -1.195540
  H      0.592860   -4.068610   -2.613170
  H     -0.006840   -7.427130   -0.901800
  H      4.444420   -6.377960   -2.851390
  H      2.597500   -4.776810   -3.054950
  H      1.726490  -10.289470    1.430550
  H      0.662490   -8.924630    1.081510
  H      3.667250   -8.728730    1.618020
  H      2.383290   -8.303610    2.751490
  H      2.602410   -7.364150    1.274660
  H     -0.022120   -9.979660   -1.038720
  H      1.024940  -11.353200   -0.666880
  H      1.162150   -9.654640   -3.205040
  H      0.493690  -11.281640   -3.080590
  H      2.222080  -11.017690   -2.838010
  H      3.474070  -11.787510    0.210750
  H      7.108100  -10.472200   -1.654210
  H      6.029810   -8.396990   -2.358810
  H      8.044140  -11.893030   -0.372730
  H      9.783840  -14.529600    0.582530
  H      6.109370  -16.511220    1.226560
  H      4.368700  -13.883060    0.235660
  H      8.015680  -17.917210    1.742320
  H     10.718560  -16.509490    1.518640
  H     12.573040  -17.579000    2.415400
  H     10.020440  -21.802440    2.931030
  H      8.917910  -19.792920    2.079130
  H     16.062030  -19.816800    2.606260
  H     15.038370  -18.500380    2.033290
  H     14.695500  -21.439280    1.252670
  H     15.440260  -20.190360    0.256570
  H     13.723330  -20.093430    0.655600
  H     14.374530  -17.848660    4.283730
  H     15.469390  -19.076330    4.920170
  H     12.486200  -18.865030    5.559270
  H     13.810020  -18.397650    6.628940
  H     13.577460  -20.093750    6.200650
  H     16.087810  -21.550630    4.544850
  H     13.466890  -24.929420    4.845610
  H     11.608410  -23.606090    3.914430
  H     15.620160  -24.934060    5.970830
  H     20.599400  -21.787900    3.675490
  H     20.678230  -24.878160    7.589130

 Total Charge           Charge          ....    0
 Multiplicity           Mult            ....    1
 Number of Electrons    NEL             ....  546
 Basis Dimension        Dim             .... 1340

ORBITAL ENERGIES
----------------

  NO   OCC          E(Eh)            E(eV)
   0   2.0000     -24.804135      -674.9548
   1   2.0000     -24.803743      -674.9442
   2   2.0000     -24.803392      -674.9346
   3   2.0000     -24.801674      -674.8879
   4   2.0000     -19.225354      -523.1485
   5   2.0000     -19.220958      -523.0288
   6   2.0000     -14.455266      -393.3478
   7   2.0000     -14.455210      -393.3463
   8   2.0000     -14.421660      -392.4333
   9   2.0000     -14.419954      -392.3869
  10   2.0000     -14.418151      -392.3378
  11   2.0000     -14.417544      -392.3213
  12   2.0000     -10.390163      -282.7307
  13   2.0000     -10.389465      -282.7117
  14   2.0000     -10.388475      -282.6848
  15   2.0000     -10.387923      -282.6698
  16   2.0000     -10.377585      -282.3884
  17   2.0000     -10.372828      -282.2590
  18   2.0000     -10.348982      -281.6101
  19   2.0000     -10.348235      -281.5898
  20   2.0000     -10.346984      -281.5557
  21   2.0000     -10.346371      -281.5391
  22   2.0000     -10.323812      -280.9252
  23   2.0000     -10.322835      -280.8986
  24   2.0000     -10.320880      -280.8454
  25   2.0000     -10.320434      -280.8333
  26   2.0000     -10.320006      -280.8216
  27   2.0000     -10.319585      -280.8102
  28   2.0000     -10.318251      -280.7739
  29   2.0000     -10.318118      -280.7703
  30   2.0000     -10.312543      -280.6186
  31   2.0000     -10.312428      -280.6154
  32   2.0000     -10.310693      -280.5682
  33   2.0000     -10.309959      -280.5483
  34   2.0000     -10.306262      -280.4477
  35   2.0000     -10.303874      -280.3827
  36   2.0000     -10.302665      -280.3498
  37   2.0000     -10.302104      -280.3345
  38   2.0000     -10.301198      -280.3099
  39   2.0000     -10.298647      -280.2404
  40   2.0000     -10.292031      -280.0604
  41   2.0000     -10.291924      -280.0575
  42   2.0000     -10.290967      -280.0314
  43   2.0000     -10.288752      -279.9712
  44   2.0000     -10.288000      -279.9507
  45   2.0000     -10.287942      -279.9491
  46   2.0000     -10.287292      -279.9315
  47   2.0000     -10.285307      -279.8774
  48   2.0000     -10.284363      -279.8517
  49   2.0000     -10.283912      -279.8395
  50   2.0000     -10.282323      -279.7962
  51   2.0000     -10.282053      -279.7889
  52   2.0000     -10.281252      -279.7671
  53   2.0000     -10.280864      -279.7565
  54   2.0000     -10.280533      -279.7475
  55   2.0000     -10.280390      -279.7436
  56   2.0000     -10.279416      -279.7171
  57   2.0000     -10.278768      -279.6995
  58   2.0000     -10.276339      -279.6334
  59   2.0000     -10.276310      -279.6326
  60   2.0000     -10.275696      -279.6159
  61   2.0000     -10.275306      -279.6053
  62   2.0000     -10.275247      -279.6037
  63   2.0000     -10.273949      -279.5684
  64   2.0000     -10.273849      -279.5656
  65   2.0000     -10.272262      -279.5224
  66   2.0000     -10.271841      -279.5110
  67   2.0000     -10.271357      -279.4978
  68   2.0000     -10.270520      -279.4751
  69   2.0000     -10.269971      -279.4601
  70   2.0000     -10.266544      -279.3669
  71   2.0000     -10.265254      -279.3318
  72   2.0000     -10.264225      -279.3038
  73   2.0000     -10.262490      -279.2566
  74   2.0000     -10.262068      -279.2451
  75   2.0000     -10.259952      -279.1875
  76   2.0000     -10.249786      -278.9108
  77   2.0000     -10.248873      -278.8860
  78   2.0000     -10.248209      -278.8679
  79   2.0000     -10.237928      -278.5882
  80   2.0000      -1.327645       -36.1270
  81   2.0000      -1.326079       -36.0844
  82   2.0000      -1.312389       -35.7119
  83   2.0000      -1.310841       -35.6698
  84   2.0000      -1.140681       -31.0395
  85   2.0000      -1.136645       -30.9297
  86   2.0000      -1.086518       -29.5657
  87   2.0000      -1.050662       -28.5900
  88   2.0000      -1.025644       -27.9092
  89   2.0000      -1.024352       -27.8740
  90   2.0000      -1.006365       -27.3846
  91   2.0000      -1.005797       -27.3691
  92   2.0000      -0.998917       -27.1819
  93   2.0000      -0.997091       -27.1322
  94   2.0000      -0.995580       -27.0911
  95   2.0000      -0.993067       -27.0227
  96   2.0000      -0.963923       -26.2297
  97   2.0000      -0.962909       -26.2021
  98   2.0000      -0.951740       -25.8982
  99   2.0000      -0.950983       -25.8776
 100   2.0000      -0.926614       -25.2145
 101   2.0000      -0.925611       -25.1872
 102   2.0000      -0.907479       -24.6938
 103   2.0000      -0.905881       -24.6503
 104   2.0000      -0.897202       -24.4141
 105   2.0000      -0.895333       -24.3633
 106   2.0000      -0.889195       -24.1962
 107   2.0000      -0.878504       -23.9053
 108   2.0000      -0.877481       -23.8775
 109   2.0000      -0.875193       -23.8152
 110   2.0000      -0.866248       -23.5718
 111   2.0000      -0.859856       -23.3979
 112   2.0000      -0.852160       -23.1884
 113   2.0000      -0.840963       -22.8838
 114   2.0000      -0.840533       -22.8721
 115   2.0000      -0.839214       -22.8362
 116   2.0000      -0.837944       -22.8016
 117   2.0000      -0.836845       -22.7717
 118   2.0000      -0.833150       -22.6712
 119   2.0000      -0.829745       -22.5785
 120   2.0000      -0.819078       -22.2882
 121   2.0000      -0.795597       -21.6493
 122   2.0000      -0.786811       -21.4102
 123   2.0000      -0.776880       -21.1400
 124   2.0000      -0.775649       -21.1065
 125   2.0000      -0.766278       -20.8515
 126   2.0000      -0.765897       -20.8411
 127   2.0000      -0.762725       -20.7548
 128   2.0000      -0.751109       -20.4387
 129   2.0000      -0.735942       -20.0260
 130   2.0000      -0.723506       -19.6876
 131   2.0000      -0.723218       -19.6798
 132   2.0000      -0.721418       -19.6308
 133   2.0000      -0.710082       -19.3223
 134   2.0000      -0.709699       -19.3119
 135   2.0000      -0.700184       -19.0530
 136   2.0000      -0.693923       -18.8826
 137   2.0000      -0.691572       -18.8186
 138   2.0000      -0.688105       -18.7243
 139   2.0000      -0.685489       -18.6531
 140   2.0000      -0.682945       -18.5839
 141   2.0000      -0.676219       -18.4008
 142   2.0000      -0.674656       -18.3583
 143   2.0000      -0.673751       -18.3337
 144   2.0000      -0.672950       -18.3119
 145   2.0000      -0.668952       -18.2031
 146   2.0000      -0.662400       -18.0248
 147   2.0000      -0.657212       -17.8836
 148   2.0000      -0.656342       -17.8600
 149   2.0000      -0.647542       -17.6205
 150   2.0000      -0.645868       -17.5750
 151   2.0000      -0.644937       -17.5496
 152   2.0000      -0.641986       -17.4693
 153   2.0000      -0.627736       -17.0816
 154   2.0000      -0.625820       -17.0294
 155   2.0000      -0.615389       -16.7456
 156   2.0000      -0.612430       -16.6651
 157   2.0000      -0.607888       -16.5415
 158   2.0000      -0.604006       -16.4358
 159   2.0000      -0.601559       -16.3693
 160   2.0000      -0.598512       -16.2863
 161   2.0000      -0.595778       -16.2119
 162   2.0000      -0.595355       -16.2004
 163   2.0000      -0.592586       -16.1251
 164   2.0000      -0.591215       -16.0878
 165   2.0000      -0.580520       -15.7968
 166   2.0000      -0.574511       -15.6332
 167   2.0000      -0.569519       -15.4974
 168   2.0000      -0.562305       -15.3011
 169   2.0000      -0.556153       -15.1337
 170   2.0000      -0.555141       -15.1062
 171   2.0000      -0.554289       -15.0830
 172   2.0000      -0.552706       -15.0399
 173   2.0000      -0.552632       -15.0379
 174   2.0000      -0.551084       -14.9957
 175   2.0000      -0.547334       -14.8937
 176   2.0000      -0.546784       -14.8788
 177   2.0000      -0.545259       -14.8373
 178   2.0000      -0.544889       -14.8272
 179   2.0000      -0.542445       -14.7607
 180   2.0000      -0.540565       -14.7095
 181   2.0000      -0.539246       -14.6736
 182   2.0000      -0.536407       -14.5964
 183   2.0000      -0.534440       -14.5429
 184   2.0000      -0.531756       -14.4698
 185   2.0000      -0.530930       -14.4473
 186   2.0000      -0.529863       -14.4183
 187   2.0000      -0.526835       -14.3359
 188   2.0000      -0.525349       -14.2955
 189   2.0000      -0.522787       -14.2258
 190   2.0000      -0.520266       -14.1572
 191   2.0000      -0.519849       -14.1458
 192   2.0000      -0.519345       -14.1321
 193   2.0000      -0.513353       -13.9690
 194   2.0000      -0.512378       -13.9425
 195   2.0000      -0.508348       -13.8329
 196   2.0000      -0.505169       -13.7464
 197   2.0000      -0.502165       -13.6646
 198   2.0000      -0.499873       -13.6022
 199   2.0000      -0.499107       -13.5814
 200   2.0000      -0.498956       -13.5773
 201   2.0000      -0.497713       -13.5435
 202   2.0000      -0.494682       -13.4610
 203   2.0000      -0.492958       -13.4141
 204   2.0000      -0.486225       -13.2308
 205   2.0000      -0.485279       -13.2051
 206   2.0000      -0.484608       -13.1869
 207   2.0000      -0.483633       -13.1603
 208   2.0000      -0.479638       -13.0516
 209   2.0000      -0.479155       -13.0385
 210   2.0000      -0.475485       -12.9386
 211   2.0000      -0.472433       -12.8556
 212   2.0000      -0.472138       -12.8475
 213   2.0000      -0.470385       -12.7998
 214   2.0000      -0.468735       -12.7549
 215   2.0000      -0.462259       -12.5787
 216   2.0000      -0.460759       -12.5379
 217   2.0000      -0.458550       -12.4778
 218   2.0000      -0.457349       -12.4451
 219   2.0000      -0.457181       -12.4405
 220   2.0000      -0.455597       -12.3974
 221   2.0000      -0.453373       -12.3369
 222   2.0000      -0.452040       -12.3006
 223   2.0000      -0.450728       -12.2649
 224   2.0000      -0.448391       -12.2013
 225   2.0000      -0.447404       -12.1745
 226   2.0000      -0.446714       -12.1557
 227   2.0000      -0.445911       -12.1338
 228   2.0000      -0.445264       -12.1162
 229   2.0000      -0.441035       -12.0012
 230   2.0000      -0.436976       -11.8907
 231   2.0000      -0.433822       -11.8049
 232   2.0000      -0.432015       -11.7557
 233   2.0000      -0.429819       -11.6960
 234   2.0000      -0.429513       -11.6876
 235   2.0000      -0.428678       -11.6649
 236   2.0000      -0.428073       -11.6485
 237   2.0000      -0.426705       -11.6112
 238   2.0000      -0.423685       -11.5291
 239   2.0000      -0.421834       -11.4787
 240   2.0000      -0.421006       -11.4562
 241   2.0000      -0.419814       -11.4237
 242   2.0000      -0.418379       -11.3847
 243   2.0000      -0.412458       -11.2235
 244   2.0000      -0.409977       -11.1561
 245   2.0000      -0.408672       -11.1205
 246   2.0000      -0.402984       -10.9658
 247   2.0000      -0.397943       -10.8286
 248   2.0000      -0.396606       -10.7922
 249   2.0000      -0.391854       -10.6629
 250   2.0000      -0.390804       -10.6343
 251   2.0000      -0.389171       -10.5899
 252   2.0000      -0.386514       -10.5176
 253   2.0000      -0.384812       -10.4713
 254   2.0000      -0.384480       -10.4622
 255   2.0000      -0.369736       -10.0610
 256   2.0000      -0.357638        -9.7318
 257   2.0000      -0.353711        -9.6250
 258   2.0000      -0.350310        -9.5324
 259   2.0000      -0.345260        -9.3950
 260   2.0000      -0.343625        -9.3505
 261   2.0000      -0.336799        -9.1648
 262   2.0000      -0.328494        -8.9388
 263   2.0000      -0.327317        -8.9067
 264   2.0000      -0.322821        -8.7844
 265   2.0000      -0.321701        -8.7539
 266   2.0000      -0.318976        -8.6798
 267   2.0000      -0.316348        -8.6083
 268   2.0000      -0.310280        -8.4431
 269   2.0000      -0.288737        -7.8569
 270   2.0000      -0.284050        -7.7294
 271   2.0000      -0.268648        -7.3103
 272   2.0000      -0.219364        -5.9692
 273   0.0000      -0.092543        -2.5182
 274   0.0000      -0.090638        -2.4664
 275   0.0000      -0.066823        -1.8183
 276   0.0000      -0.063231        -1.7206
 277   0.0000      -0.036035        -0.9806

MULLIKEN ATOMIC CHARGES
-----------------------
   0 C :   -0.083718
   1 C :    0.234430
   2 F :   -0.164671
   3 C :    0.235705
   4 F :   -0.169133
   5 C :   -0.103184
   6 C :   -0.001781
   7 C :    0.038349
   8 C :    0.301090
   9 C :   -0.349058
  10 C :   -0.195078
  11 N :    0.158415
  12 C :   -0.199981
  13 N :    0.161581
  14 C :   -0.060372
  15 C :    0.154189
  16 O :   -0.150332
  17 C :   -0.022543
  18 C :    0.071275
  19 C :   -0.060948
  20 C :   -0.002537
  21 C :    0.124638
  22 C :   -0.049877
  23 C :    0.001652
  24 C :    0.087966
  25 C :    0.039499
  26 C :   -0.140389
  27 C :    0.068294
  28 C :    0.026040
  29 C :    0.067128
  30 C :    0.024792
  31 C :   -0.117078
  32 C :    0.154753
  33 C :   -0.050045
  34 C :   -0.047350
  35 C :    0.057546
  36 N :   -0.033502
  37 C :    0.108233
  38 C :   -0.179347
  39 C :    0.097150
  40 N :   -0.033157
  41 C :    0.117461
  42 C :   -0.183331
  43 C :    0.034865
  44 C :   -0.030654
  45 C :    0.141681
  46 C :   -0.112517
  47 C :    0.023419
  48 C :    0.093602
  49 C :   -0.037396
  50 C :   -0.018204
  51 C :    0.131426
  52 C :    0.012365
  53 C :   -0.140963
  54 C :    0.068491
  55 C :    0.015751
  56 C :    0.070273
  57 C :    0.024698
  58 C :   -0.070530
  59 C :    0.063617
  60 C :    0.022236
  61 C :   -0.046622
  62 C :    0.031684
  63 C :   -0.118077
  64 C :    0.135515
  65 O :   -0.137254
  66 C :    0.010829
  67 C :    0.027479
  68 C :   -0.094847
  69 C :    0.238467
  70 C :    0.236571
  71 C :   -0.106896
  72 F :   -0.168544
  73 F :   -0.165031
  74 C :    0.254202
  75 C :   -0.345687
  76 C :   -0.162697
  77 N :    0.166002
  78 C :   -0.180997
  79 N :    0.161833
  80 H :    0.016631
  81 H :    0.010645
  82 H :    0.003877
  83 H :   -0.016744
  84 H :   -0.030653
  85 H :   -0.003254
  86 H :   -0.002592
  87 H :    0.005694
  88 H :    0.020285
  89 H :    0.010557
  90 H :    0.019587
  91 H :    0.013072
  92 H :   -0.005840
  93 H :    0.019450
  94 H :    0.010375
  95 H :    0.019513
  96 H :   -0.040211
  97 H :   -0.045914
  98 H :   -0.032133
  99 H :    0.121732
 100 H :   -0.038920
 101 H :    0.118459
 102 H :   -0.038954
 103 H :   -0.037369
 104 H :   -0.027294
 105 H :   -0.043040
 106 H :   -0.036561
 107 H :   -0.034582
 108 H :   -0.006517
 109 H :   -0.003322
 110 H :    0.033480
 111 H :    0.013158
 112 H :    0.015892
 113 H :   -0.000499
 114 H :   -0.004264
 115 H :    0.022661
 116 H :    0.009708
 117 H :    0.018381
 118 H :   -0.022094
 119 H :   -0.018518
 120 H :   -0.030621
 121 H :    0.023622
 122 H :    0.018035
 123 H :    0.014215
Sum of atomic charges:   -0.0000000

LOEWDIN ATOMIC CHARGES
----------------------
   0 C :   -0.017644
   1 C :    0.073948
   2 F :   -0.043701
   3 C :    0.071097
   4 F :   -0.045924
   5 C :   -0.006054
   6 C :   -0.044053
   7 C :   -0.015947
   8 C :    0.078235
   9 C :   -0.138477
  10 C :   -0.019318
  11 N :   -0.048996
  12 C :   -0.026075
  13 N :   -0.048055
  14 C :   -0.106271
  15 C :    0.088798
  16 O :   -0.138663
  17 C :    0.087325
  18 C :   -0.051206
  19 C :    0.013970
  20 C :   -0.003861
  21 C :    0.016973
  22 C :   -0.029163
  23 C :    0.014173
  24 C :   -0.035600
  25 C :    0.015338
  26 C :   -0.035693
  27 C :   -0.010684
  28 C :   -0.057640
  29 C :   -0.010830
  30 C :   -0.057623
  31 C :   -0.021336
  32 C :   -0.010456
  33 C :   -0.036985
  34 C :   -0.006286
  35 C :   -0.002315
  36 N :    0.069178
  37 C :   -0.022553
  38 C :   -0.094921
  39 C :   -0.005994
  40 N :    0.069842
  41 C :   -0.027052
  42 C :   -0.096232
  43 C :   -0.026970
  44 C :   -0.029706
  45 C :   -0.011882
  46 C :   -0.025343
  47 C :    0.010899
  48 C :   -0.029440
  49 C :   -0.009918
  50 C :   -0.020844
  51 C :    0.013101
  52 C :    0.005755
  53 C :   -0.035478
  54 C :   -0.010731
  55 C :   -0.061824
  56 C :   -0.011385
  57 C :   -0.058021
  58 C :    0.000187
  59 C :   -0.048540
  60 C :    0.011231
  61 C :   -0.018027
  62 C :    0.088873
  63 C :   -0.102313
  64 C :    0.084213
  65 O :   -0.137791
  66 C :   -0.046185
  67 C :   -0.013217
  68 C :   -0.021007
  69 C :    0.074670
  70 C :    0.070410
  71 C :   -0.004527
  72 F :   -0.045478
  73 F :   -0.043430
  74 C :    0.066833
  75 C :   -0.135700
  76 C :   -0.011228
  77 N :   -0.034877
  78 C :   -0.022176
  79 N :   -0.047752
  80 H :    0.051564
  81 H :    0.051387
  82 H :    0.045552
  83 H :    0.026065
  84 H :    0.029424
  85 H :    0.034893
  86 H :    0.019961
  87 H :    0.023586
  88 H :    0.024860
  89 H :    0.024962
  90 H :    0.024553
  91 H :    0.026320
  92 H :    0.018842
  93 H :    0.024725
  94 H :    0.024914
  95 H :    0.024335
  96 H :    0.025273
  97 H :    0.019343
  98 H :    0.028442
  99 H :    0.085268
 100 H :    0.021865
 101 H :    0.087069
 102 H :    0.021700
 103 H :    0.023146
 104 H :    0.026050
 105 H :    0.023678
 106 H :    0.027193
 107 H :    0.023296
 108 H :    0.018013
 109 H :    0.019610
 110 H :    0.025464
 111 H :    0.026496
 112 H :    0.023841
 113 H :    0.020940
 114 H :    0.019012
 115 H :    0.026043
 116 H :    0.024358
 117 H :    0.023971
 118 H :    0.026101
 119 H :    0.031539
 120 H :    0.029430
 121 H :    0.047108
 122 H :    0.051317
 123 H :    0.052841

  Mayer bond orders larger than 0.100000
B(  0-C ,  1-C ) :   1.3403 B(  0-C ,  5-C ) :   0.1058 B(  0-C ,  7-C ) :   1.3106
B(  0-C , 80-H ) :   0.9901 B(  1-C ,  2-F ) :   1.1464 B(  1-C ,  3-C ) :   1.2879
B(  3-C ,  4-F ) :   1.1310 B(  3-C ,  5-C ) :   1.3170 B(  5-C ,  6-C ) :   1.3183
B(  5-C , 81-H ) :   1.0197 B(  6-C ,  7-C ) :   1.3427 B(  6-C , 15-C ) :   0.9664
B(  7-C ,  8-C ) :   1.0013 B(  8-C ,  9-C ) :   1.6313 B(  8-C , 14-C ) :   1.0797
B(  9-C , 10-C ) :   1.1431 B(  9-C , 12-C ) :   1.1364 B( 10-C , 11-N ) :   2.9790
B( 12-C , 13-N ) :   2.9909 B( 14-C , 15-C ) :   0.9358 B( 14-C , 17-C ) :   1.5329
B( 15-C , 16-O ) :   2.1718 B( 17-C , 18-C ) :   1.1677 B( 17-C , 82-H ) :   0.9384
B( 18-C , 19-C ) :   1.2744 B( 18-C , 23-C ) :   1.2677 B( 19-C , 20-C ) :   1.4175
B( 19-C , 83-H ) :   0.9830 B( 20-C , 21-C ) :   1.3404 B( 20-C , 26-C ) :   0.9104
B( 21-C , 22-C ) :   1.3158 B( 21-C , 24-C ) :   1.0085 B( 22-C , 23-C ) :   1.4062
B( 22-C , 84-H ) :   0.9919 B( 23-C , 85-H ) :   0.9914 B( 24-C , 25-C ) :   1.3475
B( 24-C , 34-C ) :   1.3346 B( 25-C , 26-C ) :   0.9165 B( 25-C , 31-C ) :   1.3944
B( 26-C , 27-C ) :   1.0388 B( 26-C , 29-C ) :   1.0391 B( 27-C , 28-C ) :   1.1010
B( 27-C , 86-H ) :   0.9383 B( 27-C , 87-H ) :   0.9402 B( 28-C , 88-H ) :   0.9642
B( 28-C , 89-H ) :   0.9638 B( 28-C , 90-H ) :   0.9642 B( 29-C , 30-C ) :   1.1005
B( 29-C , 91-H ) :   0.9402 B( 29-C , 92-H ) :   0.9382 B( 30-C , 93-H ) :   0.9648
B( 30-C , 94-H ) :   0.9639 B( 30-C , 95-H ) :   0.9641 B( 31-C , 32-C ) :   1.3106
B( 31-C , 96-H ) :   1.0073 B( 32-C , 33-C ) :   1.3135 B( 32-C , 35-C ) :   1.0121
B( 33-C , 34-C ) :   1.4016 B( 33-C , 97-H ) :   0.9881 B( 34-C , 98-H ) :   0.9893
B( 35-C , 36-N ) :   1.2101 B( 35-C , 42-C ) :   1.4341 B( 36-N , 37-C ) :   1.1582
B( 36-N , 99-H ) :   0.9320 B( 37-C , 38-C ) :   1.2503 B( 37-C , 41-C ) :   1.3327
B( 38-C , 39-C ) :   1.4162 B( 38-C ,100-H ) :   1.0337 B( 39-C , 40-N ) :   1.1752
B( 39-C , 43-C ) :   1.0976 B( 40-N , 41-C ) :   1.1656 B( 40-N ,101-H ) :   0.9362
B( 41-C , 42-C ) :   1.2290 B( 42-C ,102-H ) :   1.0307 B( 43-C , 44-C ) :   1.6859
B( 43-C ,103-H ) :   0.9552 B( 44-C , 45-C ) :   1.0772 B( 44-C ,104-H ) :   0.9865
B( 45-C , 46-C ) :   1.2802 B( 45-C , 50-C ) :   1.3315 B( 46-C , 47-C ) :   1.3792
B( 46-C ,105-H ) :   1.0151 B( 47-C , 48-C ) :   1.3672 B( 47-C , 53-C ) :   0.9137
B( 48-C , 49-C ) :   1.3172 B( 48-C , 51-C ) :   1.0084 B( 49-C , 50-C ) :   1.4126
B( 49-C ,106-H ) :   0.9890 B( 50-C ,107-H ) :   0.9830 B( 51-C , 52-C ) :   1.3513
B( 51-C , 61-C ) :   1.3307 B( 52-C , 53-C ) :   0.9150 B( 52-C , 58-C ) :   1.4476
B( 53-C , 54-C ) :   1.0350 B( 53-C , 56-C ) :   1.0396 B( 54-C , 55-C ) :   1.1008
B( 54-C ,108-H ) :   0.9401 B( 54-C ,109-H ) :   0.9364 B( 55-C ,110-H ) :   0.9580
B( 55-C ,111-H ) :   0.9612 B( 55-C ,112-H ) :   0.9569 B( 56-C , 57-C ) :   1.1004
B( 56-C ,113-H ) :   0.9381 B( 56-C ,114-H ) :   0.9399 B( 57-C ,115-H ) :   0.9648
B( 57-C ,116-H ) :   0.9639 B( 57-C ,117-H ) :   0.9639 B( 58-C , 59-C ) :   1.2638
B( 58-C ,118-H ) :   0.9936 B( 59-C , 60-C ) :   1.3261 B( 59-C , 62-C ) :   1.0686
B( 60-C , 61-C ) :   1.3828 B( 60-C ,119-H ) :   0.9931 B( 61-C ,120-H ) :   0.9904
B( 62-C , 63-C ) :   1.6603 B( 62-C ,121-H ) :   0.9467 B( 63-C , 64-C ) :   0.9450
B( 63-C , 74-C ) :   1.0300 B( 64-C , 65-O ) :   2.2733 B( 64-C , 66-C ) :   0.9277
B( 66-C , 67-C ) :   1.3428 B( 66-C , 71-C ) :   1.3206 B( 67-C , 68-C ) :   1.3148
B( 67-C , 74-C ) :   1.0195 B( 68-C , 69-C ) :   1.3366 B( 68-C , 71-C ) :   0.1058
B( 68-C ,122-H ) :   0.9962 B( 69-C , 70-C ) :   1.2893 B( 69-C , 73-F ) :   1.1427
B( 70-C , 71-C ) :   1.3208 B( 70-C , 72-F ) :   1.1313 B( 71-C ,123-H ) :   1.0206
B( 74-C , 75-C ) :   1.6648 B( 75-C , 76-C ) :   1.1711 B( 75-C , 78-C ) :   1.1275
B( 76-C , 77-N ) :   2.9224 B( 78-C , 79-N ) :   2.9919

-----------------------------------------------------------------------------
         ABSORPTION SPECTRUM VIA TRANSITION ELECTRIC DIPOLE MOMENTS
-----------------------------------------------------------------------------
State   Energy  Wavelength   fosc         T2         TX        TY        TZ
        (cm-1)    (nm)                  (au**2)     (au)      (au)      (au)
-----------------------------------------------------------------------------
   0   16617.4    601.8   2.013827390  39.89655   4.43594  -4.28640   1.35858
   1   18024.3    554.8   0.122640024   2.24001   0.54016  -1.37370   0.24733
   2   23420.9    427.0   0.485576512   6.82542  -1.44405   1.92459  -1.01789
   3   24111.1    414.7   0.084196932   1.14962  -0.55375  -0.66091   0.63733
   4   24529.5    407.7   0.386905913   5.19269   1.88724  -1.20564   0.42124
   5   25941.6    385.5   0.570970623   7.24591  -1.93069   1.87217  -0.11554
   6   27323.0    366.0   0.348105415   4.19429   0.53356  -1.79152   0.83669
   7   29923.9    334.2   0.009813025   0.10796  -0.32784   0.02196   0.00055
   8   30432.5    328.6   0.034097390   0.36886   0.25052  -0.48503  -0.26617
   9   30985.2    322.7   0.026082090   0.27712   0.44711  -0.02209  -0.27698
  10   31202.3    320.5   0.014679413   0.15488   0.28650   0.19231   0.18924
  11   31576.2    316.7   0.294408106   3.06948  -0.96905   1.00099  -1.06228
  12   31958.2    312.9   0.024883732   0.25634  -0.36201  -0.29246   0.19937
  13   32067.9    311.8   0.243504951   2.49984   1.52242   0.41762   0.08767
  14   32428.8    308.4   0.014749295   0.14973   0.29737   0.02642   0.24618
  15   32665.2    306.1   0.029638515   0.29871  -0.16907  -0.18877   0.48424
  16   32703.2    305.8   0.004467687   0.04497  -0.00335   0.15524  -0.14445
  17   33015.8    302.9   0.175694436   1.75191   0.87732  -0.20078   0.97052
  18   33507.5    298.4   0.111072914   1.09129  -1.00130  -0.27321   0.11853
  19   33647.5    297.2   0.079941145   0.78215   0.84115  -0.25192   0.10561
  20   33772.3    296.1   0.236366185   2.30409  -1.44008   0.22652  -0.42301
  21   34070.4    293.5   0.019136453   0.18491   0.29403   0.16814   0.26492
  22   34221.2    292.2   0.011322350   0.10892   0.32869  -0.02903  -0.00632
  23   34376.8    290.9   0.010967158   0.10503  -0.08121   0.31373  -0.00204
  24   36063.2    277.3   0.036809630   0.33603  -0.55956  -0.13311   0.07213
  25   36694.5    272.5   0.026381831   0.23669  -0.08470   0.46433  -0.11795
  26   37168.9    269.0   0.434718316   3.85038   0.29618   1.37394  -1.36929
  27   37258.3    268.4   0.444807123   3.93029  -1.71004  -0.79654  -0.60955
  28   37312.5    268.0   0.016994277   0.14994   0.12534  -0.30115  -0.20866
  29   38122.5    262.3   0.024753347   0.21376   0.28615   0.28691   0.22263
  30   38149.1    262.1   0.086753014   0.74864   0.62745  -0.15691   0.57475
  31   38457.8    260.0   0.234763785   2.00966   0.99248   0.98781  -0.22107
  32   38560.3    259.3   0.047899705   0.40895   0.08940  -0.60182   0.19689
  33   38850.4    257.4   0.003014022   0.02554  -0.04384  -0.12834  -0.08454
  34   39086.0    255.8   0.054498218   0.45902  -0.16856   0.45439  -0.47343
  35   39252.4    254.8   0.189884279   1.59257   0.26463  -0.53548   1.11167
  36   39340.1    254.2   0.027772181   0.23241  -0.30941   0.21266  -0.30240
  37   39587.6    252.6   0.066505656   0.55306   0.25345  -0.66183   0.22540
  38   39927.4    250.5   0.051785319   0.42698   0.55980  -0.33159   0.06048
  39   40242.6    248.5   0.098057905   0.80218   0.85864  -0.25467  -0.00801

FINAL SINGLE POINT ENERGY     -3491.639402946666

DIPOLE MOMENT
-------------
                                X             Y             Z
Electronic contribution:     -1.06346      18.08567      -0.36985
Nuclear contribution   :      0.70883     -19.92996       1.59592
                        -----------------------------------------
Total Dipole Moment    :     -0.35463      -1.84429       1.22607
                        -----------------------------------------
Magnitude (a.u.)       :      2.24286
Magnitude (Debye)      :      5.70090

Rotational constants in cm-1:     0.003151     0.000116     0.000113
Rotational constants in MHz :    94.477864     3.463041     3.397896

                             ****ORCA TERMINATED NORMALLY****
TOTAL RUN TIME: 0 days 0 hours 13 minutes 56 seconds 334 msec
