                         Program Version 4.2.0 -  RELEASE  -
|  1> # ORCA input file
|  2> # SCF done       -178.120985581136          0.000872753492
|  3> ! CAM-B3LYP def2-SVP def2/J RIJCOSX Grid4 TightSCF
|  4> %maxcore 5000
|  5> %tddft
|  6>     Mode sTDDFT
|  7>     Ethresh 5.0
|  8>     maxcore 5000
|  9> end
| 10>
| 11> %pal
| 12>   nprocs 6
| 13>   end
| 14> * xyz 0 1
| 15>    C       -7.71473         0.06228        -0.09012
| 16>    S       -8.45188         0.79931         1.26655
| 17>    C       -9.85014         1.19553         0.37427
| 18>    C       -9.76015         0.77921        -0.93344
| 19>    C       -8.50922         0.12285        -1.20963
| 20>    C       -8.23435        -0.39603        -2.51717
| 21>    C       -9.20070        -0.20660        -3.48949
| 22>    C      -10.43194         0.44156        -3.20275
| 23>    C      -10.71974         0.91955        -1.96579
| 24>    O       -9.03491        -0.56708        -4.78709
| 25>    C       -6.96081        -1.04089        -2.76215
| 26>    C       -6.75160        -2.09776        -3.57430
| 27>    C       -5.48042        -2.70621        -3.80716
| 28>    S       -5.39405        -4.12769        -4.81086
| 29>    C       -3.67210        -4.23615        -4.60489
| 30>    C       -3.21485        -3.21262        -3.80073
| 31>    C       -4.22491        -2.35813        -3.35763
| 32>    C       -2.92099        -5.27723        -5.21572
| 33>    C       -1.57196        -5.53787        -5.09988
| 34>    C       -1.15592        -6.64993        -5.83222
| 35>    C       -2.17480        -7.26400        -6.52770
| 36>    S       -3.68618        -6.44053        -6.26223
| 37>    C       -2.10973        -8.40333        -7.36984
| 38>    S       -0.61470        -9.26981        -7.59826
| 39>    C       -1.38110       -10.40136        -8.68499
| 40>    C       -2.71796       -10.09153        -8.83615
| 41>    C       -3.12561        -8.97989        -8.10093
| 42>    C       -0.67520       -11.46688        -9.29873
| 43>    C        0.62840       -11.75845        -9.07614
| 44>    C        1.34973       -12.81358        -9.69108
| 45>    N        2.66591       -13.06148        -9.35006
| 46>    C        3.11519       -14.11404       -10.08258
| 47>    C        4.21740       -14.93031       -10.32485
| 48>    C        3.81718       -15.84083       -11.30768
| 49>    N        2.50407       -15.58476       -11.65676
| 50>    C        2.05239       -14.53874       -10.91665
| 51>    C        0.94790       -13.72816       -10.67006
| 52>    C        4.53411       -16.89380       -11.93354
| 53>    C        5.79296       -17.27937       -11.61409
| 54>    C        6.50341       -18.33274       -12.24896
| 55>    S        8.06215       -18.81109       -11.63087
| 56>    C        8.22892       -20.04616       -12.84423
| 57>    C        7.12573       -20.05942       -13.67477
| 58>    C        6.16514       -19.10745       -13.34171
| 59>    C        9.36995       -20.89046       -12.89756
| 60>    C        9.65887       -21.86851       -13.82708
| 61>    C       10.86157       -22.53013       -13.58257
| 62>    C       11.52133       -22.07746       -12.46061
| 63>    S       10.62626       -20.79365       -11.69489
| 64>    C       12.75162       -22.53413       -11.92151
| 65>    S       13.64882       -23.81352       -12.68905
| 66>    C       14.89146       -23.74528       -11.46661
| 67>    C       14.59687       -22.77144       -10.53448
| 68>    C       13.40345       -22.09670       -10.78796
| 69>    C       15.99893       -24.63162       -11.56148
| 70>    C       17.01440       -24.70058       -10.67177
| 71>    C       18.11961       -25.60020       -10.75646
| 72>    S       18.71364       -26.23966        -9.24816
| 73>    C       19.75857       -27.33124       -10.02963
| 74>    C       19.70685       -27.20495       -11.39950
| 75>    C       18.79359       -26.18179       -11.83238
| 76>    C       18.73852       -25.83522       -13.21600
| 77>    C       19.49336       -26.58342       -14.10205
| 78>    C       20.31753       -27.65385       -13.66602
| 79>    C       20.44573       -27.95057       -12.34945
| 80>    O       19.55900       -26.31525       -15.42980
| 81>    C       18.03950       -24.62795       -13.66312
| 82>    C       17.29240       -24.51430       -14.75660
| 83>    H       -6.74427        -0.37607         0.02384
| 84>    H      -10.66332         1.70612         0.84962
| 85>    H      -11.12597         0.54019        -4.02217
| 86>    H      -11.65856         1.40790        -1.75593
| 87>    H       -8.12936        -0.87565        -4.92964
| 88>    H       -6.12484        -0.64108        -2.20391
| 89>    H       -7.58479        -2.59256        -4.05882
| 90>    H       -2.17764        -3.08885        -3.54684
| 91>    H       -4.04006        -1.50719        -2.72705
| 92>    H       -0.91036        -4.94082        -4.49894
| 93>    H       -0.14157        -7.00704        -5.86400
| 94>    H       -3.37527       -10.66533        -9.46530
| 95>    H       -4.12935        -8.59196        -8.09375
| 96>    H       -1.25271       -12.07162        -9.98359
| 97>    H        1.17918       -11.14629        -8.37125
| 98>    H        3.18235       -12.53927        -8.66361
| 99>    H        5.18550       -14.88376        -9.86928
|100>    H        1.98330       -16.11097       -12.33672
|101>    H       -0.01920       -13.77380       -11.12801
|102>    H        4.00593       -17.41996       -12.71825
|103>    H        6.31237       -16.77479       -10.81244
|104>    H        7.02267       -20.74564       -14.49595
|105>    H        5.24847       -18.98204       -13.88915
|106>    H        9.01610       -22.09276       -14.65882
|107>    H       11.25144       -23.32182       -14.19818
|108>    H       15.22925       -22.55539        -9.69246
|109>    H       13.01082       -21.30829       -10.16961
|110>    H       15.99920       -25.29276       -12.41537
|111>    H       16.96319       -24.11443        -9.76335
|112>    H       20.35333       -28.01284        -9.45524
|113>    H       20.86578       -28.18720       -14.42622
|114>    H       21.10708       -28.73189       -12.00885
|115>    H       19.05814       -25.50793       -15.62156
|116>    H       18.19186       -23.76163       -13.03028
|117>    H       17.03514       -25.35776       -15.37891
|118>    H       16.84561       -23.57421       -15.03275
|119> *
|120>
|121>                          ****END OF INPUT****

CARTESIAN COORDINATES (ANGSTROEM)
---------------------------------
  C     -7.714730    0.062280   -0.090120
  S     -8.451880    0.799310    1.266550
  C     -9.850140    1.195530    0.374270
  C     -9.760150    0.779210   -0.933440
  C     -8.509220    0.122850   -1.209630
  C     -8.234350   -0.396030   -2.517170
  C     -9.200700   -0.206600   -3.489490
  C    -10.431940    0.441560   -3.202750
  C    -10.719740    0.919550   -1.965790
  O     -9.034910   -0.567080   -4.787090
  C     -6.960810   -1.040890   -2.762150
  C     -6.751600   -2.097760   -3.574300
  C     -5.480420   -2.706210   -3.807160
  S     -5.394050   -4.127690   -4.810860
  C     -3.672100   -4.236150   -4.604890
  C     -3.214850   -3.212620   -3.800730
  C     -4.224910   -2.358130   -3.357630
  C     -2.920990   -5.277230   -5.215720
  C     -1.571960   -5.537870   -5.099880
  C     -1.155920   -6.649930   -5.832220
  C     -2.174800   -7.264000   -6.527700
  S     -3.686180   -6.440530   -6.262230
  C     -2.109730   -8.403330   -7.369840
  S     -0.614700   -9.269810   -7.598260
  C     -1.381100  -10.401360   -8.684990
  C     -2.717960  -10.091530   -8.836150
  C     -3.125610   -8.979890   -8.100930
  C     -0.675200  -11.466880   -9.298730
  C      0.628400  -11.758450   -9.076140
  C      1.349730  -12.813580   -9.691080
  N      2.665910  -13.061480   -9.350060
  C      3.115190  -14.114040  -10.082580
  C      4.217400  -14.930310  -10.324850
  C      3.817180  -15.840830  -11.307680
  N      2.504070  -15.584760  -11.656760
  C      2.052390  -14.538740  -10.916650
  C      0.947900  -13.728160  -10.670060
  C      4.534110  -16.893800  -11.933540
  C      5.792960  -17.279370  -11.614090
  C      6.503410  -18.332740  -12.248960
  S      8.062150  -18.811090  -11.630870
  C      8.228920  -20.046160  -12.844230
  C      7.125730  -20.059420  -13.674770
  C      6.165140  -19.107450  -13.341710
  C      9.369950  -20.890460  -12.897560
  C      9.658870  -21.868510  -13.827080
  C     10.861570  -22.530130  -13.582570
  C     11.521330  -22.077460  -12.460610
  S     10.626260  -20.793650  -11.694890
  C     12.751620  -22.534130  -11.921510
  S     13.648820  -23.813520  -12.689050
  C     14.891460  -23.745280  -11.466610
  C     14.596870  -22.771440  -10.534480
  C     13.403450  -22.096700  -10.787960
  C     15.998930  -24.631620  -11.561480
  C     17.014400  -24.700580  -10.671770
  C     18.119610  -25.600200  -10.756460
  S     18.713640  -26.239660   -9.248160
  C     19.758570  -27.331240  -10.029630
  C     19.706850  -27.204950  -11.399500
  C     18.793590  -26.181790  -11.832380
  C     18.738520  -25.835220  -13.216000
  C     19.493360  -26.583420  -14.102050
  C     20.317530  -27.653850  -13.666020
  C     20.445730  -27.950570  -12.349450
  O     19.559000  -26.315250  -15.429800
  C     18.039500  -24.627950  -13.663120
  C     17.292400  -24.514300  -14.756600
  H     -6.744270   -0.376070    0.023840
  H    -10.663320    1.706120    0.849620
  H    -11.125970    0.540190   -4.022170
  H    -11.658560    1.407900   -1.755930
  H     -8.129360   -0.875650   -4.929640
  H     -6.124840   -0.641080   -2.203910
  H     -7.584790   -2.592560   -4.058820
  H     -2.177640   -3.088850   -3.546840
  H     -4.040060   -1.507190   -2.727050
  H     -0.910360   -4.940820   -4.498940
  H     -0.141570   -7.007040   -5.864000
  H     -3.375270  -10.665330   -9.465300
  H     -4.129350   -8.591960   -8.093750
  H     -1.252710  -12.071620   -9.983590
  H      1.179180  -11.146290   -8.371250
  H      3.182350  -12.539270   -8.663610
  H      5.185500  -14.883760   -9.869280
  H      1.983300  -16.110970  -12.336720
  H     -0.019200  -13.773800  -11.128010
  H      4.005930  -17.419960  -12.718250
  H      6.312370  -16.774790  -10.812440
  H      7.022670  -20.745640  -14.495950
  H      5.248470  -18.982040  -13.889150
  H      9.016100  -22.092760  -14.658820
  H     11.251440  -23.321820  -14.198180
  H     15.229250  -22.555390   -9.692460
  H     13.010820  -21.308290  -10.169610
  H     15.999200  -25.292760  -12.415370
  H     16.963190  -24.114430   -9.763350
  H     20.353330  -28.012840   -9.455240
  H     20.865780  -28.187200  -14.426220
  H     21.107080  -28.731890  -12.008850
  H     19.058140  -25.507930  -15.621560
  H     18.191860  -23.761630  -13.030280
  H     17.035140  -25.357760  -15.378910
  H     16.845610  -23.574210  -15.032750

 Total Charge           Charge          ....    0
 Multiplicity           Mult            ....    1
 Number of Electrons    NEL             ....  530
 Basis Dimension        Dim             .... 1164

ORBITAL ENERGIES
----------------

  NO   OCC          E(Eh)            E(eV)
   0   2.0000     -88.954253     -2420.5683
   1   2.0000     -88.953593     -2420.5503
   2   2.0000     -88.950744     -2420.4728
   3   2.0000     -88.950181     -2420.4575
   4   2.0000     -88.948051     -2420.3995
   5   2.0000     -88.945978     -2420.3431
   6   2.0000     -88.945865     -2420.3400
   7   2.0000     -88.945206     -2420.3221
   8   2.0000     -19.236604      -523.4546
   9   2.0000     -19.233342      -523.3658
  10   2.0000     -14.447447      -393.1350
  11   2.0000     -14.447356      -393.1325
  12   2.0000     -10.328721      -281.0588
  13   2.0000     -10.327842      -281.0349
  14   2.0000     -10.301117      -280.3076
  15   2.0000     -10.300289      -280.2851
  16   2.0000     -10.299645      -280.2676
  17   2.0000     -10.297928      -280.2209
  18   2.0000     -10.297120      -280.1989
  19   2.0000     -10.296686      -280.1871
  20   2.0000     -10.296117      -280.1716
  21   2.0000     -10.295737      -280.1612
  22   2.0000     -10.295548      -280.1561
  23   2.0000     -10.294519      -280.1281
  24   2.0000     -10.294422      -280.1255
  25   2.0000     -10.292156      -280.0638
  26   2.0000     -10.291765      -280.0532
  27   2.0000     -10.291171      -280.0370
  28   2.0000     -10.289391      -279.9886
  29   2.0000     -10.287041      -279.9246
  30   2.0000     -10.283887      -279.8388
  31   2.0000     -10.281406      -279.7713
  32   2.0000     -10.280946      -279.7588
  33   2.0000     -10.280933      -279.7584
  34   2.0000     -10.279217      -279.7117
  35   2.0000     -10.278714      -279.6980
  36   2.0000     -10.277827      -279.6739
  37   2.0000     -10.274811      -279.5918
  38   2.0000     -10.273771      -279.5635
  39   2.0000     -10.273634      -279.5598
  40   2.0000     -10.273581      -279.5584
  41   2.0000     -10.273504      -279.5563
  42   2.0000     -10.271920      -279.5132
  43   2.0000     -10.270526      -279.4752
  44   2.0000     -10.270417      -279.4722
  45   2.0000     -10.270387      -279.4714
  46   2.0000     -10.270177      -279.4657
  47   2.0000     -10.269708      -279.4530
  48   2.0000     -10.269455      -279.4461
  49   2.0000     -10.269288      -279.4415
  50   2.0000     -10.268472      -279.4193
  51   2.0000     -10.268262      -279.4136
  52   2.0000     -10.267816      -279.4015
  53   2.0000     -10.266847      -279.3751
  54   2.0000     -10.266100      -279.3548
  55   2.0000     -10.266075      -279.3541
  56   2.0000     -10.265950      -279.3507
  57   2.0000     -10.265917      -279.3498
  58   2.0000     -10.265680      -279.3434
  59   2.0000     -10.265562      -279.3401
  60   2.0000     -10.265039      -279.3259
  61   2.0000     -10.264680      -279.3161
  62   2.0000     -10.263994      -279.2975
  63   2.0000     -10.263611      -279.2871
  64   2.0000     -10.263208      -279.2761
  65   2.0000     -10.262833      -279.2659
  66   2.0000     -10.252649      -278.9888
  67   2.0000     -10.252506      -278.9849
  68   2.0000      -8.049948      -219.0502
  69   2.0000      -8.049293      -219.0324
  70   2.0000      -8.046718      -218.9623
  71   2.0000      -8.045927      -218.9408
  72   2.0000      -8.043671      -218.8794
  73   2.0000      -8.041674      -218.8251
  74   2.0000      -8.041596      -218.8229
  75   2.0000      -8.040828      -218.8021
  76   2.0000      -6.018882      -163.7821
  77   2.0000      -6.018181      -163.7630
  78   2.0000      -6.015940      -163.7021
  79   2.0000      -6.015296      -163.6845
  80   2.0000      -6.014502      -163.6629
  81   2.0000      -6.014061      -163.6509
  82   2.0000      -6.013133      -163.6257
  83   2.0000      -6.013062      -163.6237
  84   2.0000      -6.012285      -163.6026
  85   2.0000      -6.011920      -163.5927
  86   2.0000      -6.011233      -163.5740
  87   2.0000      -6.010915      -163.5653
  88   2.0000      -6.010855      -163.5637
  89   2.0000      -6.010113      -163.5435
  90   2.0000      -6.008971      -163.5124
  91   2.0000      -6.008823      -163.5084
  92   2.0000      -6.007796      -163.4804
  93   2.0000      -6.006902      -163.4561
  94   2.0000      -6.006864      -163.4551
  95   2.0000      -6.006237      -163.4380
  96   2.0000      -6.005562      -163.4197
  97   2.0000      -6.003797      -163.3716
  98   2.0000      -6.003673      -163.3682
  99   2.0000      -6.002725      -163.3425
 100   2.0000      -1.133426       -30.8421
 101   2.0000      -1.131467       -30.7888
 102   2.0000      -1.078380       -29.3442
 103   2.0000      -1.042281       -28.3619
 104   2.0000      -0.991581       -26.9823
 105   2.0000      -0.988523       -26.8991
 106   2.0000      -0.983899       -26.7732
 107   2.0000      -0.980685       -26.6858
 108   2.0000      -0.977574       -26.6012
 109   2.0000      -0.974691       -26.5227
 110   2.0000      -0.960596       -26.1392
 111   2.0000      -0.957861       -26.0647
 112   2.0000      -0.919063       -25.0090
 113   2.0000      -0.917545       -24.9677
 114   2.0000      -0.897621       -24.4255
 115   2.0000      -0.897285       -24.4164
 116   2.0000      -0.892597       -24.2888
 117   2.0000      -0.891352       -24.2549
 118   2.0000      -0.876365       -23.8471
 119   2.0000      -0.865637       -23.5552
 120   2.0000      -0.858816       -23.3696
 121   2.0000      -0.853481       -23.2244
 122   2.0000      -0.848547       -23.0901
 123   2.0000      -0.840293       -22.8655
 124   2.0000      -0.835763       -22.7423
 125   2.0000      -0.833990       -22.6940
 126   2.0000      -0.827587       -22.5198
 127   2.0000      -0.822380       -22.3781
 128   2.0000      -0.820869       -22.3370
 129   2.0000      -0.818179       -22.2638
 130   2.0000      -0.814993       -22.1771
 131   2.0000      -0.814161       -22.1544
 132   2.0000      -0.812634       -22.1129
 133   2.0000      -0.807406       -21.9706
 134   2.0000      -0.802036       -21.8245
 135   2.0000      -0.786440       -21.4001
 136   2.0000      -0.779944       -21.2233
 137   2.0000      -0.768244       -20.9050
 138   2.0000      -0.759899       -20.6779
 139   2.0000      -0.744380       -20.2556
 140   2.0000      -0.729438       -19.8490
 141   2.0000      -0.719646       -19.5826
 142   2.0000      -0.718070       -19.5397
 143   2.0000      -0.703632       -19.1468
 144   2.0000      -0.694122       -18.8880
 145   2.0000      -0.687666       -18.7123
 146   2.0000      -0.682858       -18.5815
 147   2.0000      -0.682227       -18.5643
 148   2.0000      -0.677815       -18.4443
 149   2.0000      -0.675065       -18.3695
 150   2.0000      -0.672100       -18.2888
 151   2.0000      -0.658995       -17.9322
 152   2.0000      -0.657080       -17.8801
 153   2.0000      -0.652186       -17.7469
 154   2.0000      -0.648352       -17.6425
 155   2.0000      -0.641913       -17.4674
 156   2.0000      -0.635008       -17.2794
 157   2.0000      -0.626791       -17.0558
 158   2.0000      -0.625782       -17.0284
 159   2.0000      -0.617646       -16.8070
 160   2.0000      -0.615213       -16.7408
 161   2.0000      -0.612239       -16.6599
 162   2.0000      -0.611152       -16.6303
 163   2.0000      -0.607652       -16.5350
 164   2.0000      -0.606281       -16.4977
 165   2.0000      -0.604925       -16.4609
 166   2.0000      -0.602971       -16.4077
 167   2.0000      -0.597392       -16.2559
 168   2.0000      -0.595688       -16.2095
 169   2.0000      -0.594216       -16.1694
 170   2.0000      -0.582642       -15.8545
 171   2.0000      -0.579152       -15.7595
 172   2.0000      -0.579093       -15.7579
 173   2.0000      -0.565340       -15.3837
 174   2.0000      -0.560634       -15.2556
 175   2.0000      -0.553896       -15.0723
 176   2.0000      -0.552307       -15.0290
 177   2.0000      -0.544419       -14.8144
 178   2.0000      -0.541784       -14.7427
 179   2.0000      -0.536224       -14.5914
 180   2.0000      -0.533077       -14.5058
 181   2.0000      -0.523693       -14.2504
 182   2.0000      -0.522035       -14.2053
 183   2.0000      -0.516315       -14.0496
 184   2.0000      -0.515556       -14.0290
 185   2.0000      -0.514132       -13.9902
 186   2.0000      -0.512360       -13.9420
 187   2.0000      -0.510659       -13.8957
 188   2.0000      -0.504985       -13.7413
 189   2.0000      -0.502491       -13.6735
 190   2.0000      -0.500855       -13.6290
 191   2.0000      -0.496680       -13.5153
 192   2.0000      -0.494394       -13.4532
 193   2.0000      -0.492374       -13.3982
 194   2.0000      -0.490692       -13.3524
 195   2.0000      -0.490099       -13.3363
 196   2.0000      -0.487459       -13.2644
 197   2.0000      -0.486529       -13.2391
 198   2.0000      -0.485416       -13.2088
 199   2.0000      -0.483000       -13.1431
 200   2.0000      -0.478565       -13.0224
 201   2.0000      -0.477292       -12.9878
 202   2.0000      -0.475260       -12.9325
 203   2.0000      -0.474486       -12.9114
 204   2.0000      -0.472982       -12.8705
 205   2.0000      -0.472024       -12.8444
 206   2.0000      -0.467700       -12.7268
 207   2.0000      -0.467269       -12.7150
 208   2.0000      -0.463790       -12.6204
 209   2.0000      -0.462075       -12.5737
 210   2.0000      -0.461869       -12.5681
 211   2.0000      -0.460078       -12.5193
 212   2.0000      -0.456814       -12.4305
 213   2.0000      -0.453673       -12.3451
 214   2.0000      -0.453081       -12.3290
 215   2.0000      -0.452143       -12.3034
 216   2.0000      -0.449575       -12.2336
 217   2.0000      -0.445971       -12.1355
 218   2.0000      -0.444189       -12.0870
 219   2.0000      -0.443554       -12.0697
 220   2.0000      -0.441531       -12.0147
 221   2.0000      -0.439480       -11.9589
 222   2.0000      -0.437910       -11.9161
 223   2.0000      -0.435300       -11.8451
 224   2.0000      -0.430795       -11.7225
 225   2.0000      -0.427636       -11.6366
 226   2.0000      -0.425004       -11.5649
 227   2.0000      -0.423063       -11.5121
 228   2.0000      -0.420288       -11.4366
 229   2.0000      -0.412917       -11.2360
 230   2.0000      -0.411966       -11.2102
 231   2.0000      -0.406933       -11.0732
 232   2.0000      -0.406773       -11.0688
 233   2.0000      -0.404640       -11.0108
 234   2.0000      -0.404374       -11.0036
 235   2.0000      -0.401488       -10.9250
 236   2.0000      -0.396320       -10.7844
 237   2.0000      -0.396092       -10.7782
 238   2.0000      -0.394830       -10.7439
 239   2.0000      -0.386970       -10.5300
 240   2.0000      -0.383931       -10.4473
 241   2.0000      -0.379620       -10.3300
 242   2.0000      -0.372451       -10.1349
 243   2.0000      -0.367593       -10.0027
 244   2.0000      -0.356080        -9.6894
 245   2.0000      -0.347519        -9.4565
 246   2.0000      -0.335664        -9.1339
 247   2.0000      -0.325759        -8.8643
 248   2.0000      -0.323295        -8.7973
 249   2.0000      -0.322483        -8.7752
 250   2.0000      -0.317757        -8.6466
 251   2.0000      -0.315913        -8.5964
 252   2.0000      -0.312603        -8.5064
 253   2.0000      -0.310700        -8.4546
 254   2.0000      -0.309444        -8.4204
 255   2.0000      -0.295405        -8.0384
 256   2.0000      -0.290065        -7.8931
 257   2.0000      -0.287025        -7.8103
 258   2.0000      -0.278765        -7.5856
 259   2.0000      -0.275483        -7.4963
 260   2.0000      -0.256121        -6.9694
 261   2.0000      -0.244797        -6.6613
 262   2.0000      -0.228140        -6.2080
 263   2.0000      -0.216754        -5.8982
 264   2.0000      -0.196020        -5.3340
 265   0.0000      -0.054840        -1.4923
 266   0.0000      -0.045262        -1.2316
 267   0.0000      -0.031577        -0.8593
 268   0.0000      -0.020806        -0.5661
 269   0.0000      -0.008173        -0.2224

MULLIKEN ATOMIC CHARGES
-----------------------
   0 C :   -0.185166
   1 S :    0.139986
   2 C :   -0.144485
   3 C :    0.098256
   4 C :    0.075316
   5 C :    0.082827
   6 C :    0.057364
   7 C :   -0.002779
   8 C :    0.013254
   9 O :   -0.187950
  10 C :   -0.069175
  11 C :    0.013446
  12 C :   -0.081437
  13 S :    0.118205
  14 C :   -0.046019
  15 C :   -0.004062
  16 C :    0.010152
  17 C :   -0.028186
  18 C :   -0.004204
  19 C :   -0.015076
  20 C :   -0.031145
  21 S :    0.114198
  22 C :   -0.037711
  23 S :    0.089995
  24 C :   -0.033037
  25 C :    0.006582
  26 C :   -0.010256
  27 C :    0.006183
  28 C :   -0.002023
  29 C :    0.104328
  30 N :   -0.037840
  31 C :    0.112332
  32 C :   -0.179942
  33 C :    0.102927
  34 N :   -0.039118
  35 C :    0.112577
  36 C :   -0.180323
  37 C :    0.005089
  38 C :    0.045689
  39 C :   -0.067714
  40 S :    0.115085
  41 C :   -0.048212
  42 C :   -0.005934
  43 C :    0.004502
  44 C :   -0.028226
  45 C :   -0.003847
  46 C :   -0.017163
  47 C :   -0.027708
  48 S :    0.114304
  49 C :   -0.045609
  50 S :    0.112220
  51 C :   -0.089566
  52 C :    0.014560
  53 C :   -0.017441
  54 C :    0.084958
  55 C :   -0.005780
  56 C :   -0.215351
  57 S :    0.142181
  58 C :   -0.129701
  59 C :    0.079706
  60 C :    0.138965
  61 C :   -0.003420
  62 C :    0.074949
  63 C :   -0.003418
  64 C :    0.008618
  65 O :   -0.187999
  66 C :   -0.074340
  67 C :   -0.068054
  68 H :    0.010029
  69 H :    0.012437
  70 H :   -0.016415
  71 H :   -0.026208
  72 H :    0.175340
  73 H :   -0.001612
  74 H :   -0.005449
  75 H :   -0.023734
  76 H :   -0.021831
  77 H :   -0.022238
  78 H :   -0.015815
  79 H :   -0.023197
  80 H :   -0.013756
  81 H :   -0.018748
  82 H :   -0.027245
  83 H :    0.117405
  84 H :   -0.040235
  85 H :    0.116873
  86 H :   -0.041779
  87 H :   -0.037275
  88 H :   -0.023374
  89 H :   -0.025082
  90 H :   -0.027966
  91 H :   -0.024459
  92 H :   -0.015440
  93 H :   -0.022840
  94 H :   -0.014523
  95 H :   -0.004695
  96 H :   -0.015768
  97 H :    0.014727
  98 H :   -0.016035
  99 H :   -0.024436
 100 H :    0.168774
 101 H :    0.030130
 102 H :    0.032121
 103 H :    0.032978
Sum of atomic charges:   -0.0000000

LOEWDIN ATOMIC CHARGES
----------------------
   0 C :   -0.225171
   1 S :    0.476783
   2 C :   -0.200651
   3 C :   -0.063767
   4 C :   -0.038983
   5 C :   -0.091217
   6 C :    0.061741
   7 C :   -0.042952
   8 C :   -0.000281
   9 O :   -0.049292
  10 C :   -0.007828
  11 C :   -0.067795
  12 C :   -0.174287
  13 S :    0.423919
  14 C :   -0.186462
  15 C :   -0.055119
  16 C :   -0.057411
  17 C :   -0.185206
  18 C :   -0.054628
  19 C :   -0.064787
  20 C :   -0.180020
  21 S :    0.423990
  22 C :   -0.184200
  23 S :    0.414807
  24 C :   -0.161433
  25 C :   -0.061446
  26 C :   -0.063783
  27 C :   -0.046753
  28 C :   -0.041834
  29 C :   -0.005344
  30 N :    0.067801
  31 C :   -0.023006
  32 C :   -0.097376
  33 C :   -0.005088
  34 N :    0.066883
  35 C :   -0.023293
  36 C :   -0.097752
  37 C :   -0.031271
  38 C :   -0.051413
  39 C :   -0.166502
  40 S :    0.419792
  41 C :   -0.192203
  42 C :   -0.053715
  43 C :   -0.064152
  44 C :   -0.182332
  45 C :   -0.057895
  46 C :   -0.063771
  47 C :   -0.184133
  48 S :    0.422272
  49 C :   -0.186409
  50 S :    0.427200
  51 C :   -0.168174
  52 C :   -0.058588
  53 C :   -0.063153
  54 C :   -0.042685
  55 C :   -0.050446
  56 C :   -0.195554
  57 S :    0.470424
  58 C :   -0.196311
  59 C :   -0.061832
  60 C :   -0.035756
  61 C :   -0.097358
  62 C :    0.065458
  63 C :   -0.041195
  64 C :    0.000855
  65 O :   -0.052194
  66 C :    0.001997
  67 C :   -0.075978
  68 H :    0.017249
  69 H :    0.021266
  70 H :    0.034138
  71 H :    0.030689
  72 H :    0.081119
  73 H :    0.027717
  74 H :    0.026555
  75 H :    0.028099
  76 H :    0.027674
  77 H :    0.028497
  78 H :    0.025865
  79 H :    0.028291
  80 H :    0.025424
  81 H :    0.032287
  82 H :    0.019127
  83 H :    0.087149
  84 H :    0.021287
  85 H :    0.086384
  86 H :    0.020807
  87 H :    0.024019
  88 H :    0.025853
  89 H :    0.027444
  90 H :    0.024981
  91 H :    0.027809
  92 H :    0.025632
  93 H :    0.027024
  94 H :    0.025524
  95 H :    0.030562
  96 H :    0.024592
  97 H :    0.022357
  98 H :    0.034434
  99 H :    0.031305
 100 H :    0.077821
 101 H :    0.037186
 102 H :    0.023149
 103 H :    0.026940

  Mayer bond orders larger than 0.100000
B(  0-C ,  1-S ) :   1.1870 B(  0-C ,  2-C ) :   0.1044 B(  0-C ,  4-C ) :   1.4815
B(  0-C , 68-H ) :   0.9526 B(  1-S ,  2-C ) :   1.2261 B(  2-C ,  3-C ) :   1.4284
B(  2-C , 69-H ) :   0.9693 B(  3-C ,  4-C ) :   1.1988 B(  3-C ,  8-C ) :   1.1456
B(  4-C ,  5-C ) :   1.1445 B(  5-C ,  6-C ) :   1.4311 B(  5-C , 10-C ) :   1.0496
B(  6-C ,  7-C ) :   1.1947 B(  6-C ,  9-O ) :   1.2409 B(  7-C ,  8-C ) :   1.5549
B(  7-C , 70-H ) :   0.9884 B(  8-C , 71-H ) :   1.0029 B(  9-O , 72-H ) :   0.9475
B( 10-C , 11-C ) :   1.7271 B( 10-C , 73-H ) :   0.9569 B( 11-C , 12-C ) :   1.0982
B( 11-C , 74-H ) :   0.9582 B( 12-C , 13-S ) :   1.1139 B( 12-C , 14-C ) :   0.1063
B( 12-C , 16-C ) :   1.5149 B( 13-S , 14-C ) :   1.1242 B( 14-C , 15-C ) :   1.5192
B( 14-C , 17-C ) :   1.1102 B( 15-C , 16-C ) :   1.2727 B( 15-C , 75-H ) :   0.9950
B( 16-C , 76-H ) :   0.9910 B( 17-C , 18-C ) :   1.5300 B( 17-C , 20-C ) :   0.1061
B( 17-C , 21-S ) :   1.1114 B( 18-C , 19-C ) :   1.2609 B( 18-C , 77-H ) :   0.9959
B( 19-C , 20-C ) :   1.5020 B( 19-C , 78-H ) :   0.9926 B( 20-C , 21-S ) :   1.1185
B( 20-C , 22-C ) :   1.1593 B( 22-C , 23-S ) :   1.1103 B( 22-C , 26-C ) :   1.5052
B( 23-S , 24-C ) :   1.0987 B( 24-C , 25-C ) :   1.4768 B( 24-C , 27-C ) :   1.1609
B( 25-C , 26-C ) :   1.2550 B( 25-C , 79-H ) :   1.0013 B( 26-C , 80-H ) :   0.9922
B( 27-C , 28-C ) :   1.6492 B( 27-C , 81-H ) :   0.9795 B( 28-C , 29-C ) :   1.1194
B( 28-C , 82-H ) :   0.9589 B( 29-C , 30-N ) :   1.1697 B( 29-C , 36-C ) :   1.4082
B( 30-N , 31-C ) :   1.1640 B( 30-N , 83-H ) :   0.9381 B( 31-C , 32-C ) :   1.2571
B( 31-C , 35-C ) :   1.3172 B( 32-C , 33-C ) :   1.4082 B( 32-C , 84-H ) :   1.0308
B( 33-C , 34-N ) :   1.1672 B( 33-C , 37-C ) :   1.1156 B( 34-N , 35-C ) :   1.1640
B( 34-N , 85-H ) :   0.9378 B( 35-C , 36-C ) :   1.2581 B( 36-C , 86-H ) :   1.0305
B( 37-C , 38-C ) :   1.6911 B( 37-C , 87-H ) :   0.9610 B( 38-C , 39-C ) :   1.1189
B( 38-C , 88-H ) :   0.9636 B( 39-C , 40-S ) :   1.1134 B( 39-C , 41-C ) :   0.1043
B( 39-C , 43-C ) :   1.4881 B( 40-S , 41-C ) :   1.1164 B( 41-C , 42-C ) :   1.5106
B( 41-C , 44-C ) :   1.1153 B( 42-C , 43-C ) :   1.2824 B( 42-C , 89-H ) :   0.9954
B( 43-C , 90-H ) :   0.9913 B( 44-C , 45-C ) :   1.5265 B( 44-C , 47-C ) :   0.1057
B( 44-C , 48-S ) :   1.1125 B( 45-C , 46-C ) :   1.2623 B( 45-C , 91-H ) :   0.9955
B( 46-C , 47-C ) :   1.5034 B( 46-C , 92-H ) :   0.9928 B( 47-C , 48-S ) :   1.1159
B( 47-C , 49-C ) :   1.1537 B( 49-C , 50-S ) :   1.1223 B( 49-C , 53-C ) :   1.4949
B( 50-S , 51-C ) :   1.1110 B( 51-C , 52-C ) :   1.5074 B( 51-C , 54-C ) :   1.1302
B( 52-C , 53-C ) :   1.2727 B( 52-C , 93-H ) :   0.9908 B( 53-C , 94-H ) :   0.9921
B( 54-C , 55-C ) :   1.7338 B( 54-C , 95-H ) :   0.9439 B( 55-C , 56-C ) :   1.0927
B( 55-C , 96-H ) :   0.9478 B( 56-C , 57-S ) :   1.1506 B( 56-C , 58-C ) :   0.1068
B( 56-C , 60-C ) :   1.3986 B( 57-S , 58-C ) :   1.2045 B( 58-C , 59-C ) :   1.4261
B( 58-C , 97-H ) :   0.9706 B( 59-C , 60-C ) :   1.1953 B( 59-C , 64-C ) :   1.1429
B( 60-C , 61-C ) :   1.1838 B( 61-C , 62-C ) :   1.4494 B( 61-C , 66-C ) :   1.0242
B( 62-C , 63-C ) :   1.1925 B( 62-C , 65-O ) :   1.2495 B( 63-C , 64-C ) :   1.5572
B( 63-C , 98-H ) :   0.9919 B( 64-C , 99-H ) :   1.0040 B( 65-O ,100-H ) :   0.9410
B( 66-C , 67-C ) :   1.9323 B( 66-C ,101-H ) :   0.9495 B( 67-C ,102-H ) :   0.9597
B( 67-C ,103-H ) :   0.9514

-----------------------------------------------------------------------------
         ABSORPTION SPECTRUM VIA TRANSITION ELECTRIC DIPOLE MOMENTS
-----------------------------------------------------------------------------
State   Energy  Wavelength   fosc         T2         TX        TY        TZ
        (cm-1)    (nm)                  (au**2)     (au)      (au)      (au)
-----------------------------------------------------------------------------
   0   17303.6    577.9   4.032567858  76.72219   5.94776  -6.02550  -2.24492
   1   21003.9    476.1   0.360097973   5.64413   1.62260   0.35216   1.69920
   2   23807.6    420.0   0.390285578   5.39687  -1.96655   1.23431  -0.07773
   3   24583.5    406.8   0.178182422   2.38614   1.02392  -1.01838  -0.54830
   4   26078.5    383.5   0.112809871   1.42410   0.92944  -0.64937  -0.37224
   5   27063.8    369.5   0.084400407   1.02667  -0.03191   0.84533   0.55774
   6   27995.4    357.2   0.042872599   0.50416   0.62093  -0.26652   0.21809
   7   28818.3    347.0   0.029683151   0.33909  -0.33033   0.43906   0.19287
   8   29646.4    337.3   0.049375864   0.54830   0.73185  -0.05886  -0.09611
   9   30394.5    329.0   0.139515297   1.51113  -1.00485   0.70764   0.02545
  10   31057.2    322.0   0.032778723   0.34746   0.51046  -0.14392  -0.25725
  11   31724.4    315.2   0.008134022   0.08441   0.27590  -0.02865   0.08642
  12   32729.7    305.5   0.019243667   0.19356   0.17394  -0.37543  -0.14953
  13   32987.6    303.1   0.102050195   1.01845   0.10117   0.48055   0.88163
  14   33667.1    297.0   0.048426231   0.47353  -0.25666  -0.22015  -0.59933
  15   34003.0    294.1   0.045830803   0.44373  -0.63444   0.15658  -0.12921
  16   34337.1    291.2   0.052368529   0.50209  -0.65796   0.00935  -0.26286
  17   35307.7    283.2   0.002198606   0.02050   0.07693  -0.11997  -0.01380
  18   35786.6    279.4   0.037221978   0.34242   0.53467  -0.21329   0.10511
  19   35920.5    278.4   0.044412810   0.40704   0.45940  -0.43686  -0.07172
  20   36038.4    277.5   0.028406900   0.25950   0.32094   0.16551   0.35931
  21   36570.2    273.4   0.017793434   0.16018   0.21527  -0.33488  -0.04118
  22   36860.2    271.3   0.012105123   0.10812  -0.17277   0.25634   0.11205
  23   37161.3    269.1   0.052449007   0.46465  -0.45412   0.33263  -0.38442
  24   37937.5    263.6   0.031230238   0.27101   0.39921  -0.06300  -0.32813
  25   38184.6    261.9   0.034879813   0.30072   0.33204   0.06546   0.43149
  26   38508.8    259.7   0.011669223   0.09976   0.05478   0.15722  -0.26840
  27   38831.6    257.5   0.044982475   0.38136   0.51156  -0.33158   0.09859
  28   39387.7    253.9   0.024359869   0.20361   0.23562  -0.07247   0.37794
  29   39842.8    251.0   0.097400992   0.80480   0.37304  -0.46437   0.67082
  30   40095.8    249.4   0.026360659   0.21644   0.36118  -0.22430  -0.18888

FINAL SINGLE POINT ENERGY     -5596.971430435007

DIPOLE MOMENT
-------------
                                X             Y             Z
Electronic contribution:    -11.94437      10.55688      15.93852
Nuclear contribution   :     12.14622     -10.48820     -15.85314
                        -----------------------------------------
Total Dipole Moment    :      0.20184       0.06867       0.08538
                        -----------------------------------------
Magnitude (a.u.)       :      0.22967
Magnitude (Debye)      :      0.58377

Rotational constants in cm-1:     0.002854     0.000082     0.000080
Rotational constants in MHz :    85.564416     2.443963     2.387940

                             ****ORCA TERMINATED NORMALLY****
TOTAL RUN TIME: 0 days 0 hours 8 minutes 18 seconds 978 msec
