                         Program Version 4.2.0 -  RELEASE  -
|  1> # ORCA input file
|  2> # SCF done       -173.475196131735          0.000436077471
|  3> ! CAM-B3LYP def2-SVP def2/J RIJCOSX Grid4 TightSCF
|  4> %maxcore 5000
|  5> %tddft
|  6>     Mode sTDDFT
|  7>     Ethresh 5.0
|  8>     maxcore 5000
|  9> end
| 10>
| 11> %pal
| 12>   nprocs 6
| 13>   end
| 14> * xyz 0 1
| 15>    C        8.13638         8.86560        -9.75042
| 16>    S        6.45335         9.09562        -9.98067
| 17>    C        6.08840         8.41034        -8.42419
| 18>    C        7.24620         8.01637        -7.78151
| 19>    C        8.41899         8.29344        -8.54513
| 20>    O        9.70692         8.05438        -8.14963
| 21>    C        9.93906         8.24451        -6.76552
| 22>    C        9.57251         7.02017        -5.91912
| 23>    C        8.23513         6.42558        -6.37076
| 24>    O        7.22443         7.40058        -6.55971
| 25>    C        4.74463         8.30422        -7.96061
| 26>    S        3.41747         8.80967        -8.96708
| 27>    C        2.26336         8.36986        -7.73764
| 28>    C        2.90155         7.86286        -6.62815
| 29>    C        4.29251         7.82946        -6.75024
| 30>    C        0.87178         8.56495        -7.94352
| 31>    C        0.24315         9.13881        -9.02568
| 32>    C       -1.14498         9.19721        -8.89717
| 33>    C       -1.61053         8.66424        -7.71547
| 34>    S       -0.29043         8.07589        -6.73939
| 35>    C       -2.95156         8.57363        -7.26141
| 36>    S       -4.25722         9.26667        -8.18085
| 37>    C       -5.43314         8.75934        -6.99512
| 38>    C       -4.81115         8.08740        -5.96127
| 39>    C       -3.42888         7.98698        -6.10868
| 40>    C       -6.79984         9.08872        -7.19474
| 41>    C       -7.81955         8.72361        -6.38070
| 42>    C       -9.17615         9.09832        -6.56590
| 43>    N      -10.15752         8.64866        -5.70196
| 44>    C      -11.35052         9.17585        -6.08457
| 45>    C      -12.70760         9.23410        -5.77755
| 46>    C      -13.28410        10.08204        -6.72881
| 47>    N      -12.30361        10.52477        -7.59628
| 48>    C      -11.11477         9.98402        -7.22314
| 49>    C       -9.75685         9.93237        -7.52626
| 50>    C      -14.62543        10.51845        -6.87818
| 51>    C      -15.67302        10.13039        -6.11303
| 52>    C      -16.99988        10.60729        -6.26615
| 53>    S      -17.42733        11.82352        -7.44434
| 54>    C      -19.09538        11.79679        -6.93895
| 55>    C      -19.28227        10.88696        -5.92116
| 56>    C      -18.11365        10.22651        -5.54507
| 57>    C      -20.05526        12.64597        -7.54630
| 58>    C      -19.86368        13.58994        -8.53112
| 59>    C      -21.03022        14.26582        -8.88995
| 60>    C      -22.14239        13.85344        -8.19021
| 61>    S      -21.72863        12.59337        -7.05758
| 62>    C      -23.47641        14.32545        -8.29453
| 63>    S      -23.88727        15.62036        -9.38627
| 64>    C      -25.56219        15.56006        -8.90173
| 65>    C      -25.75321        14.57975        -7.95045
| 66>    C      -24.58979        13.89051        -7.60943
| 67>    C      -26.54983        16.42654        -9.44276
| 68>    C      -26.30550        17.38014       -10.36746
| 69>    C      -27.27348        18.26705       -10.91887
| 70>    S      -26.77097        19.41869       -12.12808
| 71>    C      -28.35135        20.05715       -12.25979
| 72>    C      -29.23889        19.41819       -11.44315
| 73>    C      -28.62960        18.38814       -10.66645
| 74>    O      -29.24720        17.57779        -9.76346
| 75>    C      -30.60130        17.85953        -9.45938
| 76>    C      -30.80884        19.31922        -9.05228
| 77>    C      -31.15096        20.18759       -10.27201
| 78>    O      -30.58052        19.71507       -11.47659
| 79>    H        8.83580         9.16044       -10.50477
| 80>    H        9.37528         9.11858        -6.41530
| 81>    H       11.00683         8.45924        -6.67484
| 82>    H        9.51735         7.33050        -4.87533
| 83>    H       10.33607         6.24805        -6.01657
| 84>    H        7.84758         5.74879        -5.60462
| 85>    H        8.37703         5.85886        -7.29942
| 86>    H        2.36461         7.53468        -5.75539
| 87>    H        4.95891         7.47737        -5.98570
| 88>    H        0.78805         9.50568        -9.87760
| 89>    H       -1.80386         9.61421        -9.63830
| 90>    H       -5.34376         7.68772        -5.11741
| 91>    H       -2.77800         7.50280        -5.40150
| 92>    H       -7.01493         9.68371        -8.07048
| 93>    H       -7.61157         8.10790        -5.51529
| 94>    H       -9.99291         8.03116        -4.92609
| 95>    H      -13.22489         8.74498        -4.97735
| 96>    H      -12.46913        11.14605        -8.36895
| 97>    H       -9.24028        10.42940        -8.32172
| 98>    H      -14.81000        11.22942        -7.67541
| 99>    H      -15.52541         9.41066        -5.32028
|100>    H      -20.24519        10.72066        -5.47058
|101>    H      -18.07055         9.48605        -4.76594
|102>    H      -18.89828        13.77672        -8.96742
|103>    H      -21.07647        15.03761        -9.63787
|104>    H      -26.71700        14.37642        -7.51820
|105>    H      -24.54539        13.09457        -6.88668
|106>    H      -27.55249        16.28763        -9.06774
|107>    H      -25.29669        17.50781       -10.74021
|108>    H      -28.56935        20.84532       -12.95119
|109>    H      -30.83219        17.18656        -8.63056
|110>    H      -31.24258        17.60545       -10.31316
|111>    H      -29.88853        19.67216        -8.58055
|112>    H      -31.61367        19.39799        -8.32225
|113>    H      -30.84290        21.22774       -10.09228
|114>    H      -32.22666        20.16993       -10.46485
|115> *
|116>
|117>                          ****END OF INPUT****

CARTESIAN COORDINATES (ANGSTROEM)
---------------------------------
  C      8.136380    8.865600   -9.750420
  S      6.453350    9.095620   -9.980670
  C      6.088400    8.410340   -8.424190
  C      7.246200    8.016370   -7.781510
  C      8.418990    8.293440   -8.545130
  O      9.706920    8.054380   -8.149630
  C      9.939060    8.244510   -6.765520
  C      9.572510    7.020170   -5.919120
  C      8.235130    6.425580   -6.370760
  O      7.224430    7.400580   -6.559710
  C      4.744630    8.304220   -7.960610
  S      3.417470    8.809670   -8.967080
  C      2.263360    8.369860   -7.737640
  C      2.901550    7.862860   -6.628150
  C      4.292510    7.829460   -6.750240
  C      0.871780    8.564950   -7.943520
  C      0.243150    9.138810   -9.025680
  C     -1.144980    9.197210   -8.897170
  C     -1.610530    8.664240   -7.715470
  S     -0.290430    8.075890   -6.739390
  C     -2.951560    8.573630   -7.261410
  S     -4.257220    9.266670   -8.180850
  C     -5.433140    8.759340   -6.995120
  C     -4.811150    8.087400   -5.961270
  C     -3.428880    7.986980   -6.108680
  C     -6.799840    9.088720   -7.194740
  C     -7.819550    8.723610   -6.380700
  C     -9.176150    9.098320   -6.565900
  N    -10.157520    8.648660   -5.701960
  C    -11.350520    9.175850   -6.084570
  C    -12.707600    9.234100   -5.777550
  C    -13.284100   10.082040   -6.728810
  N    -12.303610   10.524770   -7.596280
  C    -11.114770    9.984020   -7.223140
  C     -9.756850    9.932370   -7.526260
  C    -14.625430   10.518450   -6.878180
  C    -15.673020   10.130390   -6.113030
  C    -16.999880   10.607290   -6.266150
  S    -17.427330   11.823520   -7.444340
  C    -19.095380   11.796790   -6.938950
  C    -19.282270   10.886960   -5.921160
  C    -18.113650   10.226510   -5.545070
  C    -20.055260   12.645970   -7.546300
  C    -19.863680   13.589940   -8.531120
  C    -21.030220   14.265820   -8.889950
  C    -22.142390   13.853440   -8.190210
  S    -21.728630   12.593370   -7.057580
  C    -23.476410   14.325450   -8.294530
  S    -23.887270   15.620360   -9.386270
  C    -25.562190   15.560060   -8.901730
  C    -25.753210   14.579750   -7.950450
  C    -24.589790   13.890510   -7.609430
  C    -26.549830   16.426540   -9.442760
  C    -26.305500   17.380140  -10.367460
  C    -27.273480   18.267050  -10.918870
  S    -26.770970   19.418690  -12.128080
  C    -28.351350   20.057150  -12.259790
  C    -29.238890   19.418190  -11.443150
  C    -28.629600   18.388140  -10.666450
  O    -29.247200   17.577790   -9.763460
  C    -30.601300   17.859530   -9.459380
  C    -30.808840   19.319220   -9.052280
  C    -31.150960   20.187590  -10.272010
  O    -30.580520   19.715070  -11.476590
  H      8.835800    9.160440  -10.504770
  H      9.375280    9.118580   -6.415300
  H     11.006830    8.459240   -6.674840
  H      9.517350    7.330500   -4.875330
  H     10.336070    6.248050   -6.016570
  H      7.847580    5.748790   -5.604620
  H      8.377030    5.858860   -7.299420
  H      2.364610    7.534680   -5.755390
  H      4.958910    7.477370   -5.985700
  H      0.788050    9.505680   -9.877600
  H     -1.803860    9.614210   -9.638300
  H     -5.343760    7.687720   -5.117410
  H     -2.778000    7.502800   -5.401500
  H     -7.014930    9.683710   -8.070480
  H     -7.611570    8.107900   -5.515290
  H     -9.992910    8.031160   -4.926090
  H    -13.224890    8.744980   -4.977350
  H    -12.469130   11.146050   -8.368950
  H     -9.240280   10.429400   -8.321720
  H    -14.810000   11.229420   -7.675410
  H    -15.525410    9.410660   -5.320280
  H    -20.245190   10.720660   -5.470580
  H    -18.070550    9.486050   -4.765940
  H    -18.898280   13.776720   -8.967420
  H    -21.076470   15.037610   -9.637870
  H    -26.717000   14.376420   -7.518200
  H    -24.545390   13.094570   -6.886680
  H    -27.552490   16.287630   -9.067740
  H    -25.296690   17.507810  -10.740210
  H    -28.569350   20.845320  -12.951190
  H    -30.832190   17.186560   -8.630560
  H    -31.242580   17.605450  -10.313160
  H    -29.888530   19.672160   -8.580550
  H    -31.613670   19.397990   -8.322250
  H    -30.842900   21.227740  -10.092280
  H    -32.226660   20.169930  -10.464850

 Total Charge           Charge          ....    0
 Multiplicity           Mult            ....    1
 Number of Electrons    NEL             ....  510
 Basis Dimension        Dim             .... 1108

ORBITAL ENERGIES
----------------

  NO   OCC          E(Eh)            E(eV)
   0   2.0000     -88.946576     -2420.3594
   1   2.0000     -88.944917     -2420.3142
   2   2.0000     -88.944180     -2420.2942
   3   2.0000     -88.943777     -2420.2832
   4   2.0000     -88.942634     -2420.2521
   5   2.0000     -88.942129     -2420.2384
   6   2.0000     -88.941838     -2420.2305
   7   2.0000     -88.940138     -2420.1842
   8   2.0000     -19.244851      -523.6790
   9   2.0000     -19.243862      -523.6521
  10   2.0000     -19.236803      -523.4600
  11   2.0000     -19.233453      -523.3689
  12   2.0000     -14.445252      -393.0753
  13   2.0000     -14.444823      -393.0636
  14   2.0000     -10.325186      -280.9626
  15   2.0000     -10.324382      -280.9407
  16   2.0000     -10.324371      -280.9404
  17   2.0000     -10.323790      -280.9246
  18   2.0000     -10.323139      -280.9069
  19   2.0000     -10.322981      -280.9026
  20   2.0000     -10.321549      -280.8636
  21   2.0000     -10.321459      -280.8612
  22   2.0000     -10.294990      -280.1409
  23   2.0000     -10.294791      -280.1355
  24   2.0000     -10.293952      -280.1127
  25   2.0000     -10.293946      -280.1125
  26   2.0000     -10.293807      -280.1087
  27   2.0000     -10.293413      -280.0980
  28   2.0000     -10.293106      -280.0897
  29   2.0000     -10.292980      -280.0862
  30   2.0000     -10.292339      -280.0688
  31   2.0000     -10.292267      -280.0668
  32   2.0000     -10.292145      -280.0635
  33   2.0000     -10.292115      -280.0627
  34   2.0000     -10.289086      -279.9803
  35   2.0000     -10.288956      -279.9767
  36   2.0000     -10.285847      -279.8921
  37   2.0000     -10.284550      -279.8568
  38   2.0000     -10.280800      -279.7548
  39   2.0000     -10.278995      -279.7057
  40   2.0000     -10.278531      -279.6931
  41   2.0000     -10.278478      -279.6916
  42   2.0000     -10.275814      -279.6191
  43   2.0000     -10.272266      -279.5226
  44   2.0000     -10.271435      -279.4999
  45   2.0000     -10.270763      -279.4817
  46   2.0000     -10.268889      -279.4307
  47   2.0000     -10.267948      -279.4051
  48   2.0000     -10.267757      -279.3999
  49   2.0000     -10.263992      -279.2974
  50   2.0000     -10.263571      -279.2860
  51   2.0000     -10.263172      -279.2751
  52   2.0000     -10.262659      -279.2611
  53   2.0000     -10.262644      -279.2607
  54   2.0000     -10.262260      -279.2503
  55   2.0000     -10.261412      -279.2272
  56   2.0000     -10.261255      -279.2229
  57   2.0000     -10.261236      -279.2224
  58   2.0000     -10.260492      -279.2022
  59   2.0000     -10.260408      -279.1999
  60   2.0000     -10.259619      -279.1784
  61   2.0000     -10.256018      -279.0804
  62   2.0000     -10.250512      -278.9306
  63   2.0000     -10.250110      -278.9197
  64   2.0000      -8.042226      -218.8401
  65   2.0000      -8.040439      -218.7915
  66   2.0000      -8.039751      -218.7728
  67   2.0000      -8.039670      -218.7706
  68   2.0000      -8.038504      -218.7388
  69   2.0000      -8.037913      -218.7227
  70   2.0000      -8.037455      -218.7103
  71   2.0000      -8.035744      -218.6637
  72   2.0000      -6.011689      -163.5864
  73   2.0000      -6.009860      -163.5366
  74   2.0000      -6.009179      -163.5181
  75   2.0000      -6.008992      -163.5130
  76   2.0000      -6.007924      -163.4839
  77   2.0000      -6.007599      -163.4751
  78   2.0000      -6.007206      -163.4644
  79   2.0000      -6.006751      -163.4520
  80   2.0000      -6.005796      -163.4260
  81   2.0000      -6.005111      -163.4074
  82   2.0000      -6.005035      -163.4053
  83   2.0000      -6.005020      -163.4049
  84   2.0000      -6.003950      -163.3758
  85   2.0000      -6.003814      -163.3721
  86   2.0000      -6.003201      -163.3554
  87   2.0000      -6.002854      -163.3460
  88   2.0000      -6.002241      -163.3293
  89   2.0000      -6.001532      -163.3100
  90   2.0000      -6.001521      -163.3097
  91   2.0000      -6.001096      -163.2981
  92   2.0000      -6.000286      -163.2761
  93   2.0000      -5.999893      -163.2654
  94   2.0000      -5.999353      -163.2507
  95   2.0000      -5.997696      -163.2056
  96   2.0000      -1.157166       -31.4881
  97   2.0000      -1.155812       -31.4513
  98   2.0000      -1.131566       -30.7915
  99   2.0000      -1.130667       -30.7670
 100   2.0000      -1.076068       -29.2813
 101   2.0000      -1.039940       -28.2982
 102   2.0000      -0.986366       -26.8404
 103   2.0000      -0.985219       -26.8092
 104   2.0000      -0.978072       -26.6147
 105   2.0000      -0.971852       -26.4454
 106   2.0000      -0.968897       -26.3650
 107   2.0000      -0.965199       -26.2644
 108   2.0000      -0.954485       -25.9729
 109   2.0000      -0.950823       -25.8732
 110   2.0000      -0.892345       -24.2820
 111   2.0000      -0.890611       -24.2348
 112   2.0000      -0.883964       -24.0539
 113   2.0000      -0.877240       -23.8709
 114   2.0000      -0.876955       -23.8632
 115   2.0000      -0.865561       -23.5531
 116   2.0000      -0.858417       -23.3587
 117   2.0000      -0.851415       -23.1682
 118   2.0000      -0.847868       -23.0717
 119   2.0000      -0.836670       -22.7670
 120   2.0000      -0.829891       -22.5825
 121   2.0000      -0.827073       -22.5058
 122   2.0000      -0.823943       -22.4206
 123   2.0000      -0.819798       -22.3078
 124   2.0000      -0.815535       -22.1918
 125   2.0000      -0.812605       -22.1121
 126   2.0000      -0.811172       -22.0731
 127   2.0000      -0.807289       -21.9674
 128   2.0000      -0.805020       -21.9057
 129   2.0000      -0.798589       -21.7307
 130   2.0000      -0.793878       -21.6025
 131   2.0000      -0.781222       -21.2581
 132   2.0000      -0.773629       -21.0515
 133   2.0000      -0.755714       -20.5640
 134   2.0000      -0.749124       -20.3847
 135   2.0000      -0.740942       -20.1621
 136   2.0000      -0.725435       -19.7401
 137   2.0000      -0.703068       -19.1314
 138   2.0000      -0.695530       -18.9263
 139   2.0000      -0.695176       -18.9167
 140   2.0000      -0.687051       -18.6956
 141   2.0000      -0.685853       -18.6630
 142   2.0000      -0.679493       -18.4899
 143   2.0000      -0.674911       -18.3653
 144   2.0000      -0.667143       -18.1539
 145   2.0000      -0.664957       -18.0944
 146   2.0000      -0.652424       -17.7534
 147   2.0000      -0.650284       -17.6951
 148   2.0000      -0.646382       -17.5890
 149   2.0000      -0.640393       -17.4260
 150   2.0000      -0.632905       -17.2222
 151   2.0000      -0.625023       -17.0077
 152   2.0000      -0.621869       -16.9219
 153   2.0000      -0.621023       -16.8989
 154   2.0000      -0.608965       -16.5708
 155   2.0000      -0.607569       -16.5328
 156   2.0000      -0.604872       -16.4594
 157   2.0000      -0.601109       -16.3570
 158   2.0000      -0.599548       -16.3145
 159   2.0000      -0.597842       -16.2681
 160   2.0000      -0.596408       -16.2291
 161   2.0000      -0.593037       -16.1374
 162   2.0000      -0.592036       -16.1101
 163   2.0000      -0.589396       -16.0383
 164   2.0000      -0.581382       -15.8202
 165   2.0000      -0.571855       -15.5610
 166   2.0000      -0.568931       -15.4814
 167   2.0000      -0.567805       -15.4508
 168   2.0000      -0.558492       -15.1973
 169   2.0000      -0.553512       -15.0618
 170   2.0000      -0.549649       -14.9567
 171   2.0000      -0.543171       -14.7804
 172   2.0000      -0.537068       -14.6144
 173   2.0000      -0.536212       -14.5911
 174   2.0000      -0.529434       -14.4066
 175   2.0000      -0.525879       -14.3099
 176   2.0000      -0.521648       -14.1948
 177   2.0000      -0.521203       -14.1827
 178   2.0000      -0.517804       -14.0902
 179   2.0000      -0.513035       -13.9604
 180   2.0000      -0.511960       -13.9311
 181   2.0000      -0.507967       -13.8225
 182   2.0000      -0.507237       -13.8026
 183   2.0000      -0.506915       -13.7939
 184   2.0000      -0.498862       -13.5747
 185   2.0000      -0.495959       -13.4957
 186   2.0000      -0.495025       -13.4703
 187   2.0000      -0.491747       -13.3811
 188   2.0000      -0.487565       -13.2673
 189   2.0000      -0.486993       -13.2518
 190   2.0000      -0.484225       -13.1764
 191   2.0000      -0.483655       -13.1609
 192   2.0000      -0.479366       -13.0442
 193   2.0000      -0.478348       -13.0165
 194   2.0000      -0.475121       -12.9287
 195   2.0000      -0.473993       -12.8980
 196   2.0000      -0.472105       -12.8466
 197   2.0000      -0.471457       -12.8290
 198   2.0000      -0.470230       -12.7956
 199   2.0000      -0.465682       -12.6719
 200   2.0000      -0.461467       -12.5572
 201   2.0000      -0.460640       -12.5346
 202   2.0000      -0.456462       -12.4210
 203   2.0000      -0.454434       -12.3658
 204   2.0000      -0.453694       -12.3456
 205   2.0000      -0.450418       -12.2565
 206   2.0000      -0.449609       -12.2345
 207   2.0000      -0.448377       -12.2009
 208   2.0000      -0.447611       -12.1801
 209   2.0000      -0.445822       -12.1314
 210   2.0000      -0.444792       -12.1034
 211   2.0000      -0.442554       -12.0425
 212   2.0000      -0.437536       -11.9060
 213   2.0000      -0.435341       -11.8462
 214   2.0000      -0.434105       -11.8126
 215   2.0000      -0.428679       -11.6650
 216   2.0000      -0.424507       -11.5514
 217   2.0000      -0.422800       -11.5050
 218   2.0000      -0.421205       -11.4616
 219   2.0000      -0.413782       -11.2596
 220   2.0000      -0.411769       -11.2048
 221   2.0000      -0.410576       -11.1723
 222   2.0000      -0.409236       -11.1359
 223   2.0000      -0.401341       -10.9210
 224   2.0000      -0.399893       -10.8816
 225   2.0000      -0.399241       -10.8639
 226   2.0000      -0.396052       -10.7771
 227   2.0000      -0.393964       -10.7203
 228   2.0000      -0.393577       -10.7098
 229   2.0000      -0.391313       -10.6482
 230   2.0000      -0.389174       -10.5900
 231   2.0000      -0.388097       -10.5606
 232   2.0000      -0.379730       -10.3330
 233   2.0000      -0.375302       -10.2125
 234   2.0000      -0.369438       -10.0529
 235   2.0000      -0.358224        -9.7478
 236   2.0000      -0.354150        -9.6369
 237   2.0000      -0.344075        -9.3628
 238   2.0000      -0.328511        -8.9392
 239   2.0000      -0.318807        -8.6752
 240   2.0000      -0.317935        -8.6514
 241   2.0000      -0.313059        -8.5188
 242   2.0000      -0.312035        -8.4909
 243   2.0000      -0.309906        -8.4330
 244   2.0000      -0.307414        -8.3652
 245   2.0000      -0.306948        -8.3525
 246   2.0000      -0.292740        -7.9659
 247   2.0000      -0.280693        -7.6380
 248   2.0000      -0.279822        -7.6144
 249   2.0000      -0.277293        -7.5455
 250   2.0000      -0.268593        -7.3088
 251   2.0000      -0.252354        -6.8669
 252   2.0000      -0.228135        -6.2079
 253   2.0000      -0.216539        -5.8923
 254   2.0000      -0.193696        -5.2707
 255   0.0000      -0.050186        -1.3656
 256   0.0000      -0.037083        -1.0091
 257   0.0000      -0.019490        -0.5303
 258   0.0000      -0.003862        -0.1051
 259   0.0000       0.019269         0.5243

MULLIKEN ATOMIC CHARGES
-----------------------
   0 C :   -0.147206
   1 S :    0.123277
   2 C :   -0.103268
   3 C :    0.124546
   4 C :    0.183352
   5 O :   -0.320362
   6 C :    0.191287
   7 C :   -0.010314
   8 C :    0.186779
   9 O :   -0.329592
  10 C :   -0.061858
  11 S :    0.103519
  12 C :   -0.030996
  13 C :   -0.012442
  14 C :   -0.007685
  15 C :   -0.033200
  16 C :   -0.013253
  17 C :   -0.012795
  18 C :   -0.026277
  19 S :    0.108452
  20 C :   -0.050257
  21 S :    0.109551
  22 C :   -0.063162
  23 C :    0.003095
  24 C :   -0.010179
  25 C :    0.044149
  26 C :    0.006274
  27 C :    0.101713
  28 N :   -0.038611
  29 C :    0.112050
  30 C :   -0.181722
  31 C :    0.108612
  32 N :   -0.037351
  33 C :    0.112927
  34 C :   -0.181864
  35 C :   -0.005051
  36 C :    0.006288
  37 C :   -0.032698
  38 S :    0.087789
  39 C :   -0.038150
  40 C :   -0.008037
  41 C :    0.004468
  42 C :   -0.033400
  43 C :   -0.009651
  44 C :   -0.013803
  45 C :   -0.031965
  46 S :    0.107950
  47 C :   -0.037612
  48 S :    0.095685
  49 C :   -0.032321
  50 C :    0.009371
  51 C :   -0.011924
  52 C :    0.005809
  53 C :    0.039629
  54 C :   -0.183312
  55 S :    0.118438
  56 C :   -0.132641
  57 C :    0.140781
  58 C :    0.189803
  59 O :   -0.317510
  60 C :    0.227615
  61 C :   -0.118863
  62 C :    0.252693
  63 O :   -0.330172
  64 H :    0.013985
  65 H :    0.023753
  66 H :    0.023412
  67 H :    0.017746
  68 H :    0.019383
  69 H :    0.024297
  70 H :    0.028056
  71 H :   -0.019321
  72 H :   -0.014675
  73 H :   -0.015085
  74 H :   -0.015898
  75 H :   -0.028372
  76 H :   -0.017928
  77 H :   -0.024364
  78 H :   -0.037432
  79 H :    0.116489
  80 H :   -0.042422
  81 H :    0.117245
  82 H :   -0.040021
  83 H :   -0.027648
  84 H :   -0.019098
  85 H :   -0.016229
  86 H :   -0.023793
  87 H :   -0.016747
  88 H :   -0.013181
  89 H :   -0.025146
  90 H :   -0.015338
  91 H :   -0.003109
  92 H :   -0.023834
  93 H :    0.013478
  94 H :    0.017340
  95 H :    0.029738
  96 H :    0.045393
  97 H :    0.027884
  98 H :    0.005849
  99 H :    0.019199
Sum of atomic charges:   -0.0000000

LOEWDIN ATOMIC CHARGES
----------------------
   0 C :   -0.216487
   1 S :    0.429286
   2 C :   -0.215423
   3 C :   -0.013282
   4 C :   -0.017736
   5 O :   -0.118838
   6 C :    0.081858
   7 C :   -0.062815
   8 C :    0.082880
   9 O :   -0.108822
  10 C :   -0.181022
  11 S :    0.417464
  12 C :   -0.183902
  13 C :   -0.065048
  14 C :   -0.056457
  15 C :   -0.181078
  16 C :   -0.064254
  17 C :   -0.064762
  18 C :   -0.180994
  19 S :    0.425584
  20 C :   -0.188705
  21 S :    0.424547
  22 C :   -0.165049
  23 C :   -0.064357
  24 C :   -0.062157
  25 C :   -0.051807
  26 C :   -0.031018
  27 C :   -0.005283
  28 N :    0.066564
  29 C :   -0.023648
  30 C :   -0.098336
  31 C :   -0.004946
  32 N :    0.067972
  33 C :   -0.023445
  34 C :   -0.097559
  35 C :   -0.042920
  36 C :   -0.046572
  37 C :   -0.162200
  38 S :    0.414386
  39 C :   -0.182503
  40 C :   -0.065328
  41 C :   -0.061883
  42 C :   -0.180942
  43 C :   -0.063763
  44 C :   -0.063444
  45 C :   -0.179878
  46 S :    0.426704
  47 C :   -0.182404
  48 S :    0.419584
  49 C :   -0.162776
  50 C :   -0.058977
  51 C :   -0.066530
  52 C :   -0.043032
  53 C :   -0.050030
  54 C :   -0.205718
  55 S :    0.433411
  56 C :   -0.210077
  57 C :   -0.025062
  58 C :   -0.001551
  59 O :   -0.095337
  60 C :    0.086339
  61 C :   -0.073073
  62 C :    0.083790
  63 O :   -0.127692
  64 H :    0.026474
  65 H :    0.018574
  66 H :    0.026418
  67 H :    0.031055
  68 H :    0.031772
  69 H :    0.026507
  70 H :    0.020423
  71 H :    0.024423
  72 H :    0.028514
  73 H :    0.025730
  74 H :    0.025492
  75 H :    0.024720
  76 H :    0.024681
  77 H :    0.025371
  78 H :    0.024007
  79 H :    0.086213
  80 H :    0.020587
  81 H :    0.087024
  82 H :    0.021124
  83 H :    0.018738
  84 H :    0.032016
  85 H :    0.024661
  86 H :    0.027824
  87 H :    0.025217
  88 H :    0.026182
  89 H :    0.027872
  90 H :    0.024367
  91 H :    0.032942
  92 H :    0.018927
  93 H :    0.026226
  94 H :    0.025556
  95 H :    0.019636
  96 H :    0.035465
  97 H :    0.037480
  98 H :    0.013986
  99 H :    0.022348

  Mayer bond orders larger than 0.100000
B(  0-C ,  1-S ) :   1.1226 B(  0-C ,  2-C ) :   0.1156 B(  0-C ,  4-C ) :   1.5672
B(  0-C , 64-H ) :   0.9725 B(  1-S ,  2-C ) :   1.1311 B(  2-C ,  3-C ) :   1.5204
B(  2-C , 10-C ) :   1.1212 B(  3-C ,  4-C ) :   1.1695 B(  3-C ,  9-O ) :   1.1255
B(  4-C ,  5-O ) :   1.1114 B(  5-O ,  6-C ) :   0.9706 B(  6-C ,  7-C ) :   1.0905
B(  6-C , 65-H ) :   0.9351 B(  6-C , 66-H ) :   0.9590 B(  7-C ,  8-C ) :   1.0939
B(  7-C , 67-H ) :   0.9334 B(  7-C , 68-H ) :   0.9340 B(  8-C ,  9-O ) :   0.9550
B(  8-C , 69-H ) :   0.9591 B(  8-C , 70-H ) :   0.9361 B( 10-C , 11-S ) :   1.1071
B( 10-C , 12-C ) :   0.1076 B( 10-C , 14-C ) :   1.5492 B( 11-S , 12-C ) :   1.1137
B( 12-C , 13-C ) :   1.5142 B( 12-C , 15-C ) :   1.1480 B( 13-C , 14-C ) :   1.2310
B( 13-C , 71-H ) :   0.9923 B( 14-C , 72-H ) :   0.9932 B( 15-C , 16-C ) :   1.5151
B( 15-C , 19-S ) :   1.1130 B( 16-C , 17-C ) :   1.2583 B( 16-C , 73-H ) :   0.9916
B( 17-C , 18-C ) :   1.5105 B( 17-C , 74-H ) :   0.9927 B( 18-C , 19-S ) :   1.1132
B( 18-C , 20-C ) :   1.1539 B( 20-C , 21-S ) :   1.1205 B( 20-C , 24-C ) :   1.4946
B( 21-S , 22-C ) :   1.1106 B( 22-C , 23-C ) :   1.4981 B( 22-C , 25-C ) :   1.1171
B( 23-C , 24-C ) :   1.2762 B( 23-C , 75-H ) :   0.9912 B( 24-C , 76-H ) :   0.9920
B( 25-C , 26-C ) :   1.6945 B( 25-C , 77-H ) :   0.9617 B( 26-C , 27-C ) :   1.1161
B( 26-C , 78-H ) :   0.9614 B( 27-C , 28-N ) :   1.1666 B( 27-C , 34-C ) :   1.4074
B( 28-N , 29-C ) :   1.1636 B( 28-N , 79-H ) :   0.9379 B( 29-C , 30-C ) :   1.2569
B( 29-C , 33-C ) :   1.3179 B( 30-C , 31-C ) :   1.4083 B( 30-C , 80-H ) :   1.0317
B( 31-C , 32-N ) :   1.1692 B( 31-C , 35-C ) :   1.1178 B( 32-N , 33-C ) :   1.1647
B( 32-N , 81-H ) :   0.9381 B( 33-C , 34-C ) :   1.2566 B( 34-C , 82-H ) :   1.0314
B( 35-C , 36-C ) :   1.6520 B( 35-C , 83-H ) :   0.9580 B( 36-C , 37-C ) :   1.1607
B( 36-C , 84-H ) :   0.9796 B( 37-C , 38-S ) :   1.0974 B( 37-C , 41-C ) :   1.4781
B( 38-S , 39-C ) :   1.1110 B( 39-C , 40-C ) :   1.5063 B( 39-C , 42-C ) :   1.1584
B( 40-C , 41-C ) :   1.2526 B( 40-C , 85-H ) :   0.9924 B( 41-C , 86-H ) :   1.0015
B( 42-C , 43-C ) :   1.5078 B( 42-C , 46-S ) :   1.1129 B( 43-C , 44-C ) :   1.2584
B( 43-C , 87-H ) :   0.9925 B( 44-C , 45-C ) :   1.5089 B( 44-C , 88-H ) :   0.9937
B( 45-C , 46-S ) :   1.1130 B( 45-C , 47-C ) :   1.1576 B( 47-C , 48-S ) :   1.1153
B( 47-C , 51-C ) :   1.5050 B( 48-S , 49-C ) :   1.0992 B( 49-C , 50-C ) :   1.4884
B( 49-C , 52-C ) :   1.1392 B( 50-C , 51-C ) :   1.2502 B( 50-C , 89-H ) :   1.0005
B( 51-C , 90-H ) :   0.9933 B( 52-C , 53-C ) :   1.6763 B( 52-C , 91-H ) :   0.9735
B( 53-C , 54-C ) :   1.1383 B( 53-C , 92-H ) :   0.9510 B( 54-C , 55-S ) :   1.1245
B( 54-C , 56-C ) :   0.1010 B( 54-C , 58-C ) :   1.4733 B( 55-S , 56-C ) :   1.1397
B( 56-C , 57-C ) :   1.5643 B( 56-C , 93-H ) :   0.9730 B( 57-C , 58-C ) :   1.1803
B( 57-C , 63-O ) :   1.0881 B( 58-C , 59-O ) :   1.1289 B( 59-O , 60-C ) :   0.9511
B( 60-C , 61-C ) :   1.0575 B( 60-C , 94-H ) :   0.9549 B( 60-C , 95-H ) :   0.9573
B( 61-C , 62-C ) :   1.0660 B( 61-C , 96-H ) :   0.9439 B( 61-C , 97-H ) :   0.9387
B( 62-C , 63-O ) :   0.9762 B( 62-C , 98-H ) :   0.9511 B( 62-C , 99-H ) :   0.9558

-----------------------------------------------------------------------------
         ABSORPTION SPECTRUM VIA TRANSITION ELECTRIC DIPOLE MOMENTS
-----------------------------------------------------------------------------
State   Energy  Wavelength   fosc         T2         TX        TY        TZ
        (cm-1)    (nm)                  (au**2)     (au)      (au)      (au)
-----------------------------------------------------------------------------
   0   17557.0    569.6   3.762084583  70.54292   8.11639  -2.13636   0.32096
   1   21860.7    457.4   0.364962430   5.49617  -0.93239  -1.60757   1.42918
   2   24830.1    402.7   0.265908806   3.52557   1.20825  -1.20286   0.78667
   3   25964.5    385.1   0.334608452   4.24260   1.92338  -0.64844   0.35035
   4   27278.9    366.6   0.062741737   0.75719  -0.85931   0.02798   0.13416
   5   29306.3    341.2   0.033492543   0.37624   0.01601   0.50992  -0.34053
   6   30547.2    327.4   0.041652473   0.44889  -0.00960  -0.52903   0.41102
   7   31240.1    320.1   0.225818851   2.37971  -1.48672   0.40221  -0.08720
   8   33137.7    301.8   0.001520645   0.01511  -0.02509  -0.11949   0.01414
   9   33590.3    297.7   0.117622699   1.15280   0.75579  -0.60881   0.45927
  10   33996.8    294.1   0.103997871   1.00708  -0.96939  -0.03296   0.25745
  11   34466.5    290.1   0.097362474   0.92997  -0.70882  -0.27401   0.59369
  12   34998.1    285.7   0.012850380   0.12088   0.30887  -0.14247   0.07196
  13   36198.2    276.3   0.005077955   0.04618   0.13172   0.11821  -0.12190
  14   36789.1    271.8   0.001616023   0.01446   0.03898  -0.06269   0.09493
  15   37845.1    264.2   0.009636285   0.08383   0.08115   0.22976  -0.15637
  16   38487.2    259.8   0.079821211   0.68278  -0.03394   0.57271  -0.59466
  17   38997.7    256.4   0.106737159   0.90106   0.78429   0.28291  -0.45378
  18   39329.4    254.3   0.003159381   0.02645   0.04516  -0.10810   0.11279
  19   39930.6    250.4   0.012063212   0.09946   0.09310   0.24698  -0.17260

FINAL SINGLE POINT ENERGY     -5518.919948662226

DIPOLE MOMENT
-------------
                                X             Y             Z
Electronic contribution:     19.55414      -4.08759     -15.27711
Nuclear contribution   :    -19.96308       4.15222      16.72962
                        -----------------------------------------
Total Dipole Moment    :     -0.40894       0.06463       1.45251
                        -----------------------------------------
Magnitude (a.u.)       :      1.51037
Magnitude (Debye)      :      3.83905

Rotational constants in cm-1:     0.003117     0.000091     0.000088
Rotational constants in MHz :    93.450109     2.718044     2.648319

                             ****ORCA TERMINATED NORMALLY****
TOTAL RUN TIME: 0 days 0 hours 8 minutes 1 seconds 249 msec
