                         Program Version 4.2.0 -  RELEASE  -
|  1> # ORCA input file
|  2> # SCF done       -173.751352358423          0.000434664644
|  3> ! CAM-B3LYP def2-SVP def2/J RIJCOSX Grid4 TightSCF
|  4> %maxcore 5000
|  5> %tddft
|  6>     Mode sTDDFT
|  7>     Ethresh 5.0
|  8>     maxcore 5000
|  9> end
| 10>
| 11> %pal
| 12>   nprocs 6
| 13>   end
| 14> * xyz 0 1
| 15>    C        3.39017        -1.60136         2.05451
| 16>    S        2.42633        -2.36055         0.87084
| 17>    C        1.32044        -2.97005         2.05212
| 18>    C        1.67674        -2.56111         3.32811
| 19>    C        2.88839        -1.77764         3.32234
| 20>    C        3.43745        -1.27079         4.53578
| 21>    C        4.70791        -0.48069         4.50602
| 22>    C        2.75961        -1.52406         5.68874
| 23>    C        1.53729        -2.23248         5.69162
| 24>    C        0.97588        -2.74538         4.55858
| 25>    C       -0.35296        -3.43249         4.61920
| 26>    C        0.23983        -3.83219         1.58555
| 27>    C        0.14677        -5.15018         2.04607
| 28>    C       -0.86492        -5.95731         1.58059
| 29>    C       -1.81291        -5.45116         0.67432
| 30>    C       -1.70377        -4.15853         0.18714
| 31>    C       -0.66567        -3.36304         0.63458
| 32>    C       -2.81761        -6.46796         0.44143
| 33>    C       -2.48724        -7.60384         1.19672
| 34>    C       -1.17206        -7.39922         1.91960
| 35>    C       -0.15059        -8.36707         1.27822
| 36>    C        1.28969        -8.22280         1.75157
| 37>    C       -1.29967        -7.62588         3.43267
| 38>    C       -2.44448        -6.82401         4.04215
| 39>    C       -3.29880        -8.71041         1.19379
| 40>    C       -4.48453        -8.70541         0.44237
| 41>    C       -4.79517        -7.56572        -0.31188
| 42>    C       -3.97458        -6.45519        -0.32103
| 43>    C       -5.36483        -9.85013         0.47689
| 44>    N       -6.42213        -9.99395        -0.39798
| 45>    C       -7.08145       -11.14522        -0.10085
| 46>    C       -8.16889       -11.94697        -0.44965
| 47>    C       -8.15921       -13.02118         0.44038
| 48>    N       -7.09400       -12.88605         1.30748
| 49>    C       -6.42787       -11.74209         0.99719
| 50>    C       -5.34941       -10.92957         1.35632
| 51>    C       -9.09985       -14.08942         0.49228
| 52>    C       -9.05124       -15.16043         1.31033
| 53>    C      -10.03298       -16.21821         1.37623
| 54>    C      -11.30030       -16.10453         0.78463
| 55>    C      -12.19536       -17.13897         0.88994
| 56>    C      -11.86059       -18.31773         1.57711
| 57>    C      -10.61464       -18.44263         2.17233
| 58>    C       -9.72158       -17.39438         2.07222
| 59>    C      -12.99180       -19.22208         1.51932
| 60>    C      -14.02660       -18.59485         0.80576
| 61>    C      -13.60453       -17.21789         0.35051
| 62>    C      -14.50081       -16.12851         0.96872
| 63>    C      -14.50233       -16.15903         2.49251
| 64>    C      -13.63089       -17.09878        -1.18379
| 65>    C      -12.76045       -18.14404        -1.87063
| 66>    C      -15.22427       -19.23483         0.59794
| 67>    C      -15.41084       -20.52009         1.11863
| 68>    C      -14.36781       -21.14821         1.79974
| 69>    C      -13.16095       -20.50691         2.01078
| 70>    C      -16.66526       -21.22303         0.88125
| 71>    S      -16.59336       -22.73532         0.04563
| 72>    C      -18.29164       -22.87358        -0.00612
| 73>    C      -18.91704       -21.81575         0.61088
| 74>    C      -17.97769       -20.85986         1.14511
| 75>    C      -18.46823       -19.76168         1.91467
| 76>    C      -17.55034       -18.81864         2.62934
| 77>    C      -19.82105       -19.62006         2.02680
| 78>    C      -20.73770       -20.51731         1.43502
| 79>    C      -20.32125       -21.61750         0.74991
| 80>    C      -21.27579       -22.60862         0.16190
| 81>    H        4.27027        -1.07019         1.75391
| 82>    H        5.51513        -1.07192         4.07435
| 83>    H        4.99434        -0.17978         5.51062
| 84>    H        4.58550         0.41386         3.89573
| 85>    H        3.14230        -1.15649         6.63031
| 86>    H        1.02506        -2.35544         6.63560
| 87>    H       -0.85746        -3.18689         5.55135
| 88>    H       -0.23692        -4.51420         4.57308
| 89>    H       -0.98362        -3.12930         3.78573
| 90>    H        0.87588        -5.50767         2.75753
| 91>    H       -2.41965        -3.77396        -0.52397
| 92>    H       -0.56179        -2.35123         0.26910
| 93>    H       -0.18073        -8.21423         0.19607
| 94>    H       -0.49151        -9.38629         1.47515
| 95>    H        1.69044        -7.24928         1.48320
| 96>    H        1.90370        -8.98338         1.27340
| 97>    H        1.36897        -8.35432         2.82757
| 98>    H       -0.36463        -7.33914         3.91669
| 99>    H       -1.46126        -8.68959         3.62042
|100>    H       -2.32433        -5.76388         3.83035
|101>    H       -2.46786        -6.96038         5.12124
|102>    H       -3.39918        -7.14616         3.63287
|103>    H       -3.03729        -9.58472         1.76859
|104>    H       -5.70920        -7.53239        -0.88712
|105>    H       -4.24063        -5.58708        -0.90611
|106>    H       -6.62576        -9.37206        -1.15967
|107>    H       -8.88252       -11.79572        -1.23513
|108>    H       -6.87988       -13.51979         2.05638
|109>    H       -4.65982       -11.08404         2.16133
|110>    H       -9.91079       -13.99179        -0.21532
|111>    H       -8.20645       -15.28207         1.97754
|112>    H      -11.57528       -15.19900         0.26585
|113>    H      -10.34631       -19.34067         2.70934
|114>    H       -8.74809       -17.48164         2.53515
|115>    H      -15.52027       -16.26385         0.59949
|116>    H      -14.15133       -15.15140         0.62800
|117>    H      -14.83719       -17.12707         2.85818
|118>    H      -15.16932       -15.39330         2.88262
|119>    H      -13.50252       -15.97507         2.87920
|120>    H      -13.28670       -16.10046        -1.46317
|121>    H      -14.66289       -17.20379        -1.52612
|122>    H      -11.72348       -18.04373        -1.55778
|123>    H      -12.80875       -18.02196        -2.95043
|124>    H      -13.09798       -19.14763        -1.62143
|125>    H      -16.01547       -18.77573         0.02305
|126>    H      -14.52008       -22.15041         2.17485
|127>    H      -12.36609       -21.00311         2.54754
|128>    H      -18.73543       -23.72087        -0.48805
|129>    H      -16.71414       -19.35564         3.07271
|130>    H      -18.09184       -18.29698         3.41579
|131>    H      -17.14348       -18.07228         1.94880
|132>    H      -20.21839       -18.79826         2.60595
|133>    H      -21.79455       -20.32985         1.56177
|134>    H      -22.30335       -22.30356         0.34317
|135>    H      -21.12150       -23.59327         0.60273
|136>    H      -21.12124       -22.69590        -0.91329
|137> *
|138>
|139>                          ****END OF INPUT****

CARTESIAN COORDINATES (ANGSTROEM)
---------------------------------
  C      3.390170   -1.601360    2.054510
  S      2.426330   -2.360550    0.870840
  C      1.320440   -2.970050    2.052120
  C      1.676740   -2.561110    3.328110
  C      2.888390   -1.777640    3.322340
  C      3.437450   -1.270790    4.535780
  C      4.707910   -0.480690    4.506020
  C      2.759610   -1.524060    5.688740
  C      1.537290   -2.232480    5.691620
  C      0.975880   -2.745380    4.558580
  C     -0.352960   -3.432490    4.619200
  C      0.239830   -3.832190    1.585550
  C      0.146770   -5.150180    2.046070
  C     -0.864920   -5.957310    1.580590
  C     -1.812910   -5.451160    0.674320
  C     -1.703770   -4.158530    0.187140
  C     -0.665670   -3.363040    0.634580
  C     -2.817610   -6.467960    0.441430
  C     -2.487240   -7.603840    1.196720
  C     -1.172060   -7.399220    1.919600
  C     -0.150590   -8.367070    1.278220
  C      1.289690   -8.222800    1.751570
  C     -1.299670   -7.625880    3.432670
  C     -2.444480   -6.824010    4.042150
  C     -3.298800   -8.710410    1.193790
  C     -4.484530   -8.705410    0.442370
  C     -4.795170   -7.565720   -0.311880
  C     -3.974580   -6.455190   -0.321030
  C     -5.364830   -9.850130    0.476890
  N     -6.422130   -9.993950   -0.397980
  C     -7.081450  -11.145220   -0.100850
  C     -8.168890  -11.946970   -0.449650
  C     -8.159210  -13.021180    0.440380
  N     -7.094000  -12.886050    1.307480
  C     -6.427870  -11.742090    0.997190
  C     -5.349410  -10.929570    1.356320
  C     -9.099850  -14.089420    0.492280
  C     -9.051240  -15.160430    1.310330
  C    -10.032980  -16.218210    1.376230
  C    -11.300300  -16.104530    0.784630
  C    -12.195360  -17.138970    0.889940
  C    -11.860590  -18.317730    1.577110
  C    -10.614640  -18.442630    2.172330
  C     -9.721580  -17.394380    2.072220
  C    -12.991800  -19.222080    1.519320
  C    -14.026600  -18.594850    0.805760
  C    -13.604530  -17.217890    0.350510
  C    -14.500810  -16.128510    0.968720
  C    -14.502330  -16.159030    2.492510
  C    -13.630890  -17.098780   -1.183790
  C    -12.760450  -18.144040   -1.870630
  C    -15.224270  -19.234830    0.597940
  C    -15.410840  -20.520090    1.118630
  C    -14.367810  -21.148210    1.799740
  C    -13.160950  -20.506910    2.010780
  C    -16.665260  -21.223030    0.881250
  S    -16.593360  -22.735320    0.045630
  C    -18.291640  -22.873580   -0.006120
  C    -18.917040  -21.815750    0.610880
  C    -17.977690  -20.859860    1.145110
  C    -18.468230  -19.761680    1.914670
  C    -17.550340  -18.818640    2.629340
  C    -19.821050  -19.620060    2.026800
  C    -20.737700  -20.517310    1.435020
  C    -20.321250  -21.617500    0.749910
  C    -21.275790  -22.608620    0.161900
  H      4.270270   -1.070190    1.753910
  H      5.515130   -1.071920    4.074350
  H      4.994340   -0.179780    5.510620
  H      4.585500    0.413860    3.895730
  H      3.142300   -1.156490    6.630310
  H      1.025060   -2.355440    6.635600
  H     -0.857460   -3.186890    5.551350
  H     -0.236920   -4.514200    4.573080
  H     -0.983620   -3.129300    3.785730
  H      0.875880   -5.507670    2.757530
  H     -2.419650   -3.773960   -0.523970
  H     -0.561790   -2.351230    0.269100
  H     -0.180730   -8.214230    0.196070
  H     -0.491510   -9.386290    1.475150
  H      1.690440   -7.249280    1.483200
  H      1.903700   -8.983380    1.273400
  H      1.368970   -8.354320    2.827570
  H     -0.364630   -7.339140    3.916690
  H     -1.461260   -8.689590    3.620420
  H     -2.324330   -5.763880    3.830350
  H     -2.467860   -6.960380    5.121240
  H     -3.399180   -7.146160    3.632870
  H     -3.037290   -9.584720    1.768590
  H     -5.709200   -7.532390   -0.887120
  H     -4.240630   -5.587080   -0.906110
  H     -6.625760   -9.372060   -1.159670
  H     -8.882520  -11.795720   -1.235130
  H     -6.879880  -13.519790    2.056380
  H     -4.659820  -11.084040    2.161330
  H     -9.910790  -13.991790   -0.215320
  H     -8.206450  -15.282070    1.977540
  H    -11.575280  -15.199000    0.265850
  H    -10.346310  -19.340670    2.709340
  H     -8.748090  -17.481640    2.535150
  H    -15.520270  -16.263850    0.599490
  H    -14.151330  -15.151400    0.628000
  H    -14.837190  -17.127070    2.858180
  H    -15.169320  -15.393300    2.882620
  H    -13.502520  -15.975070    2.879200
  H    -13.286700  -16.100460   -1.463170
  H    -14.662890  -17.203790   -1.526120
  H    -11.723480  -18.043730   -1.557780
  H    -12.808750  -18.021960   -2.950430
  H    -13.097980  -19.147630   -1.621430
  H    -16.015470  -18.775730    0.023050
  H    -14.520080  -22.150410    2.174850
  H    -12.366090  -21.003110    2.547540
  H    -18.735430  -23.720870   -0.488050
  H    -16.714140  -19.355640    3.072710
  H    -18.091840  -18.296980    3.415790
  H    -17.143480  -18.072280    1.948800
  H    -20.218390  -18.798260    2.605950
  H    -21.794550  -20.329850    1.561770
  H    -22.303350  -22.303560    0.343170
  H    -21.121500  -23.593270    0.602730
  H    -21.121240  -22.695900   -0.913290

 Total Charge           Charge          ....    0
 Multiplicity           Mult            ....    1
 Number of Electrons    NEL             ....  474
 Basis Dimension        Dim             .... 1212

ORBITAL ENERGIES
----------------

  NO   OCC          E(Eh)            E(eV)
   0   2.0000     -88.949215     -2420.4312
   1   2.0000     -88.948452     -2420.4104
   2   2.0000     -14.443349      -393.0235
   3   2.0000     -14.441538      -392.9742
   4   2.0000     -10.291050      -280.0337
   5   2.0000     -10.288177      -279.9555
   6   2.0000     -10.284311      -279.8503
   7   2.0000     -10.283452      -279.8270
   8   2.0000     -10.276079      -279.6263
   9   2.0000     -10.276019      -279.6247
  10   2.0000     -10.275330      -279.6059
  11   2.0000     -10.274774      -279.5908
  12   2.0000     -10.274405      -279.5808
  13   2.0000     -10.273927      -279.5678
  14   2.0000     -10.272951      -279.5412
  15   2.0000     -10.272510      -279.5292
  16   2.0000     -10.268542      -279.4212
  17   2.0000     -10.267960      -279.4054
  18   2.0000     -10.267083      -279.3815
  19   2.0000     -10.265726      -279.3446
  20   2.0000     -10.265045      -279.3261
  21   2.0000     -10.263843      -279.2934
  22   2.0000     -10.263355      -279.2801
  23   2.0000     -10.262700      -279.2623
  24   2.0000     -10.262631      -279.2604
  25   2.0000     -10.262432      -279.2550
  26   2.0000     -10.261915      -279.2409
  27   2.0000     -10.261498      -279.2295
  28   2.0000     -10.261485      -279.2292
  29   2.0000     -10.261316      -279.2246
  30   2.0000     -10.261228      -279.2222
  31   2.0000     -10.261190      -279.2212
  32   2.0000     -10.261078      -279.2181
  33   2.0000     -10.260923      -279.2139
  34   2.0000     -10.260918      -279.2138
  35   2.0000     -10.260646      -279.2064
  36   2.0000     -10.260450      -279.2010
  37   2.0000     -10.260418      -279.2002
  38   2.0000     -10.260289      -279.1967
  39   2.0000     -10.260088      -279.1912
  40   2.0000     -10.260000      -279.1888
  41   2.0000     -10.259946      -279.1873
  42   2.0000     -10.259418      -279.1729
  43   2.0000     -10.258478      -279.1474
  44   2.0000     -10.258424      -279.1459
  45   2.0000     -10.258256      -279.1413
  46   2.0000     -10.258219      -279.1403
  47   2.0000     -10.257931      -279.1325
  48   2.0000     -10.257647      -279.1248
  49   2.0000     -10.257072      -279.1091
  50   2.0000     -10.255936      -279.0782
  51   2.0000     -10.255293      -279.0607
  52   2.0000     -10.253565      -279.0137
  53   2.0000     -10.253041      -278.9994
  54   2.0000     -10.250745      -278.9369
  55   2.0000     -10.249508      -278.9033
  56   2.0000     -10.249195      -278.8948
  57   2.0000     -10.248938      -278.8878
  58   2.0000     -10.248145      -278.8662
  59   2.0000     -10.247649      -278.8527
  60   2.0000     -10.247302      -278.8433
  61   2.0000     -10.246562      -278.8231
  62   2.0000     -10.246235      -278.8142
  63   2.0000     -10.242255      -278.7059
  64   2.0000     -10.239307      -278.6257
  65   2.0000     -10.238486      -278.6034
  66   2.0000      -8.044717      -218.9079
  67   2.0000      -8.043979      -218.8878
  68   2.0000      -6.013609      -163.6386
  69   2.0000      -6.012833      -163.6175
  70   2.0000      -6.009335      -163.5223
  71   2.0000      -6.008626      -163.5030
  72   2.0000      -6.007865      -163.4823
  73   2.0000      -6.007132      -163.4624
  74   2.0000      -1.074167       -29.2296
  75   2.0000      -1.038116       -28.2486
  76   2.0000      -0.982602       -26.7380
  77   2.0000      -0.981265       -26.7016
  78   2.0000      -0.975432       -26.5429
  79   2.0000      -0.974140       -26.5077
  80   2.0000      -0.935906       -25.4673
  81   2.0000      -0.935034       -25.4436
  82   2.0000      -0.915727       -24.9182
  83   2.0000      -0.915515       -24.9124
  84   2.0000      -0.906085       -24.6558
  85   2.0000      -0.905566       -24.6417
  86   2.0000      -0.883639       -24.0450
  87   2.0000      -0.878885       -23.9157
  88   2.0000      -0.873310       -23.7640
  89   2.0000      -0.868082       -23.6217
  90   2.0000      -0.859831       -23.3972
  91   2.0000      -0.850023       -23.1303
  92   2.0000      -0.845878       -23.0175
  93   2.0000      -0.831202       -22.6182
  94   2.0000      -0.829639       -22.5756
  95   2.0000      -0.827721       -22.5234
  96   2.0000      -0.826355       -22.4863
  97   2.0000      -0.823524       -22.4092
  98   2.0000      -0.822122       -22.3711
  99   2.0000      -0.820422       -22.3248
 100   2.0000      -0.810276       -22.0487
 101   2.0000      -0.807122       -21.9629
 102   2.0000      -0.805977       -21.9318
 103   2.0000      -0.791863       -21.5477
 104   2.0000      -0.791196       -21.5295
 105   2.0000      -0.784154       -21.3379
 106   2.0000      -0.772970       -21.0336
 107   2.0000      -0.757938       -20.6246
 108   2.0000      -0.752640       -20.4804
 109   2.0000      -0.750926       -20.4337
 110   2.0000      -0.730257       -19.8713
 111   2.0000      -0.721396       -19.6302
 112   2.0000      -0.718763       -19.5585
 113   2.0000      -0.715448       -19.4683
 114   2.0000      -0.702393       -19.1131
 115   2.0000      -0.690722       -18.7955
 116   2.0000      -0.686253       -18.6739
 117   2.0000      -0.679117       -18.4797
 118   2.0000      -0.678336       -18.4585
 119   2.0000      -0.677402       -18.4330
 120   2.0000      -0.670938       -18.2572
 121   2.0000      -0.669588       -18.2204
 122   2.0000      -0.666812       -18.1449
 123   2.0000      -0.663196       -18.0465
 124   2.0000      -0.659261       -17.9394
 125   2.0000      -0.658005       -17.9052
 126   2.0000      -0.648044       -17.6342
 127   2.0000      -0.645741       -17.5715
 128   2.0000      -0.643715       -17.5164
 129   2.0000      -0.636250       -17.3132
 130   2.0000      -0.633066       -17.2266
 131   2.0000      -0.632124       -17.2010
 132   2.0000      -0.610155       -16.6032
 133   2.0000      -0.599202       -16.3051
 134   2.0000      -0.584843       -15.9144
 135   2.0000      -0.584733       -15.9114
 136   2.0000      -0.582876       -15.8609
 137   2.0000      -0.568527       -15.4704
 138   2.0000      -0.566885       -15.4257
 139   2.0000      -0.562221       -15.2988
 140   2.0000      -0.558161       -15.1883
 141   2.0000      -0.551405       -15.0045
 142   2.0000      -0.548206       -14.9175
 143   2.0000      -0.540608       -14.7107
 144   2.0000      -0.535422       -14.5696
 145   2.0000      -0.534390       -14.5415
 146   2.0000      -0.532660       -14.4944
 147   2.0000      -0.531851       -14.4724
 148   2.0000      -0.530413       -14.4333
 149   2.0000      -0.528708       -14.3869
 150   2.0000      -0.525962       -14.3121
 151   2.0000      -0.525723       -14.3057
 152   2.0000      -0.520701       -14.1690
 153   2.0000      -0.518958       -14.1216
 154   2.0000      -0.513349       -13.9689
 155   2.0000      -0.512524       -13.9465
 156   2.0000      -0.511703       -13.9241
 157   2.0000      -0.510852       -13.9010
 158   2.0000      -0.510606       -13.8943
 159   2.0000      -0.508338       -13.8326
 160   2.0000      -0.506364       -13.7789
 161   2.0000      -0.498838       -13.5741
 162   2.0000      -0.498153       -13.5554
 163   2.0000      -0.497474       -13.5370
 164   2.0000      -0.493335       -13.4243
 165   2.0000      -0.491189       -13.3659
 166   2.0000      -0.490147       -13.3376
 167   2.0000      -0.488917       -13.3041
 168   2.0000      -0.486751       -13.2452
 169   2.0000      -0.480872       -13.0852
 170   2.0000      -0.479775       -13.0553
 171   2.0000      -0.479089       -13.0367
 172   2.0000      -0.476481       -12.9657
 173   2.0000      -0.470342       -12.7987
 174   2.0000      -0.468264       -12.7421
 175   2.0000      -0.466412       -12.6917
 176   2.0000      -0.465019       -12.6538
 177   2.0000      -0.463991       -12.6258
 178   2.0000      -0.462886       -12.5958
 179   2.0000      -0.461336       -12.5536
 180   2.0000      -0.458491       -12.4762
 181   2.0000      -0.457852       -12.4588
 182   2.0000      -0.455236       -12.3876
 183   2.0000      -0.453471       -12.3396
 184   2.0000      -0.449434       -12.2297
 185   2.0000      -0.448207       -12.1963
 186   2.0000      -0.447949       -12.1893
 187   2.0000      -0.446959       -12.1624
 188   2.0000      -0.441689       -12.0190
 189   2.0000      -0.438125       -11.9220
 190   2.0000      -0.437638       -11.9087
 191   2.0000      -0.434988       -11.8366
 192   2.0000      -0.434690       -11.8285
 193   2.0000      -0.433602       -11.7989
 194   2.0000      -0.429455       -11.6861
 195   2.0000      -0.427497       -11.6328
 196   2.0000      -0.426474       -11.6049
 197   2.0000      -0.421978       -11.4826
 198   2.0000      -0.417389       -11.3577
 199   2.0000      -0.417228       -11.3534
 200   2.0000      -0.413073       -11.2403
 201   2.0000      -0.411504       -11.1976
 202   2.0000      -0.410469       -11.1694
 203   2.0000      -0.409889       -11.1536
 204   2.0000      -0.409499       -11.1430
 205   2.0000      -0.408436       -11.1141
 206   2.0000      -0.407950       -11.1009
 207   2.0000      -0.406240       -11.0543
 208   2.0000      -0.399562       -10.8726
 209   2.0000      -0.391367       -10.6496
 210   2.0000      -0.391241       -10.6462
 211   2.0000      -0.387858       -10.5541
 212   2.0000      -0.386654       -10.5214
 213   2.0000      -0.385433       -10.4882
 214   2.0000      -0.384628       -10.4663
 215   2.0000      -0.380538       -10.3550
 216   2.0000      -0.379264       -10.3203
 217   2.0000      -0.376024       -10.2321
 218   2.0000      -0.373969       -10.1762
 219   2.0000      -0.373402       -10.1608
 220   2.0000      -0.358496        -9.7552
 221   2.0000      -0.344500        -9.3743
 222   2.0000      -0.329782        -8.9738
 223   2.0000      -0.323515        -8.8033
 224   2.0000      -0.313897        -8.5416
 225   2.0000      -0.311199        -8.4682
 226   2.0000      -0.310367        -8.4455
 227   2.0000      -0.307476        -8.3668
 228   2.0000      -0.304854        -8.2955
 229   2.0000      -0.296376        -8.0648
 230   2.0000      -0.295658        -8.0453
 231   2.0000      -0.283786        -7.7222
 232   2.0000      -0.274461        -7.4685
 233   2.0000      -0.263232        -7.1629
 234   2.0000      -0.238304        -6.4846
 235   2.0000      -0.234513        -6.3814
 236   2.0000      -0.207556        -5.6479
 237   0.0000      -0.031931        -0.8689
 238   0.0000      -0.018689        -0.5086
 239   0.0000      -0.009000        -0.2449
 240   0.0000       0.004786         0.1302
 241   0.0000       0.026681         0.7260

MULLIKEN ATOMIC CHARGES
-----------------------
   0 C :   -0.176012
   1 S :    0.160027
   2 C :   -0.238995
   3 C :    0.170536
   4 C :    0.071162
   5 C :   -0.050578
   6 C :    0.098585
   7 C :   -0.045051
   8 C :   -0.048261
   9 C :   -0.099150
  10 C :    0.121229
  11 C :    0.018559
  12 C :   -0.075396
  13 C :    0.016434
  14 C :    0.117298
  15 C :   -0.066391
  16 C :    0.012890
  17 C :    0.097697
  18 C :    0.024253
  19 C :   -0.126136
  20 C :    0.078578
  21 C :    0.030590
  22 C :    0.047546
  23 C :    0.025597
  24 C :   -0.118147
  25 C :    0.165584
  26 C :   -0.055708
  27 C :   -0.056056
  28 C :    0.058881
  29 N :   -0.032453
  30 C :    0.110190
  31 C :   -0.176191
  32 C :    0.072277
  33 N :   -0.033947
  34 C :    0.112956
  35 C :   -0.184523
  36 C :    0.060623
  37 C :   -0.043626
  38 C :    0.120668
  39 C :   -0.095952
  40 C :    0.014819
  41 C :    0.101193
  42 C :   -0.047057
  43 C :   -0.023788
  44 C :    0.114975
  45 C :    0.012704
  46 C :   -0.137617
  47 C :    0.070106
  48 C :    0.024047
  49 C :    0.071974
  50 C :    0.023776
  51 C :   -0.077862
  52 C :    0.027629
  53 C :    0.005579
  54 C :   -0.059330
  55 C :   -0.234217
  56 S :    0.160324
  57 C :   -0.175624
  58 C :    0.070865
  59 C :    0.164733
  60 C :   -0.101060
  61 C :    0.121653
  62 C :   -0.045462
  63 C :   -0.048070
  64 C :   -0.049704
  65 C :    0.097168
  66 H :    0.008582
  67 H :    0.021051
  68 H :    0.003401
  69 H :    0.022142
  70 H :   -0.040737
  71 H :   -0.041504
  72 H :    0.000340
  73 H :    0.023858
  74 H :    0.031627
  75 H :   -0.025318
  76 H :   -0.037893
  77 H :   -0.028408
  78 H :    0.004658
  79 H :   -0.004887
  80 H :    0.021746
  81 H :    0.010944
  82 H :    0.004052
  83 H :    0.006670
  84 H :   -0.005307
  85 H :    0.021955
  86 H :    0.007686
  87 H :    0.020240
  88 H :   -0.045600
  89 H :   -0.056090
  90 H :   -0.040136
  91 H :    0.119762
  92 H :   -0.043264
  93 H :    0.119328
  94 H :   -0.044018
  95 H :   -0.023831
  96 H :   -0.054218
  97 H :   -0.047507
  98 H :   -0.040955
  99 H :   -0.037517
 100 H :   -0.003410
 101 H :   -0.005324
 102 H :    0.022218
 103 H :    0.005629
 104 H :    0.022015
 105 H :   -0.007512
 106 H :   -0.002720
 107 H :    0.022353
 108 H :    0.007029
 109 H :    0.021522
 110 H :   -0.028549
 111 H :   -0.029249
 112 H :   -0.037899
 113 H :    0.009010
 114 H :    0.031635
 115 H :    0.001151
 116 H :    0.023723
 117 H :   -0.041245
 118 H :   -0.039733
 119 H :    0.003894
 120 H :    0.021724
 121 H :    0.021543
Sum of atomic charges:    0.0000000

LOEWDIN ATOMIC CHARGES
----------------------
   0 C :   -0.215279
   1 S :    0.479635
   2 C :   -0.180884
   3 C :   -0.049930
   4 C :   -0.049648
   5 C :   -0.023410
   6 C :   -0.045052
   7 C :   -0.041314
   8 C :   -0.042570
   9 C :   -0.020730
  10 C :   -0.046515
  11 C :   -0.049917
  12 C :   -0.015425
  13 C :    0.000218
  14 C :   -0.015180
  15 C :   -0.023121
  16 C :   -0.023715
  17 C :   -0.027204
  18 C :    0.008922
  19 C :   -0.033826
  20 C :   -0.009340
  21 C :   -0.059730
  22 C :   -0.016038
  23 C :   -0.057715
  24 C :   -0.020905
  25 C :   -0.020054
  26 C :   -0.037672
  27 C :   -0.016337
  28 C :    0.000854
  29 N :    0.068941
  30 C :   -0.031896
  31 C :   -0.093791
  32 C :   -0.009448
  33 N :    0.066819
  34 C :   -0.022800
  35 C :   -0.102594
  36 C :   -0.022766
  37 C :   -0.050609
  38 C :   -0.018762
  39 C :   -0.024086
  40 C :    0.005048
  41 C :   -0.024692
  42 C :   -0.019673
  43 C :   -0.026677
  44 C :   -0.017140
  45 C :    0.000921
  46 C :   -0.035243
  47 C :   -0.011507
  48 C :   -0.058141
  49 C :   -0.011963
  50 C :   -0.057824
  51 C :   -0.014696
  52 C :   -0.048137
  53 C :   -0.025893
  54 C :   -0.021619
  55 C :   -0.180857
  56 S :    0.480548
  57 C :   -0.215258
  58 C :   -0.049618
  59 C :   -0.050051
  60 C :   -0.020847
  61 C :   -0.046652
  62 C :   -0.042118
  63 C :   -0.041787
  64 C :   -0.023231
  65 C :   -0.045105
  66 H :    0.018000
  67 H :    0.031667
  68 H :    0.028790
  69 H :    0.032166
  70 H :    0.022174
  71 H :    0.022084
  72 H :    0.027978
  73 H :    0.031564
  74 H :    0.035543
  75 H :    0.025939
  76 H :    0.025615
  77 H :    0.024796
  78 H :    0.026728
  79 H :    0.019282
  80 H :    0.025114
  81 H :    0.027092
  82 H :    0.019964
  83 H :    0.018742
  84 H :    0.019124
  85 H :    0.025292
  86 H :    0.023136
  87 H :    0.025816
  88 H :    0.022804
  89 H :    0.016315
  90 H :    0.025580
  91 H :    0.083556
  92 H :    0.021418
  93 H :    0.084606
  94 H :    0.019736
  95 H :    0.031609
  96 H :    0.014959
  97 H :    0.020751
  98 H :    0.025059
  99 H :    0.022540
 100 H :    0.017823
 101 H :    0.019194
 102 H :    0.024657
 103 H :    0.022923
 104 H :    0.026395
 105 H :    0.018236
 106 H :    0.019578
 107 H :    0.025836
 108 H :    0.022902
 109 H :    0.025655
 110 H :    0.026231
 111 H :    0.024235
 112 H :    0.025715
 113 H :    0.018076
 114 H :    0.035281
 115 H :    0.028120
 116 H :    0.031537
 117 H :    0.022126
 118 H :    0.022318
 119 H :    0.028877
 120 H :    0.032110
 121 H :    0.031723

  Mayer bond orders larger than 0.100000
B(  0-C ,  1-S ) :   1.1846 B(  0-C ,  2-C ) :   0.1231 B(  0-C ,  4-C ) :   1.4608
B(  0-C , 66-H ) :   0.9565 B(  1-S ,  2-C ) :   1.2029 B(  2-C ,  3-C ) :   1.4412
B(  2-C , 11-C ) :   0.9595 B(  3-C ,  4-C ) :   1.1790 B(  3-C ,  9-C ) :   1.1719
B(  4-C ,  5-C ) :   1.1677 B(  5-C ,  6-C ) :   1.0873 B(  5-C ,  7-C ) :   1.5939
B(  6-C , 67-H ) :   0.9457 B(  6-C , 68-H ) :   0.9541 B(  6-C , 69-H ) :   0.9453
B(  7-C ,  8-C ) :   1.1561 B(  7-C , 70-H ) :   0.9879 B(  8-C ,  9-C ) :   1.5891
B(  8-C , 71-H ) :   0.9861 B(  9-C , 10-C ) :   1.0965 B( 10-C , 72-H ) :   0.9428
B( 10-C , 73-H ) :   0.9345 B( 10-C , 74-H ) :   0.9407 B( 11-C , 12-C ) :   1.3358
B( 11-C , 16-C ) :   1.3837 B( 12-C , 13-C ) :   1.4030 B( 12-C , 75-H ) :   0.9965
B( 13-C , 14-C ) :   1.3796 B( 13-C , 19-C ) :   0.9134 B( 14-C , 15-C ) :   1.3432
B( 14-C , 17-C ) :   0.9873 B( 15-C , 16-C ) :   1.3568 B( 15-C , 76-H ) :   0.9942
B( 16-C , 77-H ) :   0.9915 B( 17-C , 18-C ) :   1.3711 B( 17-C , 27-C ) :   1.3464
B( 18-C , 19-C ) :   0.9221 B( 18-C , 24-C ) :   1.3929 B( 19-C , 20-C ) :   1.0166
B( 19-C , 22-C ) :   1.0324 B( 20-C , 21-C ) :   1.1141 B( 20-C , 78-H ) :   0.9384
B( 20-C , 79-H ) :   0.9368 B( 21-C , 80-H ) :   0.9609 B( 21-C , 81-H ) :   0.9590
B( 21-C , 82-H ) :   0.9629 B( 22-C , 23-C ) :   1.1061 B( 22-C , 83-H ) :   0.9388
B( 22-C , 84-H ) :   0.9366 B( 23-C , 85-H ) :   0.9639 B( 23-C , 86-H ) :   0.9643
B( 23-C , 87-H ) :   0.9578 B( 24-C , 25-C ) :   1.3123 B( 24-C , 88-H ) :   1.0026
B( 25-C , 26-C ) :   1.3236 B( 25-C , 28-C ) :   1.0061 B( 26-C , 27-C ) :   1.3941
B( 26-C , 89-H ) :   0.9868 B( 27-C , 90-H ) :   0.9883 B( 28-C , 29-N ) :   1.2173
B( 28-C , 35-C ) :   1.4392 B( 29-N , 30-C ) :   1.1543 B( 29-N , 91-H ) :   0.9325
B( 30-C , 31-C ) :   1.2295 B( 30-C , 34-C ) :   1.3449 B( 31-C , 32-C ) :   1.3759
B( 31-C , 92-H ) :   1.0402 B( 32-C , 33-N ) :   1.1985 B( 32-C , 36-C ) :   1.1406
B( 33-N , 34-C ) :   1.1638 B( 33-N , 93-H ) :   0.9342 B( 34-C , 35-C ) :   1.2284
B( 35-C , 94-H ) :   1.0280 B( 36-C , 37-C ) :   1.6522 B( 36-C , 95-H ) :   0.9536
B( 37-C , 38-C ) :   1.0725 B( 37-C , 96-H ) :   0.9792 B( 38-C , 39-C ) :   1.3022
B( 38-C , 43-C ) :   1.3395 B( 39-C , 40-C ) :   1.4070 B( 39-C , 97-H ) :   0.9976
B( 40-C , 41-C ) :   1.3613 B( 40-C , 46-C ) :   0.9148 B( 41-C , 42-C ) :   1.3479
B( 41-C , 44-C ) :   0.9845 B( 42-C , 43-C ) :   1.3756 B( 42-C , 98-H ) :   0.9896
B( 43-C , 99-H ) :   0.9900 B( 44-C , 45-C ) :   1.3698 B( 44-C , 54-C ) :   1.3492
B( 45-C , 46-C ) :   0.9127 B( 45-C , 51-C ) :   1.3969 B( 46-C , 47-C ) :   1.0366
B( 46-C , 49-C ) :   1.0409 B( 47-C , 48-C ) :   1.1016 B( 47-C ,100-H ) :   0.9392
B( 47-C ,101-H ) :   0.9367 B( 48-C ,102-H ) :   0.9639 B( 48-C ,103-H ) :   0.9634
B( 48-C ,104-H ) :   0.9612 B( 49-C , 50-C ) :   1.1003 B( 49-C ,105-H ) :   0.9380
B( 49-C ,106-H ) :   0.9395 B( 50-C ,107-H ) :   0.9644 B( 50-C ,108-H ) :   0.9640
B( 50-C ,109-H ) :   0.9646 B( 51-C , 52-C ) :   1.3365 B( 51-C ,110-H ) :   1.0037
B( 52-C , 53-C ) :   1.3789 B( 52-C , 55-C ) :   0.9632 B( 53-C , 54-C ) :   1.3596
B( 53-C ,111-H ) :   0.9902 B( 54-C ,112-H ) :   0.9926 B( 55-C , 56-S ) :   1.2027
B( 55-C , 57-C ) :   0.1227 B( 55-C , 59-C ) :   1.4374 B( 56-S , 57-C ) :   1.1849
B( 57-C , 58-C ) :   1.4598 B( 57-C ,113-H ) :   0.9562 B( 58-C , 59-C ) :   1.1798
B( 58-C , 64-C ) :   1.1689 B( 59-C , 60-C ) :   1.1733 B( 60-C , 61-C ) :   1.0975
B( 60-C , 62-C ) :   1.5902 B( 61-C ,114-H ) :   0.9404 B( 61-C ,115-H ) :   0.9427
B( 61-C ,116-H ) :   0.9343 B( 62-C , 63-C ) :   1.1568 B( 62-C ,117-H ) :   0.9856
B( 63-C , 64-C ) :   1.5931 B( 63-C ,118-H ) :   0.9881 B( 64-C , 65-C ) :   1.0872
B( 65-C ,119-H ) :   0.9545 B( 65-C ,120-H ) :   0.9453 B( 65-C ,121-H ) :   0.9457

-----------------------------------------------------------------------------
         ABSORPTION SPECTRUM VIA TRANSITION ELECTRIC DIPOLE MOMENTS
-----------------------------------------------------------------------------
State   Energy  Wavelength   fosc         T2         TX        TY        TZ
        (cm-1)    (nm)                  (au**2)     (au)      (au)      (au)
-----------------------------------------------------------------------------
   0   23656.5    422.7   3.145933509  43.77980  -4.35895  -4.97606   0.13476
   1   28942.5    345.5   0.027418144   0.31187   0.15216   0.33657   0.41886
   2   30887.8    323.8   0.351033187   3.74143   1.70097   0.62907   0.67260
   3   31459.3    317.9   0.108954161   1.14017   0.81540   0.42350   0.54401
   4   32965.8    303.3   0.053826463   0.53754  -0.43886  -0.57566   0.11642
   5   34112.3    293.1   0.024663053   0.23802   0.09694   0.21029   0.42942
   6   35310.1    283.2   0.029149185   0.27177   0.15130   0.49868   0.01397
   7   35814.6    279.2   0.004738821   0.04356   0.03212  -0.13986  -0.15155
   8   36332.6    275.2   0.016638294   0.15076   0.29234  -0.05645  -0.24923
   9   36547.5    273.6   0.184627246   1.66308   0.98530   0.73109   0.39723
  10   36773.6    271.9   0.108595518   0.97219  -0.33605  -0.69731   0.61076
  11   37735.8    265.0   0.014200702   0.12389  -0.07650   0.34306  -0.01853
  12   39552.5    252.8   0.119499653   0.99465  -0.03134  -0.92994   0.35900
  13   39806.4    251.2   0.032880218   0.27193   0.43314   0.09578  -0.27413
  14   40074.8    249.5   0.040863146   0.33569  -0.35890  -0.44967   0.06838
  15   40305.7    248.1   0.093701648   0.76534  -0.74108  -0.14967  -0.44016

FINAL SINGLE POINT ENERGY     -3298.772909650124

DIPOLE MOMENT
-------------
                                X             Y             Z
Electronic contribution:      7.25176      -2.38545     -17.06183
Nuclear contribution   :     -7.02394       2.64402      16.97074
                        -----------------------------------------
Total Dipole Moment    :      0.22783       0.25857      -0.09109
                        -----------------------------------------
Magnitude (a.u.)       :      0.35646
Magnitude (Debye)      :      0.90605

Rotational constants in cm-1:     0.005074     0.000172     0.000172
Rotational constants in MHz :   152.111514     5.161701     5.154104

                             ****ORCA TERMINATED NORMALLY****
TOTAL RUN TIME: 0 days 0 hours 11 minutes 6 seconds 370 msec
