                         Program Version 4.2.0 -  RELEASE  -
|  1> # ORCA input file
|  2> # SCF done       -177.735707826774          0.000898624378
|  3> ! CAM-B3LYP def2-SVP def2/J RIJCOSX Grid4 TightSCF
|  4> %maxcore 5000
|  5> %tddft
|  6>     Mode sTDDFT
|  7>     Ethresh 5.0
|  8>     maxcore 5000
|  9> end
| 10>
| 11> %pal
| 12>   nprocs 6
| 13>   end
| 14> * xyz 0 1
| 15>    C       -8.63800        -1.22295         0.74802
| 16>    C       -9.75292        -1.47885         1.49612
| 17>    C      -10.49555        -2.67848         1.42660
| 18>    N      -11.13321        -3.63202         1.41979
| 19>    C      -10.31462        -0.59344         2.44208
| 20>    N      -10.82876         0.07966         3.21617
| 21>    C       -8.05903        -2.10052        -0.25844
| 22>    C       -6.88292        -1.50377        -0.78061
| 23>    C       -6.12517        -2.09013        -1.76609
| 24>    C       -6.55143        -3.32296        -2.26783
| 25>    C       -7.72578        -3.91562        -1.73907
| 26>    C       -8.48802        -3.32538        -0.74015
| 27>    S       -8.07016        -5.43782        -2.50003
| 28>    C       -6.65567        -5.26129        -3.50485
| 29>    C       -5.95869        -4.12078        -3.28324
| 30>   Br       -6.23368        -6.59748        -4.74802
| 31>    C       -6.64459        -0.22030        -0.10999
| 32>    O       -5.65588         0.47323        -0.17311
| 33>    C       -7.83242        -0.00647         0.77911
| 34>    C       -8.03726         1.12015         1.49232
| 35>    C       -7.28286         2.33267         1.26091
| 36>    C       -6.77711         3.15414         2.25092
| 37>    C       -6.85806         2.92177         3.62693
| 38>    N       -6.93273         2.72276         4.75409
| 39>    S       -5.94623         4.53363         1.61435
| 40>    C       -6.27656         4.02680        -0.00860
| 41>    C       -7.00826         2.85430        -0.03716
| 42>    C       -7.60052         2.27582        -1.17610
| 43>    N       -8.16549         1.78930        -2.04676
| 44>    C       -5.78620         4.82445        -1.10590
| 45>    C       -5.44980         4.32588        -2.35331
| 46>    F       -5.52462         3.01927        -2.60877
| 47>    C       -4.95110         5.14264        -3.39077
| 48>    F       -4.61916         4.53945        -4.53551
| 49>    C       -4.74202         6.49794        -3.24350
| 50>    C       -5.07115         7.04416        -1.98294
| 51>    C       -5.57241         6.21514        -0.92563
| 52>    N       -5.80786         6.91631         0.18164
| 53>    S       -5.44280         8.45665        -0.08605
| 54>    N       -4.98084         8.32136        -1.61340
| 55>    C       -4.15582         7.33080        -4.28466
| 56>    C       -4.54240         7.33154        -5.60991
| 57>    C       -5.61844         6.63486        -6.16967
| 58>    N       -6.52234         6.09016        -6.61767
| 59>    S       -3.60271         8.42171        -6.57244
| 60>    C       -2.66372         8.89406        -5.19175
| 61>    C       -3.10068         8.24918        -4.04517
| 62>    C       -2.47485         8.42028        -2.79612
| 63>    N       -1.94546         8.54547        -1.78760
| 64>    C       -1.62978         9.87815        -5.26389
| 65>    C       -0.79891        10.13730        -6.29656
| 66>    C       -0.50689         9.41024        -7.52212
| 67>    C       -0.50435         8.04946        -7.66321
| 68>    C       -0.10940         7.38542        -8.84416
| 69>    N        0.19107         6.80995        -9.78949
| 70>    C       -0.80910         7.16775        -6.60429
| 71>    N       -1.01878         6.43398        -5.74752
| 72>    C        0.05618        10.36742        -8.46269
| 73>    C        0.35017        11.57142        -7.76934
| 74>    C       -0.07783        11.44942        -6.36460
| 75>    O        0.05560        12.24112        -5.46552
| 76>    C        0.94086        12.64879        -8.38604
| 77>    C        1.24371        12.53709        -9.74676
| 78>    C        0.93159        11.33563       -10.43244
| 79>    C        0.34280        10.24297        -9.80912
| 80>    S        1.38180        11.41958       -12.10622
| 81>    C        1.98032        13.04053       -11.86944
| 82>    C        1.84820        13.49833       -10.60067
| 83>   Br        2.71899        13.97364       -13.31648
| 84>    H       -5.23933        -1.60456        -2.14371
| 85>    H       -9.37471        -3.81538        -0.37409
| 86>    H       -5.06417        -3.85084        -3.81414
| 87>    H       -8.79664         1.16921         2.26140
| 88>    H       -1.53857        10.53232        -4.40096
| 89>    H        1.16425        13.54876        -7.83509
| 90>    H        0.11634         9.35009       -10.36841
| 91>    H        2.16387        14.47406       -10.27960
| 92> *
| 93>
| 94>                          ****END OF INPUT****

CARTESIAN COORDINATES (ANGSTROEM)
---------------------------------
  C     -8.638000   -1.222950    0.748020
  C     -9.752920   -1.478850    1.496120
  C    -10.495550   -2.678480    1.426600
  N    -11.133210   -3.632020    1.419790
  C    -10.314620   -0.593440    2.442080
  N    -10.828760    0.079660    3.216170
  C     -8.059030   -2.100520   -0.258440
  C     -6.882920   -1.503770   -0.780610
  C     -6.125170   -2.090130   -1.766090
  C     -6.551430   -3.322960   -2.267830
  C     -7.725780   -3.915620   -1.739070
  C     -8.488020   -3.325380   -0.740150
  S     -8.070160   -5.437820   -2.500030
  C     -6.655670   -5.261290   -3.504850
  C     -5.958690   -4.120780   -3.283240
  Br    -6.233680   -6.597480   -4.748020
  C     -6.644590   -0.220300   -0.109990
  O     -5.655880    0.473230   -0.173110
  C     -7.832420   -0.006470    0.779110
  C     -8.037260    1.120150    1.492320
  C     -7.282860    2.332670    1.260910
  C     -6.777110    3.154140    2.250920
  C     -6.858060    2.921770    3.626930
  N     -6.932730    2.722760    4.754090
  S     -5.946230    4.533630    1.614350
  C     -6.276560    4.026800   -0.008600
  C     -7.008260    2.854300   -0.037160
  C     -7.600520    2.275820   -1.176100
  N     -8.165490    1.789300   -2.046760
  C     -5.786200    4.824450   -1.105900
  C     -5.449800    4.325880   -2.353310
  F     -5.524620    3.019270   -2.608770
  C     -4.951100    5.142640   -3.390770
  F     -4.619160    4.539450   -4.535510
  C     -4.742020    6.497940   -3.243500
  C     -5.071150    7.044160   -1.982940
  C     -5.572410    6.215140   -0.925630
  N     -5.807860    6.916310    0.181640
  S     -5.442800    8.456650   -0.086050
  N     -4.980840    8.321360   -1.613400
  C     -4.155820    7.330800   -4.284660
  C     -4.542400    7.331540   -5.609910
  C     -5.618440    6.634860   -6.169670
  N     -6.522340    6.090160   -6.617670
  S     -3.602710    8.421710   -6.572440
  C     -2.663720    8.894060   -5.191750
  C     -3.100680    8.249180   -4.045170
  C     -2.474850    8.420280   -2.796120
  N     -1.945460    8.545470   -1.787600
  C     -1.629780    9.878150   -5.263890
  C     -0.798910   10.137300   -6.296560
  C     -0.506890    9.410240   -7.522120
  C     -0.504350    8.049460   -7.663210
  C     -0.109400    7.385420   -8.844160
  N      0.191070    6.809950   -9.789490
  C     -0.809100    7.167750   -6.604290
  N     -1.018780    6.433980   -5.747520
  C      0.056180   10.367420   -8.462690
  C      0.350170   11.571420   -7.769340
  C     -0.077830   11.449420   -6.364600
  O      0.055600   12.241120   -5.465520
  C      0.940860   12.648790   -8.386040
  C      1.243710   12.537090   -9.746760
  C      0.931590   11.335630  -10.432440
  C      0.342800   10.242970   -9.809120
  S      1.381800   11.419580  -12.106220
  C      1.980320   13.040530  -11.869440
  C      1.848200   13.498330  -10.600670
  Br     2.718990   13.973640  -13.316480
  H     -5.239330   -1.604560   -2.143710
  H     -9.374710   -3.815380   -0.374090
  H     -5.064170   -3.850840   -3.814140
  H     -8.796640    1.169210    2.261400
  H     -1.538570   10.532320   -4.400960
  H      1.164250   13.548760   -7.835090
  H      0.116340    9.350090  -10.368410
  H      2.163870   14.474060  -10.279600

 Total Charge           Charge          ....    0
 Multiplicity           Mult            ....    1
 Number of Electrons    NEL             ....  550
 Basis Dimension        Dim             .... 1062

ORBITAL ENERGIES
----------------

  NO   OCC          E(Eh)            E(eV)
   0   2.0000    -482.898190    -13140.3278
   1   2.0000    -482.888364    -13140.0604
   2   2.0000     -89.051670     -2423.2191
   3   2.0000     -89.015716     -2422.2408
   4   2.0000     -89.000901     -2421.8377
   5   2.0000     -88.991436     -2421.5801
   6   2.0000     -88.979747     -2421.2620
   7   2.0000     -62.575919     -1702.7773
   8   2.0000     -62.566088     -1702.5098
   9   2.0000     -56.409887     -1534.9911
  10   2.0000     -56.407134     -1534.9161
  11   2.0000     -56.407113     -1534.9156
  12   2.0000     -56.400044     -1534.7232
  13   2.0000     -56.397313     -1534.6489
  14   2.0000     -56.397288     -1534.6482
  15   2.0000     -24.823173      -675.4729
  16   2.0000     -24.822906      -675.4656
  17   2.0000     -19.239182      -523.5248
  18   2.0000     -19.227378      -523.2036
  19   2.0000     -14.466163      -393.6443
  20   2.0000     -14.465260      -393.6197
  21   2.0000     -14.436913      -392.8484
  22   2.0000     -14.436715      -392.8430
  23   2.0000     -14.433435      -392.7537
  24   2.0000     -14.428372      -392.6160
  25   2.0000     -14.424077      -392.4991
  26   2.0000     -14.423624      -392.4868
  27   2.0000     -14.423288      -392.4776
  28   2.0000     -14.418156      -392.3380
  29   2.0000     -10.412095      -283.3275
  30   2.0000     -10.411634      -283.3150
  31   2.0000     -10.390176      -282.7311
  32   2.0000     -10.378320      -282.4085
  33   2.0000     -10.374169      -282.2955
  34   2.0000     -10.370161      -282.1864
  35   2.0000     -10.369377      -282.1651
  36   2.0000     -10.365939      -282.0716
  37   2.0000     -10.365148      -282.0500
  38   2.0000     -10.363105      -281.9944
  39   2.0000     -10.358729      -281.8754
  40   2.0000     -10.357619      -281.8452
  41   2.0000     -10.356981      -281.8278
  42   2.0000     -10.354430      -281.7584
  43   2.0000     -10.354024      -281.7473
  44   2.0000     -10.352628      -281.7093
  45   2.0000     -10.350724      -281.6575
  46   2.0000     -10.350565      -281.6532
  47   2.0000     -10.347067      -281.5580
  48   2.0000     -10.345161      -281.5061
  49   2.0000     -10.344063      -281.4763
  50   2.0000     -10.341130      -281.3964
  51   2.0000     -10.339119      -281.3417
  52   2.0000     -10.338035      -281.3122
  53   2.0000     -10.337886      -281.3082
  54   2.0000     -10.333814      -281.1974
  55   2.0000     -10.332966      -281.1743
  56   2.0000     -10.331432      -281.1326
  57   2.0000     -10.331001      -281.1208
  58   2.0000     -10.329886      -281.0905
  59   2.0000     -10.329276      -281.0739
  60   2.0000     -10.328865      -281.0627
  61   2.0000     -10.325545      -280.9724
  62   2.0000     -10.325230      -280.9638
  63   2.0000     -10.325123      -280.9609
  64   2.0000     -10.325018      -280.9580
  65   2.0000     -10.324467      -280.9430
  66   2.0000     -10.320290      -280.8294
  67   2.0000     -10.319152      -280.7984
  68   2.0000     -10.317152      -280.7440
  69   2.0000     -10.315885      -280.7095
  70   2.0000     -10.313944      -280.6567
  71   2.0000     -10.313142      -280.6349
  72   2.0000     -10.311429      -280.5883
  73   2.0000     -10.311363      -280.5864
  74   2.0000     -10.306729      -280.4604
  75   2.0000     -10.300158      -280.2815
  76   2.0000     -10.299309      -280.2584
  77   2.0000      -8.805374      -239.6064
  78   2.0000      -8.795530      -239.3385
  79   2.0000      -8.143075      -221.5843
  80   2.0000      -8.110390      -220.6949
  81   2.0000      -8.095270      -220.2835
  82   2.0000      -8.087468      -220.0712
  83   2.0000      -8.075743      -219.7521
  84   2.0000      -6.641765      -180.7316
  85   2.0000      -6.631877      -180.4626
  86   2.0000      -6.627093      -180.3324
  87   2.0000      -6.626814      -180.3248
  88   2.0000      -6.617264      -180.0649
  89   2.0000      -6.617016      -180.0582
  90   2.0000      -6.114280      -166.3780
  91   2.0000      -6.106514      -166.1667
  92   2.0000      -6.105504      -166.1392
  93   2.0000      -6.079811      -165.4401
  94   2.0000      -6.075401      -165.3201
  95   2.0000      -6.072486      -165.2407
  96   2.0000      -6.064711      -165.0292
  97   2.0000      -6.060142      -164.9049
  98   2.0000      -6.057403      -164.8303
  99   2.0000      -6.057128      -164.8228
 100   2.0000      -6.052862      -164.7068
 101   2.0000      -6.048703      -164.5936
 102   2.0000      -6.045419      -164.5042
 103   2.0000      -6.041145      -164.3879
 104   2.0000      -6.036979      -164.2746
 105   2.0000      -2.757609       -75.0383
 106   2.0000      -2.753508       -74.9268
 107   2.0000      -2.753335       -74.9221
 108   2.0000      -2.747719       -74.7692
 109   2.0000      -2.743659       -74.6588
 110   2.0000      -2.743473       -74.6537
 111   2.0000      -2.741651       -74.6041
 112   2.0000      -2.741641       -74.6038
 113   2.0000      -2.731861       -74.3377
 114   2.0000      -2.731834       -74.3370
 115   2.0000      -1.349020       -36.7087
 116   2.0000      -1.331168       -36.2229
 117   2.0000      -1.155390       -31.4397
 118   2.0000      -1.154907       -31.4266
 119   2.0000      -1.144644       -31.1474
 120   2.0000      -1.056311       -28.7437
 121   2.0000      -1.042813       -28.3764
 122   2.0000      -1.042667       -28.3724
 123   2.0000      -1.031996       -28.0820
 124   2.0000      -1.029623       -28.0175
 125   2.0000      -1.019744       -27.7487
 126   2.0000      -1.016703       -27.6659
 127   2.0000      -1.015360       -27.6293
 128   2.0000      -1.011688       -27.5294
 129   2.0000      -1.010238       -27.4900
 130   2.0000      -1.006468       -27.3874
 131   2.0000      -1.005737       -27.3675
 132   2.0000      -1.003683       -27.3116
 133   2.0000      -1.001713       -27.2580
 134   2.0000      -0.996925       -27.1277
 135   2.0000      -0.993394       -27.0316
 136   2.0000      -0.963680       -26.2231
 137   2.0000      -0.951050       -25.8794
 138   2.0000      -0.940824       -25.6011
 139   2.0000      -0.930181       -25.3115
 140   2.0000      -0.926391       -25.2084
 141   2.0000      -0.919001       -25.0073
 142   2.0000      -0.914579       -24.8869
 143   2.0000      -0.905112       -24.6294
 144   2.0000      -0.904478       -24.6121
 145   2.0000      -0.897377       -24.4189
 146   2.0000      -0.891613       -24.2620
 147   2.0000      -0.890909       -24.2429
 148   2.0000      -0.884805       -24.0768
 149   2.0000      -0.872988       -23.7552
 150   2.0000      -0.856105       -23.2958
 151   2.0000      -0.847012       -23.0484
 152   2.0000      -0.840755       -22.8781
 153   2.0000      -0.834257       -22.7013
 154   2.0000      -0.801498       -21.8099
 155   2.0000      -0.798617       -21.7315
 156   2.0000      -0.783816       -21.3287
 157   2.0000      -0.781464       -21.2647
 158   2.0000      -0.767147       -20.8751
 159   2.0000      -0.763623       -20.7792
 160   2.0000      -0.751034       -20.4367
 161   2.0000      -0.749178       -20.3862
 162   2.0000      -0.743098       -20.2207
 163   2.0000      -0.739226       -20.1154
 164   2.0000      -0.721684       -19.6380
 165   2.0000      -0.717261       -19.5177
 166   2.0000      -0.710503       -19.3338
 167   2.0000      -0.704632       -19.1740
 168   2.0000      -0.697649       -18.9840
 169   2.0000      -0.687154       -18.6984
 170   2.0000      -0.687135       -18.6979
 171   2.0000      -0.679139       -18.4803
 172   2.0000      -0.670099       -18.2343
 173   2.0000      -0.663479       -18.0542
 174   2.0000      -0.661830       -18.0093
 175   2.0000      -0.655632       -17.8406
 176   2.0000      -0.648350       -17.6425
 177   2.0000      -0.644116       -17.5273
 178   2.0000      -0.632647       -17.2152
 179   2.0000      -0.626530       -17.0487
 180   2.0000      -0.622547       -16.9404
 181   2.0000      -0.618168       -16.8212
 182   2.0000      -0.615498       -16.7486
 183   2.0000      -0.615117       -16.7382
 184   2.0000      -0.604144       -16.4396
 185   2.0000      -0.597758       -16.2658
 186   2.0000      -0.594927       -16.1888
 187   2.0000      -0.587720       -15.9927
 188   2.0000      -0.584527       -15.9058
 189   2.0000      -0.577077       -15.7031
 190   2.0000      -0.573376       -15.6024
 191   2.0000      -0.571166       -15.5422
 192   2.0000      -0.568666       -15.4742
 193   2.0000      -0.565178       -15.3793
 194   2.0000      -0.560640       -15.2558
 195   2.0000      -0.557976       -15.1833
 196   2.0000      -0.555919       -15.1273
 197   2.0000      -0.553665       -15.0660
 198   2.0000      -0.551891       -15.0177
 199   2.0000      -0.547649       -14.9023
 200   2.0000      -0.544995       -14.8301
 201   2.0000      -0.543588       -14.7918
 202   2.0000      -0.536226       -14.5914
 203   2.0000      -0.533319       -14.5123
 204   2.0000      -0.528217       -14.3735
 205   2.0000      -0.527309       -14.3488
 206   2.0000      -0.523101       -14.2343
 207   2.0000      -0.522613       -14.2210
 208   2.0000      -0.521487       -14.1904
 209   2.0000      -0.516440       -14.0530
 210   2.0000      -0.515671       -14.0321
 211   2.0000      -0.513654       -13.9772
 212   2.0000      -0.507993       -13.8232
 213   2.0000      -0.505389       -13.7523
 214   2.0000      -0.503211       -13.6931
 215   2.0000      -0.499274       -13.5859
 216   2.0000      -0.493566       -13.4306
 217   2.0000      -0.489654       -13.3242
 218   2.0000      -0.485854       -13.2208
 219   2.0000      -0.481968       -13.1150
 220   2.0000      -0.479032       -13.0351
 221   2.0000      -0.475556       -12.9405
 222   2.0000      -0.472386       -12.8543
 223   2.0000      -0.471724       -12.8363
 224   2.0000      -0.469565       -12.7775
 225   2.0000      -0.465104       -12.6561
 226   2.0000      -0.463440       -12.6109
 227   2.0000      -0.463071       -12.6008
 228   2.0000      -0.460979       -12.5439
 229   2.0000      -0.459660       -12.5080
 230   2.0000      -0.457456       -12.4480
 231   2.0000      -0.455731       -12.4011
 232   2.0000      -0.455166       -12.3857
 233   2.0000      -0.454611       -12.3706
 234   2.0000      -0.451988       -12.2992
 235   2.0000      -0.450722       -12.2648
 236   2.0000      -0.450448       -12.2573
 237   2.0000      -0.447833       -12.1862
 238   2.0000      -0.446803       -12.1581
 239   2.0000      -0.446559       -12.1515
 240   2.0000      -0.444392       -12.0925
 241   2.0000      -0.441833       -12.0229
 242   2.0000      -0.437855       -11.9146
 243   2.0000      -0.436053       -11.8656
 244   2.0000      -0.434008       -11.8100
 245   2.0000      -0.431955       -11.7541
 246   2.0000      -0.430937       -11.7264
 247   2.0000      -0.430106       -11.7038
 248   2.0000      -0.427981       -11.6460
 249   2.0000      -0.425305       -11.5732
 250   2.0000      -0.420638       -11.4461
 251   2.0000      -0.419293       -11.4095
 252   2.0000      -0.416988       -11.3468
 253   2.0000      -0.414639       -11.2829
 254   2.0000      -0.405360       -11.0304
 255   2.0000      -0.397417       -10.8143
 256   2.0000      -0.393622       -10.7110
 257   2.0000      -0.391922       -10.6647
 258   2.0000      -0.387346       -10.5402
 259   2.0000      -0.386872       -10.5273
 260   2.0000      -0.377609       -10.2753
 261   2.0000      -0.377030       -10.2595
 262   2.0000      -0.369380       -10.0513
 263   2.0000      -0.364269        -9.9123
 264   2.0000      -0.356274        -9.6947
 265   2.0000      -0.355456        -9.6724
 266   2.0000      -0.349951        -9.5226
 267   2.0000      -0.344982        -9.3874
 268   2.0000      -0.332898        -9.0586
 269   2.0000      -0.326920        -8.8959
 270   2.0000      -0.321110        -8.7379
 271   2.0000      -0.319284        -8.6882
 272   2.0000      -0.310999        -8.4627
 273   2.0000      -0.303466        -8.2577
 274   2.0000      -0.297823        -8.1042
 275   0.0000      -0.119290        -3.2460
 276   0.0000      -0.101369        -2.7584
 277   0.0000      -0.099958        -2.7200
 278   0.0000      -0.081104        -2.2070
 279   0.0000      -0.067049        -1.8245

MULLIKEN ATOMIC CHARGES
-----------------------
   0 C :    0.305388
   1 C :   -0.334886
   2 C :   -0.187036
   3 N :    0.161576
   4 C :   -0.183885
   5 N :    0.166742
   6 C :    0.025097
   7 C :   -0.002671
   8 C :   -0.052660
   9 C :    0.115225
  10 C :   -0.087424
  11 C :   -0.018812
  12 S :    0.192749
  13 C :   -0.123309
  14 C :    0.043884
  15 Br:    0.030767
  16 C :    0.128830
  17 O :   -0.134712
  18 C :   -0.061645
  19 C :   -0.047944
  20 C :    0.203572
  21 C :   -0.288848
  22 C :   -0.192414
  23 N :    0.164967
  24 S :    0.290729
  25 C :   -0.105335
  26 C :    0.007594
  27 C :   -0.320806
  28 N :    0.200861
  29 C :    0.048261
  30 C :    0.155351
  31 F :   -0.137844
  32 C :    0.190589
  33 F :   -0.142222
  34 C :   -0.078606
  35 C :    0.036804
  36 C :   -0.013860
  37 N :   -0.288812
  38 S :    0.555914
  39 N :   -0.262348
  40 C :    0.285716
  41 C :   -0.323007
  42 C :   -0.213327
  43 N :    0.191393
  44 S :    0.257541
  45 C :   -0.131456
  46 C :   -0.011829
  47 C :   -0.256158
  48 N :    0.197624
  49 C :    0.029932
  50 C :   -0.113972
  51 C :    0.235594
  52 C :   -0.312350
  53 C :   -0.173585
  54 N :    0.169411
  55 C :   -0.184756
  56 N :    0.176159
  57 C :    0.008763
  58 C :   -0.000507
  59 C :    0.139777
  60 O :   -0.123771
  61 C :   -0.066851
  62 C :    0.115522
  63 C :   -0.086746
  64 C :   -0.018156
  65 S :    0.197122
  66 C :   -0.125494
  67 C :    0.043241
  68 Br:    0.037434
  69 H :   -0.005017
  70 H :   -0.004379
  71 H :   -0.000476
  72 H :    0.052139
  73 H :    0.054410
  74 H :   -0.001976
  75 H :    0.002082
  76 H :    0.001136
Sum of atomic charges:   -0.0000000

LOEWDIN ATOMIC CHARGES
----------------------
   0 C :    0.074298
   1 C :   -0.122175
   2 C :   -0.017292
   3 N :   -0.041071
   4 C :   -0.020162
   5 N :   -0.035508
   6 C :   -0.017582
   7 C :   -0.047432
   8 C :    0.031161
   9 C :   -0.028177
  10 C :   -0.139771
  11 C :   -0.006679
  12 S :    0.437599
  13 C :   -0.268710
  14 C :   -0.068155
  15 Br:    0.143155
  16 C :    0.088477
  17 O :   -0.128117
  18 C :   -0.053710
  19 C :    0.060952
  20 C :   -0.009443
  21 C :   -0.206053
  22 C :   -0.056674
  23 N :   -0.024671
  24 S :    0.552890
  25 C :   -0.126421
  26 C :   -0.076643
  27 C :   -0.039469
  28 N :   -0.045480
  29 C :   -0.067486
  30 C :    0.086482
  31 F :   -0.010201
  32 C :    0.090154
  33 F :   -0.021114
  34 C :   -0.055451
  35 C :   -0.042549
  36 C :   -0.047585
  37 N :   -0.297557
  38 S :    0.683266
  39 N :   -0.268917
  40 C :    0.007954
  41 C :   -0.195096
  42 C :   -0.060413
  43 N :   -0.018559
  44 S :    0.532260
  45 C :   -0.140015
  46 C :   -0.061952
  47 C :   -0.030861
  48 N :   -0.034489
  49 C :    0.040796
  50 C :   -0.062652
  51 C :    0.057082
  52 C :   -0.128230
  53 C :   -0.020589
  54 N :   -0.033872
  55 C :   -0.031276
  56 N :   -0.037620
  57 C :   -0.019642
  58 C :   -0.054669
  59 C :    0.085671
  60 O :   -0.122873
  61 C :    0.028136
  62 C :   -0.029182
  63 C :   -0.140557
  64 C :   -0.008658
  65 S :    0.441288
  66 C :   -0.267736
  67 C :   -0.068759
  68 Br:    0.147459
  69 H :    0.043923
  70 H :    0.041877
  71 H :    0.040422
  72 H :    0.052993
  73 H :    0.061653
  74 H :    0.044464
  75 H :    0.042680
  76 H :    0.040866

  Mayer bond orders larger than 0.100000
B(  0-C ,  1-C ) :   1.6670 B(  0-C ,  6-C ) :   1.0220 B(  0-C , 18-C ) :   1.0344
B(  1-C ,  2-C ) :   1.1359 B(  1-C ,  4-C ) :   1.1438 B(  2-C ,  3-N ) :   2.9739
B(  4-C ,  5-N ) :   2.9677 B(  6-C ,  7-C ) :   1.2706 B(  6-C , 11-C ) :   1.3949
B(  7-C ,  8-C ) :   1.4193 B(  7-C , 16-C ) :   0.9490 B(  8-C ,  9-C ) :   1.2524
B(  8-C , 69-H ) :   1.0161 B(  9-C , 10-C ) :   1.2940 B(  9-C , 14-C ) :   1.1648
B( 10-C , 11-C ) :   1.3432 B( 10-C , 12-S ) :   1.0895 B( 11-C , 70-H ) :   0.9794
B( 12-S , 13-C ) :   1.0866 B( 13-C , 14-C ) :   1.6147 B( 13-C , 15-Br) :   1.0229
B( 14-C , 71-H ) :   1.0010 B( 16-C , 17-O ) :   2.2355 B( 16-C , 18-C ) :   0.9000
B( 18-C , 19-C ) :   1.7440 B( 19-C , 20-C ) :   1.0440 B( 19-C , 72-H ) :   0.9256
B( 20-C , 21-C ) :   1.4879 B( 20-C , 26-C ) :   1.2694 B( 21-C , 22-C ) :   1.2085
B( 21-C , 24-S ) :   1.1429 B( 21-C , 25-C ) :   0.1144 B( 22-C , 23-N ) :   3.0070
B( 24-S , 25-C ) :   1.1682 B( 25-C , 26-C ) :   1.5233 B( 25-C , 29-C ) :   1.0567
B( 26-C , 27-C ) :   1.1194 B( 27-C , 28-N ) :   3.0308 B( 29-C , 30-C ) :   1.4167
B( 29-C , 34-C ) :   0.1311 B( 29-C , 36-C ) :   1.1801 B( 30-C , 31-F ) :   1.1883
B( 30-C , 32-C ) :   1.0985 B( 32-C , 33-F ) :   1.1950 B( 32-C , 34-C ) :   1.4638
B( 34-C , 35-C ) :   1.2231 B( 34-C , 40-C ) :   0.9259 B( 35-C , 36-C ) :   1.1560
B( 35-C , 39-N ) :   1.5338 B( 36-C , 37-N ) :   1.5347 B( 37-N , 38-S ) :   1.2670
B( 37-N , 39-N ) :   0.1425 B( 38-S , 39-N ) :   1.2803 B( 40-C , 41-C ) :   1.5122
B( 40-C , 46-C ) :   1.3237 B( 41-C , 42-C ) :   1.2346 B( 41-C , 44-S ) :   1.1491
B( 41-C , 45-C ) :   0.1090 B( 42-C , 43-N ) :   3.0131 B( 44-S , 45-C ) :   1.1489
B( 45-C , 46-C ) :   1.4766 B( 45-C , 49-C ) :   1.0604 B( 46-C , 47-C ) :   1.1411
B( 47-C , 48-N ) :   3.0221 B( 49-C , 50-C ) :   1.7561 B( 49-C , 73-H ) :   0.9393
B( 50-C , 51-C ) :   1.0034 B( 50-C , 59-C ) :   0.9156 B( 51-C , 52-C ) :   1.6802
B( 51-C , 57-C ) :   1.0264 B( 52-C , 53-C ) :   1.1258 B( 52-C , 55-C ) :   1.1570
B( 53-C , 54-N ) :   2.9948 B( 55-C , 56-N ) :   2.9999 B( 57-C , 58-C ) :   1.2659
B( 57-C , 64-C ) :   1.4070 B( 58-C , 59-C ) :   0.9255 B( 58-C , 61-C ) :   1.4215
B( 59-C , 60-O ) :   2.2869 B( 61-C , 62-C ) :   1.2571 B( 61-C , 74-H ) :   1.0161
B( 62-C , 63-C ) :   1.2932 B( 62-C , 67-C ) :   1.1679 B( 63-C , 64-C ) :   1.3348
B( 63-C , 65-S ) :   1.0909 B( 64-C , 75-H ) :   0.9837 B( 65-S , 66-C ) :   1.0882
B( 66-C , 67-C ) :   1.6153 B( 66-C , 68-Br) :   1.0272 B( 67-C , 76-H ) :   1.0001

-----------------------------------------------------------------------------
         ABSORPTION SPECTRUM VIA TRANSITION ELECTRIC DIPOLE MOMENTS
-----------------------------------------------------------------------------
State   Energy  Wavelength   fosc         T2         TX        TY        TZ
        (cm-1)    (nm)                  (au**2)     (au)      (au)      (au)
-----------------------------------------------------------------------------
   0   24667.2    405.4   0.094793702   1.26513  -1.07191   0.06619   0.33430
   1   25419.3    393.4   0.820247119  10.62324  -1.59954  -2.00977   2.00637
   2   26248.7    381.0   0.538909075   6.75900  -0.93598  -2.05684   1.28544
   3   26547.7    376.7   0.220225778   2.73097   0.80536  -0.86595  -1.15434
   4   26986.2    370.6   0.127660993   1.55737   0.27330   0.52842  -1.09702
   5   27803.3    359.7   0.005997124   0.07101   0.01308   0.23914   0.11684
   6   28039.7    356.6   0.240908935   2.82849   0.28685  -0.56881  -1.55649
   7   28483.1    351.1   0.089132349   1.03020   0.78351   0.37080  -0.52805
   8   28781.3    347.4   0.013955160   0.15962   0.33327  -0.18238  -0.12366
   9   29059.3    344.1   0.013048222   0.14782   0.34454   0.17061  -0.00271
  10   30325.9    329.8   0.170520702   1.85114   0.66394   1.18750   0.01251
  11   31338.4    319.1   0.030406404   0.31942   0.05485   0.52903   0.19114
  12   31589.6    316.6   0.014919823   0.15549   0.22587   0.17056  -0.27455
  13   31928.3    313.2   0.058174283   0.59983   0.08758   0.70020   0.31919
  14   32099.3    311.5   0.034711349   0.35600   0.43004  -0.03060  -0.41247
  15   32333.8    309.3   0.669251926   6.81410  -0.92641  -2.00489   1.39151
  16   32763.0    305.2   0.644605305   6.47717   1.37161  -1.24819  -1.74295
  17   33192.4    301.3   0.023586809   0.23394  -0.33353  -0.09652   0.33672
  18   33469.3    298.8   0.119053386   1.17104   0.55211   0.86327  -0.34782
  19   33946.0    294.6   0.211714081   2.05323  -0.90501  -0.79821   0.77269
  20   34204.9    292.4   0.011434982   0.11006  -0.32496   0.02553   0.06173
  21   34661.5    288.5   0.093943824   0.89227   0.10988   0.83824   0.42137
  22   34729.4    287.9   0.077452255   0.73420   0.05463  -0.77961  -0.35132
  23   35119.2    284.7   0.199438890   1.86957  -0.39932  -1.27357  -0.29688
  24   35463.7    282.0   0.018056278   0.16762   0.26661   0.10782  -0.29140
  25   35584.2    281.0   0.012246465   0.11330  -0.04913  -0.30082  -0.14281
  26   35963.0    278.1   0.083276171   0.76233   0.03039  -0.78602  -0.37891
  27   36171.8    276.5   0.030558942   0.27813   0.14819  -0.48678  -0.13860
  28   36406.7    274.7   0.119295023   1.07874   0.30461  -0.11052  -0.98678
  29   36541.4    273.7   0.005303068   0.04778   0.02578  -0.17463  -0.12891
  30   36927.8    270.8   0.117876855   1.05087   0.02476   0.65337   0.78954
  31   37476.8    266.8   0.194235864   1.70625   0.50218   0.75764  -0.93811
  32   37738.4    265.0   0.111031020   0.96858  -0.77982  -0.58844  -0.11915
  33   37793.9    264.6   0.042088531   0.36662  -0.00727   0.44640  -0.40901
  34   37956.4    263.5   0.039739007   0.34467   0.00237   0.41543   0.41483
  35   38531.3    259.5   0.075368900   0.64395   0.21306   0.56286   0.53080
  36   38666.0    258.6   0.049796422   0.42398  -0.01780  -0.64976   0.03836
  37   39016.5    256.3   0.232653103   1.96307  -0.02830   0.99553   0.98549
  38   39859.0    250.9   0.017846289   0.14740  -0.05298  -0.20863  -0.31791
  39   39997.9    250.0   0.101897766   0.83869   0.45254   0.68996   0.39731

FINAL SINGLE POINT ENERGY     -9866.278003125284

DIPOLE MOMENT
-------------
                                X             Y             Z
Electronic contribution:     39.04916     -18.62901     -89.94706
Nuclear contribution   :    -36.42279      21.93746      86.58764
                        -----------------------------------------
Total Dipole Moment    :      2.62636       3.30846      -3.35942
                        -----------------------------------------
Magnitude (a.u.)       :      5.39716
Magnitude (Debye)      :     13.71850

Rotational constants in cm-1:     0.001279     0.000239     0.000206
Rotational constants in MHz :    38.343884     7.150273     6.176588

                             ****ORCA TERMINATED NORMALLY****
TOTAL RUN TIME: 0 days 0 hours 8 minutes 10 seconds 60 msec
