                         Program Version 4.2.0 -  RELEASE  -
|  1> # ORCA input file
|  2> # SCF done       -196.530616392807          0.000826636013
|  3> ! CAM-B3LYP def2-SVP def2/J RIJCOSX Grid4 TightSCF
|  4> %maxcore 5000
|  5> %tddft
|  6>     Mode sTDDFT
|  7>     Ethresh 5.0
|  8>     maxcore 5000
|  9> end
| 10>
| 11> %pal
| 12>   nprocs 6
| 13>   end
| 14> * xyz 0 1
| 15>    C      -11.65719         1.61820         0.97965
| 16>    C      -12.60964         2.08476         0.11772
| 17>    F      -13.18061         3.27878         0.32673
| 18>    C      -13.00392         1.31949        -0.99783
| 19>    F      -13.94178         1.80078        -1.82582
| 20>    C      -12.43957         0.09777        -1.23655
| 21>    C      -11.45631        -0.41079        -0.36614
| 22>    C      -11.05675         0.36175         0.76232
| 23>    C      -10.07389        -0.12962         1.65205
| 24>    C       -9.51114        -1.35740         1.42197
| 25>    C       -9.91933        -2.12231         0.29616
| 26>    C      -10.86111        -1.67349        -0.58337
| 27>    C       -9.18986        -3.40715         0.28102
| 28>    O       -9.29459        -4.26352        -0.57339
| 29>    C       -8.35612        -3.40829         1.50136
| 30>    C       -8.50479        -2.12068         2.15553
| 31>    C       -7.81177        -1.65127         3.24410
| 32>    C       -6.80045        -2.33762         3.94660
| 33>    N       -5.96579        -2.82397         4.56979
| 34>    C       -8.00454        -0.37428         3.81206
| 35>    N       -8.10980         0.64698         4.32611
| 36>    C       -7.62871        -4.44448         2.03291
| 37>    C       -7.36598        -5.74575         1.57695
| 38>    N       -6.68386        -6.60720         2.42959
| 39>    C       -6.55371        -7.80545         1.82092
| 40>    C       -6.08586        -9.10484         1.98344
| 41>    C       -6.39652        -9.77900         0.79602
| 42>    N       -7.02252        -8.91412        -0.07618
| 43>    C       -7.15074        -7.70407         0.53162
| 44>    C       -7.65578        -6.42434         0.37724
| 45>    C       -6.18841       -11.14335         0.45525
| 46>    C       -5.75499       -12.08534         1.32361
| 47>    C       -5.62897       -13.48116         1.02356
| 48>    C       -5.43832       -14.41334         1.99891
| 49>    C       -5.41340       -15.80644         1.68955
| 50>    C       -5.24031       -16.77827         2.66185
| 51>    C       -5.23390       -18.14414         2.34111
| 52>    N       -5.23376       -19.25984         2.06513
| 53>    C       -5.06735       -16.44514         4.01374
| 54>    N       -4.92751       -16.15926         5.11816
| 55>    C       -5.57987       -16.13065         0.30905
| 56>    C       -5.72863       -15.14930        -0.62084
| 57>    O       -5.75391       -13.82639        -0.28907
| 58>    C       -5.84462       -15.40561        -2.02861
| 59>    N       -5.66907       -14.40627        -2.96098
| 60>    C       -5.78289       -14.95556        -4.19909
| 61>    C       -5.69647       -14.68685        -5.56049
| 62>    C       -5.96170       -15.90071        -6.21503
| 63>    N       -6.19510       -16.88039        -5.26439
| 64>    C       -6.07863       -16.33371        -4.03301
| 65>    C       -6.10866       -16.61621        -2.66865
| 66>    C       -5.98343       -16.27022        -7.58056
| 67>    C       -5.73488       -15.52063        -8.69082
| 68>    C       -5.57286       -14.12189        -8.76562
| 69>    C       -5.00732       -13.42970        -9.80009
| 70>    C       -5.25530       -11.97778        -9.96328
| 71>    O       -5.75334       -11.23030        -9.14978
| 72>    C       -4.80574       -11.65749       -11.33521
| 73>    C       -4.89601       -10.47920       -12.01774
| 74>    C       -4.41646       -10.41453       -13.34588
| 75>    C       -3.85613       -11.57993       -13.94428
| 76>    C       -3.38550       -11.51147       -15.27076
| 77>    C       -3.46347       -10.33955       -15.96956
| 78>    C       -4.01541        -9.18680       -15.37626
| 79>    C       -4.48269        -9.22205       -14.09223
| 80>    F       -4.07916        -8.05076       -16.08445
| 81>    F       -3.01397       -10.27580       -17.22997
| 82>    C       -3.76846       -12.78505       -13.21001
| 83>    C       -4.22992       -12.82119       -11.92193
| 84>    C       -4.22629       -13.88905       -10.92377
| 85>    C       -3.44678       -15.01779       -10.97286
| 86>    C       -3.20770       -15.85785        -9.86585
| 87>    N       -2.93186       -16.53596        -8.98155
| 88>    C       -2.69774       -15.40458       -12.10263
| 89>    N       -2.09265       -15.77948       -13.00335
| 90>    H      -11.36631         2.21702         1.82860
| 91>    H      -12.75265        -0.47605        -2.09471
| 92>    H       -9.79876         0.47846         2.49820
| 93>    H      -11.15097        -2.27588        -1.43088
| 94>    H       -7.19002        -4.24960         3.00468
| 95>    H       -6.35364        -6.35444         3.34607
| 96>    H       -5.58310        -9.52178         2.83148
| 97>    H       -7.37078        -9.16462        -0.98572
| 98>    H       -8.17362        -5.99970        -0.45713
| 99>    H       -6.44507       -11.43514        -0.55504
|100>    H       -5.53552       -11.81772         2.34479
|101>    H       -5.33110       -14.09798         3.02417
|102>    H       -5.55977       -17.16220         0.00191
|103>    H       -5.42434       -13.45834        -2.73231
|104>    H       -5.44462       -13.75513        -6.02152
|105>    H       -6.37555       -17.84652        -5.47810
|106>    H       -6.30636       -17.55416        -2.19268
|107>    H       -6.15424       -17.32734        -7.74614
|108>    H       -5.67237       -16.05837        -9.62863
|109>    H       -6.02292       -13.51164        -7.99272
|110>    H       -5.32743        -9.60618       -11.55196
|111>    H       -2.95693       -12.38422       -15.73821
|112>    H       -4.90233        -8.33052       -13.65315
|113>    H       -3.34270       -13.65264       -13.68835
|114> *
|115>
|116>                          ****END OF INPUT****

CARTESIAN COORDINATES (ANGSTROEM)
---------------------------------
  C    -11.657190    1.618200    0.979650
  C    -12.609640    2.084760    0.117720
  F    -13.180610    3.278780    0.326730
  C    -13.003920    1.319490   -0.997830
  F    -13.941780    1.800780   -1.825820
  C    -12.439570    0.097770   -1.236550
  C    -11.456310   -0.410790   -0.366140
  C    -11.056750    0.361750    0.762320
  C    -10.073890   -0.129620    1.652050
  C     -9.511140   -1.357400    1.421970
  C     -9.919330   -2.122310    0.296160
  C    -10.861110   -1.673490   -0.583370
  C     -9.189860   -3.407150    0.281020
  O     -9.294590   -4.263520   -0.573390
  C     -8.356120   -3.408290    1.501360
  C     -8.504790   -2.120680    2.155530
  C     -7.811770   -1.651270    3.244100
  C     -6.800450   -2.337620    3.946600
  N     -5.965790   -2.823970    4.569790
  C     -8.004540   -0.374280    3.812060
  N     -8.109800    0.646980    4.326110
  C     -7.628710   -4.444480    2.032910
  C     -7.365980   -5.745750    1.576950
  N     -6.683860   -6.607200    2.429590
  C     -6.553710   -7.805450    1.820920
  C     -6.085860   -9.104840    1.983440
  C     -6.396520   -9.779000    0.796020
  N     -7.022520   -8.914120   -0.076180
  C     -7.150740   -7.704070    0.531620
  C     -7.655780   -6.424340    0.377240
  C     -6.188410  -11.143350    0.455250
  C     -5.754990  -12.085340    1.323610
  C     -5.628970  -13.481160    1.023560
  C     -5.438320  -14.413340    1.998910
  C     -5.413400  -15.806440    1.689550
  C     -5.240310  -16.778270    2.661850
  C     -5.233900  -18.144140    2.341110
  N     -5.233760  -19.259840    2.065130
  C     -5.067350  -16.445140    4.013740
  N     -4.927510  -16.159260    5.118160
  C     -5.579870  -16.130650    0.309050
  C     -5.728630  -15.149300   -0.620840
  O     -5.753910  -13.826390   -0.289070
  C     -5.844620  -15.405610   -2.028610
  N     -5.669070  -14.406270   -2.960980
  C     -5.782890  -14.955560   -4.199090
  C     -5.696470  -14.686850   -5.560490
  C     -5.961700  -15.900710   -6.215030
  N     -6.195100  -16.880390   -5.264390
  C     -6.078630  -16.333710   -4.033010
  C     -6.108660  -16.616210   -2.668650
  C     -5.983430  -16.270220   -7.580560
  C     -5.734880  -15.520630   -8.690820
  C     -5.572860  -14.121890   -8.765620
  C     -5.007320  -13.429700   -9.800090
  C     -5.255300  -11.977780   -9.963280
  O     -5.753340  -11.230300   -9.149780
  C     -4.805740  -11.657490  -11.335210
  C     -4.896010  -10.479200  -12.017740
  C     -4.416460  -10.414530  -13.345880
  C     -3.856130  -11.579930  -13.944280
  C     -3.385500  -11.511470  -15.270760
  C     -3.463470  -10.339550  -15.969560
  C     -4.015410   -9.186800  -15.376260
  C     -4.482690   -9.222050  -14.092230
  F     -4.079160   -8.050760  -16.084450
  F     -3.013970  -10.275800  -17.229970
  C     -3.768460  -12.785050  -13.210010
  C     -4.229920  -12.821190  -11.921930
  C     -4.226290  -13.889050  -10.923770
  C     -3.446780  -15.017790  -10.972860
  C     -3.207700  -15.857850   -9.865850
  N     -2.931860  -16.535960   -8.981550
  C     -2.697740  -15.404580  -12.102630
  N     -2.092650  -15.779480  -13.003350
  H    -11.366310    2.217020    1.828600
  H    -12.752650   -0.476050   -2.094710
  H     -9.798760    0.478460    2.498200
  H    -11.150970   -2.275880   -1.430880
  H     -7.190020   -4.249600    3.004680
  H     -6.353640   -6.354440    3.346070
  H     -5.583100   -9.521780    2.831480
  H     -7.370780   -9.164620   -0.985720
  H     -8.173620   -5.999700   -0.457130
  H     -6.445070  -11.435140   -0.555040
  H     -5.535520  -11.817720    2.344790
  H     -5.331100  -14.097980    3.024170
  H     -5.559770  -17.162200    0.001910
  H     -5.424340  -13.458340   -2.732310
  H     -5.444620  -13.755130   -6.021520
  H     -6.375550  -17.846520   -5.478100
  H     -6.306360  -17.554160   -2.192680
  H     -6.154240  -17.327340   -7.746140
  H     -5.672370  -16.058370   -9.628630
  H     -6.022920  -13.511640   -7.992720
  H     -5.327430   -9.606180  -11.551960
  H     -2.956930  -12.384220  -15.738210
  H     -4.902330   -8.330520  -13.653150
  H     -3.342700  -13.652640  -13.688350

 Total Charge           Charge          ....    0
 Multiplicity           Mult            ....    1
 Number of Electrons    NEL             ....  502
 Basis Dimension        Dim             .... 1170

ORBITAL ENERGIES
----------------

  NO   OCC          E(Eh)            E(eV)
   0   2.0000     -24.801204      -674.8751
   1   2.0000     -24.800582      -674.8581
   2   2.0000     -24.798788      -674.8093
   3   2.0000     -24.797471      -674.7735
   4   2.0000     -19.332090      -526.0529
   5   2.0000     -19.220568      -523.0182
   6   2.0000     -19.219322      -522.9843
   7   2.0000     -14.488763      -394.2593
   8   2.0000     -14.487431      -394.2231
   9   2.0000     -14.483315      -394.1110
  10   2.0000     -14.480863      -394.0443
  11   2.0000     -14.421189      -392.4205
  12   2.0000     -14.419665      -392.3790
  13   2.0000     -14.417827      -392.3290
  14   2.0000     -14.413867      -392.2213
  15   2.0000     -14.398278      -391.7971
  16   2.0000     -14.397875      -391.7861
  17   2.0000     -10.392823      -282.8031
  18   2.0000     -10.389152      -282.7032
  19   2.0000     -10.384602      -282.5794
  20   2.0000     -10.384088      -282.5654
  21   2.0000     -10.381652      -282.4991
  22   2.0000     -10.380671      -282.4724
  23   2.0000     -10.371342      -282.2186
  24   2.0000     -10.370394      -282.1928
  25   2.0000     -10.349011      -281.6109
  26   2.0000     -10.345705      -281.5209
  27   2.0000     -10.343076      -281.4494
  28   2.0000     -10.342326      -281.4290
  29   2.0000     -10.341607      -281.4094
  30   2.0000     -10.340429      -281.3774
  31   2.0000     -10.338416      -281.3226
  32   2.0000     -10.333263      -281.1824
  33   2.0000     -10.330697      -281.1126
  34   2.0000     -10.327338      -281.0212
  35   2.0000     -10.324349      -280.9398
  36   2.0000     -10.324344      -280.9397
  37   2.0000     -10.323590      -280.9192
  38   2.0000     -10.323571      -280.9186
  39   2.0000     -10.323007      -280.9033
  40   2.0000     -10.322366      -280.8859
  41   2.0000     -10.320363      -280.8314
  42   2.0000     -10.320305      -280.8298
  43   2.0000     -10.319835      -280.8170
  44   2.0000     -10.318906      -280.7917
  45   2.0000     -10.317653      -280.7576
  46   2.0000     -10.316316      -280.7212
  47   2.0000     -10.315143      -280.6893
  48   2.0000     -10.314011      -280.6585
  49   2.0000     -10.313746      -280.6513
  50   2.0000     -10.311563      -280.5919
  51   2.0000     -10.310326      -280.5582
  52   2.0000     -10.310086      -280.5517
  53   2.0000     -10.309856      -280.5454
  54   2.0000     -10.306905      -280.4651
  55   2.0000     -10.306764      -280.4613
  56   2.0000     -10.306523      -280.4548
  57   2.0000     -10.305603      -280.4297
  58   2.0000     -10.304631      -280.4033
  59   2.0000     -10.303624      -280.3759
  60   2.0000     -10.302208      -280.3373
  61   2.0000     -10.301881      -280.3284
  62   2.0000     -10.301846      -280.3275
  63   2.0000     -10.301723      -280.3241
  64   2.0000     -10.301340      -280.3137
  65   2.0000     -10.300907      -280.3019
  66   2.0000     -10.300427      -280.2889
  67   2.0000     -10.299470      -280.2628
  68   2.0000     -10.297691      -280.2144
  69   2.0000     -10.297450      -280.2079
  70   2.0000     -10.296591      -280.1845
  71   2.0000     -10.294170      -280.1186
  72   2.0000     -10.293342      -280.0961
  73   2.0000     -10.292484      -280.0727
  74   2.0000     -10.289380      -279.9883
  75   2.0000      -1.323730       -36.0205
  76   2.0000      -1.320854       -35.9423
  77   2.0000      -1.308886       -35.6166
  78   2.0000      -1.305996       -35.5380
  79   2.0000      -1.238659       -33.7056
  80   2.0000      -1.134536       -30.8723
  81   2.0000      -1.133957       -30.8565
  82   2.0000      -1.119040       -30.4506
  83   2.0000      -1.118068       -30.4242
  84   2.0000      -1.082328       -29.4516
  85   2.0000      -1.081035       -29.4165
  86   2.0000      -1.023951       -27.8631
  87   2.0000      -1.020715       -27.7751
  88   2.0000      -1.007798       -27.4236
  89   2.0000      -1.005274       -27.3549
  90   2.0000      -0.999046       -27.1854
  91   2.0000      -0.998200       -27.1624
  92   2.0000      -0.995299       -27.0835
  93   2.0000      -0.985263       -26.8104
  94   2.0000      -0.981474       -26.7073
  95   2.0000      -0.977277       -26.5931
  96   2.0000      -0.962731       -26.1972
  97   2.0000      -0.960320       -26.1316
  98   2.0000      -0.941360       -25.6157
  99   2.0000      -0.933594       -25.4044
 100   2.0000      -0.927189       -25.2301
 101   2.0000      -0.920702       -25.0536
 102   2.0000      -0.911658       -24.8075
 103   2.0000      -0.904926       -24.6243
 104   2.0000      -0.898138       -24.4396
 105   2.0000      -0.896021       -24.3820
 106   2.0000      -0.893884       -24.3238
 107   2.0000      -0.892238       -24.2790
 108   2.0000      -0.891164       -24.2498
 109   2.0000      -0.885327       -24.0910
 110   2.0000      -0.879857       -23.9421
 111   2.0000      -0.869959       -23.6728
 112   2.0000      -0.863308       -23.4918
 113   2.0000      -0.844089       -22.9688
 114   2.0000      -0.840426       -22.8691
 115   2.0000      -0.832302       -22.6481
 116   2.0000      -0.823399       -22.4058
 117   2.0000      -0.808851       -22.0100
 118   2.0000      -0.803518       -21.8648
 119   2.0000      -0.780603       -21.2413
 120   2.0000      -0.770532       -20.9672
 121   2.0000      -0.767955       -20.8971
 122   2.0000      -0.767852       -20.8943
 123   2.0000      -0.749184       -20.3863
 124   2.0000      -0.745649       -20.2901
 125   2.0000      -0.733566       -19.9613
 126   2.0000      -0.730029       -19.8651
 127   2.0000      -0.721772       -19.6404
 128   2.0000      -0.719501       -19.5786
 129   2.0000      -0.719149       -19.5690
 130   2.0000      -0.715732       -19.4761
 131   2.0000      -0.710527       -19.3344
 132   2.0000      -0.704413       -19.1681
 133   2.0000      -0.700824       -19.0704
 134   2.0000      -0.698980       -19.0202
 135   2.0000      -0.688071       -18.7234
 136   2.0000      -0.687811       -18.7163
 137   2.0000      -0.679346       -18.4859
 138   2.0000      -0.674203       -18.3460
 139   2.0000      -0.666846       -18.1458
 140   2.0000      -0.661313       -17.9952
 141   2.0000      -0.657348       -17.8874
 142   2.0000      -0.656287       -17.8585
 143   2.0000      -0.652292       -17.7498
 144   2.0000      -0.645939       -17.5769
 145   2.0000      -0.642964       -17.4959
 146   2.0000      -0.639951       -17.4139
 147   2.0000      -0.634987       -17.2789
 148   2.0000      -0.621226       -16.9044
 149   2.0000      -0.619307       -16.8522
 150   2.0000      -0.614992       -16.7348
 151   2.0000      -0.610119       -16.6022
 152   2.0000      -0.606178       -16.4949
 153   2.0000      -0.598426       -16.2840
 154   2.0000      -0.594969       -16.1899
 155   2.0000      -0.592978       -16.1358
 156   2.0000      -0.590976       -16.0813
 157   2.0000      -0.588700       -16.0193
 158   2.0000      -0.588332       -16.0093
 159   2.0000      -0.585481       -15.9318
 160   2.0000      -0.583184       -15.8692
 161   2.0000      -0.580730       -15.8025
 162   2.0000      -0.578682       -15.7467
 163   2.0000      -0.572947       -15.5907
 164   2.0000      -0.568514       -15.4700
 165   2.0000      -0.563365       -15.3299
 166   2.0000      -0.562353       -15.3024
 167   2.0000      -0.559340       -15.2204
 168   2.0000      -0.557926       -15.1819
 169   2.0000      -0.555531       -15.1168
 170   2.0000      -0.554039       -15.0762
 171   2.0000      -0.549920       -14.9641
 172   2.0000      -0.549286       -14.9468
 173   2.0000      -0.547143       -14.8885
 174   2.0000      -0.546988       -14.8843
 175   2.0000      -0.543804       -14.7977
 176   2.0000      -0.542259       -14.7556
 177   2.0000      -0.539828       -14.6895
 178   2.0000      -0.539038       -14.6680
 179   2.0000      -0.536824       -14.6077
 180   2.0000      -0.533498       -14.5172
 181   2.0000      -0.531510       -14.4631
 182   2.0000      -0.528528       -14.3820
 183   2.0000      -0.525037       -14.2870
 184   2.0000      -0.521034       -14.1781
 185   2.0000      -0.519538       -14.1374
 186   2.0000      -0.517500       -14.0819
 187   2.0000      -0.512397       -13.9430
 188   2.0000      -0.508251       -13.8302
 189   2.0000      -0.503732       -13.7073
 190   2.0000      -0.502200       -13.6656
 191   2.0000      -0.500898       -13.6301
 192   2.0000      -0.499079       -13.5806
 193   2.0000      -0.498612       -13.5679
 194   2.0000      -0.495674       -13.4880
 195   2.0000      -0.495185       -13.4747
 196   2.0000      -0.492498       -13.4015
 197   2.0000      -0.489662       -13.3244
 198   2.0000      -0.488535       -13.2937
 199   2.0000      -0.484660       -13.1883
 200   2.0000      -0.482678       -13.1343
 201   2.0000      -0.478447       -13.0192
 202   2.0000      -0.475378       -12.9357
 203   2.0000      -0.470869       -12.8130
 204   2.0000      -0.470708       -12.8086
 205   2.0000      -0.467978       -12.7343
 206   2.0000      -0.465735       -12.6733
 207   2.0000      -0.461217       -12.5504
 208   2.0000      -0.456224       -12.4145
 209   2.0000      -0.455352       -12.3908
 210   2.0000      -0.452218       -12.3055
 211   2.0000      -0.450802       -12.2669
 212   2.0000      -0.447512       -12.1774
 213   2.0000      -0.447129       -12.1670
 214   2.0000      -0.444197       -12.0872
 215   2.0000      -0.443304       -12.0629
 216   2.0000      -0.440090       -11.9755
 217   2.0000      -0.433309       -11.7909
 218   2.0000      -0.432482       -11.7684
 219   2.0000      -0.431472       -11.7410
 220   2.0000      -0.429833       -11.6963
 221   2.0000      -0.429388       -11.6842
 222   2.0000      -0.428083       -11.6487
 223   2.0000      -0.424735       -11.5576
 224   2.0000      -0.421808       -11.4780
 225   2.0000      -0.419951       -11.4274
 226   2.0000      -0.415491       -11.3061
 227   2.0000      -0.412486       -11.2243
 228   2.0000      -0.410634       -11.1739
 229   2.0000      -0.407454       -11.0874
 230   2.0000      -0.407341       -11.0843
 231   2.0000      -0.400030       -10.8854
 232   2.0000      -0.398334       -10.8392
 233   2.0000      -0.393694       -10.7130
 234   2.0000      -0.387675       -10.5492
 235   2.0000      -0.384910       -10.4739
 236   2.0000      -0.372873       -10.1464
 237   2.0000      -0.362563        -9.8658
 238   2.0000      -0.345125        -9.3913
 239   2.0000      -0.341717        -9.2986
 240   2.0000      -0.336934        -9.1685
 241   2.0000      -0.325794        -8.8653
 242   2.0000      -0.320667        -8.7258
 243   2.0000      -0.318344        -8.6626
 244   2.0000      -0.315819        -8.5939
 245   2.0000      -0.314576        -8.5601
 246   2.0000      -0.304403        -8.2832
 247   2.0000      -0.301249        -8.1974
 248   2.0000      -0.290433        -7.9031
 249   2.0000      -0.256940        -6.9917
 250   2.0000      -0.255913        -6.9637
 251   0.0000      -0.107155        -2.9158
 252   0.0000      -0.102033        -2.7765
 253   0.0000      -0.072389        -1.9698
 254   0.0000      -0.064829        -1.7641
 255   0.0000      -0.058141        -1.5821

MULLIKEN ATOMIC CHARGES
-----------------------
   0 C :   -0.109147
   1 C :    0.241691
   2 F :   -0.171517
   3 C :    0.240371
   4 F :   -0.173359
   5 C :   -0.107495
   6 C :    0.118847
   7 C :    0.112943
   8 C :   -0.083115
   9 C :    0.044213
  10 C :    0.002116
  11 C :   -0.087915
  12 C :    0.155612
  13 O :   -0.162308
  14 C :   -0.097265
  15 C :    0.322345
  16 C :   -0.366562
  17 C :   -0.184810
  18 N :    0.137504
  19 C :   -0.184260
  20 N :    0.144499
  21 C :   -0.011298
  22 C :    0.089186
  23 N :   -0.034764
  24 C :    0.135969
  25 C :   -0.166470
  26 C :    0.106616
  27 N :   -0.031376
  28 C :    0.119963
  29 C :   -0.142295
  30 C :    0.038937
  31 C :   -0.040071
  32 C :    0.252026
  33 C :   -0.146440
  34 C :    0.300648
  35 C :   -0.342937
  36 C :   -0.174411
  37 N :    0.122672
  38 C :   -0.177395
  39 N :    0.124589
  40 C :   -0.166077
  41 C :    0.236649
  42 O :   -0.261208
  43 C :    0.056189
  44 N :   -0.033788
  45 C :    0.113151
  46 C :   -0.154352
  47 C :    0.099229
  48 N :   -0.033675
  49 C :    0.117802
  50 C :   -0.141263
  51 C :    0.056921
  52 C :   -0.023688
  53 C :    0.033381
  54 C :   -0.118706
  55 C :    0.142136
  56 O :   -0.150501
  57 C :    0.006174
  58 C :   -0.085222
  59 C :    0.115526
  60 C :    0.114120
  61 C :   -0.106875
  62 C :    0.241660
  63 C :    0.238339
  64 C :   -0.104768
  65 F :   -0.172402
  66 F :   -0.170489
  67 C :   -0.087151
  68 C :    0.043549
  69 C :    0.281613
  70 C :   -0.331600
  71 C :   -0.215661
  72 N :    0.167407
  73 C :   -0.172642
  74 N :    0.146212
  75 H :    0.007308
  76 H :   -0.002748
  77 H :   -0.007233
  78 H :   -0.014757
  79 H :   -0.018615
  80 H :    0.140729
  81 H :   -0.019364
  82 H :    0.128766
  83 H :    0.002717
  84 H :   -0.019924
  85 H :    0.010993
  86 H :    0.025470
  87 H :    0.025162
  88 H :    0.130520
  89 H :   -0.017917
  90 H :    0.130306
  91 H :   -0.012938
  92 H :   -0.008248
  93 H :    0.016441
  94 H :    0.017662
  95 H :   -0.011216
  96 H :    0.005989
  97 H :   -0.000661
  98 H :   -0.003971
Sum of atomic charges:   -0.0000000

LOEWDIN ATOMIC CHARGES
----------------------
   0 C :   -0.029087
   1 C :    0.065461
   2 F :   -0.049737
   3 C :    0.067184
   4 F :   -0.050611
   5 C :   -0.034477
   6 C :   -0.009055
   7 C :   -0.007586
   8 C :    0.017000
   9 C :   -0.023295
  10 C :   -0.050437
  11 C :    0.025818
  12 C :    0.085303
  13 O :   -0.151211
  14 C :   -0.106939
  15 C :    0.077967
  16 C :   -0.151788
  17 C :   -0.021002
  18 N :   -0.065936
  19 C :   -0.018350
  20 N :   -0.058926
  21 C :    0.052347
  22 C :   -0.008320
  23 N :    0.076313
  24 C :    0.007662
  25 C :   -0.085884
  26 C :    0.013875
  27 N :    0.073641
  28 C :   -0.020183
  29 C :   -0.035370
  30 C :   -0.007235
  31 C :   -0.034260
  32 C :    0.084335
  33 C :   -0.044816
  34 C :    0.051305
  35 C :   -0.179381
  36 C :   -0.029507
  37 N :   -0.073634
  38 C :   -0.030525
  39 N :   -0.072922
  40 C :   -0.050936
  41 C :    0.084579
  42 O :   -0.021917
  43 C :   -0.013317
  44 N :    0.077240
  45 C :   -0.012693
  46 C :   -0.072874
  47 C :    0.001607
  48 N :    0.079937
  49 C :   -0.009893
  50 C :   -0.069594
  51 C :    0.018858
  52 C :   -0.044837
  53 C :    0.063936
  54 C :   -0.092096
  55 C :    0.081122
  56 O :   -0.150984
  57 C :   -0.054189
  58 C :    0.029275
  59 C :   -0.009876
  60 C :   -0.005887
  61 C :   -0.029841
  62 C :    0.067145
  63 C :    0.067204
  64 C :   -0.033237
  65 F :   -0.049776
  66 F :   -0.048728
  67 C :    0.013232
  68 C :   -0.020209
  69 C :    0.067516
  70 C :   -0.137732
  71 C :   -0.023462
  72 N :   -0.050881
  73 C :   -0.018793
  74 N :   -0.051467
  75 H :    0.047681
  76 H :    0.043884
  77 H :    0.039730
  78 H :    0.038323
  79 H :    0.043117
  80 H :    0.098137
  81 H :    0.029090
  82 H :    0.093688
  83 H :    0.032326
  84 H :    0.029008
  85 H :    0.042511
  86 H :    0.049227
  87 H :    0.048146
  88 H :    0.090602
  89 H :    0.029772
  90 H :    0.094840
  91 H :    0.033804
  92 H :    0.039355
  93 H :    0.039440
  94 H :    0.039700
  95 H :    0.039817
  96 H :    0.047383
  97 H :    0.044544
  98 H :    0.039706

  Mayer bond orders larger than 0.100000
B(  0-C ,  1-C ) :   1.4398 B(  0-C ,  5-C ) :   0.1089 B(  0-C ,  7-C ) :   1.1875
B(  0-C , 75-H ) :   1.0072 B(  1-C ,  2-F ) :   1.1347 B(  1-C ,  3-C ) :   1.1924
B(  3-C ,  4-F ) :   1.1322 B(  3-C ,  5-C ) :   1.4399 B(  5-C ,  6-C ) :   1.1940
B(  5-C , 76-H ) :   1.0076 B(  6-C ,  7-C ) :   1.2600 B(  6-C , 11-C ) :   1.1816
B(  7-C ,  8-C ) :   1.2142 B(  8-C ,  9-C ) :   1.4512 B(  8-C , 77-H ) :   0.9897
B(  9-C , 10-C ) :   1.2232 B(  9-C , 15-C ) :   0.9778 B( 10-C , 11-C ) :   1.4740
B( 10-C , 12-C ) :   0.9472 B( 11-C , 78-H ) :   1.0167 B( 12-C , 13-O ) :   2.1708
B( 12-C , 14-C ) :   0.9488 B( 14-C , 15-C ) :   1.0976 B( 14-C , 21-C ) :   1.5220
B( 15-C , 16-C ) :   1.6021 B( 16-C , 17-C ) :   1.1458 B( 16-C , 19-C ) :   1.1499
B( 17-C , 18-N ) :   2.9651 B( 19-C , 20-N ) :   2.9599 B( 21-C , 22-C ) :   1.2093
B( 21-C , 79-H ) :   0.9199 B( 22-C , 23-N ) :   1.1324 B( 22-C , 29-C ) :   1.3452
B( 23-N , 24-C ) :   1.2118 B( 23-N , 80-H ) :   0.9290 B( 24-C , 25-C ) :   1.2607
B( 24-C , 28-C ) :   1.2660 B( 25-C , 26-C ) :   1.4015 B( 25-C , 81-H ) :   1.0302
B( 26-C , 27-N ) :   1.1858 B( 26-C , 30-C ) :   1.0972 B( 27-N , 28-C ) :   1.1513
B( 27-N , 82-H ) :   0.9348 B( 28-C , 29-C ) :   1.2570 B( 29-C , 83-H ) :   1.0293
B( 30-C , 31-C ) :   1.6513 B( 30-C , 84-H ) :   0.9687 B( 31-C , 32-C ) :   1.1239
B( 31-C , 85-H ) :   0.9763 B( 32-C , 33-C ) :   1.5309 B( 32-C , 42-O ) :   1.0925
B( 33-C , 34-C ) :   1.1077 B( 33-C , 86-H ) :   0.9772 B( 34-C , 35-C ) :   1.5330
B( 34-C , 40-C ) :   1.1252 B( 35-C , 36-C ) :   1.1370 B( 35-C , 38-C ) :   1.1345
B( 36-C , 37-N ) :   3.0012 B( 38-C , 39-N ) :   3.0045 B( 40-C , 41-C ) :   1.5731
B( 40-C , 87-H ) :   0.9657 B( 41-C , 42-O ) :   1.1080 B( 41-C , 43-C ) :   1.0265
B( 43-C , 44-N ) :   1.2000 B( 43-C , 50-C ) :   1.4417 B( 44-N , 45-C ) :   1.1607
B( 44-N , 88-H ) :   0.9333 B( 45-C , 46-C ) :   1.2828 B( 45-C , 49-C ) :   1.2958
B( 46-C , 47-C ) :   1.3624 B( 46-C , 89-H ) :   1.0292 B( 47-C , 48-N ) :   1.1656
B( 47-C , 51-C ) :   1.1443 B( 48-N , 49-C ) :   1.1877 B( 48-N , 90-H ) :   0.9346
B( 49-C , 50-C ) :   1.2551 B( 50-C , 91-H ) :   1.0243 B( 51-C , 52-C ) :   1.6760
B( 51-C , 92-H ) :   0.9513 B( 52-C , 53-C ) :   1.1436 B( 52-C , 93-H ) :   0.9445
B( 53-C , 54-C ) :   1.6155 B( 53-C , 94-H ) :   0.9382 B( 54-C , 55-C ) :   0.9476
B( 54-C , 69-C ) :   1.0566 B( 55-C , 56-O ) :   2.2605 B( 55-C , 57-C ) :   0.9189
B( 57-C , 58-C ) :   1.4777 B( 57-C , 68-C ) :   1.2195 B( 58-C , 59-C ) :   1.1920
B( 58-C , 95-H ) :   1.0158 B( 59-C , 60-C ) :   1.2593 B( 59-C , 64-C ) :   1.1931
B( 60-C , 61-C ) :   1.1910 B( 60-C , 67-C ) :   1.2105 B( 61-C , 62-C ) :   1.4401
B( 61-C , 64-C ) :   0.1088 B( 61-C , 96-H ) :   1.0068 B( 62-C , 63-C ) :   1.1934
B( 62-C , 66-F ) :   1.1355 B( 63-C , 64-C ) :   1.4430 B( 63-C , 65-F ) :   1.1323
B( 64-C , 97-H ) :   1.0066 B( 67-C , 68-C ) :   1.4610 B( 67-C , 98-H ) :   0.9919
B( 68-C , 69-C ) :   0.9981 B( 69-C , 70-C ) :   1.6295 B( 70-C , 71-C ) :   1.1631
B( 70-C , 73-C ) :   1.1310 B( 71-C , 72-N ) :   3.0117 B( 73-C , 74-N ) :   2.9753

-----------------------------------------------------------------------------
         ABSORPTION SPECTRUM VIA TRANSITION ELECTRIC DIPOLE MOMENTS
-----------------------------------------------------------------------------
State   Energy  Wavelength   fosc         T2         TX        TY        TZ
        (cm-1)    (nm)                  (au**2)     (au)      (au)      (au)
-----------------------------------------------------------------------------
   0   16777.9    596.0   1.396621914  27.40421   1.42716  -1.74095  -4.72615
   1   18638.9    536.5   2.039736700  36.02714  -0.98039   5.69076  -1.63745
   2   21647.4    462.0   0.030553301   0.46465   0.43610  -0.20362   0.48271
   3   23514.5    425.3   0.016358173   0.22902   0.02967   0.01746  -0.47732
   4   25701.3    389.1   0.019919647   0.25515   0.13821  -0.38843  -0.29184
   5   26037.5    384.1   0.192832176   2.43812  -0.46389   0.79251  -1.26287
   6   27230.6    367.2   0.040308166   0.48732   0.11432   0.49711   0.47658
   7   27458.0    364.2   0.386370041   4.63245   0.83040  -1.57109   1.21432
   8   28252.2    354.0   0.047007723   0.54776   0.57710   0.05501   0.46010
   9   28336.8    352.9   0.091820229   1.06675  -0.20546   0.51654  -0.87047
  10   28566.2    350.1   0.146503363   1.68838  -0.03610  -0.50992   1.19459
  11   28740.7    347.9   0.204710725   2.34487  -0.61136   0.71062  -1.21084
  12   28924.1    345.7   0.048935230   0.55698  -0.34046  -0.64807   0.14515
  13   28969.5    345.2   0.060732318   0.69017  -0.45770  -0.07079   0.68969
  14   29319.4    341.1   0.024717658   0.27754  -0.38632  -0.09001   0.34669
  15   29465.1    339.4   0.048171281   0.53822   0.00132  -0.69543   0.23363
  16   29690.8    336.8   0.039746625   0.44071   0.13710  -0.51122   0.40071
  17   29899.4    334.5   0.135499160   1.49193  -0.84032   0.52473  -0.71447
  18   31656.7    315.9   0.149551797   1.55526  -0.14019  -0.09039   1.23589
  19   32380.6    308.8   0.142273153   1.44648   0.45435  -0.60098   0.93748
  20   33389.5    299.5   0.096850324   0.95492  -0.35130   0.79680  -0.44341
  21   33673.3    297.0   0.003410307   0.03334   0.17563  -0.01755  -0.04677
  22   33897.0    295.0   0.490846995   4.76717  -1.44408   1.11939  -1.19531
  23   34186.4    292.5   0.222318043   2.14090  -1.02277   0.70540  -0.77282
  24   34296.9    291.6   0.128926419   1.23755   0.60281   0.93353  -0.05184
  25   34578.0    289.2   0.285131962   2.71470   0.02117  -1.28885   1.02622
  26   34803.6    287.3   0.168706462   1.59582   0.53091   1.10416  -0.30785
  27   35436.4    282.2   0.123734623   1.14952  -0.45185   0.47987  -0.84563
  28   35566.1    281.2   0.046289884   0.42848   0.11185  -0.63692   0.10149
  29   35740.8    279.8   0.046342982   0.42687  -0.27223   0.26466  -0.53171
  30   36147.8    276.6   0.022639522   0.20619   0.22666  -0.39054  -0.04791
  31   36397.5    274.7   0.010929064   0.09885   0.03565   0.20617  -0.23469
  32   36483.3    274.1   0.045893775   0.41413   0.11796   0.62111   0.12014
  33   36627.5    273.0   0.037090061   0.33337  -0.34685   0.16254  -0.43203
  34   37181.6    269.0   0.068455436   0.60612  -0.18298  -0.11578  -0.74782
  35   37502.9    266.6   0.090024482   0.79026  -0.11632   0.73112  -0.49213
  36   37886.4    263.9   0.056561854   0.49149  -0.14296  -0.60348  -0.32689
  37   38281.9    261.2   0.119859418   1.03075  -0.43011   0.91934  -0.02390
  38   38676.6    258.6   0.194399873   1.65471  -0.59440  -0.02028  -1.14061
  39   38980.8    256.5   0.068078434   0.57496  -0.20396  -0.70160   0.20278
  40   39557.2    252.8   0.025105519   0.20894   0.10974   0.27006   0.35208
  41   39725.2    251.7   0.011262045   0.09333  -0.02631   0.06249   0.29788
  42   39762.4    251.5   0.023387545   0.19364   0.14830  -0.27224  -0.31229
  43   39830.1    251.1   0.076729526   0.63420  -0.33824  -0.20263   0.69191

FINAL SINGLE POINT ENERGY     -3392.854033719653

DIPOLE MOMENT
-------------
                                X             Y             Z
Electronic contribution:     -7.81571      40.90516     -25.65789
Nuclear contribution   :      5.58946     -40.45130      22.75377
                        -----------------------------------------
Total Dipole Moment    :     -2.22625       0.45387      -2.90411
                        -----------------------------------------
Magnitude (a.u.)       :      3.68728
Magnitude (Debye)      :      9.37232

Rotational constants in cm-1:     0.000594     0.000273     0.000194
Rotational constants in MHz :    17.821528     8.188023     5.830945

                             ****ORCA TERMINATED NORMALLY****
TOTAL RUN TIME: 0 days 0 hours 9 minutes 19 seconds 131 msec
