                         Program Version 4.2.0 -  RELEASE  -
|  1> # ORCA input file
|  2> # SCF done       -207.110837075945          0.000642651222
|  3> ! CAM-B3LYP def2-SVP def2/J RIJCOSX Grid4 TightSCF
|  4> %maxcore 5000
|  5> %tddft
|  6>     Mode sTDDFT
|  7>     Ethresh 5.0
|  8>     maxcore 5000
|  9> end
| 10>
| 11> %pal
| 12>   nprocs 6
| 13>   end
| 14> * xyz 0 1
| 15>    C       -7.07093         2.22854        -4.61540
| 16>    C       -7.30417         2.46303        -5.94110
| 17>    F       -7.45510         3.71708        -6.38734
| 18>    C       -7.38874         1.39320        -6.85513
| 19>    F       -7.61842         1.65309        -8.14964
| 20>    C       -7.23761         0.10325        -6.43040
| 21>    C       -6.99434        -0.17108        -5.07037
| 22>    C       -6.91108         0.90923        -4.14455
| 23>    C       -6.67113         0.65848        -2.77479
| 24>    C       -6.51860        -0.63371        -2.34232
| 25>    C       -6.59589        -1.70338        -3.27468
| 26>    C       -6.82708        -1.49315        -4.60369
| 27>    C       -6.38728        -2.98958        -2.57839
| 28>    O       -6.37649        -4.08062        -3.10541
| 29>    C       -6.14040        -2.63929        -1.15594
| 30>    C       -6.26736        -1.19240        -1.01803
| 31>    C       -6.21079        -0.46850         0.14255
| 32>    C       -6.34943         0.93549         0.20157
| 33>    N       -6.44677         2.07318         0.31792
| 34>    C       -6.02404        -0.98374         1.44474
| 35>    N       -5.89050        -1.29385         2.54249
| 36>    C       -5.69957        -3.44921        -0.15476
| 37>    C       -5.56307        -4.87316        -0.07103
| 38>    C       -4.64804        -5.36660         0.90140
| 39>    O       -3.96218        -4.42186         1.57906
| 40>    C       -3.40051        -4.68739         2.85202
| 41>    C       -4.47971        -6.74844         1.05024
| 42>    O       -3.52581        -7.24247         1.92899
| 43>    C       -2.33086        -7.66299         1.30782
| 44>    C       -5.25926        -7.63660         0.29725
| 45>    C       -6.18999        -7.13730        -0.61320
| 46>    C       -6.32680        -5.78406        -0.80659
| 47>    C       -5.07187        -9.08702         0.44550
| 48>    C       -4.90812        -9.89056        -0.69085
| 49>    O       -4.95955        -9.31580        -1.94452
| 50>    C       -3.70740        -9.19767        -2.59444
| 51>    C       -4.68195       -11.26323        -0.55668
| 52>    O       -4.47672       -12.06276        -1.65724
| 53>    C       -5.55122       -12.15778        -2.57987
| 54>    C       -4.60745       -11.85368         0.71711
| 55>    C       -4.76191       -11.02952         1.83524
| 56>    C       -5.00230        -9.68139         1.70384
| 57>    C       -4.36476       -13.28178         0.87045
| 58>    C       -4.80715       -13.97858         1.96882
| 59>    C       -4.54902       -15.32588         2.21858
| 60>    C       -3.73363       -16.11862         1.30867
| 61>    C       -3.22379       -15.63720         0.14861
| 62>    S       -3.46423       -14.04112        -0.41291
| 63>    C       -3.62031       -17.39930         1.91398
| 64>    C       -4.30205       -17.41821         3.13218
| 65>    C       -4.21219       -18.68409         3.75326
| 66>    C       -3.48092       -19.55950         3.01331
| 67>    S       -2.87284       -18.89865         1.53802
| 68>    C       -4.90604       -16.12071         3.33917
| 69>    C       -5.66417       -15.65967         4.42081
| 70>    C       -5.88979       -16.33111         5.59995
| 71>    C       -6.67385       -15.89000         6.66700
| 72>    C       -7.24906       -14.66579         6.96435
| 73>    C       -8.41206       -14.67111         7.87840
| 74>    O       -8.83211       -15.60116         8.53029
| 75>    C       -8.98404       -13.30265         7.80135
| 76>    C       -8.16184       -12.51142         6.98127
| 77>    C       -8.48704       -11.18485         6.75666
| 78>    C       -9.63705       -10.65585         7.34348
| 79>    C      -10.44554       -11.45642         8.16638
| 80>    C      -10.11600       -12.79691         8.39800
| 81>    C      -11.63137       -10.96177         8.76671
| 82>    N      -12.62449       -10.69509         9.27149
| 83>    C      -10.02593        -9.21855         7.17024
| 84>    O      -10.70523        -8.64037         7.96997
| 85>    O       -9.58031        -8.60136         6.06661
| 86>    C       -7.01954       -13.32012         6.53762
| 87>    C       -5.86636       -12.78581         5.99708
| 88>    C       -4.65652       -13.49189         5.87367
| 89>    N       -3.63743       -14.01088         5.76648
| 90>    C       -5.75893       -11.47216         5.51684
| 91>    N       -5.64661       -10.43680         5.02688
| 92>    H       -7.01050         3.05864        -3.92899
| 93>    H       -7.30465        -0.70449        -7.14231
| 94>    H       -6.60987         1.49867        -2.10266
| 95>    H       -6.88233        -2.32616        -5.28805
| 96>    H       -5.35133        -2.95032         0.74206
| 97>    H       -3.32672        -3.71346         3.33677
| 98>    H       -2.40451        -5.12680         2.76683
| 99>    H       -4.03789        -5.34558         3.44237
|100>    H       -1.84561        -6.83622         0.77548
|101>    H       -2.50896        -8.48409         0.60508
|102>    H       -1.68314        -8.01204         2.10968
|103>    H       -6.79920        -7.82920        -1.17112
|104>    H       -7.04234        -5.41797        -1.52165
|105>    H       -3.92130        -8.78362        -3.57756
|106>    H       -3.21028       -10.16629        -2.69890
|107>    H       -3.05169        -8.51150        -2.04779
|108>    H       -5.18503       -12.77949        -3.39442
|109>    H       -5.84334       -11.17839        -2.96161
|110>    H       -6.41694       -12.63709        -2.11176
|111>    H       -4.66218       -11.44239         2.82580
|112>    H       -5.11728        -9.07525         2.58761
|113>    H       -5.39729       -13.43044         2.68899
|114>    H       -2.63753       -16.25018        -0.51798
|115>    H       -4.65668       -18.96045         4.69108
|116>    H       -3.25313       -20.58102         3.24743
|117>    H       -6.14506       -14.70056         4.28236
|118>    H       -5.47245       -17.32023         5.70439
|119>    H       -6.97104       -16.66143         7.37304
|120>    H       -7.84053       -10.56003         6.15825
|121>    H      -10.73170       -13.41629         9.03215
|122>    H       -9.04463        -9.16407         5.49142
|123> *
|124>
|125>                          ****END OF INPUT****

CARTESIAN COORDINATES (ANGSTROEM)
---------------------------------
  C     -7.070930    2.228540   -4.615400
  C     -7.304170    2.463030   -5.941100
  F     -7.455100    3.717080   -6.387340
  C     -7.388740    1.393200   -6.855130
  F     -7.618420    1.653090   -8.149640
  C     -7.237610    0.103250   -6.430400
  C     -6.994340   -0.171080   -5.070370
  C     -6.911080    0.909230   -4.144550
  C     -6.671130    0.658480   -2.774790
  C     -6.518600   -0.633710   -2.342320
  C     -6.595890   -1.703380   -3.274680
  C     -6.827080   -1.493150   -4.603690
  C     -6.387280   -2.989580   -2.578390
  O     -6.376490   -4.080620   -3.105410
  C     -6.140400   -2.639290   -1.155940
  C     -6.267360   -1.192400   -1.018030
  C     -6.210790   -0.468500    0.142550
  C     -6.349430    0.935490    0.201570
  N     -6.446770    2.073180    0.317920
  C     -6.024040   -0.983740    1.444740
  N     -5.890500   -1.293850    2.542490
  C     -5.699570   -3.449210   -0.154760
  C     -5.563070   -4.873160   -0.071030
  C     -4.648040   -5.366600    0.901400
  O     -3.962180   -4.421860    1.579060
  C     -3.400510   -4.687390    2.852020
  C     -4.479710   -6.748440    1.050240
  O     -3.525810   -7.242470    1.928990
  C     -2.330860   -7.662990    1.307820
  C     -5.259260   -7.636600    0.297250
  C     -6.189990   -7.137300   -0.613200
  C     -6.326800   -5.784060   -0.806590
  C     -5.071870   -9.087020    0.445500
  C     -4.908120   -9.890560   -0.690850
  O     -4.959550   -9.315800   -1.944520
  C     -3.707400   -9.197670   -2.594440
  C     -4.681950  -11.263230   -0.556680
  O     -4.476720  -12.062760   -1.657240
  C     -5.551220  -12.157780   -2.579870
  C     -4.607450  -11.853680    0.717110
  C     -4.761910  -11.029520    1.835240
  C     -5.002300   -9.681390    1.703840
  C     -4.364760  -13.281780    0.870450
  C     -4.807150  -13.978580    1.968820
  C     -4.549020  -15.325880    2.218580
  C     -3.733630  -16.118620    1.308670
  C     -3.223790  -15.637200    0.148610
  S     -3.464230  -14.041120   -0.412910
  C     -3.620310  -17.399300    1.913980
  C     -4.302050  -17.418210    3.132180
  C     -4.212190  -18.684090    3.753260
  C     -3.480920  -19.559500    3.013310
  S     -2.872840  -18.898650    1.538020
  C     -4.906040  -16.120710    3.339170
  C     -5.664170  -15.659670    4.420810
  C     -5.889790  -16.331110    5.599950
  C     -6.673850  -15.890000    6.667000
  C     -7.249060  -14.665790    6.964350
  C     -8.412060  -14.671110    7.878400
  O     -8.832110  -15.601160    8.530290
  C     -8.984040  -13.302650    7.801350
  C     -8.161840  -12.511420    6.981270
  C     -8.487040  -11.184850    6.756660
  C     -9.637050  -10.655850    7.343480
  C    -10.445540  -11.456420    8.166380
  C    -10.116000  -12.796910    8.398000
  C    -11.631370  -10.961770    8.766710
  N    -12.624490  -10.695090    9.271490
  C    -10.025930   -9.218550    7.170240
  O    -10.705230   -8.640370    7.969970
  O     -9.580310   -8.601360    6.066610
  C     -7.019540  -13.320120    6.537620
  C     -5.866360  -12.785810    5.997080
  C     -4.656520  -13.491890    5.873670
  N     -3.637430  -14.010880    5.766480
  C     -5.758930  -11.472160    5.516840
  N     -5.646610  -10.436800    5.026880
  H     -7.010500    3.058640   -3.928990
  H     -7.304650   -0.704490   -7.142310
  H     -6.609870    1.498670   -2.102660
  H     -6.882330   -2.326160   -5.288050
  H     -5.351330   -2.950320    0.742060
  H     -3.326720   -3.713460    3.336770
  H     -2.404510   -5.126800    2.766830
  H     -4.037890   -5.345580    3.442370
  H     -1.845610   -6.836220    0.775480
  H     -2.508960   -8.484090    0.605080
  H     -1.683140   -8.012040    2.109680
  H     -6.799200   -7.829200   -1.171120
  H     -7.042340   -5.417970   -1.521650
  H     -3.921300   -8.783620   -3.577560
  H     -3.210280  -10.166290   -2.698900
  H     -3.051690   -8.511500   -2.047790
  H     -5.185030  -12.779490   -3.394420
  H     -5.843340  -11.178390   -2.961610
  H     -6.416940  -12.637090   -2.111760
  H     -4.662180  -11.442390    2.825800
  H     -5.117280   -9.075250    2.587610
  H     -5.397290  -13.430440    2.688990
  H     -2.637530  -16.250180   -0.517980
  H     -4.656680  -18.960450    4.691080
  H     -3.253130  -20.581020    3.247430
  H     -6.145060  -14.700560    4.282360
  H     -5.472450  -17.320230    5.704390
  H     -6.971040  -16.661430    7.373040
  H     -7.840530  -10.560030    6.158250
  H    -10.731700  -13.416290    9.032150
  H     -9.044630   -9.164070    5.491420

 Total Charge           Charge          ....    0
 Multiplicity           Mult            ....    1
 Number of Electrons    NEL             ....  540
 Basis Dimension        Dim             .... 1241

ORBITAL ENERGIES
----------------

  NO   OCC          E(Eh)            E(eV)
   0   2.0000     -88.998969     -2421.7851
   1   2.0000     -88.969551     -2420.9846
   2   2.0000     -24.798531      -674.8023
   3   2.0000     -24.797305      -674.7690
   4   2.0000     -19.268407      -524.3200
   5   2.0000     -19.266595      -524.2707
   6   2.0000     -19.258391      -524.0475
   7   2.0000     -19.254107      -523.9309
   8   2.0000     -19.245855      -523.7063
   9   2.0000     -19.217254      -522.9281
  10   2.0000     -19.215825      -522.8892
  11   2.0000     -19.206695      -522.6408
  12   2.0000     -14.427820      -392.6009
  13   2.0000     -14.418080      -392.3359
  14   2.0000     -14.414177      -392.2297
  15   2.0000     -14.413957      -392.2237
  16   2.0000     -14.400230      -391.8502
  17   2.0000     -10.412439      -283.3369
  18   2.0000     -10.381594      -282.4975
  19   2.0000     -10.380655      -282.4720
  20   2.0000     -10.369380      -282.1652
  21   2.0000     -10.366307      -282.0816
  22   2.0000     -10.354583      -281.7625
  23   2.0000     -10.353386      -281.7300
  24   2.0000     -10.349594      -281.6268
  25   2.0000     -10.349512      -281.6245
  26   2.0000     -10.345808      -281.5238
  27   2.0000     -10.343020      -281.4479
  28   2.0000     -10.341317      -281.4015
  29   2.0000     -10.341262      -281.4001
  30   2.0000     -10.339941      -281.3641
  31   2.0000     -10.338510      -281.3252
  32   2.0000     -10.337618      -281.3009
  33   2.0000     -10.335752      -281.2501
  34   2.0000     -10.333486      -281.1885
  35   2.0000     -10.331774      -281.1419
  36   2.0000     -10.328450      -281.0514
  37   2.0000     -10.325594      -280.9737
  38   2.0000     -10.322998      -280.9031
  39   2.0000     -10.320003      -280.8216
  40   2.0000     -10.319813      -280.8164
  41   2.0000     -10.319712      -280.8136
  42   2.0000     -10.317079      -280.7420
  43   2.0000     -10.316998      -280.7398
  44   2.0000     -10.316976      -280.7392
  45   2.0000     -10.315944      -280.7111
  46   2.0000     -10.315389      -280.6960
  47   2.0000     -10.315025      -280.6861
  48   2.0000     -10.313374      -280.6412
  49   2.0000     -10.313277      -280.6385
  50   2.0000     -10.312739      -280.6239
  51   2.0000     -10.312449      -280.6160
  52   2.0000     -10.310403      -280.5603
  53   2.0000     -10.310019      -280.5499
  54   2.0000     -10.308193      -280.5002
  55   2.0000     -10.306365      -280.4505
  56   2.0000     -10.306354      -280.4502
  57   2.0000     -10.302557      -280.3468
  58   2.0000     -10.301978      -280.3311
  59   2.0000     -10.301608      -280.3210
  60   2.0000     -10.301301      -280.3126
  61   2.0000     -10.301113      -280.3075
  62   2.0000     -10.301047      -280.3057
  63   2.0000     -10.301014      -280.3049
  64   2.0000     -10.300267      -280.2845
  65   2.0000     -10.297442      -280.2076
  66   2.0000     -10.292107      -280.0625
  67   2.0000     -10.291890      -280.0566
  68   2.0000     -10.291434      -280.0442
  69   2.0000     -10.291077      -280.0345
  70   2.0000     -10.290253      -280.0120
  71   2.0000     -10.288240      -279.9573
  72   2.0000     -10.286894      -279.9206
  73   2.0000     -10.285099      -279.8718
  74   2.0000     -10.283025      -279.8153
  75   2.0000     -10.280459      -279.7455
  76   2.0000     -10.275001      -279.5970
  77   2.0000      -8.093212      -220.2275
  78   2.0000      -8.065049      -219.4612
  79   2.0000      -6.062564      -164.9707
  80   2.0000      -6.057613      -164.8360
  81   2.0000      -6.055883      -164.7890
  82   2.0000      -6.034461      -164.2060
  83   2.0000      -6.030216      -164.0905
  84   2.0000      -6.027122      -164.0063
  85   2.0000      -1.320798       -35.9408
  86   2.0000      -1.305917       -35.5358
  87   2.0000      -1.191797       -32.4304
  88   2.0000      -1.176130       -32.0041
  89   2.0000      -1.168276       -31.7904
  90   2.0000      -1.149092       -31.2684
  91   2.0000      -1.142550       -31.0904
  92   2.0000      -1.132987       -30.8301
  93   2.0000      -1.130634       -30.7661
  94   2.0000      -1.106929       -30.1211
  95   2.0000      -1.027497       -27.9596
  96   2.0000      -1.024600       -27.8808
  97   2.0000      -1.018450       -27.7134
  98   2.0000      -1.011342       -27.5200
  99   2.0000      -1.003537       -27.3076
 100   2.0000      -1.001313       -27.2471
 101   2.0000      -0.995451       -27.0876
 102   2.0000      -0.992567       -27.0091
 103   2.0000      -0.986589       -26.8464
 104   2.0000      -0.980899       -26.6916
 105   2.0000      -0.975677       -26.5495
 106   2.0000      -0.961565       -26.1655
 107   2.0000      -0.960810       -26.1450
 108   2.0000      -0.946117       -25.7451
 109   2.0000      -0.931421       -25.3453
 110   2.0000      -0.922097       -25.0915
 111   2.0000      -0.912826       -24.8393
 112   2.0000      -0.909205       -24.7407
 113   2.0000      -0.902565       -24.5600
 114   2.0000      -0.893718       -24.3193
 115   2.0000      -0.887869       -24.1601
 116   2.0000      -0.886055       -24.1108
 117   2.0000      -0.873430       -23.7672
 118   2.0000      -0.869028       -23.6475
 119   2.0000      -0.860466       -23.4145
 120   2.0000      -0.853437       -23.2232
 121   2.0000      -0.849516       -23.1165
 122   2.0000      -0.842203       -22.9175
 123   2.0000      -0.839592       -22.8465
 124   2.0000      -0.821530       -22.3550
 125   2.0000      -0.820042       -22.3145
 126   2.0000      -0.808557       -22.0019
 127   2.0000      -0.802723       -21.8432
 128   2.0000      -0.793314       -21.5872
 129   2.0000      -0.788846       -21.4656
 130   2.0000      -0.778178       -21.1753
 131   2.0000      -0.774347       -21.0711
 132   2.0000      -0.768922       -20.9234
 133   2.0000      -0.766619       -20.8608
 134   2.0000      -0.751850       -20.4589
 135   2.0000      -0.746437       -20.3116
 136   2.0000      -0.738248       -20.0888
 137   2.0000      -0.734287       -19.9810
 138   2.0000      -0.721519       -19.6335
 139   2.0000      -0.714164       -19.4334
 140   2.0000      -0.711026       -19.3480
 141   2.0000      -0.703373       -19.1398
 142   2.0000      -0.701104       -19.0780
 143   2.0000      -0.697839       -18.9892
 144   2.0000      -0.690441       -18.7879
 145   2.0000      -0.688540       -18.7361
 146   2.0000      -0.683376       -18.5956
 147   2.0000      -0.675619       -18.3845
 148   2.0000      -0.672334       -18.2951
 149   2.0000      -0.667922       -18.1751
 150   2.0000      -0.658576       -17.9208
 151   2.0000      -0.656939       -17.8762
 152   2.0000      -0.643180       -17.5018
 153   2.0000      -0.642242       -17.4763
 154   2.0000      -0.638397       -17.3717
 155   2.0000      -0.636529       -17.3208
 156   2.0000      -0.635392       -17.2899
 157   2.0000      -0.622187       -16.9306
 158   2.0000      -0.620191       -16.8762
 159   2.0000      -0.615310       -16.7434
 160   2.0000      -0.608790       -16.5660
 161   2.0000      -0.606422       -16.5016
 162   2.0000      -0.601758       -16.3747
 163   2.0000      -0.598415       -16.2837
 164   2.0000      -0.596068       -16.2198
 165   2.0000      -0.585453       -15.9310
 166   2.0000      -0.585358       -15.9284
 167   2.0000      -0.583745       -15.8845
 168   2.0000      -0.582733       -15.8570
 169   2.0000      -0.580776       -15.8037
 170   2.0000      -0.577591       -15.7171
 171   2.0000      -0.573336       -15.6013
 172   2.0000      -0.570711       -15.5298
 173   2.0000      -0.569365       -15.4932
 174   2.0000      -0.566816       -15.4239
 175   2.0000      -0.564265       -15.3544
 176   2.0000      -0.558129       -15.1875
 177   2.0000      -0.556480       -15.1426
 178   2.0000      -0.553793       -15.0695
 179   2.0000      -0.552985       -15.0475
 180   2.0000      -0.550831       -14.9889
 181   2.0000      -0.548331       -14.9209
 182   2.0000      -0.547034       -14.8855
 183   2.0000      -0.544530       -14.8174
 184   2.0000      -0.541543       -14.7361
 185   2.0000      -0.540445       -14.7063
 186   2.0000      -0.537272       -14.6199
 187   2.0000      -0.536609       -14.6019
 188   2.0000      -0.534648       -14.5485
 189   2.0000      -0.533816       -14.5259
 190   2.0000      -0.531101       -14.4520
 191   2.0000      -0.530342       -14.4313
 192   2.0000      -0.527950       -14.3663
 193   2.0000      -0.526004       -14.3133
 194   2.0000      -0.524965       -14.2850
 195   2.0000      -0.523653       -14.2493
 196   2.0000      -0.520718       -14.1695
 197   2.0000      -0.514472       -13.9995
 198   2.0000      -0.512880       -13.9562
 199   2.0000      -0.510463       -13.8904
 200   2.0000      -0.507102       -13.7990
 201   2.0000      -0.503811       -13.7094
 202   2.0000      -0.501502       -13.6466
 203   2.0000      -0.495608       -13.4862
 204   2.0000      -0.493679       -13.4337
 205   2.0000      -0.491075       -13.3628
 206   2.0000      -0.488143       -13.2830
 207   2.0000      -0.485588       -13.2135
 208   2.0000      -0.483589       -13.1591
 209   2.0000      -0.482542       -13.1306
 210   2.0000      -0.477960       -13.0060
 211   2.0000      -0.474856       -12.9215
 212   2.0000      -0.474110       -12.9012
 213   2.0000      -0.470442       -12.8014
 214   2.0000      -0.467905       -12.7323
 215   2.0000      -0.465331       -12.6623
 216   2.0000      -0.465064       -12.6550
 217   2.0000      -0.461775       -12.5655
 218   2.0000      -0.461562       -12.5597
 219   2.0000      -0.460302       -12.5255
 220   2.0000      -0.457602       -12.4520
 221   2.0000      -0.455429       -12.3929
 222   2.0000      -0.454699       -12.3730
 223   2.0000      -0.450398       -12.2559
 224   2.0000      -0.447109       -12.1664
 225   2.0000      -0.445596       -12.1253
 226   2.0000      -0.445401       -12.1200
 227   2.0000      -0.442202       -12.0329
 228   2.0000      -0.440915       -11.9979
 229   2.0000      -0.439229       -11.9520
 230   2.0000      -0.438879       -11.9425
 231   2.0000      -0.436059       -11.8658
 232   2.0000      -0.433629       -11.7997
 233   2.0000      -0.431500       -11.7417
 234   2.0000      -0.429299       -11.6818
 235   2.0000      -0.428063       -11.6482
 236   2.0000      -0.427457       -11.6317
 237   2.0000      -0.426209       -11.5977
 238   2.0000      -0.425350       -11.5744
 239   2.0000      -0.422557       -11.4984
 240   2.0000      -0.419143       -11.4055
 241   2.0000      -0.416860       -11.3433
 242   2.0000      -0.413871       -11.2620
 243   2.0000      -0.410921       -11.1817
 244   2.0000      -0.408236       -11.1087
 245   2.0000      -0.406329       -11.0568
 246   2.0000      -0.401454       -10.9241
 247   2.0000      -0.398225       -10.8362
 248   2.0000      -0.396841       -10.7986
 249   2.0000      -0.395262       -10.7556
 250   2.0000      -0.385438       -10.4883
 251   2.0000      -0.380398       -10.3512
 252   2.0000      -0.366773        -9.9804
 253   2.0000      -0.362386        -9.8610
 254   2.0000      -0.361798        -9.8450
 255   2.0000      -0.359398        -9.7797
 256   2.0000      -0.352676        -9.5968
 257   2.0000      -0.351483        -9.5643
 258   2.0000      -0.340369        -9.2619
 259   2.0000      -0.339674        -9.2430
 260   2.0000      -0.332932        -9.0595
 261   2.0000      -0.326817        -8.8931
 262   2.0000      -0.322663        -8.7801
 263   2.0000      -0.317422        -8.6375
 264   2.0000      -0.312956        -8.5160
 265   2.0000      -0.305907        -8.3242
 266   2.0000      -0.300445        -8.1755
 267   2.0000      -0.292233        -7.9521
 268   2.0000      -0.282800        -7.6954
 269   2.0000      -0.249409        -6.7868
 270   0.0000      -0.104932        -2.8554
 271   0.0000      -0.090833        -2.4717
 272   0.0000      -0.080458        -2.1894
 273   0.0000      -0.059232        -1.6118
 274   0.0000      -0.051682        -1.4063

MULLIKEN ATOMIC CHARGES
-----------------------
   0 C :   -0.108954
   1 C :    0.241258
   2 F :   -0.171701
   3 C :    0.238373
   4 F :   -0.172639
   5 C :   -0.106453
   6 C :    0.119003
   7 C :    0.114427
   8 C :   -0.083635
   9 C :    0.051369
  10 C :   -0.009035
  11 C :   -0.083647
  12 C :    0.148931
  13 O :   -0.150467
  14 C :   -0.060130
  15 C :    0.313389
  16 C :   -0.346241
  17 C :   -0.188106
  18 N :    0.146386
  19 C :   -0.196236
  20 N :    0.156832
  21 C :   -0.023293
  22 C :   -0.017044
  23 C :    0.179723
  24 O :   -0.309073
  25 C :    0.198722
  26 C :    0.045682
  27 O :   -0.357124
  28 C :    0.206588
  29 C :    0.048070
  30 C :   -0.005098
  31 C :    0.022560
  32 C :   -0.019827
  33 C :    0.112466
  34 O :   -0.344526
  35 C :    0.196362
  36 C :    0.097207
  37 O :   -0.364806
  38 C :    0.183231
  39 C :    0.089104
  40 C :   -0.053454
  41 C :    0.020292
  42 C :   -0.084065
  43 C :   -0.029591
  44 C :    0.082667
  45 C :    0.063667
  46 C :   -0.126469
  47 S :    0.213646
  48 C :   -0.116007
  49 C :    0.068232
  50 C :   -0.006753
  51 C :   -0.062773
  52 S :    0.136207
  53 C :    0.071848
  54 C :    0.031415
  55 C :    0.000291
  56 C :    0.055769
  57 C :   -0.157119
  58 C :    0.139603
  59 O :   -0.140956
  60 C :    0.009299
  61 C :    0.034776
  62 C :   -0.097372
  63 C :    0.022688
  64 C :   -0.083308
  65 C :   -0.042121
  66 C :   -0.155597
  67 N :    0.136133
  68 C :    0.177386
  69 O :   -0.146018
  70 O :   -0.142922
  71 C :    0.299152
  72 C :   -0.380991
  73 C :   -0.231469
  74 N :    0.180359
  75 C :   -0.133575
  76 N :    0.096575
  77 H :    0.009233
  78 H :   -0.001348
  79 H :   -0.006496
  80 H :   -0.012427
  81 H :    0.036774
  82 H :    0.044452
  83 H :    0.015688
  84 H :    0.038532
  85 H :    0.016337
  86 H :    0.021314
  87 H :    0.038487
  88 H :   -0.019284
  89 H :   -0.007683
  90 H :    0.040903
  91 H :    0.026707
  92 H :    0.015643
  93 H :    0.035587
  94 H :    0.047027
  95 H :    0.020490
  96 H :   -0.012925
  97 H :    0.002876
  98 H :   -0.015093
  99 H :    0.040704
 100 H :   -0.007102
 101 H :    0.030194
 102 H :   -0.012819
 103 H :   -0.031663
 104 H :    0.025094
 105 H :   -0.020663
 106 H :    0.015016
 107 H :    0.185353
Sum of atomic charges:   -0.0000000

LOEWDIN ATOMIC CHARGES
----------------------
   0 C :   -0.029013
   1 C :    0.066115
   2 F :   -0.049260
   3 C :    0.067348
   4 F :   -0.050131
   5 C :   -0.034307
   6 C :   -0.008830
   7 C :   -0.006691
   8 C :    0.017612
   9 C :   -0.023544
  10 C :   -0.052340
  11 C :    0.027830
  12 C :    0.082949
  13 O :   -0.141284
  14 C :   -0.098494
  15 C :    0.077317
  16 C :   -0.137655
  17 C :   -0.016253
  18 N :   -0.055032
  19 C :   -0.023876
  20 N :   -0.048985
  21 C :    0.093513
  22 C :   -0.066028
  23 C :    0.066010
  24 O :   -0.088723
  25 C :    0.085870
  26 C :    0.004937
  27 O :   -0.128920
  28 C :    0.076407
  29 C :   -0.008597
  30 C :   -0.024409
  31 C :    0.022243
  32 C :   -0.026903
  33 C :    0.029427
  34 O :   -0.123285
  35 C :    0.080962
  36 C :    0.025158
  37 O :   -0.136549
  38 C :    0.080036
  39 C :   -0.063863
  40 C :   -0.010079
  41 C :    0.004018
  42 C :   -0.137507
  43 C :   -0.020949
  44 C :    0.026842
  45 C :   -0.047920
  46 C :   -0.145636
  47 S :    0.537022
  48 C :   -0.204361
  49 C :   -0.030382
  50 C :   -0.062556
  51 C :   -0.160189
  52 S :    0.430367
  53 C :   -0.064030
  54 C :    0.069238
  55 C :   -0.072682
  56 C :    0.076171
  57 C :   -0.131547
  58 C :    0.080005
  59 O :   -0.141952
  60 C :   -0.028933
  61 C :    0.003257
  62 C :   -0.011703
  63 C :   -0.042712
  64 C :   -0.026605
  65 C :    0.045713
  66 C :   -0.034090
  67 N :   -0.031834
  68 C :    0.081800
  69 O :   -0.119516
  70 O :   -0.018766
  71 C :    0.064618
  72 C :   -0.176278
  73 C :   -0.025031
  74 N :   -0.045485
  75 C :   -0.012288
  76 N :   -0.084995
  77 H :    0.048102
  78 H :    0.044222
  79 H :    0.039855
  80 H :    0.038914
  81 H :    0.045173
  82 H :    0.028843
  83 H :    0.014785
  84 H :    0.023541
  85 H :    0.012084
  86 H :    0.010565
  87 H :    0.028345
  88 H :    0.031661
  89 H :    0.033843
  90 H :    0.028922
  91 H :    0.012781
  92 H :    0.013876
  93 H :    0.026145
  94 H :    0.018574
  95 H :    0.016216
  96 H :    0.031658
  97 H :    0.039494
  98 H :    0.038567
  99 H :    0.038281
 100 H :    0.031002
 101 H :    0.026017
 102 H :    0.031812
 103 H :    0.030654
 104 H :    0.047143
 105 H :    0.030653
 106 H :    0.052260
 107 H :    0.094222

  Mayer bond orders larger than 0.100000
B(  0-C ,  1-C ) :   1.4430 B(  0-C ,  5-C ) :   0.1086 B(  0-C ,  7-C ) :   1.1867
B(  0-C , 77-H ) :   1.0071 B(  1-C ,  2-F ) :   1.1344 B(  1-C ,  3-C ) :   1.1891
B(  3-C ,  4-F ) :   1.1323 B(  3-C ,  5-C ) :   1.4455 B(  5-C ,  6-C ) :   1.1910
B(  5-C , 78-H ) :   1.0070 B(  6-C ,  7-C ) :   1.2540 B(  6-C , 11-C ) :   1.1906
B(  7-C ,  8-C ) :   1.2202 B(  8-C ,  9-C ) :   1.4452 B(  8-C , 79-H ) :   0.9899
B(  9-C , 10-C ) :   1.2209 B(  9-C , 15-C ) :   0.9849 B( 10-C , 11-C ) :   1.4704
B( 10-C , 12-C ) :   0.9415 B( 11-C , 80-H ) :   1.0160 B( 12-C , 13-O ) :   2.2175
B( 12-C , 14-C ) :   0.9335 B( 14-C , 15-C ) :   1.0634 B( 14-C , 21-C ) :   1.5846
B( 15-C , 16-C ) :   1.6378 B( 16-C , 17-C ) :   1.1477 B( 16-C , 19-C ) :   1.1360
B( 17-C , 18-N ) :   2.9614 B( 19-C , 20-N ) :   2.9808 B( 21-C , 22-C ) :   1.1443
B( 21-C , 81-H ) :   0.9239 B( 22-C , 23-C ) :   1.2802 B( 22-C , 31-C ) :   1.3227
B( 23-C , 24-O ) :   1.2092 B( 23-C , 26-C ) :   1.3234 B( 24-O , 25-C ) :   0.9180
B( 25-C , 82-H ) :   0.9761 B( 25-C , 83-H ) :   0.9770 B( 25-C , 84-H ) :   0.9734
B( 26-C , 27-O ) :   1.0936 B( 26-C , 29-C ) :   1.3831 B( 27-O , 28-C ) :   0.9419
B( 28-C , 85-H ) :   0.9658 B( 28-C , 86-H ) :   0.9637 B( 28-C , 87-H ) :   0.9798
B( 29-C , 30-C ) :   1.3402 B( 29-C , 32-C ) :   0.9418 B( 30-C , 31-C ) :   1.3819
B( 30-C , 88-H ) :   0.9986 B( 31-C , 89-H ) :   0.9889 B( 32-C , 33-C ) :   1.3895
B( 32-C , 41-C ) :   1.3312 B( 33-C , 34-O ) :   1.1139 B( 33-C , 36-C ) :   1.3334
B( 34-O , 35-C ) :   0.9281 B( 35-C , 90-H ) :   0.9822 B( 35-C , 91-H ) :   0.9682
B( 35-C , 92-H ) :   0.9672 B( 36-C , 37-O ) :   1.0956 B( 36-C , 39-C ) :   1.3463
B( 37-O , 38-C ) :   0.9139 B( 38-C , 93-H ) :   0.9826 B( 38-C , 94-H ) :   0.9678
B( 38-C , 95-H ) :   0.9695 B( 39-C , 40-C ) :   1.3152 B( 39-C , 42-C ) :   1.0179
B( 40-C , 41-C ) :   1.3832 B( 40-C , 96-H ) :   0.9975 B( 41-C , 97-H ) :   1.0035
B( 42-C , 43-C ) :   1.5195 B( 42-C , 47-S ) :   1.1261 B( 43-C , 44-C ) :   1.2675
B( 43-C , 98-H ) :   0.9662 B( 44-C , 45-C ) :   1.1025 B( 44-C , 53-C ) :   1.2721
B( 45-C , 46-C ) :   1.5446 B( 45-C , 48-C ) :   1.1737 B( 46-C , 47-S ) :   1.1707
B( 46-C , 99-H ) :   0.9408 B( 48-C , 49-C ) :   1.4592 B( 48-C , 52-S ) :   1.0799
B( 49-C , 50-C ) :   1.2212 B( 49-C , 53-C ) :   1.0629 B( 50-C , 51-C ) :   1.5852
B( 50-C ,100-H ) :   1.0003 B( 51-C , 52-S ) :   1.1607 B( 51-C ,101-H ) :   0.9644
B( 53-C , 54-C ) :   1.3332 B( 54-C , 55-C ) :   1.4069 B( 54-C ,102-H ) :   0.9376
B( 55-C , 56-C ) :   1.3421 B( 55-C ,103-H ) :   0.9686 B( 56-C , 57-C ) :   1.4335
B( 56-C ,104-H ) :   0.9300 B( 57-C , 58-C ) :   0.9792 B( 57-C , 71-C ) :   1.1497
B( 58-C , 59-O ) :   2.2537 B( 58-C , 60-C ) :   0.8944 B( 60-C , 61-C ) :   1.3424
B( 60-C , 65-C ) :   1.3662 B( 61-C , 62-C ) :   1.4078 B( 61-C , 71-C ) :   0.9903
B( 62-C , 63-C ) :   1.2962 B( 62-C ,105-H ) :   0.9556 B( 63-C , 64-C ) :   1.4065
B( 63-C , 68-C ) :   0.8723 B( 64-C , 65-C ) :   1.3516 B( 64-C , 66-C ) :   1.0651
B( 65-C ,106-H ) :   1.0170 B( 66-C , 67-N ) :   3.0369 B( 68-C , 69-O ) :   2.1682
B( 68-C , 70-O ) :   1.2509 B( 70-O ,107-H ) :   0.9527 B( 71-C , 72-C ) :   1.5319
B( 72-C , 73-C ) :   1.1871 B( 72-C , 75-C ) :   1.1453 B( 73-C , 74-N ) :   2.9884
B( 75-C , 76-N ) :   2.8873

-----------------------------------------------------------------------------
         ABSORPTION SPECTRUM VIA TRANSITION ELECTRIC DIPOLE MOMENTS
-----------------------------------------------------------------------------
State   Energy  Wavelength   fosc         T2         TX        TY        TZ
        (cm-1)    (nm)                  (au**2)     (au)      (au)      (au)
-----------------------------------------------------------------------------
   0   14254.1    701.6   0.439030246  10.13983   1.24625  -0.35149  -2.90915
   1   20447.7    489.1   0.296715655   4.77718   0.75639   1.32329  -1.56651
   2   23322.7    428.8   0.798764488  11.27497   0.98695  -3.20817  -0.09262
   3   23861.8    419.1   0.194557895   2.68424   0.03013  -1.28560   1.01516
   4   24281.4    411.8   0.244019274   3.30847  -0.75034   1.65604   0.05462
   5   25786.6    387.8   0.048511001   0.61933  -0.05636   0.66276   0.42059
   6   26821.6    372.8   0.029322726   0.35991   0.29570   0.48928   0.18188
   7   28379.7    352.4   0.097579446   1.13195   0.74277   0.44976  -0.61478
   8   28577.9    349.9   0.067167123   0.77375   0.56406  -0.65481  -0.16371
   9   28930.1    345.7   0.105862906   1.20468   0.36102  -0.73392   0.73191
  10   29005.0    344.8   0.047234966   0.53613  -0.49900  -0.27073   0.46241
  11   29186.3    342.6   0.181063242   2.04234   0.14488   1.20754  -0.75047
  12   29480.2    339.2   0.108769278   1.21465   0.05924   1.08541   0.18172
  13   30048.4    332.8   0.111705078   1.22385   0.05018  -1.09270  -0.16536
  14   30413.3    328.8   0.021885009   0.23690   0.02560   0.27254  -0.40244
  15   30553.3    327.3   0.044357423   0.47795   0.07622   0.42542   0.53959
  16   31245.6    320.0   0.128721634   1.35624   0.19093  -0.85308   0.76945
  17   31372.4    318.8   0.071779372   0.75323   0.43295  -0.71886   0.22141
  18   31831.8    314.2   0.373249229   3.86023  -0.49344   1.29615  -1.39167
  19   32204.6    310.5   0.227600087   2.32664   0.99142   0.00885  -1.15916
  20   33079.3    302.3   0.017834132   0.17749   0.17542   0.38121  -0.03733
  21   33867.7    295.3   0.345552292   3.35895  -1.39971   0.05422   1.18187
  22   34142.5    292.9   0.067207426   0.64803   0.49372  -0.03136   0.63505
  23   34423.7    290.5   0.141207558   1.35044   0.78103  -0.85398   0.10564
  24   34507.9    289.8   0.106535160   1.01637  -0.25365  -0.02866   0.97530
  25   34677.6    288.4   0.076035018   0.72184  -0.63203   0.25149   0.50905
  26   34832.2    287.1   0.480066582   4.53729   0.24681  -0.78679   1.96401
  27   35105.4    284.9   0.227621650   2.13460  -0.29384  -0.12454  -1.42574
  28   35771.3    279.6   0.038077211   0.35043  -0.43945  -0.38353  -0.10110
  29   35821.6    279.2   0.010908827   0.10026   0.14077  -0.15607   0.23682
  30   36172.5    276.5   0.055882305   0.50859   0.02455  -0.36469   0.61237
  31   36409.7    274.7   0.068450906   0.61892  -0.23662  -0.59876   0.45213
  32   36839.0    271.5   0.041176108   0.36797  -0.07265  -0.58057   0.16009
  33   36894.5    271.0   0.008912055   0.07952  -0.06445   0.10713  -0.25277
  34   37361.1    267.7   0.328172814   2.89174  -0.36720   1.65336  -0.15268
  35   37579.9    266.1   0.170155241   1.49061  -0.09412   1.15641  -0.38009
  36   37791.6    264.6   0.037261281   0.32459   0.03474  -0.40987  -0.39420
  37   38240.4    261.5   0.330372864   2.84418   1.04551  -1.31250  -0.16865
  38   38815.6    257.6   0.190559039   1.61621  -0.11915   1.05118   0.70500
  39   38914.2    257.0   0.460675282   3.89728   1.32332   0.64901  -1.31335
  40   39064.1    256.0   0.012952780   0.10916  -0.18422  -0.27426  -0.00079
  41   39451.9    253.5   0.187423593   1.56398  -0.39499  -0.71318   0.94833
  42   39646.5    252.2   0.016125317   0.13390  -0.04224   0.35994  -0.05061
  43   39807.3    251.2   0.023324722   0.19290  -0.13806   0.38933  -0.14919
  44   40060.8    249.6   0.003073772   0.02526   0.14966   0.04206  -0.03304
  45   40206.2    248.7   0.049266137   0.40340   0.25239  -0.51228   0.27797
  46   40278.0    248.3   0.136247761   1.11362  -0.09715  -0.91549   0.51580

FINAL SINGLE POINT ENERGY     -4172.082757648505

DIPOLE MOMENT
-------------
                                X             Y             Z
Electronic contribution:    -22.44826      33.58409      -7.01507
Nuclear contribution   :     25.88123     -37.65131       1.64843
                        -----------------------------------------
Total Dipole Moment    :      3.43296      -4.06722      -5.36664
                        -----------------------------------------
Magnitude (a.u.)       :      7.55833
Magnitude (Debye)      :     19.21175

Rotational constants in cm-1:     0.001178     0.000308     0.000260
Rotational constants in MHz :    35.307308     9.222496     7.792188

                             ****ORCA TERMINATED NORMALLY****
TOTAL RUN TIME: 0 days 0 hours 12 minutes 18 seconds 882 msec
