                         Program Version 4.2.0 -  RELEASE  -
|  1> # ORCA input file
|  2> # SCF done       -175.942152829748          0.000859942845
|  3> ! CAM-B3LYP def2-SVP def2/J RIJCOSX Grid4 TightSCF
|  4> %maxcore 5000
|  5> %tddft
|  6>     Mode sTDDFT
|  7>     Ethresh 5.0
|  8>     maxcore 5000
|  9> end
| 10>
| 11> %pal
| 12>   nprocs 6
| 13>   end
| 14> * xyz 0 1
| 15>    C      -11.25528         6.24573         0.13771
| 16>    C      -10.93433         7.22716        -0.74862
| 17>    C       -9.54989         7.48539        -0.75012
| 18>    C       -8.85595         6.67723         0.15774
| 19>    S       -9.88818         5.60231         0.99033
| 20>    C       -7.47612         7.01602         0.10369
| 21>    C       -7.30100         8.03471        -0.83946
| 22>    C       -8.60436         8.36904        -1.40372
| 23>    C       -8.87383         9.32882        -2.33443
| 24>    C       -7.86890        10.17111        -2.85371
| 25>    N       -7.06037        10.87275        -3.26409
| 26>    C      -10.17518         9.56039        -2.82559
| 27>    N      -11.22798         9.74992        -3.23939
| 28>    C       -5.97099         8.44660        -0.95681
| 29>    C       -5.13976         7.76781        -0.08860
| 30>    S       -6.01380         6.57055         0.86164
| 31>    C       -3.73971         7.95020         0.12743
| 32>    C       -3.11076         7.45238         1.23761
| 33>    C       -1.75593         7.60920         1.53839
| 34>    C       -0.84636         8.20875         0.54725
| 35>    C       -1.25384         8.75932        -0.61679
| 36>    S       -2.89246         8.86121        -1.11705
| 37>    C        0.45535         8.05252         1.09368
| 38>    C        0.36854         7.42369         2.33828
| 39>    C        1.63703         7.24449         2.93208
| 40>    C        2.63080         7.71938         2.13633
| 41>    S        2.07669         8.40619         0.64490
| 42>    C       -1.01255         7.16049         2.63960
| 43>    C       -1.47063         6.50233         3.82226
| 44>    C       -2.72205         6.61870         4.31441
| 45>    C       -3.31441         5.87309         5.39386
| 46>    C       -2.67288         5.01202         6.23897
| 47>    F       -1.36338         4.75713         6.27705
| 48>    S       -3.69274         4.18654         7.37096
| 49>    C       -5.04592         5.01032         6.67780
| 50>    F       -6.25802         4.77866         7.18402
| 51>    C       -4.74192         5.87610         5.66566
| 52>    C       -5.67198         6.69804         4.94105
| 53>    C       -7.01286         6.57273         4.86443
| 54>    C       -7.83926         7.44048         4.07211
| 55>    C       -7.34283         8.38057         3.20850
| 56>    C       -8.09319         9.24974         2.41936
| 57>    C       -9.55201         9.11175         2.33130
| 58>    C      -10.26539         8.26093         3.10327
| 59>    S       -9.57125         7.21297         4.27341
| 60>    C       -9.94829        10.01805         1.31058
| 61>    C       -8.82614        10.68635         0.81180
| 62>    C       -9.16435        11.61329        -0.19857
| 63>    C      -10.50152        11.61824        -0.44394
| 64>    S      -11.40368        10.51326         0.53762
| 65>    C       -7.65654        10.23332         1.51529
| 66>    C       -6.32676        10.68574         1.29990
| 67>    C       -5.33945        10.57714         2.22607
| 68>    C       -3.95914        10.83876         2.04404
| 69>    C       -3.25917        11.32584         0.95307
| 70>    C       -1.88499        11.37157         1.19146
| 71>    C       -1.52818        10.91606         2.46755
| 72>    S       -2.88383        10.42978         3.38004
| 73>    C       -0.11725        11.01092         2.60629
| 74>    C        0.41554        11.52583         1.41723
| 75>    C       -0.66592        11.75538         0.48336
| 76>    C       -0.57471        12.20748        -0.80156
| 77>    C        0.66165        12.52746        -1.39866
| 78>    N        1.66403        12.78077        -1.89516
| 79>    C       -1.70948        12.35887        -1.62463
| 80>    N       -2.63004        12.47395        -2.29867
| 81>    C        1.81646        11.66489         1.47425
| 82>    C        2.30647        11.26257         2.67783
| 83>    S        1.08543        10.69833         3.77527
| 84>    H      -12.22466         5.84143         0.34906
| 85>    H      -11.65524         7.73644        -1.36141
| 86>    H       -5.61613         9.21129        -1.62407
| 87>    H       -3.72218         6.86857         1.91181
| 88>    H       -0.56339         9.18812        -1.32666
| 89>    H        1.80845         6.78988         3.89074
| 90>    H        3.68590         7.71250         2.32857
| 91>    H       -0.74050         5.87947         4.31941
| 92>    H       -3.37520         7.33723         3.84696
| 93>    H       -5.20114         7.50232         4.39795
| 94>    H       -7.52685         5.79561         5.41038
| 95>    H       -6.27258         8.41937         3.09125
| 96>    H      -11.33965         8.18470         3.04078
| 97>    H       -8.46285        12.24028        -0.71916
| 98>    H      -11.03674        12.21177        -1.15904
| 99>    H       -6.11754        11.14101         0.34112
|100>    H       -5.60044        10.26056         3.22574
|101>    H       -3.73727        11.63989         0.04363
|102>    H        2.42971        12.03823         0.67479
|103>    H        3.32712        11.25490         3.00349
|104> *
|105>
|106>                          ****END OF INPUT****

CARTESIAN COORDINATES (ANGSTROEM)
---------------------------------
  C    -11.255280    6.245730    0.137710
  C    -10.934330    7.227160   -0.748620
  C     -9.549890    7.485390   -0.750120
  C     -8.855950    6.677230    0.157740
  S     -9.888180    5.602310    0.990330
  C     -7.476120    7.016020    0.103690
  C     -7.301000    8.034710   -0.839460
  C     -8.604360    8.369040   -1.403720
  C     -8.873830    9.328820   -2.334430
  C     -7.868900   10.171110   -2.853710
  N     -7.060370   10.872750   -3.264090
  C    -10.175180    9.560390   -2.825590
  N    -11.227980    9.749920   -3.239390
  C     -5.970990    8.446600   -0.956810
  C     -5.139760    7.767810   -0.088600
  S     -6.013800    6.570550    0.861640
  C     -3.739710    7.950200    0.127430
  C     -3.110760    7.452380    1.237610
  C     -1.755930    7.609200    1.538390
  C     -0.846360    8.208750    0.547250
  C     -1.253840    8.759320   -0.616790
  S     -2.892460    8.861210   -1.117050
  C      0.455350    8.052520    1.093680
  C      0.368540    7.423690    2.338280
  C      1.637030    7.244490    2.932080
  C      2.630800    7.719380    2.136330
  S      2.076690    8.406190    0.644900
  C     -1.012550    7.160490    2.639600
  C     -1.470630    6.502330    3.822260
  C     -2.722050    6.618700    4.314410
  C     -3.314410    5.873090    5.393860
  C     -2.672880    5.012020    6.238970
  F     -1.363380    4.757130    6.277050
  S     -3.692740    4.186540    7.370960
  C     -5.045920    5.010320    6.677800
  F     -6.258020    4.778660    7.184020
  C     -4.741920    5.876100    5.665660
  C     -5.671980    6.698040    4.941050
  C     -7.012860    6.572730    4.864430
  C     -7.839260    7.440480    4.072110
  C     -7.342830    8.380570    3.208500
  C     -8.093190    9.249740    2.419360
  C     -9.552010    9.111750    2.331300
  C    -10.265390    8.260930    3.103270
  S     -9.571250    7.212970    4.273410
  C     -9.948290   10.018050    1.310580
  C     -8.826140   10.686350    0.811800
  C     -9.164350   11.613290   -0.198570
  C    -10.501520   11.618240   -0.443940
  S    -11.403680   10.513260    0.537620
  C     -7.656540   10.233320    1.515290
  C     -6.326760   10.685740    1.299900
  C     -5.339450   10.577140    2.226070
  C     -3.959140   10.838760    2.044040
  C     -3.259170   11.325840    0.953070
  C     -1.884990   11.371570    1.191460
  C     -1.528180   10.916060    2.467550
  S     -2.883830   10.429780    3.380040
  C     -0.117250   11.010920    2.606290
  C      0.415540   11.525830    1.417230
  C     -0.665920   11.755380    0.483360
  C     -0.574710   12.207480   -0.801560
  C      0.661650   12.527460   -1.398660
  N      1.664030   12.780770   -1.895160
  C     -1.709480   12.358870   -1.624630
  N     -2.630040   12.473950   -2.298670
  C      1.816460   11.664890    1.474250
  C      2.306470   11.262570    2.677830
  S      1.085430   10.698330    3.775270
  H    -12.224660    5.841430    0.349060
  H    -11.655240    7.736440   -1.361410
  H     -5.616130    9.211290   -1.624070
  H     -3.722180    6.868570    1.911810
  H     -0.563390    9.188120   -1.326660
  H      1.808450    6.789880    3.890740
  H      3.685900    7.712500    2.328570
  H     -0.740500    5.879470    4.319410
  H     -3.375200    7.337230    3.846960
  H     -5.201140    7.502320    4.397950
  H     -7.526850    5.795610    5.410380
  H     -6.272580    8.419370    3.091250
  H    -11.339650    8.184700    3.040780
  H     -8.462850   12.240280   -0.719160
  H    -11.036740   12.211770   -1.159040
  H     -6.117540   11.141010    0.341120
  H     -5.600440   10.260560    3.225740
  H     -3.737270   11.639890    0.043630
  H      2.429710   12.038230    0.674790
  H      3.327120   11.254900    3.003490

 Total Charge           Charge          ....    0
 Multiplicity           Mult            ....    1
 Number of Electrons    NEL             ....  534
 Basis Dimension        Dim             .... 1102

ORBITAL ENERGIES
----------------

  NO   OCC          E(Eh)            E(eV)
   0   2.0000     -88.983669     -2421.3687
   1   2.0000     -88.980713     -2421.2883
   2   2.0000     -88.980705     -2421.2881
   3   2.0000     -88.976596     -2421.1763
   4   2.0000     -88.976020     -2421.1606
   5   2.0000     -88.975044     -2421.1340
   6   2.0000     -88.974245     -2421.1123
   7   2.0000     -88.956638     -2420.6332
   8   2.0000     -88.955994     -2420.6157
   9   2.0000     -24.812276      -675.1764
  10   2.0000     -24.809271      -675.0946
  11   2.0000     -14.422968      -392.4689
  12   2.0000     -14.421463      -392.4280
  13   2.0000     -14.420918      -392.4131
  14   2.0000     -14.420688      -392.4069
  15   2.0000     -10.386095      -282.6200
  16   2.0000     -10.382434      -282.5204
  17   2.0000     -10.354217      -281.7526
  18   2.0000     -10.352368      -281.7023
  19   2.0000     -10.341991      -281.4199
  20   2.0000     -10.341820      -281.4152
  21   2.0000     -10.327440      -281.0239
  22   2.0000     -10.325957      -280.9836
  23   2.0000     -10.325038      -280.9586
  24   2.0000     -10.323497      -280.9166
  25   2.0000     -10.322715      -280.8954
  26   2.0000     -10.322372      -280.8860
  27   2.0000     -10.322339      -280.8851
  28   2.0000     -10.321994      -280.8757
  29   2.0000     -10.321484      -280.8619
  30   2.0000     -10.320803      -280.8433
  31   2.0000     -10.318905      -280.7917
  32   2.0000     -10.318833      -280.7897
  33   2.0000     -10.314564      -280.6735
  34   2.0000     -10.310055      -280.5509
  35   2.0000     -10.306131      -280.4441
  36   2.0000     -10.299045      -280.2513
  37   2.0000     -10.298410      -280.2340
  38   2.0000     -10.297225      -280.2017
  39   2.0000     -10.296542      -280.1831
  40   2.0000     -10.296477      -280.1814
  41   2.0000     -10.296418      -280.1798
  42   2.0000     -10.295768      -280.1621
  43   2.0000     -10.294355      -280.1237
  44   2.0000     -10.294059      -280.1156
  45   2.0000     -10.294002      -280.1140
  46   2.0000     -10.293614      -280.1035
  47   2.0000     -10.293040      -280.0879
  48   2.0000     -10.291649      -280.0500
  49   2.0000     -10.291093      -280.0349
  50   2.0000     -10.290856      -280.0284
  51   2.0000     -10.290696      -280.0241
  52   2.0000     -10.286743      -279.9165
  53   2.0000     -10.286135      -279.9000
  54   2.0000     -10.285665      -279.8872
  55   2.0000     -10.285218      -279.8750
  56   2.0000     -10.285052      -279.8705
  57   2.0000     -10.283803      -279.8365
  58   2.0000     -10.282978      -279.8141
  59   2.0000     -10.280668      -279.7512
  60   2.0000     -10.280138      -279.7368
  61   2.0000     -10.279762      -279.7265
  62   2.0000     -10.279395      -279.7166
  63   2.0000     -10.273979      -279.5692
  64   2.0000     -10.273807      -279.5645
  65   2.0000     -10.273591      -279.5586
  66   2.0000     -10.273516      -279.5566
  67   2.0000     -10.273180      -279.5474
  68   2.0000     -10.270927      -279.4861
  69   2.0000      -8.077830      -219.8089
  70   2.0000      -8.077157      -219.7906
  71   2.0000      -8.075170      -219.7365
  72   2.0000      -8.071171      -219.6277
  73   2.0000      -8.070044      -219.5971
  74   2.0000      -8.069442      -219.5807
  75   2.0000      -8.069109      -219.5716
  76   2.0000      -8.051510      -219.0927
  77   2.0000      -8.050558      -219.0668
  78   2.0000      -6.047026      -164.5479
  79   2.0000      -6.046565      -164.5354
  80   2.0000      -6.044505      -164.4793
  81   2.0000      -6.043381      -164.4488
  82   2.0000      -6.042364      -164.4211
  83   2.0000      -6.040440      -164.3687
  84   2.0000      -6.040078      -164.3589
  85   2.0000      -6.039442      -164.3416
  86   2.0000      -6.039280      -164.3372
  87   2.0000      -6.039235      -164.3359
  88   2.0000      -6.038942      -164.3280
  89   2.0000      -6.038845      -164.3253
  90   2.0000      -6.037711      -164.2945
  91   2.0000      -6.036020      -164.2485
  92   2.0000      -6.035213      -164.2265
  93   2.0000      -6.034504      -164.2072
  94   2.0000      -6.034190      -164.1987
  95   2.0000      -6.033807      -164.1882
  96   2.0000      -6.032497      -164.1526
  97   2.0000      -6.031410      -164.1230
  98   2.0000      -6.030925      -164.1098
  99   2.0000      -6.020954      -163.8385
 100   2.0000      -6.020037      -163.8135
 101   2.0000      -6.016740      -163.7238
 102   2.0000      -6.015808      -163.6985
 103   2.0000      -6.013599      -163.6384
 104   2.0000      -6.012662      -163.6129
 105   2.0000      -1.326833       -36.1050
 106   2.0000      -1.323604       -36.0171
 107   2.0000      -1.035904       -28.1884
 108   2.0000      -1.031213       -28.0607
 109   2.0000      -1.014398       -27.6032
 110   2.0000      -1.012183       -27.5429
 111   2.0000      -1.005193       -27.3527
 112   2.0000      -1.004539       -27.3349
 113   2.0000      -1.000543       -27.2262
 114   2.0000      -1.000112       -27.2144
 115   2.0000      -0.999161       -27.1886
 116   2.0000      -0.991005       -26.9666
 117   2.0000      -0.981565       -26.7098
 118   2.0000      -0.972327       -26.4584
 119   2.0000      -0.967108       -26.3163
 120   2.0000      -0.947569       -25.7847
 121   2.0000      -0.946138       -25.7457
 122   2.0000      -0.930608       -25.3231
 123   2.0000      -0.927474       -25.2378
 124   2.0000      -0.915858       -24.9217
 125   2.0000      -0.907348       -24.6902
 126   2.0000      -0.902307       -24.5530
 127   2.0000      -0.895580       -24.3700
 128   2.0000      -0.880882       -23.9700
 129   2.0000      -0.877591       -23.8805
 130   2.0000      -0.868515       -23.6335
 131   2.0000      -0.859756       -23.3951
 132   2.0000      -0.851172       -23.1616
 133   2.0000      -0.849242       -23.1090
 134   2.0000      -0.842627       -22.9291
 135   2.0000      -0.840850       -22.8807
 136   2.0000      -0.838626       -22.8202
 137   2.0000      -0.829906       -22.5829
 138   2.0000      -0.818636       -22.2762
 139   2.0000      -0.813986       -22.1497
 140   2.0000      -0.802260       -21.8306
 141   2.0000      -0.791754       -21.5447
 142   2.0000      -0.786483       -21.4013
 143   2.0000      -0.771648       -20.9976
 144   2.0000      -0.765943       -20.8424
 145   2.0000      -0.761725       -20.7276
 146   2.0000      -0.758548       -20.6412
 147   2.0000      -0.737718       -20.0743
 148   2.0000      -0.732640       -19.9362
 149   2.0000      -0.730443       -19.8764
 150   2.0000      -0.724207       -19.7067
 151   2.0000      -0.703221       -19.1356
 152   2.0000      -0.694676       -18.9031
 153   2.0000      -0.693715       -18.8769
 154   2.0000      -0.691078       -18.8052
 155   2.0000      -0.684623       -18.6295
 156   2.0000      -0.673532       -18.3277
 157   2.0000      -0.670004       -18.2317
 158   2.0000      -0.669254       -18.2113
 159   2.0000      -0.665465       -18.1082
 160   2.0000      -0.661425       -17.9983
 161   2.0000      -0.657017       -17.8783
 162   2.0000      -0.645649       -17.5690
 163   2.0000      -0.639580       -17.4038
 164   2.0000      -0.633422       -17.2363
 165   2.0000      -0.627540       -17.0762
 166   2.0000      -0.621260       -16.9053
 167   2.0000      -0.618874       -16.8404
 168   2.0000      -0.611865       -16.6497
 169   2.0000      -0.608653       -16.5623
 170   2.0000      -0.604714       -16.4551
 171   2.0000      -0.603388       -16.4190
 172   2.0000      -0.601077       -16.3561
 173   2.0000      -0.599422       -16.3111
 174   2.0000      -0.593230       -16.1426
 175   2.0000      -0.587178       -15.9779
 176   2.0000      -0.585844       -15.9416
 177   2.0000      -0.583186       -15.8693
 178   2.0000      -0.575728       -15.6663
 179   2.0000      -0.569879       -15.5072
 180   2.0000      -0.567996       -15.4559
 181   2.0000      -0.563967       -15.3463
 182   2.0000      -0.561699       -15.2846
 183   2.0000      -0.553179       -15.0528
 184   2.0000      -0.550596       -14.9825
 185   2.0000      -0.549222       -14.9451
 186   2.0000      -0.547771       -14.9056
 187   2.0000      -0.543127       -14.7792
 188   2.0000      -0.538830       -14.6623
 189   2.0000      -0.534692       -14.5497
 190   2.0000      -0.527286       -14.3482
 191   2.0000      -0.522650       -14.2220
 192   2.0000      -0.517748       -14.0886
 193   2.0000      -0.514058       -13.9882
 194   2.0000      -0.509133       -13.8542
 195   2.0000      -0.507568       -13.8116
 196   2.0000      -0.504648       -13.7322
 197   2.0000      -0.502058       -13.6617
 198   2.0000      -0.501065       -13.6347
 199   2.0000      -0.498006       -13.5514
 200   2.0000      -0.493870       -13.4389
 201   2.0000      -0.490584       -13.3495
 202   2.0000      -0.489482       -13.3195
 203   2.0000      -0.487362       -13.2618
 204   2.0000      -0.486760       -13.2454
 205   2.0000      -0.486231       -13.2310
 206   2.0000      -0.483429       -13.1548
 207   2.0000      -0.482253       -13.1228
 208   2.0000      -0.479255       -13.0412
 209   2.0000      -0.474035       -12.8992
 210   2.0000      -0.470745       -12.8096
 211   2.0000      -0.467480       -12.7208
 212   2.0000      -0.465128       -12.6568
 213   2.0000      -0.462539       -12.5863
 214   2.0000      -0.460117       -12.5204
 215   2.0000      -0.458520       -12.4770
 216   2.0000      -0.454225       -12.3601
 217   2.0000      -0.453505       -12.3405
 218   2.0000      -0.452866       -12.3231
 219   2.0000      -0.451730       -12.2922
 220   2.0000      -0.450025       -12.2458
 221   2.0000      -0.448295       -12.1987
 222   2.0000      -0.447085       -12.1658
 223   2.0000      -0.446210       -12.1420
 224   2.0000      -0.443416       -12.0660
 225   2.0000      -0.438474       -11.9315
 226   2.0000      -0.436574       -11.8798
 227   2.0000      -0.436447       -11.8763
 228   2.0000      -0.434755       -11.8303
 229   2.0000      -0.434131       -11.8133
 230   2.0000      -0.432833       -11.7780
 231   2.0000      -0.432287       -11.7631
 232   2.0000      -0.431279       -11.7357
 233   2.0000      -0.429688       -11.6924
 234   2.0000      -0.428824       -11.6689
 235   2.0000      -0.426198       -11.5974
 236   2.0000      -0.425109       -11.5678
 237   2.0000      -0.420042       -11.4299
 238   2.0000      -0.419622       -11.4185
 239   2.0000      -0.418030       -11.3752
 240   2.0000      -0.416635       -11.3372
 241   2.0000      -0.414014       -11.2659
 242   2.0000      -0.411653       -11.2017
 243   2.0000      -0.409873       -11.1532
 244   2.0000      -0.407832       -11.0977
 245   2.0000      -0.403798       -10.9879
 246   2.0000      -0.395312       -10.7570
 247   2.0000      -0.387436       -10.5427
 248   2.0000      -0.381959       -10.3936
 249   2.0000      -0.374311       -10.1855
 250   2.0000      -0.365925        -9.9573
 251   2.0000      -0.358925        -9.7668
 252   2.0000      -0.351630        -9.5683
 253   2.0000      -0.346134        -9.4188
 254   2.0000      -0.328641        -8.9428
 255   2.0000      -0.326682        -8.8895
 256   2.0000      -0.322631        -8.7792
 257   2.0000      -0.313183        -8.5221
 258   2.0000      -0.308871        -8.4048
 259   2.0000      -0.304555        -8.2874
 260   2.0000      -0.294414        -8.0114
 261   2.0000      -0.291522        -7.9327
 262   2.0000      -0.278046        -7.5660
 263   2.0000      -0.268911        -7.3174
 264   2.0000      -0.260307        -7.0833
 265   2.0000      -0.230972        -6.2851
 266   2.0000      -0.216854        -5.9009
 267   0.0000      -0.095292        -2.5930
 268   0.0000      -0.093244        -2.5373
 269   0.0000      -0.064717        -1.7610
 270   0.0000      -0.056890        -1.5481
 271   0.0000      -0.033700        -0.9170

MULLIKEN ATOMIC CHARGES
-----------------------
   0 C :   -0.095799
   1 C :    0.043632
   2 C :   -0.020805
   3 C :   -0.109924
   4 S :    0.167173
   5 C :   -0.086712
   6 C :    0.016130
   7 C :    0.312048
   8 C :   -0.297459
   9 C :   -0.206849
  10 N :    0.181162
  11 C :   -0.203384
  12 N :    0.178352
  13 C :   -0.052764
  14 C :   -0.061337
  15 S :    0.146600
  16 C :   -0.012662
  17 C :   -0.105024
  18 C :    0.061823
  19 C :    0.050496
  20 C :   -0.119251
  21 S :    0.131723
  22 C :   -0.101687
  23 C :    0.050276
  24 C :    0.015460
  25 C :   -0.079576
  26 S :    0.143841
  27 C :    0.045225
  28 C :   -0.018907
  29 C :   -0.035614
  30 C :    0.112139
  31 C :    0.027815
  32 F :   -0.163103
  33 S :    0.104491
  34 C :    0.033338
  35 F :   -0.162087
  36 C :    0.106553
  37 C :   -0.021264
  38 C :    0.050518
  39 C :   -0.108690
  40 C :   -0.036012
  41 C :    0.036727
  42 C :    0.083535
  43 C :   -0.151215
  44 S :    0.135872
  45 C :   -0.108476
  46 C :    0.033342
  47 C :    0.018458
  48 C :   -0.083800
  49 S :    0.130605
  50 C :    0.059422
  51 C :    0.006194
  52 C :    0.009164
  53 C :   -0.086931
  54 C :   -0.021726
  55 C :   -0.006336
  56 C :   -0.100519
  57 S :    0.167490
  58 C :   -0.098302
  59 C :   -0.055239
  60 C :    0.309639
  61 C :   -0.334037
  62 C :   -0.193910
  63 N :    0.174661
  64 C :   -0.205188
  65 N :    0.184836
  66 C :    0.054177
  67 C :   -0.090065
  68 S :    0.185398
  69 H :    0.028982
  70 H :    0.009079
  71 H :    0.017085
  72 H :   -0.011672
  73 H :    0.039520
  74 H :   -0.021413
  75 H :    0.022906
  76 H :   -0.012522
  77 H :   -0.032056
  78 H :   -0.009873
  79 H :   -0.010066
  80 H :   -0.027636
  81 H :    0.032898
  82 H :   -0.003822
  83 H :    0.037479
  84 H :   -0.012475
  85 H :   -0.014358
  86 H :    0.004468
  87 H :    0.003948
  88 H :    0.025871
Sum of atomic charges:   -0.0000000

LOEWDIN ATOMIC CHARGES
----------------------
   0 C :   -0.187386
   1 C :   -0.035084
   2 C :   -0.071951
   3 C :   -0.181672
   4 S :    0.472325
   5 C :   -0.175069
   6 C :   -0.064249
   7 C :    0.085758
   8 C :   -0.101589
   9 C :   -0.017522
  10 N :   -0.035964
  11 C :   -0.014573
  12 N :   -0.044384
  13 C :   -0.039327
  14 C :   -0.175848
  15 S :    0.489104
  16 C :   -0.179196
  17 C :   -0.039108
  18 C :   -0.023742
  19 C :   -0.049588
  20 C :   -0.138387
  21 S :    0.480176
  22 C :   -0.203098
  23 C :   -0.046150
  24 C :   -0.068102
  25 C :   -0.168829
  26 S :    0.440435
  27 C :   -0.056600
  28 C :   -0.006510
  29 C :   -0.045549
  30 C :   -0.084350
  31 C :   -0.086000
  32 F :   -0.051136
  33 S :    0.421386
  34 C :   -0.082290
  35 F :   -0.050136
  36 C :   -0.090298
  37 C :   -0.019895
  38 C :   -0.037032
  39 C :   -0.181519
  40 C :   -0.029084
  41 C :   -0.023075
  42 C :   -0.051080
  43 C :   -0.144109
  44 S :    0.446466
  45 C :   -0.202863
  46 C :   -0.044613
  47 C :   -0.067664
  48 C :   -0.156477
  49 S :    0.429075
  50 C :   -0.055409
  51 C :   -0.004707
  52 C :   -0.067189
  53 C :   -0.158389
  54 C :   -0.044709
  55 C :   -0.068876
  56 C :   -0.189751
  57 S :    0.473717
  58 C :   -0.170997
  59 C :   -0.089809
  60 C :    0.086136
  61 C :   -0.119621
  62 C :   -0.019595
  63 N :   -0.039727
  64 C :   -0.025105
  65 N :   -0.035462
  66 C :   -0.038061
  67 C :   -0.184474
  68 S :    0.486422
  69 H :    0.024531
  70 H :    0.039369
  71 H :    0.034361
  72 H :    0.022849
  73 H :    0.035788
  74 H :    0.029309
  75 H :    0.021247
  76 H :    0.026413
  77 H :    0.017080
  78 H :    0.025383
  79 H :    0.025523
  80 H :    0.024131
  81 H :    0.034032
  82 H :    0.034207
  83 H :    0.027092
  84 H :    0.029784
  85 H :    0.024832
  86 H :    0.034148
  87 H :    0.038976
  88 H :    0.022922

  Mayer bond orders larger than 0.100000
B(  0-C ,  1-C ) :   1.5386 B(  0-C ,  4-S ) :   1.1412 B(  0-C , 69-H ) :   0.9652
B(  1-C ,  2-C ) :   1.2801 B(  1-C , 70-H ) :   0.9939 B(  2-C ,  3-C ) :   1.4611
B(  2-C ,  7-C ) :   1.0216 B(  3-C ,  4-S ) :   1.1307 B(  3-C ,  5-C ) :   1.1868
B(  5-C ,  6-C ) :   1.4794 B(  5-C , 15-S ) :   1.1142 B(  6-C ,  7-C ) :   0.9984
B(  6-C , 13-C ) :   1.3010 B(  7-C ,  8-C ) :   1.7258 B(  8-C ,  9-C ) :   1.1271
B(  8-C , 11-C ) :   1.1387 B(  9-C , 10-N ) :   2.9789 B( 11-C , 12-N ) :   2.9919
B( 13-C , 14-C ) :   1.4587 B( 13-C , 71-H ) :   0.9850 B( 14-C , 15-S ) :   1.1109
B( 14-C , 16-C ) :   1.1327 B( 16-C , 17-C ) :   1.5313 B( 16-C , 21-S ) :   1.0629
B( 17-C , 18-C ) :   1.2269 B( 17-C , 72-H ) :   0.9515 B( 18-C , 19-C ) :   1.0555
B( 18-C , 27-C ) :   1.4201 B( 19-C , 20-C ) :   1.6122 B( 19-C , 22-C ) :   1.1791
B( 20-C , 21-S ) :   1.1427 B( 20-C , 73-H ) :   0.9331 B( 22-C , 23-C ) :   1.4356
B( 22-C , 26-S ) :   1.0844 B( 23-C , 24-C ) :   1.2198 B( 23-C , 27-C ) :   1.0920
B( 24-C , 25-C ) :   1.5707 B( 24-C , 74-H ) :   0.9988 B( 25-C , 26-S ) :   1.1636
B( 25-C , 75-H ) :   0.9674 B( 27-C , 28-C ) :   1.1087 B( 28-C , 29-C ) :   1.7045
B( 28-C , 76-H ) :   0.9669 B( 29-C , 30-C ) :   1.0952 B( 29-C , 77-H ) :   0.9570
B( 30-C , 31-C ) :   1.4560 B( 30-C , 36-C ) :   1.1392 B( 31-C , 32-F ) :   1.1019
B( 31-C , 33-S ) :   1.1099 B( 33-S , 34-C ) :   1.1195 B( 34-C , 35-F ) :   1.1118
B( 34-C , 36-C ) :   1.4557 B( 36-C , 37-C ) :   1.0919 B( 37-C , 38-C ) :   1.7503
B( 37-C , 78-H ) :   0.9473 B( 38-C , 39-C ) :   1.0717 B( 38-C , 79-H ) :   0.9716
B( 39-C , 40-C ) :   1.5606 B( 39-C , 44-S ) :   1.0467 B( 40-C , 41-C ) :   1.2345
B( 40-C , 80-H ) :   0.9438 B( 41-C , 42-C ) :   1.0746 B( 41-C , 50-C ) :   1.3982
B( 42-C , 43-C ) :   1.5907 B( 42-C , 45-C ) :   1.1774 B( 43-C , 44-S ) :   1.1391
B( 43-C , 81-H ) :   0.9370 B( 45-C , 46-C ) :   1.4346 B( 45-C , 49-S ) :   1.0671
B( 46-C , 47-C ) :   1.2296 B( 46-C , 50-C ) :   1.0968 B( 47-C , 48-C ) :   1.5612
B( 47-C , 82-H ) :   0.9980 B( 48-C , 49-S ) :   1.1543 B( 48-C , 83-H ) :   0.9644
B( 50-C , 51-C ) :   1.1646 B( 51-C , 52-C ) :   1.6703 B( 51-C , 84-H ) :   0.9455
B( 52-C , 53-C ) :   1.1145 B( 52-C , 85-H ) :   0.9523 B( 53-C , 54-C ) :   1.4524
B( 53-C , 57-S ) :   1.1126 B( 54-C , 55-C ) :   1.2986 B( 54-C , 86-H ) :   0.9898
B( 55-C , 56-C ) :   1.4639 B( 55-C , 60-C ) :   0.9807 B( 56-C , 57-S ) :   1.1171
B( 56-C , 58-C ) :   1.1966 B( 58-C , 59-C ) :   1.4435 B( 58-C , 68-S ) :   1.1519
B( 59-C , 60-C ) :   1.0280 B( 59-C , 66-C ) :   1.2748 B( 60-C , 61-C ) :   1.6933
B( 61-C , 62-C ) :   1.1299 B( 61-C , 64-C ) :   1.1394 B( 62-C , 63-N ) :   3.0049
B( 64-C , 65-N ) :   2.9894 B( 66-C , 67-C ) :   1.5429 B( 66-C , 87-H ) :   0.9981
B( 67-C , 68-S ) :   1.1448 B( 67-C , 88-H ) :   0.9650

-----------------------------------------------------------------------------
         ABSORPTION SPECTRUM VIA TRANSITION ELECTRIC DIPOLE MOMENTS
-----------------------------------------------------------------------------
State   Energy  Wavelength   fosc         T2         TX        TY        TZ
        (cm-1)    (nm)                  (au**2)     (au)      (au)      (au)
-----------------------------------------------------------------------------
   0    8864.5   1128.1   0.009070836   0.33688   0.47890   0.16286   0.28462
   1    9638.3   1037.5   0.036319696   1.24055  -1.02522  -0.41668   0.12596
   2   13113.4    762.6   0.032695479   0.82082   0.75921   0.44772  -0.20971
   3   13425.7    744.8   0.055104561   1.35122  -1.11745  -0.02390  -0.31930
   4   16282.5    614.2   0.083303530   1.68430   0.13420   0.85349  -0.96842
   5   17915.2    558.2   0.133257366   2.44875  -0.97430  -1.16218   0.38581
   6   19220.9    520.3   0.022096507   0.37846  -0.40559   0.31020   0.34313
   7   19347.0    516.9   0.044509867   0.75739   0.77557   0.03237   0.39348
   8   19708.0    507.4   0.075679510   1.26419   0.95218   0.56410   0.19831
   9   20031.4    499.2   0.008213564   0.13499   0.07694   0.10948  -0.34217
  10   20828.9    480.1   0.039074297   0.61759   0.50674  -0.08939   0.59398
  11   21259.9    470.4   0.036804678   0.56993   0.36025   0.32594  -0.57785
  12   21493.2    465.3   0.125637202   1.92439  -0.12384   0.92489  -1.02646
  13   22527.1    443.9   0.025111654   0.36698   0.50167  -0.33952  -0.00607
  14   23692.2    422.1   0.131043370   1.82090  -0.65602   0.37287  -1.11870
  15   25126.7    398.0   0.011098339   0.14541  -0.11034   0.29990  -0.20808
  16   26172.5    382.1   0.110580454   1.39094  -0.65760   0.70644  -0.67782
  17   26603.2    375.9   0.001709892   0.02116  -0.06158   0.10924  -0.07371
  18   26860.9    372.3   0.142278602   1.74379   0.69477  -0.63446   0.92658
  19   27511.2    363.5   0.260817403   3.12106  -1.67613  -0.48416  -0.27790
  20   27554.0    362.9   0.110334540   1.31826  -0.54292  -0.58047   0.82859
  21   27874.2    358.8   0.061209339   0.72292   0.77177  -0.30440   0.18609
  22   28110.0    355.7   0.128458788   1.50445  -1.10378   0.00316  -0.53490
  23   28291.7    353.5   0.059950017   0.69760   0.83185   0.06179  -0.04253
  24   28474.9    351.2   0.006401475   0.07401  -0.07947  -0.26001  -0.00956
  25   28732.5    348.0   0.353388817   4.04906  -1.94659   0.08741  -0.50219
  26   29530.3    338.6   0.073572423   0.82021  -0.67757   0.53609  -0.27151
  27   29899.0    334.5   0.076405224   0.84128   0.08288  -0.42980   0.80603
  28   30621.9    326.6   0.023741350   0.25524  -0.14993   0.19988  -0.43910
  29   30898.6    323.6   0.038780410   0.41319  -0.40906   0.38036  -0.31811
  30   31153.7    321.0   0.009317069   0.09846  -0.17021   0.24410   0.09950
  31   31320.2    319.3   0.828676204   8.71036   2.61005   0.81958  -1.10737
  32   31573.1    316.7   0.321542098   3.35271   0.41062   0.54872  -1.69794
  33   31927.6    313.2   0.087235571   0.89950   0.40155  -0.26527   0.81725
  34   32244.3    310.1   0.189033060   1.93002   1.24119  -0.45382   0.42837
  35   32410.5    308.5   0.339126561   3.44471  -1.58775   0.52361  -0.80596
  36   32637.5    306.4   0.050637349   0.51078   0.06440  -0.03266  -0.71103
  37   33089.0    302.2   0.075552235   0.75169  -0.69765  -0.12674   0.49891
  38   33283.4    300.4   0.029086027   0.28769  -0.52269   0.09254   0.07699
  39   33802.1    295.8   0.011616022   0.11313  -0.05250   0.32203  -0.08169
  40   33974.1    294.3   0.288897770   2.79944   0.98507  -0.67454   1.17221
  41   34186.8    292.5   0.214333859   2.06399   0.72814   0.87302  -0.87843
  42   34333.8    291.3   0.234798728   2.25138   1.38182  -0.38824   0.43730
  43   34524.8    289.6   0.058773153   0.56043   0.20128  -0.12428   0.71026
  44   34737.6    287.9   0.158443855   1.50159   0.25157  -0.69948   0.97418
  45   34880.2    286.7   0.027077214   0.25556  -0.19898  -0.31668   0.34013
  46   34968.0    286.0   0.232315937   2.18718   1.14834   0.75023  -0.55285
  47   35342.1    282.9   0.285473106   2.65919   1.14775   0.71620  -0.91045
  48   35447.3    282.1   0.284839613   2.64541  -1.21260   0.35058  -1.02572
  49   35742.2    279.8   0.411602319   3.79116  -1.17501   0.75720  -1.35542
  50   35952.3    278.1   0.157328210   1.44064   1.12722   0.36126  -0.19874
  51   36289.2    275.6   0.019680236   0.17854  -0.00630   0.36398  -0.21451
  52   36631.3    273.0   0.061628617   0.55387   0.35341  -0.53570   0.37681
  53   36697.6    272.5   0.090807811   0.81463   0.74906  -0.25894   0.43185
  54   36850.4    271.4   0.169116437   1.51084  -0.38922   0.65606  -0.96382
  55   36999.0    270.3   0.147270312   1.31039  -1.00516   0.15933  -0.52408
  56   37230.3    268.6   0.112531983   0.99507  -0.09965   0.78632  -0.60567
  57   37331.2    267.9   0.172860311   1.52440  -0.24686   0.97812  -0.71186
  58   37669.0    265.5   0.169968563   1.48546   1.10245  -0.08109   0.51331
  59   37887.4    263.9   0.024973217   0.21700   0.40429  -0.19042   0.13149
  60   38042.3    262.9   0.006686251   0.05786   0.22718  -0.07303  -0.03031
  61   38358.0    260.7   0.037824741   0.32464  -0.27988  -0.33866   0.36279
  62   38473.0    259.9   0.000981768   0.00840   0.08779   0.01375  -0.02246
  63   38756.7    258.0   0.052596409   0.44677   0.61982   0.14042  -0.20706
  64   39063.5    256.0   0.075575038   0.63692  -0.77695   0.07203  -0.16756
  65   39465.5    253.4   0.007274820   0.06068  -0.11725  -0.10428  -0.18990
  66   39788.6    251.3   0.005844147   0.04835   0.03452   0.17825  -0.12405
  67   39961.0    250.2   0.128298155   1.05696  -0.00998  -0.59648   0.83730
  68   39984.3    250.1   0.061443959   0.50590  -0.70686  -0.07546   0.02343

FINAL SINGLE POINT ENERGY     -6067.716116893011

DIPOLE MOMENT
-------------
                                X             Y             Z
Electronic contribution:      0.12278     -13.72036      11.82525
Nuclear contribution   :     -0.31367      11.68535      -8.87567
                        -----------------------------------------
Total Dipole Moment    :     -0.19088      -2.03501       2.94958
                        -----------------------------------------
Magnitude (a.u.)       :      3.58855
Magnitude (Debye)      :      9.12138

Rotational constants in cm-1:     0.001368     0.000804     0.000585
Rotational constants in MHz :    41.018255    24.111920    17.534461

                             ****ORCA TERMINATED NORMALLY****
TOTAL RUN TIME: 0 days 0 hours 12 minutes 51 seconds 971 msec
