                         Program Version 4.2.0 -  RELEASE  -
|  1> # ORCA input file
|  2> # SCF done       -181.688016644125          0.000578926335
|  3> ! CAM-B3LYP def2-SVP def2/J RIJCOSX Grid4 TightSCF
|  4> %maxcore 5000
|  5> %tddft
|  6>     Mode sTDDFT
|  7>     Ethresh 5.0
|  8>     maxcore 5000
|  9> end
| 10>
| 11> %pal
| 12>   nprocs 6
| 13>   end
| 14> * xyz 0 1
| 15>    C        0.16121         1.36734         1.67799
| 16>    C        1.48436         1.70712         1.70801
| 17>    F        1.85124         2.96381         1.99890
| 18>    C        2.47801         0.74643         1.43511
| 19>    F        3.76917         1.10854         1.47098
| 20>    C        2.13467        -0.54205         1.13618
| 21>    C        0.77959        -0.92350         1.09756
| 22>    C       -0.22652         0.04679         1.37370
| 23>    C       -1.59335        -0.31334         1.34220
| 24>    C       -1.94179        -1.60452         1.04501
| 25>    C       -0.93101        -2.56430         0.76614
| 26>    C        0.39574        -2.24749         0.78821
| 27>    C       -1.55759        -3.87107         0.46705
| 28>    O       -0.96596        -4.89512         0.19956
| 29>    C       -3.01616        -3.63072         0.52130
| 30>    C       -3.24187        -2.26119         0.93767
| 31>    C       -4.44833        -1.68360         1.24521
| 32>    C       -5.69835        -2.33632         1.22030
| 33>    N       -6.75095        -2.79668         1.24404
| 34>    C       -4.59556        -0.34781         1.67152
| 35>    N       -4.77933         0.72975         2.02335
| 36>    C       -3.99758        -4.47610         0.07525
| 37>    C       -3.91073        -5.83895        -0.27982
| 38>    C       -3.05065        -6.80887         0.20025
| 39>    C       -3.48243        -8.07848        -0.28906
| 40>    C       -2.86188        -9.30503        -0.02592
| 41>    N       -2.38127       -10.32407         0.19847
| 42>    C       -4.62736        -7.90567        -1.04981
| 43>    C       -4.93536        -6.52062        -1.08542
| 44>    C       -5.92997        -5.91011        -1.83704
| 45>    C       -7.16998        -6.56106        -2.34910
| 46>    C       -7.77852        -5.65858        -3.19596
| 47>    C       -7.00166        -4.46740        -3.21657
| 48>    C       -5.90509        -4.60946        -2.37143
| 49>    C       -7.29950        -3.33803        -3.98892
| 50>    N       -7.54696        -2.41922        -4.63197
| 51>    C       -7.65067        -7.80652        -1.90696
| 52>    C       -8.69835        -8.48313        -2.47124
| 53>    C       -9.14325        -9.74994        -2.05601
| 54>    N      -10.15357       -10.40797        -2.73128
| 55>    C      -10.34963       -11.62051        -2.15332
| 56>    C      -11.07743       -12.79547        -2.22697
| 57>    C      -10.60896       -13.61455        -1.18252
| 58>    N       -9.62410       -12.94514        -0.48636
| 59>    C       -9.43670       -11.72849        -1.06207
| 60>    C       -8.68639       -10.56918        -1.00042
| 61>    C      -11.04122       -14.92911        -0.89861
| 62>    C      -10.59821       -15.71001         0.12198
| 63>    C      -10.99608       -17.05591         0.36980
| 64>    C      -10.49139       -17.74788         1.47024
| 65>    C      -10.80639       -19.06611         1.75305
| 66>    C      -11.65610       -19.84190         0.96533
| 67>    C      -12.20702       -19.17676        -0.16962
| 68>    C      -11.88332       -17.79954        -0.45854
| 69>    N      -12.49409       -17.36930        -1.55930
| 70>    S      -13.38183       -18.55716        -2.17879
| 71>    N      -13.03695       -19.68112        -1.08133
| 72>    C      -11.93172       -21.21885         1.27615
| 73>    C      -12.80046       -21.99900         0.55414
| 74>    C      -13.08272       -23.34354         0.79671
| 75>    C      -12.51465       -24.03874         1.96268
| 76>    C      -11.63216       -23.47497         2.81370
| 77>    S      -11.05125       -21.87067         2.66407
| 78>    C      -13.09072       -25.33655         1.94844
| 79>    C      -13.94899       -25.45003         0.85041
| 80>    C      -14.54843       -26.72895         0.77601
| 81>    C      -14.14350       -27.52982         1.79409
| 82>    S      -13.02048       -26.77713         2.88095
| 83>    C      -13.93832       -24.22087         0.11293
| 84>    C      -14.69187       -24.03094        -1.09613
| 85>    C      -14.44679       -23.15475        -2.07094
| 86>    H       -0.58708         2.11500         1.89014
| 87>    H        2.90698        -1.26622         0.92900
| 88>    H       -2.33043         0.44551         1.54909
| 89>    H        1.14186        -2.99708         0.57215
| 90>    H       -4.98625        -4.04931        -0.04199
| 91>    H       -2.22240        -6.66302         0.86473
| 92>    H       -5.11343        -8.67686        -1.61734
| 93>    H       -8.70559        -5.78163        -3.72256
| 94>    H       -5.11652        -3.88979        -2.26230
| 95>    H       -7.15188        -8.25428        -1.06112
| 96>    H       -9.20527        -8.04907        -3.32263
| 97>    H      -10.63957       -10.03542        -3.52887
| 98>    H      -11.84561       -13.06596        -2.92273
| 99>    H       -9.11597       -13.31890         0.29550
|100>    H       -7.91179       -10.31982        -0.30440
|101>    H      -11.78010       -15.33591        -1.57244
|102>    H       -9.87608       -15.31809         0.82828
|103>    H       -9.81678       -17.22967         2.13636
|104>    H      -10.36358       -19.51277         2.63057
|105>    H      -13.31505       -21.50773        -0.25676
|106>    H      -11.21541       -24.00393         3.65660
|107>    H      -15.23954       -27.04248         0.01470
|108>    H      -14.43398       -28.54371         1.98909
|109>    H      -15.51938       -24.72137        -1.21325
|110>    H      -13.60790       -22.48246        -2.05599
|111>    H      -15.07985       -23.10639        -2.94050
|112> *
|113>
|114>                          ****END OF INPUT****

CARTESIAN COORDINATES (ANGSTROEM)
---------------------------------
  C      0.161210    1.367340    1.677990
  C      1.484360    1.707120    1.708010
  F      1.851240    2.963810    1.998900
  C      2.478010    0.746430    1.435110
  F      3.769170    1.108540    1.470980
  C      2.134670   -0.542050    1.136180
  C      0.779590   -0.923500    1.097560
  C     -0.226520    0.046790    1.373700
  C     -1.593350   -0.313340    1.342200
  C     -1.941790   -1.604520    1.045010
  C     -0.931010   -2.564300    0.766140
  C      0.395740   -2.247490    0.788210
  C     -1.557590   -3.871070    0.467050
  O     -0.965960   -4.895120    0.199560
  C     -3.016160   -3.630720    0.521300
  C     -3.241870   -2.261190    0.937670
  C     -4.448330   -1.683600    1.245210
  C     -5.698350   -2.336320    1.220300
  N     -6.750950   -2.796680    1.244040
  C     -4.595560   -0.347810    1.671520
  N     -4.779330    0.729750    2.023350
  C     -3.997580   -4.476100    0.075250
  C     -3.910730   -5.838950   -0.279820
  C     -3.050650   -6.808870    0.200250
  C     -3.482430   -8.078480   -0.289060
  C     -2.861880   -9.305030   -0.025920
  N     -2.381270  -10.324070    0.198470
  C     -4.627360   -7.905670   -1.049810
  C     -4.935360   -6.520620   -1.085420
  C     -5.929970   -5.910110   -1.837040
  C     -7.169980   -6.561060   -2.349100
  C     -7.778520   -5.658580   -3.195960
  C     -7.001660   -4.467400   -3.216570
  C     -5.905090   -4.609460   -2.371430
  C     -7.299500   -3.338030   -3.988920
  N     -7.546960   -2.419220   -4.631970
  C     -7.650670   -7.806520   -1.906960
  C     -8.698350   -8.483130   -2.471240
  C     -9.143250   -9.749940   -2.056010
  N    -10.153570  -10.407970   -2.731280
  C    -10.349630  -11.620510   -2.153320
  C    -11.077430  -12.795470   -2.226970
  C    -10.608960  -13.614550   -1.182520
  N     -9.624100  -12.945140   -0.486360
  C     -9.436700  -11.728490   -1.062070
  C     -8.686390  -10.569180   -1.000420
  C    -11.041220  -14.929110   -0.898610
  C    -10.598210  -15.710010    0.121980
  C    -10.996080  -17.055910    0.369800
  C    -10.491390  -17.747880    1.470240
  C    -10.806390  -19.066110    1.753050
  C    -11.656100  -19.841900    0.965330
  C    -12.207020  -19.176760   -0.169620
  C    -11.883320  -17.799540   -0.458540
  N    -12.494090  -17.369300   -1.559300
  S    -13.381830  -18.557160   -2.178790
  N    -13.036950  -19.681120   -1.081330
  C    -11.931720  -21.218850    1.276150
  C    -12.800460  -21.999000    0.554140
  C    -13.082720  -23.343540    0.796710
  C    -12.514650  -24.038740    1.962680
  C    -11.632160  -23.474970    2.813700
  S    -11.051250  -21.870670    2.664070
  C    -13.090720  -25.336550    1.948440
  C    -13.948990  -25.450030    0.850410
  C    -14.548430  -26.728950    0.776010
  C    -14.143500  -27.529820    1.794090
  S    -13.020480  -26.777130    2.880950
  C    -13.938320  -24.220870    0.112930
  C    -14.691870  -24.030940   -1.096130
  C    -14.446790  -23.154750   -2.070940
  H     -0.587080    2.115000    1.890140
  H      2.906980   -1.266220    0.929000
  H     -2.330430    0.445510    1.549090
  H      1.141860   -2.997080    0.572150
  H     -4.986250   -4.049310   -0.041990
  H     -2.222400   -6.663020    0.864730
  H     -5.113430   -8.676860   -1.617340
  H     -8.705590   -5.781630   -3.722560
  H     -5.116520   -3.889790   -2.262300
  H     -7.151880   -8.254280   -1.061120
  H     -9.205270   -8.049070   -3.322630
  H    -10.639570  -10.035420   -3.528870
  H    -11.845610  -13.065960   -2.922730
  H     -9.115970  -13.318900    0.295500
  H     -7.911790  -10.319820   -0.304400
  H    -11.780100  -15.335910   -1.572440
  H     -9.876080  -15.318090    0.828280
  H     -9.816780  -17.229670    2.136360
  H    -10.363580  -19.512770    2.630570
  H    -13.315050  -21.507730   -0.256760
  H    -11.215410  -24.003930    3.656600
  H    -15.239540  -27.042480    0.014700
  H    -14.433980  -28.543710    1.989090
  H    -15.519380  -24.721370   -1.213250
  H    -13.607900  -22.482460   -2.055990
  H    -15.079850  -23.106390   -2.940500

 Total Charge           Charge          ....    0
 Multiplicity           Mult            ....    1
 Number of Electrons    NEL             ....  498
 Basis Dimension        Dim             .... 1136

ORBITAL ENERGIES
----------------

  NO   OCC          E(Eh)            E(eV)
   0   2.0000     -89.034103     -2422.7411
   1   2.0000     -88.967224     -2420.9212
   2   2.0000     -88.952951     -2420.5329
   3   2.0000     -24.793355      -674.6615
   4   2.0000     -24.792179      -674.6295
   5   2.0000     -19.211483      -522.7710
   6   2.0000     -14.480631      -394.0380
   7   2.0000     -14.475903      -393.9093
   8   2.0000     -14.449765      -393.1981
   9   2.0000     -14.449365      -393.1872
  10   2.0000     -14.411357      -392.1530
  11   2.0000     -14.410072      -392.1180
  12   2.0000     -14.409076      -392.0909
  13   2.0000     -14.403200      -391.9310
  14   2.0000     -10.376363      -282.3552
  15   2.0000     -10.375509      -282.3320
  16   2.0000     -10.363159      -281.9959
  17   2.0000     -10.336172      -281.2615
  18   2.0000     -10.335835      -281.2524
  19   2.0000     -10.335263      -281.2368
  20   2.0000     -10.334155      -281.2067
  21   2.0000     -10.330851      -281.1168
  22   2.0000     -10.329869      -281.0900
  23   2.0000     -10.323451      -280.9154
  24   2.0000     -10.323011      -280.9034
  25   2.0000     -10.321136      -280.8524
  26   2.0000     -10.318977      -280.7936
  27   2.0000     -10.318607      -280.7836
  28   2.0000     -10.315677      -280.7038
  29   2.0000     -10.314227      -280.6644
  30   2.0000     -10.313099      -280.6337
  31   2.0000     -10.312339      -280.6130
  32   2.0000     -10.310870      -280.5730
  33   2.0000     -10.310868      -280.5730
  34   2.0000     -10.309575      -280.5378
  35   2.0000     -10.309034      -280.5231
  36   2.0000     -10.308109      -280.4979
  37   2.0000     -10.305026      -280.4140
  38   2.0000     -10.304692      -280.4049
  39   2.0000     -10.303282      -280.3666
  40   2.0000     -10.302368      -280.3417
  41   2.0000     -10.301444      -280.3166
  42   2.0000     -10.301036      -280.3054
  43   2.0000     -10.298370      -280.2329
  44   2.0000     -10.296915      -280.1933
  45   2.0000     -10.296507      -280.1822
  46   2.0000     -10.296127      -280.1719
  47   2.0000     -10.296021      -280.1690
  48   2.0000     -10.295967      -280.1675
  49   2.0000     -10.295256      -280.1482
  50   2.0000     -10.294613      -280.1307
  51   2.0000     -10.294561      -280.1292
  52   2.0000     -10.293208      -280.0924
  53   2.0000     -10.292989      -280.0865
  54   2.0000     -10.291720      -280.0520
  55   2.0000     -10.291676      -280.0507
  56   2.0000     -10.290662      -280.0231
  57   2.0000     -10.288588      -279.9667
  58   2.0000     -10.287225      -279.9296
  59   2.0000     -10.286834      -279.9190
  60   2.0000     -10.283564      -279.8300
  61   2.0000     -10.282813      -279.8096
  62   2.0000     -10.281641      -279.7777
  63   2.0000     -10.278088      -279.6810
  64   2.0000     -10.276019      -279.6247
  65   2.0000     -10.275325      -279.6058
  66   2.0000     -10.271766      -279.5090
  67   2.0000     -10.270733      -279.4809
  68   2.0000     -10.270478      -279.4739
  69   2.0000     -10.267791      -279.4008
  70   2.0000     -10.259083      -279.1638
  71   2.0000      -8.125946      -221.1182
  72   2.0000      -8.062597      -219.3944
  73   2.0000      -8.048358      -219.0070
  74   2.0000      -6.097315      -165.9164
  75   2.0000      -6.089386      -165.7006
  76   2.0000      -6.088175      -165.6677
  77   2.0000      -6.032167      -164.1436
  78   2.0000      -6.027667      -164.0212
  79   2.0000      -6.024444      -163.9335
  80   2.0000      -6.017825      -163.7534
  81   2.0000      -6.013577      -163.6378
  82   2.0000      -6.010355      -163.5501
  83   2.0000      -1.315139       -35.7868
  84   2.0000      -1.300293       -35.3828
  85   2.0000      -1.134775       -30.8788
  86   2.0000      -1.126653       -30.6578
  87   2.0000      -1.112163       -30.2635
  88   2.0000      -1.075023       -29.2529
  89   2.0000      -1.014051       -27.5937
  90   2.0000      -1.008407       -27.4402
  91   2.0000      -1.001043       -27.2398
  92   2.0000      -0.998594       -27.1731
  93   2.0000      -0.997264       -27.1369
  94   2.0000      -0.991595       -26.9827
  95   2.0000      -0.988106       -26.8877
  96   2.0000      -0.984424       -26.7875
  97   2.0000      -0.979689       -26.6587
  98   2.0000      -0.976366       -26.5683
  99   2.0000      -0.972107       -26.4524
 100   2.0000      -0.957641       -26.0587
 101   2.0000      -0.926545       -25.2126
 102   2.0000      -0.923047       -25.1174
 103   2.0000      -0.921645       -25.0792
 104   2.0000      -0.911897       -24.8140
 105   2.0000      -0.899357       -24.4727
 106   2.0000      -0.894246       -24.3337
 107   2.0000      -0.887570       -24.1520
 108   2.0000      -0.886423       -24.1208
 109   2.0000      -0.879059       -23.9204
 110   2.0000      -0.878744       -23.9118
 111   2.0000      -0.871018       -23.7016
 112   2.0000      -0.869751       -23.6671
 113   2.0000      -0.858826       -23.3699
 114   2.0000      -0.850442       -23.1417
 115   2.0000      -0.835226       -22.7276
 116   2.0000      -0.834262       -22.7014
 117   2.0000      -0.829879       -22.5822
 118   2.0000      -0.824804       -22.4440
 119   2.0000      -0.803373       -21.8609
 120   2.0000      -0.796687       -21.6790
 121   2.0000      -0.786769       -21.4091
 122   2.0000      -0.783679       -21.3250
 123   2.0000      -0.770946       -20.9785
 124   2.0000      -0.761288       -20.7157
 125   2.0000      -0.754086       -20.5197
 126   2.0000      -0.742916       -20.2158
 127   2.0000      -0.736566       -20.0430
 128   2.0000      -0.727873       -19.8064
 129   2.0000      -0.718763       -19.5585
 130   2.0000      -0.716833       -19.5060
 131   2.0000      -0.714037       -19.4299
 132   2.0000      -0.713091       -19.4042
 133   2.0000      -0.709894       -19.3172
 134   2.0000      -0.707470       -19.2512
 135   2.0000      -0.703509       -19.1435
 136   2.0000      -0.693516       -18.8715
 137   2.0000      -0.680993       -18.5308
 138   2.0000      -0.674526       -18.3548
 139   2.0000      -0.669855       -18.2277
 140   2.0000      -0.665074       -18.0976
 141   2.0000      -0.652020       -17.7424
 142   2.0000      -0.649510       -17.6741
 143   2.0000      -0.644045       -17.5253
 144   2.0000      -0.636762       -17.3272
 145   2.0000      -0.635280       -17.2868
 146   2.0000      -0.630802       -17.1650
 147   2.0000      -0.630144       -17.1471
 148   2.0000      -0.625425       -17.0187
 149   2.0000      -0.622661       -16.9435
 150   2.0000      -0.613319       -16.6893
 151   2.0000      -0.606852       -16.5133
 152   2.0000      -0.605187       -16.4680
 153   2.0000      -0.598088       -16.2748
 154   2.0000      -0.588757       -16.0209
 155   2.0000      -0.586222       -15.9519
 156   2.0000      -0.585023       -15.9193
 157   2.0000      -0.580752       -15.8031
 158   2.0000      -0.580044       -15.7838
 159   2.0000      -0.573742       -15.6123
 160   2.0000      -0.570333       -15.5195
 161   2.0000      -0.563484       -15.3332
 162   2.0000      -0.560534       -15.2529
 163   2.0000      -0.559151       -15.2153
 164   2.0000      -0.558940       -15.2095
 165   2.0000      -0.556172       -15.1342
 166   2.0000      -0.553143       -15.0518
 167   2.0000      -0.549951       -14.9649
 168   2.0000      -0.548384       -14.9223
 169   2.0000      -0.541715       -14.7408
 170   2.0000      -0.536533       -14.5998
 171   2.0000      -0.534000       -14.5309
 172   2.0000      -0.531569       -14.4647
 173   2.0000      -0.529538       -14.4095
 174   2.0000      -0.526637       -14.3305
 175   2.0000      -0.523762       -14.2523
 176   2.0000      -0.520488       -14.1632
 177   2.0000      -0.516977       -14.0676
 178   2.0000      -0.515511       -14.0278
 179   2.0000      -0.513772       -13.9804
 180   2.0000      -0.510169       -13.8824
 181   2.0000      -0.508045       -13.8246
 182   2.0000      -0.506670       -13.7872
 183   2.0000      -0.504014       -13.7149
 184   2.0000      -0.502648       -13.6778
 185   2.0000      -0.501451       -13.6452
 186   2.0000      -0.497992       -13.5511
 187   2.0000      -0.496303       -13.5051
 188   2.0000      -0.492233       -13.3943
 189   2.0000      -0.490658       -13.3515
 190   2.0000      -0.488403       -13.2901
 191   2.0000      -0.485374       -13.2077
 192   2.0000      -0.484876       -13.1941
 193   2.0000      -0.480791       -13.0830
 194   2.0000      -0.478412       -13.0183
 195   2.0000      -0.477870       -13.0035
 196   2.0000      -0.476187       -12.9577
 197   2.0000      -0.473400       -12.8819
 198   2.0000      -0.468461       -12.7475
 199   2.0000      -0.466155       -12.6847
 200   2.0000      -0.463478       -12.6119
 201   2.0000      -0.460788       -12.5387
 202   2.0000      -0.459455       -12.5024
 203   2.0000      -0.457399       -12.4465
 204   2.0000      -0.456324       -12.4172
 205   2.0000      -0.451566       -12.2877
 206   2.0000      -0.444911       -12.1066
 207   2.0000      -0.442800       -12.0492
 208   2.0000      -0.441769       -12.0212
 209   2.0000      -0.440759       -11.9937
 210   2.0000      -0.439557       -11.9609
 211   2.0000      -0.438111       -11.9216
 212   2.0000      -0.436890       -11.8884
 213   2.0000      -0.432669       -11.7735
 214   2.0000      -0.431769       -11.7490
 215   2.0000      -0.426431       -11.6038
 216   2.0000      -0.424123       -11.5410
 217   2.0000      -0.422514       -11.4972
 218   2.0000      -0.420178       -11.4336
 219   2.0000      -0.416940       -11.3455
 220   2.0000      -0.415064       -11.2945
 221   2.0000      -0.412263       -11.2182
 222   2.0000      -0.408354       -11.1119
 223   2.0000      -0.404780       -11.0146
 224   2.0000      -0.403884       -10.9902
 225   2.0000      -0.401527       -10.9261
 226   2.0000      -0.400004       -10.8847
 227   2.0000      -0.394275       -10.7288
 228   2.0000      -0.392347       -10.6763
 229   2.0000      -0.390179       -10.6173
 230   2.0000      -0.380291       -10.3483
 231   2.0000      -0.379175       -10.3179
 232   2.0000      -0.368436       -10.0257
 233   2.0000      -0.356462        -9.6998
 234   2.0000      -0.350832        -9.5466
 235   2.0000      -0.347854        -9.4656
 236   2.0000      -0.344239        -9.3672
 237   2.0000      -0.335182        -9.1208
 238   2.0000      -0.325236        -8.8501
 239   2.0000      -0.322957        -8.7881
 240   2.0000      -0.315723        -8.5913
 241   2.0000      -0.312356        -8.4996
 242   2.0000      -0.309482        -8.4214
 243   2.0000      -0.297840        -8.1046
 244   2.0000      -0.286868        -7.8061
 245   2.0000      -0.277569        -7.5530
 246   2.0000      -0.270888        -7.3712
 247   2.0000      -0.239246        -6.5102
 248   2.0000      -0.220641        -6.0040
 249   0.0000      -0.137571        -3.7435
 250   0.0000      -0.087951        -2.3933
 251   0.0000      -0.080228        -2.1831
 252   0.0000      -0.052453        -1.4273
 253   0.0000      -0.041334        -1.1247

MULLIKEN ATOMIC CHARGES
-----------------------
   0 C :   -0.106329
   1 C :    0.240705
   2 F :   -0.173047
   3 C :    0.238317
   4 F :   -0.174775
   5 C :   -0.104497
   6 C :    0.115041
   7 C :    0.111708
   8 C :   -0.081422
   9 C :    0.050480
  10 C :   -0.011470
  11 C :   -0.081274
  12 C :    0.144267
  13 O :   -0.149719
  14 C :   -0.094596
  15 C :    0.312859
  16 C :   -0.353404
  17 C :   -0.198449
  18 N :    0.154384
  19 C :   -0.182377
  20 N :    0.147959
  21 C :   -0.066292
  22 C :    0.069610
  23 C :    0.036264
  24 C :   -0.133527
  25 C :   -0.129197
  26 N :    0.130812
  27 C :   -0.030449
  28 C :    0.042536
  29 C :    0.089522
  30 C :    0.118959
  31 C :   -0.073147
  32 C :   -0.071740
  33 C :   -0.070939
  34 C :   -0.125070
  35 N :    0.144537
  36 C :   -0.054015
  37 C :    0.023896
  38 C :    0.106238
  39 N :   -0.032491
  40 C :    0.147273
  41 C :   -0.176784
  42 C :    0.103398
  43 N :   -0.036143
  44 C :    0.128352
  45 C :   -0.158220
  46 C :    0.043639
  47 C :   -0.054405
  48 C :    0.095770
  49 C :   -0.036532
  50 C :   -0.062850
  51 C :    0.121968
  52 C :    0.024829
  53 C :    0.033267
  54 N :   -0.291603
  55 S :    0.521024
  56 N :   -0.299894
  57 C :   -0.086515
  58 C :   -0.069025
  59 C :    0.048593
  60 C :    0.068627
  61 C :   -0.118546
  62 S :    0.084138
  63 C :   -0.107705
  64 C :    0.045919
  65 C :    0.011814
  66 C :   -0.069898
  67 S :    0.123333
  68 C :    0.055022
  69 C :   -0.039215
  70 C :   -0.021478
  71 H :    0.007195
  72 H :   -0.001202
  73 H :   -0.006796
  74 H :   -0.011329
  75 H :    0.033363
  76 H :    0.009038
  77 H :    0.003102
  78 H :   -0.023042
  79 H :   -0.004343
  80 H :   -0.003351
  81 H :   -0.020074
  82 H :    0.128293
  83 H :   -0.025156
  84 H :    0.131200
  85 H :   -0.015757
  86 H :    0.003566
  87 H :   -0.055463
  88 H :   -0.019223
  89 H :    0.004075
  90 H :    0.003031
  91 H :    0.032225
  92 H :   -0.018694
  93 H :    0.023815
  94 H :   -0.016555
  95 H :    0.018661
  96 H :    0.015398
Sum of atomic charges:   -0.0000000

LOEWDIN ATOMIC CHARGES
----------------------
   0 C :   -0.029275
   1 C :    0.065878
   2 F :   -0.051136
   3 C :    0.067390
   4 F :   -0.051826
   5 C :   -0.033684
   6 C :   -0.008828
   7 C :   -0.007314
   8 C :    0.017066
   9 C :   -0.023243
  10 C :   -0.050980
  11 C :    0.027576
  12 C :    0.081944
  13 O :   -0.142815
  14 C :   -0.104139
  15 C :    0.076345
  16 C :   -0.144141
  17 C :   -0.024960
  18 N :   -0.053276
  19 C :   -0.017239
  20 N :   -0.057219
  21 C :    0.077164
  22 C :   -0.061495
  23 C :    0.069090
  24 C :   -0.080663
  25 C :   -0.031805
  26 N :   -0.057126
  27 C :    0.009326
  28 C :    0.009458
  29 C :    0.055784
  30 C :    0.000511
  31 C :   -0.054880
  32 C :   -0.014234
  33 C :   -0.059295
  34 C :   -0.024217
  35 N :   -0.035679
  36 C :   -0.026442
  37 C :    0.004226
  38 C :    0.002040
  39 N :    0.073545
  40 C :    0.001105
  41 C :   -0.088929
  42 C :    0.026271
  43 N :    0.068404
  44 C :   -0.006611
  45 C :   -0.066542
  46 C :   -0.025428
  47 C :   -0.027737
  48 C :   -0.034982
  49 C :   -0.008188
  50 C :   -0.033622
  51 C :   -0.036574
  52 C :   -0.032246
  53 C :   -0.033898
  54 N :   -0.279098
  55 S :    0.641083
  56 N :   -0.276598
  57 C :   -0.173063
  58 C :   -0.005930
  59 C :   -0.030568
  60 C :   -0.052628
  61 C :   -0.138384
  62 S :    0.437570
  63 C :   -0.201247
  64 C :   -0.043331
  65 C :   -0.063233
  66 C :   -0.166824
  67 S :    0.416651
  68 C :   -0.039572
  69 C :   -0.023387
  70 C :   -0.047548
  71 H :    0.047603
  72 H :    0.044540
  73 H :    0.039738
  74 H :    0.039639
  75 H :    0.045771
  76 H :    0.036701
  77 H :    0.033191
  78 H :    0.024480
  79 H :    0.030584
  80 H :    0.030971
  81 H :    0.032243
  82 H :    0.093489
  83 H :    0.029680
  84 H :    0.091142
  85 H :    0.030691
  86 H :    0.036158
  87 H :    0.018750
  88 H :    0.031882
  89 H :    0.023088
  90 H :    0.035484
  91 H :    0.035302
  92 H :    0.029856
  93 H :    0.022249
  94 H :    0.028528
  95 H :    0.019687
  96 H :    0.022205

  Mayer bond orders larger than 0.100000
B(  0-C ,  1-C ) :   1.4419 B(  0-C ,  5-C ) :   0.1091 B(  0-C ,  7-C ) :   1.1879
B(  0-C , 71-H ) :   1.0060 B(  1-C ,  2-F ) :   1.1330 B(  1-C ,  3-C ) :   1.1931
B(  3-C ,  4-F ) :   1.1305 B(  3-C ,  5-C ) :   1.4420 B(  5-C ,  6-C ) :   1.1944
B(  5-C , 72-H ) :   1.0064 B(  6-C ,  7-C ) :   1.2576 B(  6-C , 11-C ) :   1.1863
B(  7-C ,  8-C ) :   1.2164 B(  8-C ,  9-C ) :   1.4509 B(  8-C , 73-H ) :   0.9889
B(  9-C , 10-C ) :   1.2199 B(  9-C , 15-C ) :   0.9843 B( 10-C , 11-C ) :   1.4787
B( 10-C , 12-C ) :   0.9373 B( 11-C , 74-H ) :   1.0148 B( 12-C , 13-O ) :   2.2163
B( 12-C , 14-C ) :   0.9477 B( 14-C , 15-C ) :   1.0677 B( 14-C , 21-C ) :   1.5634
B( 15-C , 16-C ) :   1.6296 B( 16-C , 17-C ) :   1.1445 B( 16-C , 19-C ) :   1.1464
B( 17-C , 18-N ) :   2.9783 B( 19-C , 20-N ) :   2.9630 B( 21-C , 22-C ) :   1.1506
B( 21-C , 75-H ) :   0.9330 B( 22-C , 23-C ) :   1.4743 B( 22-C , 28-C ) :   1.0825
B( 23-C , 24-C ) :   1.1731 B( 23-C , 76-H ) :   1.0094 B( 24-C , 25-C ) :   1.0577
B( 24-C , 27-C ) :   1.5111 B( 25-C , 26-N ) :   3.0398 B( 27-C , 28-C ) :   1.1594
B( 27-C , 77-H ) :   1.0122 B( 28-C , 29-C ) :   1.3473 B( 29-C , 30-C ) :   1.0125
B( 29-C , 33-C ) :   1.2247 B( 30-C , 31-C ) :   1.4743 B( 30-C , 36-C ) :   1.1977
B( 31-C , 32-C ) :   1.2075 B( 31-C , 78-H ) :   1.0132 B( 32-C , 33-C ) :   1.4637
B( 32-C , 34-C ) :   1.0558 B( 33-C , 79-H ) :   1.0149 B( 34-C , 35-N ) :   3.0329
B( 36-C , 37-C ) :   1.5151 B( 36-C , 80-H ) :   0.9675 B( 37-C , 38-C ) :   1.1972
B( 37-C , 81-H ) :   0.9716 B( 38-C , 39-N ) :   1.1551 B( 38-C , 45-C ) :   1.3063
B( 39-N , 40-C ) :   1.1832 B( 39-N , 82-H ) :   0.9350 B( 40-C , 41-C ) :   1.2556
B( 40-C , 44-C ) :   1.2567 B( 41-C , 42-C ) :   1.3345 B( 41-C , 83-H ) :   1.0471
B( 42-C , 43-N ) :   1.2022 B( 42-C , 46-C ) :   1.1537 B( 43-N , 44-C ) :   1.1577
B( 43-N , 84-H ) :   0.9317 B( 44-C , 45-C ) :   1.3273 B( 45-C , 85-H ) :   1.0323
B( 46-C , 47-C ) :   1.5860 B( 46-C , 86-H ) :   0.9391 B( 47-C , 48-C ) :   1.1670
B( 47-C , 87-H ) :   0.9655 B( 48-C , 49-C ) :   1.3996 B( 48-C , 51-C ) :   0.1067
B( 48-C , 53-C ) :   1.1491 B( 49-C , 50-C ) :   1.2674 B( 49-C , 88-H ) :   0.9943
B( 50-C , 51-C ) :   1.4166 B( 50-C , 89-H ) :   0.9757 B( 51-C , 52-C ) :   1.1805
B( 51-C , 57-C ) :   1.1504 B( 52-C , 53-C ) :   1.1626 B( 52-C , 56-N ) :   1.5153
B( 53-C , 54-N ) :   1.5251 B( 54-N , 55-S ) :   1.2535 B( 54-N , 56-N ) :   0.1431
B( 55-S , 56-N ) :   1.2514 B( 57-C , 58-C ) :   1.5516 B( 57-C , 62-S ) :   1.0168
B( 58-C , 59-C ) :   1.2032 B( 58-C , 90-H ) :   0.9467 B( 59-C , 60-C ) :   1.0444
B( 59-C , 68-C ) :   1.4250 B( 60-C , 61-C ) :   1.6083 B( 60-C , 63-C ) :   1.1781
B( 61-C , 62-S ) :   1.1413 B( 61-C , 91-H ) :   0.9418 B( 63-C , 64-C ) :   1.4309
B( 63-C , 67-S ) :   1.0754 B( 64-C , 65-C ) :   1.2098 B( 64-C , 68-C ) :   1.1287
B( 65-C , 66-C ) :   1.5923 B( 65-C , 92-H ) :   0.9976 B( 66-C , 67-S ) :   1.1480
B( 66-C , 93-H ) :   0.9664 B( 68-C , 69-C ) :   1.1082 B( 69-C , 70-C ) :   1.9215
B( 69-C , 94-H ) :   0.9546 B( 70-C , 95-H ) :   0.9539 B( 70-C , 96-H ) :   0.9453

-----------------------------------------------------------------------------
         ABSORPTION SPECTRUM VIA TRANSITION ELECTRIC DIPOLE MOMENTS
-----------------------------------------------------------------------------
State   Energy  Wavelength   fosc         T2         TX        TY        TZ
        (cm-1)    (nm)                  (au**2)     (au)      (au)      (au)
-----------------------------------------------------------------------------
   0    3706.1   2698.2   0.221658908  19.68966  -2.61985  -3.57931  -0.12076
   1   12314.1    812.1   0.585038256  15.64076  -1.01859  -3.73459   0.80996
   2   12863.1    777.4   0.044687232   1.14370   0.43533   0.87321   0.43784
   3   15140.5    660.5   0.414556494   9.01402  -0.80506  -2.85121   0.48633
   4   17500.4    571.4   0.364074447   6.84886  -0.74038  -2.38069   0.79561
   5   18676.1    535.4   0.024356545   0.42934  -0.00717   0.13590  -0.64096
   6   19795.9    505.2   0.119461439   1.98668  -0.46685  -1.30766   0.24238
   7   21718.9    460.4   0.007099306   0.10761   0.02295   0.32685  -0.01600
   8   21887.3    456.9   0.044018532   0.66209  -0.69808  -0.23386  -0.34653
   9   22157.8    451.3   0.060577561   0.90004   0.44194   0.80428   0.24053
  10   22629.8    441.9   0.006303286   0.09170   0.17440  -0.21829   0.11676
  11   23142.7    432.1   0.445094991   6.33160  -1.45943  -1.50027  -1.39674
  12   23906.5    418.3   0.051495799   0.70914   0.79855  -0.25739   0.07223
  13   25197.2    396.9   0.173946102   2.27268  -0.23972  -1.37632   0.56654
  14   25364.1    394.3   0.220187251   2.85791  -0.35308  -1.36838   0.92778
  15   25991.8    384.7   0.094912657   1.20217  -0.10110   1.03651  -0.34291
  16   26195.3    381.7   0.034767924   0.43695  -0.48191  -0.45101   0.03615
  17   26979.8    370.6   0.014664938   0.17894  -0.01086  -0.40366  -0.12604
  18   27189.1    367.8   0.076953842   0.93177   0.51885  -0.81365   0.02312
  19   27892.8    358.5   0.530991168   6.26715  -0.66867   2.38666  -0.35194
  20   28650.8    349.0   0.226827112   2.60636  -0.52741   1.38135  -0.64813
  21   29170.9    342.8   0.053197287   0.60036  -0.03421  -0.68634   0.35795
  22   29955.4    333.8   0.096935520   1.06533  -0.94292  -0.37384  -0.19099
  23   30198.0    331.1   0.244727720   2.66797   1.08109   1.21000   0.18741
  24   30522.9    327.6   0.061611914   0.66453   0.56037  -0.24573   0.53864
  25   31148.2    321.0   0.068132298   0.72011   0.58955  -0.24335   0.55975
  26   31320.2    319.3   0.040412903   0.42479   0.61332   0.13547  -0.17399
  27   31980.0    312.7   0.087611069   0.90190  -0.31479  -0.86633   0.22863
  28   32567.4    307.1   0.038521380   0.38940   0.50378   0.36805   0.01164
  29   32885.5    304.1   0.078123201   0.78208  -0.48412  -0.73516   0.08516
  30   33139.6    301.8   0.287143154   2.85251   0.94487   1.39677   0.09352
  31   33400.3    299.4   0.051498464   0.50760   0.47895   0.23085   0.47424
  32   33772.7    296.1   0.023282991   0.22696   0.35941   0.30198   0.08118
  33   33794.7    295.9   0.025854909   0.25187   0.37876  -0.32617   0.04491
  34   34016.8    294.0   0.002306418   0.02232   0.03394   0.05820  -0.13335
  35   34280.3    291.7   0.275506968   2.64584   0.92616   1.30799   0.27789
  36   34389.4    290.8   0.020217451   0.19354   0.00626  -0.42590  -0.11005
  37   34882.3    286.7   0.035995193   0.33971   0.15525   0.54101  -0.15141
  38   35086.6    285.0   0.006370076   0.05977   0.19980  -0.13532  -0.03922
  39   35192.2    284.2   0.278641413   2.60660  -1.60482  -0.17607  -0.01210
  40   35445.5    282.1   0.415513527   3.85922   1.89052   0.52065  -0.11870
  41   35617.7    280.8   0.208977543   1.93157  -0.89448  -0.27034  -1.02878
  42   36198.5    276.3   0.025708154   0.23381  -0.09944   0.35665   0.31100
  43   36476.1    274.2   0.044071120   0.39776   0.48140  -0.13677   0.38381
  44   37365.4    267.6   0.030299915   0.26696  -0.18271   0.48320   0.00983
  45   37659.8    265.5   0.043440991   0.37975  -0.29015  -0.48687  -0.24191
  46   37893.9    263.9   0.012863341   0.11175   0.08889  -0.16078   0.27929
  47   38415.9    260.3   0.044882554   0.38463   0.29452  -0.07084   0.54117
  48   38456.2    260.0   0.014720472   0.12602   0.15685   0.31420  -0.05189
  49   38659.9    258.7   0.005239862   0.04462   0.10108   0.13372   0.12853
  50   38938.2    256.8   0.084949248   0.71822   0.49308   0.64235   0.24998
  51   39121.9    255.6   0.012924122   0.10876   0.14710   0.05117   0.29069
  52   39307.6    254.4   0.009142019   0.07657   0.13248   0.21769   0.10783
  53   39585.7    252.6   0.026471638   0.22015   0.31678   0.27724  -0.20722
  54   39685.9    252.0   0.024253183   0.20119   0.15364  -0.41316  -0.08297
  55   39854.0    250.9   0.014581873   0.12045  -0.04599   0.27004   0.21312
  56   39931.8    250.4   0.031778954   0.26200   0.13767  -0.37398  -0.32122
  57   40061.5    249.6   0.091355536   0.75073  -0.30053   0.80575  -0.10574
  58   40294.6    248.2   0.092535847   0.75603   0.08067  -0.79703   0.33804

FINAL SINGLE POINT ENERGY     -4090.984646202262

DIPOLE MOMENT
-------------
                                X             Y             Z
Electronic contribution:     42.16358      56.16689      12.81537
Nuclear contribution   :    -44.50408     -61.15358     -13.22575
                        -----------------------------------------
Total Dipole Moment    :     -2.34050      -4.98670      -0.41038
                        -----------------------------------------
Magnitude (a.u.)       :      5.52390
Magnitude (Debye)      :     14.04065

Rotational constants in cm-1:     0.002378     0.000160     0.000153
Rotational constants in MHz :    71.278752     4.793488     4.585783

                             ****ORCA TERMINATED NORMALLY****
TOTAL RUN TIME: 0 days 0 hours 12 minutes 13 seconds 810 msec
