                         Program Version 4.2.0 -  RELEASE  -
|  1> # ORCA input file
|  2> # SCF done       -183.340700365610          0.000677106456
|  3> ! CAM-B3LYP def2-SVP def2/J RIJCOSX Grid4 TightSCF
|  4> %maxcore 5000
|  5> %tddft
|  6>     Mode sTDDFT
|  7>     Ethresh 5.0
|  8>     maxcore 5000
|  9> end
| 10>
| 11> %pal
| 12>   nprocs 6
| 13>   end
| 14> * xyz 0 1
| 15>    C        3.40815         4.70875        -1.59325
| 16>    C        2.23111         4.52595        -2.26585
| 17>    C        2.15054         4.21814        -3.63976
| 18>    N        2.01883         3.99256        -4.75757
| 19>    C        0.95342         4.58540        -1.67373
| 20>    N       -0.11619         4.61215        -1.25749
| 21>    C        4.73723         4.44784        -2.13063
| 22>    C        5.65074         4.30853        -1.04440
| 23>    C        6.97095         4.02622        -1.24865
| 24>    C        7.44753         3.87710        -2.57051
| 25>    C        6.54297         4.03147        -3.66110
| 26>    C        5.18013         4.31846        -3.41989
| 27>    C        7.03303         3.88786        -4.97520
| 28>    C        8.35161         3.60294        -5.20350
| 29>    C        9.24109         3.44998        -4.12933
| 30>    C        8.79867         3.58354        -2.84124
| 31>    C        4.93808         4.53348         0.22483
| 32>    O        5.36352         4.43891         1.35046
| 33>    C        3.56318         4.97479        -0.17527
| 34>    C        2.78654         5.61238         0.72789
| 35>    C        1.60624         6.40155         0.50413
| 36>    N        0.70185         6.43126         1.46886
| 37>    N       -0.38048         7.12682         1.41073
| 38>    C       -0.72636         7.85672         0.36225
| 39>    C        0.12579         7.86466        -0.77453
| 40>    C        1.36709         7.16059        -0.67640
| 41>    N        2.10849         7.30312        -1.77356
| 42>    S        1.28897         8.19628        -2.83322
| 43>    N       -0.02570         8.45858        -1.95349
| 44>    C       -1.99110         8.52733         0.40887
| 45>    S       -3.27018         7.66938         1.14880
| 46>    C       -4.43750         8.85050         0.66782
| 47>    C       -3.82917         9.92537        -0.02874
| 48>    C       -2.40747         9.75235        -0.12767
| 49>    C       -1.58427        10.77051        -0.67547
| 50>    C       -0.13043        10.80579        -0.48995
| 51>    O        0.49815        10.20562         0.35453
| 52>    O        0.48799        11.66032        -1.32622
| 53>    C       -2.20584        11.85811        -1.26649
| 54>    C       -3.58208        11.98767        -1.26883
| 55>    C       -4.42097        11.07774        -0.62994
| 56>    O       -5.70848        11.36771        -0.63471
| 57>    C       -5.79107         8.57853         1.01492
| 58>    N       -6.77096         9.40789         0.66131
| 59>    N       -8.03193         9.19699         0.88617
| 60>    C       -8.47756         8.12327         1.50529
| 61>    C       -7.53915         7.19268         2.03338
| 62>    C       -6.15372         7.41881         1.76378
| 63>    N       -5.38006         6.49121         2.31201
| 64>    S       -6.31127         5.44464         3.10319
| 65>    N       -7.73503         6.12163         2.79501
| 66>    C       -9.90363         7.93815         1.64765
| 67>    C      -10.51940         6.76770         1.37355
| 68>    C      -11.92035         6.42693         1.58018
| 69>    C      -12.81890         7.13539         2.32928
| 70>    C      -14.16079         6.74647         2.53077
| 71>    N      -15.26042         6.48326         2.72686
| 72>    C      -12.52379         8.32730         3.02605
| 73>    N      -12.35386         9.28666         3.63229
| 74>    C      -12.16830         5.15403         0.91820
| 75>    C      -10.94541         4.67889         0.36143
| 76>    C       -9.87331         5.65065         0.61832
| 77>    O       -8.73050         5.59901         0.21998
| 78>    C      -10.87453         3.49815        -0.32149
| 79>    C      -12.04392         2.72255        -0.48094
| 80>    C      -13.27246         3.19330         0.06762
| 81>    C      -13.31615         4.41983         0.76825
| 82>    C      -14.43529         2.41482        -0.10519
| 83>    C      -14.38860         1.22857        -0.78552
| 84>    C      -13.17848         0.76589        -1.32441
| 85>    C      -12.03100         1.49645        -1.17478
| 86>    H        7.64486         3.91847        -0.41181
| 87>    H        4.51912         4.44096        -4.26351
| 88>    H        6.34362         4.00321        -5.79861
| 89>    H        8.71683         3.49322        -6.21356
| 90>    H       10.27848         3.22610        -4.32781
| 91>    H        9.47896         3.46669        -2.01048
| 92>    H        3.11243         5.56082         1.76145
| 93>    H        1.42987        11.70610        -1.09992
| 94>    H       -1.59862        12.63274        -1.70644
| 95>    H       -4.05100        12.84107        -1.73206
| 96>    H       -6.26447        10.67883        -0.15596
| 97>    H      -10.46272         8.81028         1.95792
| 98>    H       -9.93593         3.16122        -0.73596
| 99>    H      -14.26236         4.75326         1.16410
|100>    H      -15.36430         2.77464         0.31196
|101>    H      -15.28448         0.63970        -0.91271
|102>    H      -13.16038        -0.17186        -1.85919
|103>    H      -11.09667         1.14587        -1.58810
|104> *
|105>
|106>                          ****END OF INPUT****

CARTESIAN COORDINATES (ANGSTROEM)
---------------------------------
  C      3.408150    4.708750   -1.593250
  C      2.231110    4.525950   -2.265850
  C      2.150540    4.218140   -3.639760
  N      2.018830    3.992560   -4.757570
  C      0.953420    4.585400   -1.673730
  N     -0.116190    4.612150   -1.257490
  C      4.737230    4.447840   -2.130630
  C      5.650740    4.308530   -1.044400
  C      6.970950    4.026220   -1.248650
  C      7.447530    3.877100   -2.570510
  C      6.542970    4.031470   -3.661100
  C      5.180130    4.318460   -3.419890
  C      7.033030    3.887860   -4.975200
  C      8.351610    3.602940   -5.203500
  C      9.241090    3.449980   -4.129330
  C      8.798670    3.583540   -2.841240
  C      4.938080    4.533480    0.224830
  O      5.363520    4.438910    1.350460
  C      3.563180    4.974790   -0.175270
  C      2.786540    5.612380    0.727890
  C      1.606240    6.401550    0.504130
  N      0.701850    6.431260    1.468860
  N     -0.380480    7.126820    1.410730
  C     -0.726360    7.856720    0.362250
  C      0.125790    7.864660   -0.774530
  C      1.367090    7.160590   -0.676400
  N      2.108490    7.303120   -1.773560
  S      1.288970    8.196280   -2.833220
  N     -0.025700    8.458580   -1.953490
  C     -1.991100    8.527330    0.408870
  S     -3.270180    7.669380    1.148800
  C     -4.437500    8.850500    0.667820
  C     -3.829170    9.925370   -0.028740
  C     -2.407470    9.752350   -0.127670
  C     -1.584270   10.770510   -0.675470
  C     -0.130430   10.805790   -0.489950
  O      0.498150   10.205620    0.354530
  O      0.487990   11.660320   -1.326220
  C     -2.205840   11.858110   -1.266490
  C     -3.582080   11.987670   -1.268830
  C     -4.420970   11.077740   -0.629940
  O     -5.708480   11.367710   -0.634710
  C     -5.791070    8.578530    1.014920
  N     -6.770960    9.407890    0.661310
  N     -8.031930    9.196990    0.886170
  C     -8.477560    8.123270    1.505290
  C     -7.539150    7.192680    2.033380
  C     -6.153720    7.418810    1.763780
  N     -5.380060    6.491210    2.312010
  S     -6.311270    5.444640    3.103190
  N     -7.735030    6.121630    2.795010
  C     -9.903630    7.938150    1.647650
  C    -10.519400    6.767700    1.373550
  C    -11.920350    6.426930    1.580180
  C    -12.818900    7.135390    2.329280
  C    -14.160790    6.746470    2.530770
  N    -15.260420    6.483260    2.726860
  C    -12.523790    8.327300    3.026050
  N    -12.353860    9.286660    3.632290
  C    -12.168300    5.154030    0.918200
  C    -10.945410    4.678890    0.361430
  C     -9.873310    5.650650    0.618320
  O     -8.730500    5.599010    0.219980
  C    -10.874530    3.498150   -0.321490
  C    -12.043920    2.722550   -0.480940
  C    -13.272460    3.193300    0.067620
  C    -13.316150    4.419830    0.768250
  C    -14.435290    2.414820   -0.105190
  C    -14.388600    1.228570   -0.785520
  C    -13.178480    0.765890   -1.324410
  C    -12.031000    1.496450   -1.174780
  H      7.644860    3.918470   -0.411810
  H      4.519120    4.440960   -4.263510
  H      6.343620    4.003210   -5.798610
  H      8.716830    3.493220   -6.213560
  H     10.278480    3.226100   -4.327810
  H      9.478960    3.466690   -2.010480
  H      3.112430    5.560820    1.761450
  H      1.429870   11.706100   -1.099920
  H     -1.598620   12.632740   -1.706440
  H     -4.051000   12.841070   -1.732060
  H     -6.264470   10.678830   -0.155960
  H    -10.462720    8.810280    1.957920
  H     -9.935930    3.161220   -0.735960
  H    -14.262360    4.753260    1.164100
  H    -15.364300    2.774640    0.311960
  H    -15.284480    0.639700   -0.912710
  H    -13.160380   -0.171860   -1.859190
  H    -11.096670    1.145870   -1.588100

 Total Charge           Charge          ....    0
 Multiplicity           Mult            ....    1
 Number of Electrons    NEL             ....  496
 Basis Dimension        Dim             .... 1096

ORBITAL ENERGIES
----------------

  NO   OCC          E(Eh)            E(eV)
   0   2.0000     -89.051389     -2423.2115
   1   2.0000     -89.043256     -2422.9902
   2   2.0000     -88.981229     -2421.3023
   3   2.0000     -19.257476      -524.0226
   4   2.0000     -19.227468      -523.2060
   5   2.0000     -19.217531      -522.9356
   6   2.0000     -19.217293      -522.9291
   7   2.0000     -19.197670      -522.3951
   8   2.0000     -14.466876      -393.6637
   9   2.0000     -14.466391      -393.6505
  10   2.0000     -14.464921      -393.6105
  11   2.0000     -14.462602      -393.5474
  12   2.0000     -14.455095      -393.3431
  13   2.0000     -14.454911      -393.3381
  14   2.0000     -14.446544      -393.1104
  15   2.0000     -14.440372      -392.9425
  16   2.0000     -14.423595      -392.4860
  17   2.0000     -14.422945      -392.4683
  18   2.0000     -14.419220      -392.3669
  19   2.0000     -14.418782      -392.3550
  20   2.0000     -10.399601      -282.9875
  21   2.0000     -10.378013      -282.4001
  22   2.0000     -10.368063      -282.1293
  23   2.0000     -10.365076      -282.0480
  24   2.0000     -10.353501      -281.7331
  25   2.0000     -10.350979      -281.6645
  26   2.0000     -10.349640      -281.6280
  27   2.0000     -10.348949      -281.6092
  28   2.0000     -10.345981      -281.5284
  29   2.0000     -10.345494      -281.5152
  30   2.0000     -10.344792      -281.4961
  31   2.0000     -10.344083      -281.4768
  32   2.0000     -10.342048      -281.4214
  33   2.0000     -10.338005      -281.3114
  34   2.0000     -10.337644      -281.3016
  35   2.0000     -10.334233      -281.2088
  36   2.0000     -10.325838      -280.9803
  37   2.0000     -10.325476      -280.9705
  38   2.0000     -10.325399      -280.9684
  39   2.0000     -10.324502      -280.9440
  40   2.0000     -10.321192      -280.8539
  41   2.0000     -10.320867      -280.8451
  42   2.0000     -10.318030      -280.7679
  43   2.0000     -10.314775      -280.6793
  44   2.0000     -10.314570      -280.6737
  45   2.0000     -10.311029      -280.5774
  46   2.0000     -10.305242      -280.4199
  47   2.0000     -10.304947      -280.4119
  48   2.0000     -10.304831      -280.4087
  49   2.0000     -10.304536      -280.4007
  50   2.0000     -10.304321      -280.3948
  51   2.0000     -10.303919      -280.3839
  52   2.0000     -10.303065      -280.3607
  53   2.0000     -10.300376      -280.2875
  54   2.0000     -10.299951      -280.2759
  55   2.0000     -10.299560      -280.2653
  56   2.0000     -10.299041      -280.2511
  57   2.0000     -10.298520      -280.2370
  58   2.0000     -10.296835      -280.1911
  59   2.0000     -10.292707      -280.0788
  60   2.0000     -10.292250      -280.0664
  61   2.0000     -10.292010      -280.0598
  62   2.0000     -10.291544      -280.0472
  63   2.0000     -10.291280      -280.0400
  64   2.0000     -10.288336      -279.9598
  65   2.0000     -10.287967      -279.9498
  66   2.0000     -10.287727      -279.9433
  67   2.0000     -10.287296      -279.9316
  68   2.0000     -10.281280      -279.7679
  69   2.0000     -10.275077      -279.5991
  70   2.0000     -10.259282      -279.1693
  71   2.0000      -8.142667      -221.5732
  72   2.0000      -8.134415      -221.3487
  73   2.0000      -8.075050      -219.7333
  74   2.0000      -6.113816      -166.3654
  75   2.0000      -6.105967      -166.1518
  76   2.0000      -6.105492      -166.1389
  77   2.0000      -6.105312      -166.1340
  78   2.0000      -6.097769      -165.9287
  79   2.0000      -6.097143      -165.9117
  80   2.0000      -6.044010      -164.4659
  81   2.0000      -6.039455      -164.3419
  82   2.0000      -6.038161      -164.3067
  83   2.0000      -1.185072       -32.2475
  84   2.0000      -1.159407       -31.5491
  85   2.0000      -1.146302       -31.1925
  86   2.0000      -1.142420       -31.0868
  87   2.0000      -1.139065       -30.9955
  88   2.0000      -1.133013       -30.8309
  89   2.0000      -1.125804       -30.6347
  90   2.0000      -1.122310       -30.5396
  91   2.0000      -1.086802       -29.5734
  92   2.0000      -1.026365       -27.9288
  93   2.0000      -1.022653       -27.8278
  94   2.0000      -1.019849       -27.7515
  95   2.0000      -1.006294       -27.3826
  96   2.0000      -1.004826       -27.3427
  97   2.0000      -1.001315       -27.2472
  98   2.0000      -1.001108       -27.2415
  99   2.0000      -0.998148       -27.1610
 100   2.0000      -0.993150       -27.0250
 101   2.0000      -0.979693       -26.6588
 102   2.0000      -0.973231       -26.4830
 103   2.0000      -0.962121       -26.1806
 104   2.0000      -0.947965       -25.7954
 105   2.0000      -0.942012       -25.6334
 106   2.0000      -0.930775       -25.3277
 107   2.0000      -0.929227       -25.2856
 108   2.0000      -0.922340       -25.0981
 109   2.0000      -0.916920       -24.9507
 110   2.0000      -0.904365       -24.6090
 111   2.0000      -0.896951       -24.4073
 112   2.0000      -0.888337       -24.1729
 113   2.0000      -0.883278       -24.0352
 114   2.0000      -0.875918       -23.8349
 115   2.0000      -0.867248       -23.5990
 116   2.0000      -0.856660       -23.3109
 117   2.0000      -0.843035       -22.9402
 118   2.0000      -0.835420       -22.7329
 119   2.0000      -0.831441       -22.6247
 120   2.0000      -0.830305       -22.5938
 121   2.0000      -0.817256       -22.2387
 122   2.0000      -0.799089       -21.7443
 123   2.0000      -0.788714       -21.4620
 124   2.0000      -0.776236       -21.1225
 125   2.0000      -0.769824       -20.9480
 126   2.0000      -0.763002       -20.7623
 127   2.0000      -0.759713       -20.6728
 128   2.0000      -0.746839       -20.3225
 129   2.0000      -0.741321       -20.1724
 130   2.0000      -0.733950       -19.9718
 131   2.0000      -0.724592       -19.7171
 132   2.0000      -0.713648       -19.4193
 133   2.0000      -0.711008       -19.3475
 134   2.0000      -0.707996       -19.2655
 135   2.0000      -0.704284       -19.1645
 136   2.0000      -0.701995       -19.1023
 137   2.0000      -0.698669       -19.0118
 138   2.0000      -0.689737       -18.7687
 139   2.0000      -0.684072       -18.6145
 140   2.0000      -0.679173       -18.4812
 141   2.0000      -0.676897       -18.4193
 142   2.0000      -0.659280       -17.9399
 143   2.0000      -0.656871       -17.8744
 144   2.0000      -0.646633       -17.5958
 145   2.0000      -0.643908       -17.5216
 146   2.0000      -0.637999       -17.3608
 147   2.0000      -0.634585       -17.2679
 148   2.0000      -0.626609       -17.0509
 149   2.0000      -0.624002       -16.9799
 150   2.0000      -0.616104       -16.7651
 151   2.0000      -0.613762       -16.7013
 152   2.0000      -0.609057       -16.5733
 153   2.0000      -0.606929       -16.5154
 154   2.0000      -0.601455       -16.3664
 155   2.0000      -0.595114       -16.1939
 156   2.0000      -0.590498       -16.0683
 157   2.0000      -0.585874       -15.9424
 158   2.0000      -0.582707       -15.8563
 159   2.0000      -0.568343       -15.4654
 160   2.0000      -0.565173       -15.3791
 161   2.0000      -0.559594       -15.2273
 162   2.0000      -0.558472       -15.1968
 163   2.0000      -0.557971       -15.1832
 164   2.0000      -0.553504       -15.0616
 165   2.0000      -0.550336       -14.9754
 166   2.0000      -0.548484       -14.9250
 167   2.0000      -0.546501       -14.8710
 168   2.0000      -0.545705       -14.8494
 169   2.0000      -0.541373       -14.7315
 170   2.0000      -0.540357       -14.7038
 171   2.0000      -0.535479       -14.5711
 172   2.0000      -0.531382       -14.4596
 173   2.0000      -0.529327       -14.4037
 174   2.0000      -0.527750       -14.3608
 175   2.0000      -0.526424       -14.3247
 176   2.0000      -0.520758       -14.1706
 177   2.0000      -0.520367       -14.1599
 178   2.0000      -0.517616       -14.0851
 179   2.0000      -0.514192       -13.9919
 180   2.0000      -0.514083       -13.9889
 181   2.0000      -0.510117       -13.8810
 182   2.0000      -0.508683       -13.8420
 183   2.0000      -0.507911       -13.8210
 184   2.0000      -0.505169       -13.7464
 185   2.0000      -0.503977       -13.7139
 186   2.0000      -0.502721       -13.6797
 187   2.0000      -0.496301       -13.5050
 188   2.0000      -0.493262       -13.4223
 189   2.0000      -0.492431       -13.3997
 190   2.0000      -0.491615       -13.3775
 191   2.0000      -0.488328       -13.2881
 192   2.0000      -0.484193       -13.1756
 193   2.0000      -0.473645       -12.8885
 194   2.0000      -0.470069       -12.7912
 195   2.0000      -0.468994       -12.7620
 196   2.0000      -0.467196       -12.7131
 197   2.0000      -0.464187       -12.6312
 198   2.0000      -0.459493       -12.5034
 199   2.0000      -0.455782       -12.4025
 200   2.0000      -0.454947       -12.3797
 201   2.0000      -0.451812       -12.2944
 202   2.0000      -0.450812       -12.2672
 203   2.0000      -0.447695       -12.1824
 204   2.0000      -0.446262       -12.1434
 205   2.0000      -0.442599       -12.0437
 206   2.0000      -0.441234       -12.0066
 207   2.0000      -0.440928       -11.9983
 208   2.0000      -0.440434       -11.9848
 209   2.0000      -0.437309       -11.8998
 210   2.0000      -0.435822       -11.8593
 211   2.0000      -0.435199       -11.8424
 212   2.0000      -0.433231       -11.7888
 213   2.0000      -0.430962       -11.7271
 214   2.0000      -0.428942       -11.6721
 215   2.0000      -0.427201       -11.6247
 216   2.0000      -0.420682       -11.4473
 217   2.0000      -0.418107       -11.3773
 218   2.0000      -0.416014       -11.3203
 219   2.0000      -0.412474       -11.2240
 220   2.0000      -0.410200       -11.1621
 221   2.0000      -0.407444       -11.0871
 222   2.0000      -0.404139       -10.9972
 223   2.0000      -0.400009       -10.8848
 224   2.0000      -0.397424       -10.8145
 225   2.0000      -0.390185       -10.6175
 226   2.0000      -0.385277       -10.4839
 227   2.0000      -0.384013       -10.4495
 228   2.0000      -0.382980       -10.4214
 229   2.0000      -0.381957       -10.3936
 230   2.0000      -0.379586       -10.3291
 231   2.0000      -0.376244       -10.2381
 232   2.0000      -0.363209        -9.8834
 233   2.0000      -0.357357        -9.7242
 234   2.0000      -0.349660        -9.5147
 235   2.0000      -0.348380        -9.4799
 236   2.0000      -0.341618        -9.2959
 237   2.0000      -0.336866        -9.1666
 238   2.0000      -0.329622        -8.9695
 239   2.0000      -0.325387        -8.8542
 240   2.0000      -0.324263        -8.8236
 241   2.0000      -0.320606        -8.7241
 242   2.0000      -0.316010        -8.5991
 243   2.0000      -0.304578        -8.2880
 244   2.0000      -0.299676        -8.1546
 245   2.0000      -0.299589        -8.1522
 246   2.0000      -0.294840        -8.0230
 247   2.0000      -0.249868        -6.7993
 248   0.0000      -0.120505        -3.2791
 249   0.0000      -0.101274        -2.7558
 250   0.0000      -0.084450        -2.2980
 251   0.0000      -0.067027        -1.8239
 252   0.0000      -0.062322        -1.6959

MULLIKEN ATOMIC CHARGES
-----------------------
   0 C :    0.326444
   1 C :   -0.332747
   2 C :   -0.194404
   3 N :    0.159043
   4 C :   -0.191606
   5 N :    0.160245
   6 C :    0.036094
   7 C :    0.014554
   8 C :   -0.079162
   9 C :    0.094385
  10 C :    0.096037
  11 C :   -0.082432
  12 C :   -0.018485
  13 C :    0.035144
  14 C :    0.036191
  15 C :   -0.015791
  16 C :    0.133244
  17 O :   -0.132355
  18 C :   -0.112891
  19 C :    0.028458
  20 C :   -0.059913
  21 N :   -0.025496
  22 N :   -0.060072
  23 C :    0.000450
  24 C :    0.076697
  25 C :    0.026988
  26 N :   -0.266387
  27 S :    0.536955
  28 N :   -0.241662
  29 C :   -0.174920
  30 S :    0.290285
  31 C :   -0.244056
  32 C :    0.064638
  33 C :    0.179727
  34 C :   -0.048942
  35 C :    0.113622
  36 O :   -0.220068
  37 O :   -0.172882
  38 C :    0.019762
  39 C :   -0.039569
  40 C :    0.098648
  41 O :   -0.171813
  42 C :    0.165042
  43 N :   -0.173273
  44 N :    0.000085
  45 C :   -0.093226
  46 C :    0.111632
  47 C :   -0.022268
  48 N :   -0.284412
  49 S :    0.561322
  50 N :   -0.250928
  51 C :   -0.010922
  52 C :   -0.068576
  53 C :    0.303907
  54 C :   -0.327224
  55 C :   -0.182348
  56 N :    0.157785
  57 C :   -0.200107
  58 N :    0.171860
  59 C :    0.052728
  60 C :   -0.008703
  61 C :    0.167300
  62 O :   -0.151238
  63 C :   -0.076631
  64 C :    0.098957
  65 C :    0.098737
  66 C :   -0.083969
  67 C :   -0.018058
  68 C :    0.037336
  69 C :    0.039241
  70 C :   -0.015899
  71 H :   -0.009718
  72 H :   -0.007683
  73 H :   -0.009843
  74 H :   -0.004524
  75 H :   -0.004224
  76 H :   -0.015707
  77 H :    0.038678
  78 H :    0.185774
  79 H :   -0.000933
  80 H :   -0.015185
  81 H :    0.196632
  82 H :    0.051875
  83 H :   -0.011653
  84 H :   -0.007172
  85 H :   -0.007601
  86 H :   -0.001548
  87 H :   -0.001888
  88 H :   -0.015386
Sum of atomic charges:   -0.0000000

LOEWDIN ATOMIC CHARGES
----------------------
   0 C :    0.078942
   1 C :   -0.132639
   2 C :   -0.019213
   3 N :   -0.052303
   4 C :   -0.020040
   5 N :   -0.049433
   6 C :   -0.020021
   7 C :   -0.057291
   8 C :    0.034190
   9 C :   -0.008641
  10 C :   -0.004832
  11 C :    0.016482
  12 C :   -0.006665
  13 C :   -0.012392
  14 C :   -0.012522
  15 C :   -0.008648
  16 C :    0.086433
  17 O :   -0.131030
  18 C :   -0.066488
  19 C :    0.071827
  20 C :   -0.027621
  21 N :   -0.015575
  22 N :   -0.053860
  23 C :    0.001714
  24 C :   -0.046092
  25 C :   -0.053328
  26 N :   -0.275090
  27 S :    0.673251
  28 N :   -0.257631
  29 C :   -0.162338
  30 S :    0.604385
  31 C :   -0.195298
  32 C :   -0.053595
  33 C :   -0.008148
  34 C :   -0.109144
  35 C :    0.085655
  36 O :   -0.200010
  37 O :   -0.040082
  38 C :    0.032154
  39 C :   -0.070100
  40 C :    0.083953
  41 O :   -0.037590
  42 C :    0.011322
  43 N :   -0.028915
  44 N :   -0.020119
  45 C :   -0.024815
  46 C :   -0.044870
  47 C :   -0.063665
  48 N :   -0.278543
  49 S :    0.690309
  50 N :   -0.264415
  51 C :    0.073834
  52 C :   -0.059862
  53 C :    0.073075
  54 C :   -0.122872
  55 C :   -0.016310
  56 N :   -0.043469
  57 C :   -0.022782
  58 N :   -0.037666
  59 C :   -0.025744
  60 C :   -0.056483
  61 C :    0.089767
  62 O :   -0.138322
  63 C :    0.036611
  64 C :   -0.007282
  65 C :   -0.004468
  66 C :    0.021892
  67 C :   -0.004176
  68 C :   -0.010348
  69 C :   -0.009399
  70 C :   -0.007885
  71 H :    0.040048
  72 H :    0.038278
  73 H :    0.034337
  74 H :    0.033294
  75 H :    0.033089
  76 H :    0.032386
  77 H :    0.056769
  78 H :    0.096375
  79 H :    0.036401
  80 H :    0.035393
  81 H :    0.026071
  82 H :    0.055186
  83 H :    0.039957
  84 H :    0.039554
  85 H :    0.035498
  86 H :    0.034548
  87 H :    0.034224
  88 H :    0.032863

  Mayer bond orders larger than 0.100000
B(  0-C ,  1-C ) :   1.6574 B(  0-C ,  6-C ) :   1.0133 B(  0-C , 18-C ) :   1.0118
B(  1-C ,  2-C ) :   1.1430 B(  1-C ,  4-C ) :   1.1646 B(  2-C ,  3-N ) :   2.9873
B(  4-C ,  5-N ) :   2.9716 B(  6-C ,  7-C ) :   1.2108 B(  6-C , 11-C ) :   1.4527
B(  7-C ,  8-C ) :   1.4705 B(  7-C , 16-C ) :   0.9205 B(  8-C ,  9-C ) :   1.1882
B(  8-C , 71-H ) :   1.0157 B(  9-C , 10-C ) :   1.2549 B(  9-C , 15-C ) :   1.2432
B( 10-C , 11-C ) :   1.2072 B( 10-C , 12-C ) :   1.2388 B( 11-C , 72-H ) :   0.9931
B( 12-C , 13-C ) :   1.4911 B( 12-C , 73-H ) :   0.9979 B( 13-C , 14-C ) :   1.2582
B( 13-C , 74-H ) :   0.9891 B( 14-C , 15-C ) :   1.4911 B( 14-C , 75-H ) :   0.9889
B( 15-C , 76-H ) :   0.9978 B( 16-C , 17-O ) :   2.2839 B( 16-C , 18-C ) :   0.9200
B( 18-C , 19-C ) :   1.7251 B( 19-C , 20-C ) :   1.0627 B( 19-C , 77-H ) :   0.9475
B( 20-C , 21-N ) :   1.6427 B( 20-C , 23-C ) :   0.1145 B( 20-C , 25-C ) :   1.1204
B( 21-N , 22-N ) :   1.2525 B( 22-N , 23-C ) :   1.6752 B( 23-C , 24-C ) :   1.1441
B( 23-C , 29-C ) :   1.0763 B( 24-C , 25-C ) :   1.2094 B( 24-C , 28-N ) :   1.5454
B( 25-C , 26-N ) :   1.5229 B( 26-N , 27-S ) :   1.2653 B( 26-N , 28-N ) :   0.1408
B( 27-S , 28-N ) :   1.2825 B( 29-C , 30-S ) :   1.2031 B( 29-C , 31-C ) :   0.1250
B( 29-C , 33-C ) :   1.3689 B( 30-S , 31-C ) :   1.1842 B( 31-C , 32-C ) :   1.2617
B( 31-C , 42-C ) :   1.2344 B( 32-C , 33-C ) :   1.2415 B( 32-C , 40-C ) :   1.0815
B( 33-C , 34-C ) :   1.2116 B( 34-C , 35-C ) :   0.9559 B( 34-C , 38-C ) :   1.4297
B( 35-C , 36-O ) :   2.0667 B( 35-C , 37-O ) :   1.2850 B( 37-O , 78-H ) :   0.9444
B( 38-C , 39-C ) :   1.2667 B( 38-C , 79-H ) :   0.9911 B( 39-C , 40-C ) :   1.4081
B( 39-C , 80-H ) :   0.9891 B( 40-C , 41-O ) :   1.4186 B( 41-O , 81-H ) :   0.8398
B( 42-C , 43-N ) :   1.5084 B( 42-C , 47-C ) :   1.0988 B( 43-N , 44-N ) :   1.2245
B( 43-N , 81-H ) :   0.1982 B( 44-N , 45-C ) :   1.6973 B( 45-C , 46-C ) :   1.1057
B( 45-C , 51-C ) :   1.0478 B( 46-C , 47-C ) :   1.2145 B( 46-C , 50-N ) :   1.5360
B( 47-C , 48-N ) :   1.5185 B( 48-N , 49-S ) :   1.2739 B( 48-N , 50-N ) :   0.1407
B( 49-S , 50-N ) :   1.2851 B( 51-C , 52-C ) :   1.7412 B( 51-C , 82-H ) :   0.9400
B( 52-C , 53-C ) :   1.0352 B( 52-C , 61-C ) :   0.9187 B( 53-C , 54-C ) :   1.6701
B( 53-C , 59-C ) :   0.9994 B( 54-C , 55-C ) :   1.1419 B( 54-C , 57-C ) :   1.1388
B( 55-C , 56-N ) :   2.9689 B( 57-C , 58-N ) :   2.9914 B( 59-C , 60-C ) :   1.2122
B( 59-C , 66-C ) :   1.4419 B( 60-C , 61-C ) :   0.9603 B( 60-C , 63-C ) :   1.4651
B( 61-C , 62-O ) :   2.2047 B( 63-C , 64-C ) :   1.1836 B( 63-C , 83-H ) :   1.0174
B( 64-C , 65-C ) :   1.2531 B( 64-C , 70-C ) :   1.2409 B( 65-C , 66-C ) :   1.2093
B( 65-C , 67-C ) :   1.2380 B( 66-C , 84-H ) :   0.9909 B( 67-C , 68-C ) :   1.4915
B( 67-C , 85-H ) :   0.9977 B( 68-C , 69-C ) :   1.2567 B( 68-C , 86-H ) :   0.9885
B( 69-C , 70-C ) :   1.4914 B( 69-C , 87-H ) :   0.9886 B( 70-C , 88-H ) :   0.9983

-----------------------------------------------------------------------------
         ABSORPTION SPECTRUM VIA TRANSITION ELECTRIC DIPOLE MOMENTS
-----------------------------------------------------------------------------
State   Energy  Wavelength   fosc         T2         TX        TY        TZ
        (cm-1)    (nm)                  (au**2)     (au)      (au)      (au)
-----------------------------------------------------------------------------
   0   12272.7    814.8   0.559937138  15.02017  -3.75283  -0.27146   0.92886
   1   16465.9    607.3   0.016857056   0.33703  -0.38577  -0.35652   0.24720
   2   17021.6    587.5   0.145121400   2.80676  -0.60138  -1.55548   0.15992
   3   22029.2    453.9   0.179109303   2.67668   1.61180  -0.12318  -0.25221
   4   22313.5    448.2   0.035196485   0.51929   0.71569   0.05764  -0.06122
   5   22956.5    435.6   0.245162450   3.51580   1.66946  -0.47592  -0.70866
   6   24026.1    416.2   0.236335972   3.23834  -1.75839   0.08830   0.37230
   7   24617.3    406.2   0.009940027   0.13293  -0.05880   0.35981  -0.00303
   8   24812.1    403.0   0.019976885   0.26506  -0.49258   0.11832   0.09176
   9   25214.9    396.6   0.046558261   0.60788  -0.25129  -0.65831  -0.33370
  10   26000.3    384.6   0.019594071   0.24810  -0.14523   0.35656   0.31602
  11   26835.9    372.6   0.053622920   0.65782   0.44699  -0.57781  -0.35237
  12   27207.4    367.5   0.232762111   2.81644   1.65539  -0.23020  -0.15209
  13   27762.6    360.2   0.026690310   0.31650  -0.04824   0.54932  -0.11142
  14   27853.2    359.0   0.075639195   0.89402   0.31786   0.88803   0.06618
  15   28070.2    356.2   0.111248059   1.30473  -0.62751   0.93151   0.20794
  16   28134.7    355.4   0.078481179   0.91833   0.83411   0.17197   0.43934
  17   28459.6    351.4   0.032527592   0.37627  -0.29603   0.50650   0.17916
  18   28906.9    345.9   0.036291795   0.41332   0.57511   0.28037   0.06291
  19   29205.0    342.4   0.114678194   1.29271  -0.82293  -0.78380   0.03413
  20   30882.1    323.8   0.001505682   0.01605  -0.00203  -0.03248  -0.12244
  21   30983.2    322.8   0.035607439   0.37835   0.53871   0.19156  -0.22682
  22   31130.6    321.2   0.254611989   2.69257  -0.61223  -1.26975  -0.83993
  23   31309.5    319.4   0.235802609   2.47941   0.95630  -1.13632  -0.52314
  24   31632.0    316.1   0.062988257   0.65555   0.64261  -0.20567  -0.44756
  25   31706.0    315.4   0.007258003   0.07536  -0.19439  -0.10608   0.16224
  26   32012.9    312.4   0.034666366   0.35650   0.33519   0.47339   0.14159
  27   32243.9    310.1   0.069724266   0.71189   0.00818  -0.84285  -0.03779
  28   32655.3    306.2   0.064551188   0.65077  -0.79580  -0.07086  -0.11160
  29   33118.3    301.9   0.219098944   2.17795   1.47090   0.02276  -0.11780
  30   33214.8    301.1   0.079683201   0.78979   0.79749  -0.19987  -0.33743
  31   33341.5    299.9   0.009308684   0.09191   0.22762   0.08132   0.18300
  32   33780.0    296.0   0.027799916   0.27093  -0.46857   0.04649  -0.22184
  33   33961.0    294.5   0.019765077   0.19160  -0.33011   0.17936  -0.22464
  34   34391.6    290.8   0.026838224   0.25691  -0.39479  -0.09647  -0.30288
  35   34497.5    289.9   0.216420634   2.06532  -0.24224  -1.02472  -0.97806
  36   34779.4    287.5   0.040151941   0.38007  -0.17550  -0.49177   0.32776
  37   34992.1    285.8   0.039021394   0.36712  -0.27248  -0.34909  -0.41353
  38   35231.0    283.8   0.112312833   1.04949   0.56088  -0.78280  -0.34948
  39   35385.2    282.6   0.019383073   0.18033  -0.41545   0.07745  -0.04167
  40   35421.3    282.3   0.182618771   1.69729   1.24017  -0.33230  -0.22100
  41   35520.3    281.5   0.083303163   0.77208   0.86634   0.05004  -0.13795
  42   35673.0    280.3   0.035507603   0.32769   0.22062  -0.42289  -0.31651
  43   36034.7    277.5   0.366047309   3.34420   0.76703  -1.35621  -0.95738
  44   36200.6    276.2   0.025194113   0.22912  -0.22514   0.16958   0.38687
  45   36490.4    274.0   0.020970914   0.18920  -0.06828  -0.30978  -0.29761
  46   36845.4    271.4   0.019238526   0.17190  -0.07224   0.39126  -0.11659
  47   37145.9    269.2   0.001644618   0.01458  -0.09553   0.04525  -0.05834
  48   37432.1    267.2   0.091471907   0.80449  -0.79309  -0.29300   0.29941
  49   37595.5    266.0   0.016679174   0.14605  -0.16627   0.08320  -0.33389
  50   37861.2    264.1   0.034643346   0.30123   0.37105   0.02094   0.40387
  51   38085.0    262.6   0.139011447   1.20163  -1.07586   0.02430  -0.20873
  52   38208.3    261.7   0.031211468   0.26893  -0.38455   0.30011  -0.17601
  53   38235.9    261.5   0.096979590   0.83500   0.76290   0.00824   0.50290
  54   38411.7    260.3   0.024179551   0.20723   0.44209  -0.09276  -0.05641
  55   38601.8    259.1   0.016721247   0.14261   0.09966  -0.01714  -0.36384
  56   38803.8    257.7   0.032833491   0.27856   0.39366  -0.13520   0.32452
  57   39117.8    255.6   0.009858183   0.08297  -0.05759   0.15161  -0.23804
  58   39140.9    255.5   0.010751788   0.09043   0.05935   0.29353  -0.02743
  59   39352.7    254.1   0.024128528   0.20185  -0.12519  -0.37449   0.21433
  60   39369.5    254.0   0.007536887   0.06302   0.03676  -0.01525   0.24787
  61   39391.5    253.9   0.022164564   0.18524   0.38283  -0.04650   0.19109
  62   39568.1    252.7   0.032385134   0.26945  -0.25970   0.23626   0.38234
  63   39596.4    252.5   0.099470356   0.82702  -0.84198   0.16288   0.30257
  64   39789.2    251.3   0.062945025   0.52080  -0.21081  -0.68426  -0.09027
  65   40168.2    249.0   0.087423448   0.71651  -0.32035   0.26607  -0.73694
  66   40277.1    248.3   0.022245410   0.18183  -0.21757   0.08581   0.35655

FINAL SINGLE POINT ENERGY     -4177.749093292118

DIPOLE MOMENT
-------------
                                X             Y             Z
Electronic contribution:     -6.60473      16.38661      20.16726
Nuclear contribution   :      8.35939     -18.43362     -22.23238
                        -----------------------------------------
Total Dipole Moment    :      1.75465      -2.04702      -2.06511
                        -----------------------------------------
Magnitude (a.u.)       :      3.39614
Magnitude (Debye)      :      8.63230

Rotational constants in cm-1:     0.001817     0.000346     0.000313
Rotational constants in MHz :    54.477062    10.383987     9.373512

                             ****ORCA TERMINATED NORMALLY****
TOTAL RUN TIME: 0 days 0 hours 9 minutes 10 seconds 402 msec
