                         Program Version 4.2.0 -  RELEASE  -
|  1> # ORCA input file
|  2> # SCF done       -220.553038304772          0.000939236159
|  3> ! CAM-B3LYP def2-SVP def2/J RIJCOSX Grid4 TightSCF
|  4> %maxcore 5000
|  5> %tddft
|  6>     Mode sTDDFT
|  7>     Ethresh 5.0
|  8>     maxcore 5000
|  9> end
| 10>
| 11> %pal
| 12>   nprocs 6
| 13>   end
| 14> * xyz 0 1
| 15>    C       -4.82182        -5.19200         3.98444
| 16>    C       -5.51113        -5.96296         4.91861
| 17>    C       -6.77472        -5.47143         5.56642
| 18>    O       -7.09198        -5.81280         6.66975
| 19>    O       -7.52907        -4.62908         4.85317
| 20>    C       -5.00369        -7.20617         5.33147
| 21>    C       -5.69717        -8.02792         6.25691
| 22>    N       -6.18220        -8.78753         6.96302
| 23>    C       -3.79622        -7.68528         4.81415
| 24>    C       -3.12894        -6.90821         3.89333
| 25>    C       -3.63186        -5.66957         3.45824
| 26>    C       -2.70506        -5.10130         2.47645
| 27>    C       -2.92852        -3.95088         1.76475
| 28>    C       -4.10879        -3.18681         1.87757
| 29>    N       -5.06701        -2.55649         1.92677
| 30>    C       -2.05820        -3.38950         0.80592
| 31>    N       -1.40690        -2.87025         0.01603
| 32>    C       -1.57587        -6.00354         2.37676
| 33>    C       -1.83078        -7.16216         3.23357
| 34>    O       -1.12776        -8.14433         3.39053
| 35>    C       -0.44807        -5.80502         1.61367
| 36>    C        0.68869        -6.60345         1.45226
| 37>    C        1.76007        -6.20792         0.63554
| 38>    C        2.78531        -7.12946         0.62306
| 39>    C        2.50249        -8.25563         1.43848
| 40>    S        0.98824        -8.17239         2.20819
| 41>    C        3.60991        -9.12879         1.37147
| 42>    C        4.58970        -8.57444         0.52538
| 43>    C        4.10115        -7.29873         0.02413
| 44>    C        4.74312        -6.44306        -0.82021
| 45>    C        6.02765        -6.72167        -1.33506
| 46>    N        7.07080        -6.94643        -1.75328
| 47>    C        4.16696        -5.22223        -1.23338
| 48>    N        3.70324        -4.23007        -1.57087
| 49>    C        5.72913        -9.36846         0.41597
| 50>    C        5.62585       -10.52416         1.17584
| 51>    S        4.09497       -10.62950         2.02728
| 52>    C        6.59594       -11.54693         1.33505
| 53>    C        7.85949       -11.61838         0.77102
| 54>    C        8.55077       -12.75521         1.18755
| 55>    C        7.80583       -13.55566         2.07147
| 56>    S        6.25825       -12.91498         2.38607
| 57>    C        8.59876       -14.66236         2.46086
| 58>    C        9.84968       -14.56522         1.82743
| 59>    C        9.85790       -13.36974         0.99673
| 60>    C       10.87198       -12.91732         0.20715
| 61>    C       12.10471       -13.59646         0.09299
| 62>    N       13.10862       -14.13997        -0.00708
| 63>    C       10.75527       -11.73498        -0.55592
| 64>    N       10.65812       -10.77596        -1.17593
| 65>    C       10.71836       -15.59988         2.17774
| 66>    C       10.13235       -16.47875         3.07161
| 67>    S        8.48435       -16.02767         3.47666
| 68>    C       10.70670       -17.62526         3.68669
| 69>    C       12.00853       -18.08496         3.59945
| 70>    F       12.94506       -17.48860         2.85665
| 71>    C       12.25286       -19.22400         4.37731
| 72>    C       11.11198       -19.64939         5.06706
| 73>    S        9.75116       -18.63997         4.74772
| 74>    C       11.36566       -20.77242         5.85903
| 75>    C       12.70295       -21.18141         5.77011
| 76>    S       13.65505       -20.20165         4.69333
| 77>    C       12.97821       -22.27690         6.59527
| 78>    F       14.14806       -22.90753         6.60221
| 79>    C       11.87575       -22.71856         7.30832
| 80>    S       10.45022       -21.77551         6.91621
| 81>    C       11.78074       -23.80102         8.22418
| 82>    C       12.75900       -24.15836         9.09922
| 83>    C       12.77690       -25.33279         9.95232
| 84>    C       11.99727       -26.44855         9.80130
| 85>    C       12.07149       -27.58357        10.63611
| 86>    N       12.08464       -28.52722        11.28894
| 87>    C       11.04055       -26.62103         8.77820
| 88>    N       10.26008       -26.82858         7.96253
| 89>    C       13.83150       -25.14643        10.93857
| 90>    C       14.48930       -23.91786        10.67998
| 91>    C       13.86634       -23.25412         9.52057
| 92>    O       14.12786       -22.15569         9.08618
| 93>    C       15.53329       -23.46088        11.44753
| 94>    C       15.95172       -24.25581        12.51935
| 95>    C       15.28686       -25.48081        12.77236
| 96>    C       14.22977       -25.94143        11.99800
| 97>    S       15.95735       -26.29867        14.15001
| 98>    C       17.10678       -25.00496        14.36428
| 99>    C       16.99582       -24.00991        13.45164
|100>   Br       18.34071       -25.08807        15.77289
|101>    H       -5.19140        -4.21658         3.70741
|102>    H       -7.18845        -4.43268         3.96950
|103>    H       -3.39487        -8.63560         5.13177
|104>    H       -0.40153        -4.88413         1.04481
|105>    H        1.75128        -5.27860         0.09360
|106>    H        6.59276        -9.12794        -0.17570
|107>    H        8.24758       -10.87447         0.10029
|108>    H       11.72218       -15.71238         1.81190
|109>    H       10.83544       -24.32910         8.22820
|110>    H       16.01342       -22.52080        11.22566
|111>    H       13.74998       -26.87652        12.23441
|112>    H       17.62294       -23.13734        13.43633
|113> *
|114>
|115>                          ****END OF INPUT****

CARTESIAN COORDINATES (ANGSTROEM)
---------------------------------
  C     -4.821820   -5.192000    3.984440
  C     -5.511130   -5.962960    4.918610
  C     -6.774720   -5.471430    5.566420
  O     -7.091980   -5.812800    6.669750
  O     -7.529070   -4.629080    4.853170
  C     -5.003690   -7.206170    5.331470
  C     -5.697170   -8.027920    6.256910
  N     -6.182200   -8.787530    6.963020
  C     -3.796220   -7.685280    4.814150
  C     -3.128940   -6.908210    3.893330
  C     -3.631860   -5.669570    3.458240
  C     -2.705060   -5.101300    2.476450
  C     -2.928520   -3.950880    1.764750
  C     -4.108790   -3.186810    1.877570
  N     -5.067010   -2.556490    1.926770
  C     -2.058200   -3.389500    0.805920
  N     -1.406900   -2.870250    0.016030
  C     -1.575870   -6.003540    2.376760
  C     -1.830780   -7.162160    3.233570
  O     -1.127760   -8.144330    3.390530
  C     -0.448070   -5.805020    1.613670
  C      0.688690   -6.603450    1.452260
  C      1.760070   -6.207920    0.635540
  C      2.785310   -7.129460    0.623060
  C      2.502490   -8.255630    1.438480
  S      0.988240   -8.172390    2.208190
  C      3.609910   -9.128790    1.371470
  C      4.589700   -8.574440    0.525380
  C      4.101150   -7.298730    0.024130
  C      4.743120   -6.443060   -0.820210
  C      6.027650   -6.721670   -1.335060
  N      7.070800   -6.946430   -1.753280
  C      4.166960   -5.222230   -1.233380
  N      3.703240   -4.230070   -1.570870
  C      5.729130   -9.368460    0.415970
  C      5.625850  -10.524160    1.175840
  S      4.094970  -10.629500    2.027280
  C      6.595940  -11.546930    1.335050
  C      7.859490  -11.618380    0.771020
  C      8.550770  -12.755210    1.187550
  C      7.805830  -13.555660    2.071470
  S      6.258250  -12.914980    2.386070
  C      8.598760  -14.662360    2.460860
  C      9.849680  -14.565220    1.827430
  C      9.857900  -13.369740    0.996730
  C     10.871980  -12.917320    0.207150
  C     12.104710  -13.596460    0.092990
  N     13.108620  -14.139970   -0.007080
  C     10.755270  -11.734980   -0.555920
  N     10.658120  -10.775960   -1.175930
  C     10.718360  -15.599880    2.177740
  C     10.132350  -16.478750    3.071610
  S      8.484350  -16.027670    3.476660
  C     10.706700  -17.625260    3.686690
  C     12.008530  -18.084960    3.599450
  F     12.945060  -17.488600    2.856650
  C     12.252860  -19.224000    4.377310
  C     11.111980  -19.649390    5.067060
  S      9.751160  -18.639970    4.747720
  C     11.365660  -20.772420    5.859030
  C     12.702950  -21.181410    5.770110
  S     13.655050  -20.201650    4.693330
  C     12.978210  -22.276900    6.595270
  F     14.148060  -22.907530    6.602210
  C     11.875750  -22.718560    7.308320
  S     10.450220  -21.775510    6.916210
  C     11.780740  -23.801020    8.224180
  C     12.759000  -24.158360    9.099220
  C     12.776900  -25.332790    9.952320
  C     11.997270  -26.448550    9.801300
  C     12.071490  -27.583570   10.636110
  N     12.084640  -28.527220   11.288940
  C     11.040550  -26.621030    8.778200
  N     10.260080  -26.828580    7.962530
  C     13.831500  -25.146430   10.938570
  C     14.489300  -23.917860   10.679980
  C     13.866340  -23.254120    9.520570
  O     14.127860  -22.155690    9.086180
  C     15.533290  -23.460880   11.447530
  C     15.951720  -24.255810   12.519350
  C     15.286860  -25.480810   12.772360
  C     14.229770  -25.941430   11.998000
  S     15.957350  -26.298670   14.150010
  C     17.106780  -25.004960   14.364280
  C     16.995820  -24.009910   13.451640
  Br    18.340710  -25.088070   15.772890
  H     -5.191400   -4.216580    3.707410
  H     -7.188450   -4.432680    3.969500
  H     -3.394870   -8.635600    5.131770
  H     -0.401530   -4.884130    1.044810
  H      1.751280   -5.278600    0.093600
  H      6.592760   -9.127940   -0.175700
  H      8.247580  -10.874470    0.100290
  H     11.722180  -15.712380    1.811900
  H     10.835440  -24.329100    8.228200
  H     16.013420  -22.520800   11.225660
  H     13.749980  -26.876520   12.234410
  H     17.622940  -23.137340   13.436330

 Total Charge           Charge          ....    0
 Multiplicity           Mult            ....    1
 Number of Electrons    NEL             ....  660
 Basis Dimension        Dim             .... 1314

ORBITAL ENERGIES
----------------

  NO   OCC          E(Eh)            E(eV)
   0   2.0000    -482.890645    -13140.1225
   1   2.0000     -89.010920     -2422.1103
   2   2.0000     -89.009632     -2422.0752
   3   2.0000     -89.006785     -2421.9977
   4   2.0000     -89.005564     -2421.9645
   5   2.0000     -88.996772     -2421.7253
   6   2.0000     -88.992324     -2421.6043
   7   2.0000     -88.990608     -2421.5575
   8   2.0000     -88.981267     -2421.3034
   9   2.0000     -62.568348     -1702.5713
  10   2.0000     -56.402301     -1534.7846
  11   2.0000     -56.399576     -1534.7105
  12   2.0000     -56.399550     -1534.7098
  13   2.0000     -24.821702      -675.4329
  14   2.0000     -24.814833      -675.2459
  15   2.0000     -19.278804      -524.6029
  16   2.0000     -19.247269      -523.7448
  17   2.0000     -19.223890      -523.1086
  18   2.0000     -19.217853      -522.9444
  19   2.0000     -14.443504      -393.0277
  20   2.0000     -14.443435      -393.0259
  21   2.0000     -14.442229      -392.9930
  22   2.0000     -14.441790      -392.9811
  23   2.0000     -14.437191      -392.8559
  24   2.0000     -14.436602      -392.8399
  25   2.0000     -14.422155      -392.4468
  26   2.0000     -14.421979      -392.4420
  27   2.0000     -14.414681      -392.2434
  28   2.0000     -10.423843      -283.6472
  29   2.0000     -10.398593      -282.9601
  30   2.0000     -10.396735      -282.9095
  31   2.0000     -10.395412      -282.8735
  32   2.0000     -10.381432      -282.4931
  33   2.0000     -10.379702      -282.4460
  34   2.0000     -10.374745      -282.3112
  35   2.0000     -10.368621      -282.1445
  36   2.0000     -10.365807      -282.0679
  37   2.0000     -10.365742      -282.0662
  38   2.0000     -10.364765      -282.0396
  39   2.0000     -10.364746      -282.0391
  40   2.0000     -10.355831      -281.7965
  41   2.0000     -10.353859      -281.7428
  42   2.0000     -10.353274      -281.7269
  43   2.0000     -10.351530      -281.6794
  44   2.0000     -10.350384      -281.6483
  45   2.0000     -10.348606      -281.5999
  46   2.0000     -10.348350      -281.5929
  47   2.0000     -10.347766      -281.5770
  48   2.0000     -10.347435      -281.5680
  49   2.0000     -10.346943      -281.5546
  50   2.0000     -10.346458      -281.5414
  51   2.0000     -10.345600      -281.5181
  52   2.0000     -10.344924      -281.4997
  53   2.0000     -10.342905      -281.4447
  54   2.0000     -10.342860      -281.4435
  55   2.0000     -10.342769      -281.4411
  56   2.0000     -10.342712      -281.4395
  57   2.0000     -10.341743      -281.4131
  58   2.0000     -10.341227      -281.3991
  59   2.0000     -10.340463      -281.3783
  60   2.0000     -10.340415      -281.3770
  61   2.0000     -10.340229      -281.3719
  62   2.0000     -10.339355      -281.3482
  63   2.0000     -10.338219      -281.3173
  64   2.0000     -10.334353      -281.2120
  65   2.0000     -10.334252      -281.2093
  66   2.0000     -10.333293      -281.1832
  67   2.0000     -10.332471      -281.1608
  68   2.0000     -10.331908      -281.1455
  69   2.0000     -10.331395      -281.1316
  70   2.0000     -10.331029      -281.1216
  71   2.0000     -10.329648      -281.0840
  72   2.0000     -10.325145      -280.9615
  73   2.0000     -10.324696      -280.9493
  74   2.0000     -10.324400      -280.9412
  75   2.0000     -10.321935      -280.8741
  76   2.0000     -10.321854      -280.8719
  77   2.0000     -10.321108      -280.8516
  78   2.0000     -10.320548      -280.8364
  79   2.0000     -10.319510      -280.8081
  80   2.0000     -10.317646      -280.7574
  81   2.0000     -10.315073      -280.6874
  82   2.0000     -10.315034      -280.6863
  83   2.0000     -10.314662      -280.6762
  84   2.0000     -10.314024      -280.6589
  85   2.0000     -10.312358      -280.6135
  86   2.0000     -10.309150      -280.5262
  87   2.0000     -10.307474      -280.4806
  88   2.0000     -10.302142      -280.3355
  89   2.0000     -10.299467      -280.2628
  90   2.0000      -8.797787      -239.3999
  91   2.0000      -8.105777      -220.5694
  92   2.0000      -8.104482      -220.5342
  93   2.0000      -8.101574      -220.4550
  94   2.0000      -8.098084      -220.3601
  95   2.0000      -8.091894      -220.1916
  96   2.0000      -8.086699      -220.0503
  97   2.0000      -8.085811      -220.0261
  98   2.0000      -8.077298      -219.7944
  99   2.0000      -6.634082      -180.5225
 100   2.0000      -6.619533      -180.1266
 101   2.0000      -6.619303      -180.1204
 102   2.0000      -6.075100      -165.3119
 103   2.0000      -6.073780      -165.2759
 104   2.0000      -6.070906      -165.1977
 105   2.0000      -6.070858      -165.1964
 106   2.0000      -6.069586      -165.1618
 107   2.0000      -6.068001      -165.1187
 108   2.0000      -6.067553      -165.1065
 109   2.0000      -6.066732      -165.0842
 110   2.0000      -6.066687      -165.0830
 111   2.0000      -6.063790      -165.0041
 112   2.0000      -6.062760      -164.9761
 113   2.0000      -6.061648      -164.9458
 114   2.0000      -6.060520      -164.9151
 115   2.0000      -6.057604      -164.8358
 116   2.0000      -6.056634      -164.8094
 117   2.0000      -6.055482      -164.7781
 118   2.0000      -6.052983      -164.7100
 119   2.0000      -6.052560      -164.6985
 120   2.0000      -6.051477      -164.6691
 121   2.0000      -6.047493      -164.5607
 122   2.0000      -6.046999      -164.5472
 123   2.0000      -6.046977      -164.5466
 124   2.0000      -6.042705      -164.4304
 125   2.0000      -6.038514      -164.3163
 126   2.0000      -2.749994       -74.8311
 127   2.0000      -2.745859       -74.7186
 128   2.0000      -2.745694       -74.7141
 129   2.0000      -2.734119       -74.3992
 130   2.0000      -2.734110       -74.3989
 131   2.0000      -1.335874       -36.3510
 132   2.0000      -1.331127       -36.2218
 133   2.0000      -1.202963       -32.7343
 134   2.0000      -1.163152       -31.6510
 135   2.0000      -1.139710       -31.0131
 136   2.0000      -1.118001       -30.4223
 137   2.0000      -1.064993       -28.9799
 138   2.0000      -1.060773       -28.8651
 139   2.0000      -1.052906       -28.6510
 140   2.0000      -1.043745       -28.4017
 141   2.0000      -1.036398       -28.2018
 142   2.0000      -1.034546       -28.1514
 143   2.0000      -1.029592       -28.0166
 144   2.0000      -1.026354       -27.9285
 145   2.0000      -1.025885       -27.9157
 146   2.0000      -1.020820       -27.7779
 147   2.0000      -1.019804       -27.7503
 148   2.0000      -1.019201       -27.7339
 149   2.0000      -1.016168       -27.6513
 150   2.0000      -1.015335       -27.6287
 151   2.0000      -1.005941       -27.3730
 152   2.0000      -1.002351       -27.2754
 153   2.0000      -1.000790       -27.2329
 154   2.0000      -0.996302       -27.1107
 155   2.0000      -0.982327       -26.7305
 156   2.0000      -0.976827       -26.5808
 157   2.0000      -0.970974       -26.4216
 158   2.0000      -0.960696       -26.1419
 159   2.0000      -0.948119       -25.7996
 160   2.0000      -0.939634       -25.5687
 161   2.0000      -0.929081       -25.2816
 162   2.0000      -0.925300       -25.1787
 163   2.0000      -0.915008       -24.8986
 164   2.0000      -0.911288       -24.7974
 165   2.0000      -0.907243       -24.6873
 166   2.0000      -0.901167       -24.5220
 167   2.0000      -0.893304       -24.3080
 168   2.0000      -0.892350       -24.2821
 169   2.0000      -0.890892       -24.2424
 170   2.0000      -0.882471       -24.0133
 171   2.0000      -0.877837       -23.8871
 172   2.0000      -0.873897       -23.7800
 173   2.0000      -0.869663       -23.6647
 174   2.0000      -0.859735       -23.3946
 175   2.0000      -0.856985       -23.3197
 176   2.0000      -0.840558       -22.8728
 177   2.0000      -0.835603       -22.7379
 178   2.0000      -0.822927       -22.3930
 179   2.0000      -0.818518       -22.2730
 180   2.0000      -0.808678       -22.0052
 181   2.0000      -0.797598       -21.7037
 182   2.0000      -0.793462       -21.5912
 183   2.0000      -0.790218       -21.5029
 184   2.0000      -0.778491       -21.1838
 185   2.0000      -0.766542       -20.8587
 186   2.0000      -0.759520       -20.6676
 187   2.0000      -0.753633       -20.5074
 188   2.0000      -0.738583       -20.0979
 189   2.0000      -0.727634       -19.7999
 190   2.0000      -0.722478       -19.6596
 191   2.0000      -0.719030       -19.5658
 192   2.0000      -0.716703       -19.5025
 193   2.0000      -0.711500       -19.3609
 194   2.0000      -0.707048       -19.2398
 195   2.0000      -0.701466       -19.0879
 196   2.0000      -0.699225       -19.0269
 197   2.0000      -0.698350       -19.0031
 198   2.0000      -0.695357       -18.9216
 199   2.0000      -0.691781       -18.8243
 200   2.0000      -0.688336       -18.7306
 201   2.0000      -0.684576       -18.6283
 202   2.0000      -0.676108       -18.3978
 203   2.0000      -0.672529       -18.3005
 204   2.0000      -0.666233       -18.1291
 205   2.0000      -0.661156       -17.9910
 206   2.0000      -0.654955       -17.8222
 207   2.0000      -0.649631       -17.6774
 208   2.0000      -0.646147       -17.5826
 209   2.0000      -0.638758       -17.3815
 210   2.0000      -0.636940       -17.3320
 211   2.0000      -0.632570       -17.2131
 212   2.0000      -0.631637       -17.1877
 213   2.0000      -0.626025       -17.0350
 214   2.0000      -0.618154       -16.8208
 215   2.0000      -0.615225       -16.7411
 216   2.0000      -0.609677       -16.5902
 217   2.0000      -0.607146       -16.5213
 218   2.0000      -0.600229       -16.3331
 219   2.0000      -0.597645       -16.2627
 220   2.0000      -0.595244       -16.1974
 221   2.0000      -0.592931       -16.1345
 222   2.0000      -0.583846       -15.8873
 223   2.0000      -0.581919       -15.8348
 224   2.0000      -0.578689       -15.7469
 225   2.0000      -0.573070       -15.5940
 226   2.0000      -0.570171       -15.5152
 227   2.0000      -0.569384       -15.4937
 228   2.0000      -0.566324       -15.4105
 229   2.0000      -0.561594       -15.2817
 230   2.0000      -0.558667       -15.2021
 231   2.0000      -0.556157       -15.1338
 232   2.0000      -0.552899       -15.0451
 233   2.0000      -0.552212       -15.0265
 234   2.0000      -0.551357       -15.0032
 235   2.0000      -0.548013       -14.9122
 236   2.0000      -0.547224       -14.8907
 237   2.0000      -0.545061       -14.8319
 238   2.0000      -0.538740       -14.6598
 239   2.0000      -0.536731       -14.6052
 240   2.0000      -0.534037       -14.5319
 241   2.0000      -0.531112       -14.4523
 242   2.0000      -0.530416       -14.4334
 243   2.0000      -0.526591       -14.3293
 244   2.0000      -0.524638       -14.2761
 245   2.0000      -0.520836       -14.1727
 246   2.0000      -0.519949       -14.1485
 247   2.0000      -0.517633       -14.0855
 248   2.0000      -0.517506       -14.0821
 249   2.0000      -0.517181       -14.0732
 250   2.0000      -0.515256       -14.0208
 251   2.0000      -0.514435       -13.9985
 252   2.0000      -0.513062       -13.9611
 253   2.0000      -0.511446       -13.9171
 254   2.0000      -0.508827       -13.8459
 255   2.0000      -0.506636       -13.7863
 256   2.0000      -0.504279       -13.7221
 257   2.0000      -0.502583       -13.6760
 258   2.0000      -0.499356       -13.5882
 259   2.0000      -0.496588       -13.5128
 260   2.0000      -0.494264       -13.4496
 261   2.0000      -0.492910       -13.4128
 262   2.0000      -0.489956       -13.3324
 263   2.0000      -0.484607       -13.1868
 264   2.0000      -0.482687       -13.1346
 265   2.0000      -0.479022       -13.0349
 266   2.0000      -0.476410       -12.9638
 267   2.0000      -0.473662       -12.8890
 268   2.0000      -0.472661       -12.8618
 269   2.0000      -0.472469       -12.8565
 270   2.0000      -0.471770       -12.8375
 271   2.0000      -0.469294       -12.7701
 272   2.0000      -0.469108       -12.7651
 273   2.0000      -0.467846       -12.7307
 274   2.0000      -0.464865       -12.6496
 275   2.0000      -0.463969       -12.6253
 276   2.0000      -0.463796       -12.6205
 277   2.0000      -0.458065       -12.4646
 278   2.0000      -0.457038       -12.4366
 279   2.0000      -0.455067       -12.3830
 280   2.0000      -0.454167       -12.3585
 281   2.0000      -0.453254       -12.3337
 282   2.0000      -0.452946       -12.3253
 283   2.0000      -0.452456       -12.3120
 284   2.0000      -0.451733       -12.2923
 285   2.0000      -0.450822       -12.2675
 286   2.0000      -0.450354       -12.2547
 287   2.0000      -0.450116       -12.2483
 288   2.0000      -0.447639       -12.1809
 289   2.0000      -0.445685       -12.1277
 290   2.0000      -0.444111       -12.0849
 291   2.0000      -0.442825       -12.0499
 292   2.0000      -0.441944       -12.0259
 293   2.0000      -0.441421       -12.0117
 294   2.0000      -0.437955       -11.9174
 295   2.0000      -0.436722       -11.8838
 296   2.0000      -0.436382       -11.8746
 297   2.0000      -0.433491       -11.7959
 298   2.0000      -0.430824       -11.7233
 299   2.0000      -0.428225       -11.6526
 300   2.0000      -0.426365       -11.6020
 301   2.0000      -0.425189       -11.5700
 302   2.0000      -0.421650       -11.4737
 303   2.0000      -0.419726       -11.4213
 304   2.0000      -0.415560       -11.3079
 305   2.0000      -0.410104       -11.1595
 306   2.0000      -0.407177       -11.0798
 307   2.0000      -0.399035       -10.8583
 308   2.0000      -0.394182       -10.7262
 309   2.0000      -0.387891       -10.5550
 310   2.0000      -0.379804       -10.3350
 311   2.0000      -0.379444       -10.3252
 312   2.0000      -0.375328       -10.2132
 313   2.0000      -0.369578       -10.0567
 314   2.0000      -0.365881        -9.9561
 315   2.0000      -0.364828        -9.9275
 316   2.0000      -0.362400        -9.8614
 317   2.0000      -0.359118        -9.7721
 318   2.0000      -0.355683        -9.6786
 319   2.0000      -0.347844        -9.4653
 320   2.0000      -0.343554        -9.3486
 321   2.0000      -0.339439        -9.2366
 322   2.0000      -0.337273        -9.1777
 323   2.0000      -0.330971        -9.0062
 324   2.0000      -0.321571        -8.7504
 325   2.0000      -0.311206        -8.4683
 326   2.0000      -0.307327        -8.3628
 327   2.0000      -0.299524        -8.1505
 328   2.0000      -0.283006        -7.7010
 329   2.0000      -0.256214        -6.9719
 330   0.0000      -0.131640        -3.5821
 331   0.0000      -0.116721        -3.1761
 332   0.0000      -0.108256        -2.9458
 333   0.0000      -0.101406        -2.7594
 334   0.0000      -0.095357        -2.5948

MULLIKEN ATOMIC CHARGES
-----------------------
   0 C :   -0.083027
   1 C :    0.014393
   2 C :    0.181840
   3 O :   -0.145875
   4 O :   -0.138437
   5 C :   -0.077824
   6 C :   -0.156837
   7 N :    0.143138
   8 C :   -0.030453
   9 C :   -0.004958
  10 C :    0.039124
  11 C :    0.321403
  12 C :   -0.340113
  13 C :   -0.184992
  14 N :    0.147929
  15 C :   -0.184739
  16 N :    0.161645
  17 C :   -0.103227
  18 C :    0.173898
  19 O :   -0.177608
  20 C :   -0.021401
  21 C :   -0.054233
  22 C :   -0.056303
  23 C :    0.048336
  24 C :   -0.060826
  25 S :    0.243237
  26 C :   -0.112173
  27 C :    0.031839
  28 C :    0.299913
  29 C :   -0.291088
  30 C :   -0.190636
  31 N :    0.188777
  32 C :   -0.193412
  33 N :    0.191391
  34 C :   -0.059462
  35 C :   -0.036996
  36 S :    0.195714
  37 C :   -0.057869
  38 C :   -0.049608
  39 C :    0.018072
  40 C :   -0.094928
  41 S :    0.187250
  42 C :   -0.102057
  43 C :    0.015953
  44 C :    0.300086
  45 C :   -0.288065
  46 C :   -0.187517
  47 N :    0.184354
  48 C :   -0.192095
  49 N :    0.184170
  50 C :   -0.054111
  51 C :   -0.053905
  52 S :    0.188042
  53 C :   -0.118973
  54 C :    0.184044
  55 F :   -0.163486
  56 C :   -0.073026
  57 C :   -0.075399
  58 S :    0.176474
  59 C :   -0.074139
  60 C :   -0.098571
  61 S :    0.228346
  62 C :    0.270984
  63 F :   -0.150521
  64 C :   -0.193288
  65 S :    0.192659
  66 C :    0.024118
  67 C :   -0.089998
  68 C :    0.290867
  69 C :   -0.333595
  70 C :   -0.185552
  71 N :    0.156655
  72 C :   -0.203393
  73 N :    0.161941
  74 C :    0.019545
  75 C :   -0.021920
  76 C :    0.145349
  77 O :   -0.143993
  78 C :   -0.064811
  79 C :    0.117407
  80 C :   -0.089892
  81 C :   -0.019523
  82 S :    0.189849
  83 C :   -0.124055
  84 C :    0.038907
  85 Br:    0.028638
  86 H :   -0.005079
  87 H :    0.191619
  88 H :    0.015184
  89 H :    0.018004
  90 H :    0.031597
  91 H :    0.017015
  92 H :    0.016390
  93 H :    0.016779
  94 H :    0.037016
  95 H :   -0.009397
  96 H :   -0.005641
  97 H :   -0.000862
Sum of atomic charges:   -0.0000000

LOEWDIN ATOMIC CHARGES
----------------------
   0 C :   -0.001024
   1 C :   -0.037043
   2 C :    0.080392
   3 O :   -0.118154
   4 O :   -0.012600
   5 C :   -0.022877
   6 C :   -0.034589
   7 N :   -0.024185
   8 C :    0.048717
   9 C :   -0.031259
  10 C :    0.001920
  11 C :    0.073057
  12 C :   -0.134013
  13 C :   -0.015978
  14 N :   -0.052385
  15 C :   -0.024212
  16 N :   -0.035375
  17 C :   -0.122350
  18 C :    0.085179
  19 O :   -0.164617
  20 C :    0.062066
  21 C :   -0.186041
  22 C :    0.020519
  23 C :   -0.077859
  24 C :   -0.156325
  25 S :    0.544736
  26 C :   -0.196575
  27 C :   -0.043157
  28 C :    0.074042
  29 C :   -0.091973
  30 C :   -0.019381
  31 N :   -0.019460
  32 C :   -0.019799
  33 N :   -0.018054
  34 C :   -0.030876
  35 C :   -0.161247
  36 S :    0.473620
  37 C :   -0.189712
  38 C :   -0.014937
  39 C :   -0.067287
  40 C :   -0.173012
  41 S :    0.469522
  42 C :   -0.185923
  43 C :   -0.062214
  44 C :    0.077839
  45 C :   -0.091479
  46 C :   -0.018603
  47 N :   -0.020900
  48 C :   -0.018631
  49 N :   -0.021304
  50 C :   -0.025053
  51 C :   -0.175791
  52 S :    0.471619
  53 C :   -0.213849
  54 C :    0.041116
  55 F :   -0.040319
  56 C :   -0.206255
  57 C :   -0.210915
  58 S :    0.436044
  59 C :   -0.196265
  60 C :   -0.214761
  61 S :    0.453251
  62 C :    0.072514
  63 F :   -0.026736
  64 C :   -0.211843
  65 S :    0.452114
  66 C :    0.045048
  67 C :   -0.084872
  68 C :    0.073277
  69 C :   -0.135632
  70 C :   -0.018870
  71 N :   -0.048337
  72 C :   -0.023703
  73 N :   -0.047973
  74 C :   -0.021615
  75 C :   -0.049901
  76 C :    0.080433
  77 O :   -0.135390
  78 C :    0.023441
  79 C :   -0.031182
  80 C :   -0.143474
  81 C :   -0.008387
  82 S :    0.435486
  83 C :   -0.270276
  84 C :   -0.070422
  85 Br:    0.140641
  86 H :    0.034935
  87 H :    0.099253
  88 H :    0.052689
  89 H :    0.054716
  90 H :    0.049672
  91 H :    0.044241
  92 H :    0.044346
  93 H :    0.041660
  94 H :    0.046625
  95 H :    0.041591
  96 H :    0.041322
  97 H :    0.039582

  Mayer bond orders larger than 0.100000
B(  0-C ,  1-C ) :   1.3154 B(  0-C , 10-C ) :   1.3949 B(  0-C , 86-H ) :   0.9594
B(  1-C ,  2-C ) :   0.8678 B(  1-C ,  5-C ) :   1.3995 B(  2-C ,  3-O ) :   2.1661
B(  2-C ,  4-O ) :   1.2603 B(  4-O , 87-H ) :   0.9462 B(  5-C ,  6-C ) :   1.0648
B(  5-C ,  8-C ) :   1.3584 B(  6-C ,  7-N ) :   3.0380 B(  8-C ,  9-C ) :   1.3530
B(  8-C , 88-H ) :   1.0167 B(  9-C , 10-C ) :   1.3462 B(  9-C , 18-C ) :   0.9420
B( 10-C , 11-C ) :   0.9717 B( 11-C , 12-C ) :   1.6268 B( 11-C , 17-C ) :   1.0974
B( 12-C , 13-C ) :   1.1473 B( 12-C , 15-C ) :   1.1410 B( 13-C , 14-N ) :   2.9647
B( 15-C , 16-N ) :   2.9612 B( 17-C , 18-C ) :   0.9936 B( 17-C , 20-C ) :   1.4472
B( 18-C , 19-O ) :   2.1246 B( 20-C , 21-C ) :   1.3080 B( 20-C , 89-H ) :   0.9396
B( 21-C , 22-C ) :   1.3027 B( 21-C , 25-S ) :   1.0546 B( 22-C , 23-C ) :   1.3533
B( 22-C , 90-H ) :   1.0074 B( 23-C , 24-C ) :   1.3338 B( 23-C , 28-C ) :   0.9858
B( 24-C , 25-S ) :   1.1353 B( 24-C , 26-C ) :   1.2240 B( 26-C , 27-C ) :   1.4211
B( 26-C , 36-S ) :   1.1037 B( 27-C , 28-C ) :   0.9940 B( 27-C , 34-C ) :   1.3025
B( 28-C , 29-C ) :   1.7229 B( 29-C , 30-C ) :   1.1354 B( 29-C , 32-C ) :   1.1355
B( 30-C , 31-N ) :   2.9907 B( 32-C , 33-N ) :   2.9940 B( 34-C , 35-C ) :   1.4677
B( 34-C , 91-H ) :   0.9932 B( 35-C , 36-S ) :   1.1155 B( 35-C , 37-C ) :   1.1317
B( 37-C , 38-C ) :   1.4778 B( 37-C , 41-S ) :   1.0893 B( 38-C , 39-C ) :   1.2969
B( 38-C , 92-H ) :   0.9931 B( 39-C , 40-C ) :   1.4363 B( 39-C , 44-C ) :   0.9912
B( 40-C , 41-S ) :   1.1308 B( 40-C , 42-C ) :   1.1948 B( 42-C , 43-C ) :   1.4434
B( 42-C , 52-S ) :   1.1206 B( 43-C , 44-C ) :   0.9928 B( 43-C , 50-C ) :   1.2770
B( 44-C , 45-C ) :   1.7226 B( 45-C , 46-C ) :   1.1307 B( 45-C , 48-C ) :   1.1334
B( 46-C , 47-N ) :   2.9948 B( 48-C , 49-N ) :   2.9905 B( 50-C , 51-C ) :   1.4874
B( 50-C , 93-H ) :   0.9956 B( 51-C , 52-S ) :   1.1008 B( 51-C , 53-C ) :   1.1221
B( 53-C , 54-C ) :   1.5059 B( 53-C , 57-C ) :   0.1043 B( 53-C , 58-S ) :   1.0768
B( 54-C , 55-F ) :   1.1666 B( 54-C , 56-C ) :   1.2694 B( 56-C , 57-C ) :   1.4930
B( 56-C , 61-S ) :   1.0402 B( 57-C , 58-S ) :   1.0684 B( 57-C , 59-C ) :   1.3280
B( 59-C , 60-C ) :   1.4698 B( 59-C , 65-S ) :   1.0912 B( 60-C , 61-S ) :   1.0283
B( 60-C , 62-C ) :   1.2818 B( 62-C , 63-F ) :   1.2006 B( 62-C , 64-C ) :   1.4611
B( 64-C , 65-S ) :   1.0548 B( 64-C , 66-C ) :   1.1269 B( 66-C , 67-C ) :   1.6545
B( 66-C , 94-H ) :   0.9354 B( 67-C , 68-C ) :   1.0602 B( 67-C , 76-C ) :   0.9409
B( 68-C , 69-C ) :   1.6523 B( 68-C , 74-C ) :   1.0124 B( 69-C , 70-C ) :   1.1382
B( 69-C , 72-C ) :   1.1383 B( 70-C , 71-N ) :   2.9749 B( 72-C , 73-N ) :   2.9947
B( 74-C , 75-C ) :   1.2699 B( 74-C , 81-C ) :   1.4091 B( 75-C , 76-C ) :   0.9458
B( 75-C , 78-C ) :   1.4257 B( 76-C , 77-O ) :   2.2185 B( 78-C , 79-C ) :   1.2488
B( 78-C , 95-H ) :   1.0162 B( 79-C , 80-C ) :   1.3011 B( 79-C , 84-C ) :   1.1641
B( 80-C , 81-C ) :   1.3332 B( 80-C , 82-S ) :   1.0871 B( 81-C , 96-H ) :   0.9804
B( 82-S , 83-C ) :   1.0872 B( 83-C , 84-C ) :   1.6168 B( 83-C , 85-Br) :   1.0225
B( 84-C , 97-H ) :   0.9999

-----------------------------------------------------------------------------
         ABSORPTION SPECTRUM VIA TRANSITION ELECTRIC DIPOLE MOMENTS
-----------------------------------------------------------------------------
State   Energy  Wavelength   fosc         T2         TX        TY        TZ
        (cm-1)    (nm)                  (au**2)     (au)      (au)      (au)
-----------------------------------------------------------------------------
   0   11558.4    865.2   0.698258032  19.88820  -2.97973   3.21946  -0.80282
   1   13631.1    733.6   0.141050918   3.40659   1.59674  -0.83746  -0.39454
   2   18881.0    529.6   1.603381802  27.95687   3.60044  -3.73515   1.02097
   3   20291.1    492.8   0.709874980  11.51731   1.03892   1.76963  -2.70303
   4   20926.3    477.9   0.341802639   5.37722   0.87743  -1.78114   1.19786
   5   22445.4    445.5   0.133631494   1.96000   1.14734  -0.05675  -0.80025
   6   23361.5    428.1   0.083814548   1.18112   0.98055  -0.15830  -0.44111
   7   26229.8    381.2   0.039174671   0.49168   0.67116   0.04171   0.19872
   8   26373.2    379.2   0.209379834   2.61365  -0.50121   1.36193  -0.71244
   9   26778.5    373.4   0.035141623   0.43203  -0.15068   0.29388   0.56829
  10   27103.7    369.0   0.209904578   2.54959  -1.34820   0.78557  -0.33887
  11   27233.8    367.2   0.018767793   0.22687  -0.14279  -0.14124  -0.43190
  12   27600.8    362.3   0.205720143   2.45375   1.03988   0.10588   1.16670
  13   28770.9    347.6   0.110673001   1.26638  -0.16236  -0.98591   0.51769
  14   29267.3    341.7   0.101253535   1.13894  -0.23642   1.01350  -0.23634
  15   29450.8    339.5   0.071422872   0.79839  -0.52901   0.68740  -0.21451
  16   29615.0    337.7   0.015978667   0.17762   0.13146  -0.36662   0.16104
  17   29674.5    337.0   0.055911781   0.62029   0.63044  -0.06930   0.46694
  18   29963.2    333.7   0.089969016   0.98851  -0.22655  -0.82874   0.50037
  19   30099.6    332.2   0.102349503   1.11944   0.75003  -0.68140  -0.30428
  20   30434.9    328.6   0.307341812   3.32449  -0.29100   1.04296  -1.46698
  21   30977.6    322.8   0.103391102   1.09878   0.87455   0.08297  -0.57190
  22   31327.7    319.2   0.093653325   0.98417  -0.92330  -0.29736   0.20799
  23   31349.1    319.0   0.150309773   1.57848   1.19721   0.36119  -0.12124
  24   31638.3    316.1   0.397766325   4.13896   1.11191   0.66956  -1.56662
  25   32048.2    312.0   0.112635295   1.15704   0.85266   0.65308  -0.05900
  26   32836.8    304.5   0.076716857   0.76914   0.72636   0.11812  -0.47707
  27   32851.9    304.4   0.045964592   0.46062   0.46962  -0.48021   0.09732
  28   33090.5    302.2   0.233594210   2.32399   1.37353   0.45435   0.48059
  29   33157.9    301.6   0.303901957   3.01732   0.78261   0.80940   1.32277
  30   33346.4    299.9   0.248605767   2.45436  -1.18814  -0.83261   0.59114
  31   33680.7    296.9   0.111251815   1.08743   0.84212  -0.61440  -0.02790
  32   33888.9    295.1   0.150589725   1.46289  -1.14033   0.40150   0.03676
  33   34229.9    292.1   0.060315868   0.58010  -0.30717  -0.56047   0.41427
  34   34404.9    290.7   0.934381947   8.94086   0.98609   1.99713  -1.99499
  35   34507.9    289.8   0.060085622   0.57323   0.57470  -0.06189  -0.48900
  36   34778.3    287.5   0.027164142   0.25714   0.08606   0.36727  -0.33888
  37   34810.1    287.3   0.015900646   0.15038   0.13056   0.30351  -0.20301
  38   35058.0    285.2   0.207990634   1.95314   1.22089   0.08706  -0.67452
  39   35263.7    283.6   0.022896799   0.21376  -0.06191   0.18006  -0.42131
  40   35324.2    283.1   0.001330306   0.01240   0.02650  -0.10173   0.03671
  41   35579.7    281.1   0.016215253   0.15004   0.11464   0.24543  -0.27687
  42   35798.0    279.3   0.013857481   0.12744   0.29545  -0.20016   0.00921
  43   36083.5    277.1   0.033228504   0.30316   0.33942   0.42613   0.07984
  44   36518.3    273.8   0.057318728   0.51673  -0.29462  -0.43758   0.48831
  45   36663.1    272.8   0.070811982   0.63585  -0.34493  -0.41692   0.58570
  46   36679.0    272.6   0.010824315   0.09715  -0.02391  -0.14422   0.27529
  47   36771.2    272.0   0.040516268   0.36274   0.60064  -0.01760  -0.04079
  48   37042.2    270.0   0.023485438   0.20873   0.16584   0.30101  -0.30103
  49   37273.3    268.3   0.044539764   0.39339  -0.50213   0.16581  -0.33729
  50   37676.9    265.4   0.059001790   0.51554   0.30020  -0.63646   0.14263
  51   37767.7    264.8   0.025724399   0.22423   0.19439  -0.41385   0.12316
  52   38033.2    262.9   0.012318347   0.10663   0.23229  -0.22835   0.02288
  53   38155.6    262.1   0.028186290   0.24320   0.39917  -0.04468  -0.28611
  54   38325.0    260.9   0.002239052   0.01923  -0.11918   0.03045  -0.06406
  55   38636.2    258.8   0.083463662   0.71118  -0.36209  -0.58031   0.49326
  56   38717.3    258.3   0.000711651   0.00605   0.01059   0.06778  -0.03667
  57   38752.3    258.0   0.088250578   0.74971  -0.29444  -0.73660   0.34704
  58   38847.2    257.4   0.043134485   0.36554  -0.28613  -0.28436   0.45035
  59   39016.5    256.3   0.003648027   0.03078  -0.00908  -0.11043   0.13603
  60   39163.7    255.3   0.027223050   0.22884  -0.14775  -0.29448   0.34683
  61   39314.9    254.4   0.036538473   0.30596   0.27988  -0.47254  -0.06586
  62   39495.6    253.2   0.139988544   1.16686  -0.24373   0.93742  -0.47822
  63   39974.0    250.2   0.081532408   0.67147  -0.67935   0.45343  -0.06602
  64   40093.0    249.4   0.002363411   0.01941  -0.08074   0.02604  -0.11050
  65   40274.3    248.3   0.011737506   0.09595   0.15358  -0.24755   0.10524
  66   40308.8    248.1   0.021553367   0.17603  -0.38602   0.10167   0.12918

FINAL SINGLE POINT ENERGY     -9117.302090163692

DIPOLE MOMENT
-------------
                                X             Y             Z
Electronic contribution:    133.78886    -124.23428      99.71952
Nuclear contribution   :   -131.16220     122.90972     -98.84212
                        -----------------------------------------
Total Dipole Moment    :      2.62665      -1.32457       0.87740
                        -----------------------------------------
Magnitude (a.u.)       :      3.06979
Magnitude (Debye)      :      7.80279

Rotational constants in cm-1:     0.000759     0.000103     0.000095
Rotational constants in MHz :    22.743024     3.101537     2.846821

                             ****ORCA TERMINATED NORMALLY****
TOTAL RUN TIME: 0 days 0 hours 11 minutes 52 seconds 554 msec
