                         Program Version 4.2.0 -  RELEASE  -
|  1> # ORCA input file
|  2> # SCF done       -206.269070911344          0.000772327706
|  3> ! CAM-B3LYP def2-SVP def2/J RIJCOSX Grid4 TightSCF
|  4> %maxcore 5000
|  5> %tddft
|  6>     Mode sTDDFT
|  7>     Ethresh 5.0
|  8>     maxcore 5000
|  9> end
| 10>
| 11> %pal
| 12>   nprocs 6
| 13>   end
| 14> * xyz 0 1
| 15>    C       -0.31461        -4.59289         2.80959
| 16>    S       -1.36429        -5.04978         1.55402
| 17>    C       -0.31969        -4.40061         0.32868
| 18>    C        0.80788        -3.81979         0.91057
| 19>    C        0.80682        -3.93776         2.34077
| 20>    C        1.88050        -3.40668         3.09038
| 21>    C        2.89396        -2.76826         2.43796
| 22>    C        4.05128        -2.18501         3.20235
| 23>    F        3.96947        -2.43049         4.51962
| 24>    F        5.23377        -2.66978         2.80036
| 25>    F        4.11668        -0.84746         3.07620
| 26>    C        2.87402        -2.60399         1.01932
| 27>    C        3.90875        -1.88965         0.36900
| 28>    N        4.72205        -1.30181        -0.18277
| 29>    C        1.84227        -3.11718         0.26890
| 30>    C       -0.63848        -4.55339        -1.05356
| 31>    C        0.16656        -5.04516        -2.07232
| 32>    N        1.47568        -5.54989        -1.98405
| 33>    O        2.01533        -5.58910        -0.88815
| 34>    O        1.98932        -5.94735        -3.01494
| 35>    C       -0.60806        -5.13416        -3.28014
| 36>    C       -1.88273        -4.74958        -3.00943
| 37>    C       -1.96384        -4.34587        -1.63482
| 38>    C       -3.02204        -3.69866        -1.01386
| 39>    C       -2.92972        -2.73672         0.02507
| 40>    C       -4.15575        -2.15659         0.19249
| 41>    C       -5.09690        -2.75442        -0.69598
| 42>    N       -6.43489        -2.33864        -0.67682
| 43>    O       -7.18519        -2.66309        -1.58805
| 44>    O       -6.78421        -1.64159         0.26159
| 45>    C       -4.44059        -3.75044        -1.44491
| 46>    C       -4.88248        -4.80034        -2.25454
| 47>    C       -6.10839        -4.95977        -2.86704
| 48>    C       -6.45402        -6.05092        -3.65928
| 49>    S       -7.96605        -6.02209        -4.54825
| 50>    C       -7.71080        -7.57580        -5.30455
| 51>    C       -6.48721        -8.11957        -4.85168
| 52>    C       -5.80279        -7.26449        -3.94770
| 53>    N       -4.65479        -7.87697        -3.57105
| 54>    C       -4.58348        -9.09664        -4.20504
| 55>    C       -3.50898        -9.97612        -4.00668
| 56>    N       -2.63711       -10.70300        -3.84453
| 57>    C       -5.69562        -9.27641        -5.00510
| 58>    C       -8.65595        -8.04664        -6.21556
| 59>    C       -8.58704        -9.24185        -6.89017
| 60>    C       -9.52536        -9.66687        -7.84393
| 61>    C      -10.64933        -8.99978        -8.32721
| 62>    C      -11.27665        -9.79270        -9.30967
| 63>    C      -10.48073       -11.03105        -9.41331
| 64>    C       -9.44428       -10.94078        -8.53989
| 65>    C      -10.73391       -12.11826       -10.25692
| 66>    N      -10.92350       -13.02115       -10.94134
| 67>    C      -12.40141        -9.48021       -10.05834
| 68>    C      -13.01059       -10.25572       -11.06659
| 69>    C      -14.10031        -9.56752       -11.58147
| 70>    C      -14.19631        -8.30180       -10.86823
| 71>    C      -13.19108        -8.23399        -9.95865
| 72>    C      -12.95929        -7.16235        -9.09049
| 73>    N      -12.79040        -6.26768        -8.38945
| 74>    C      -14.98975        -9.94520       -12.60850
| 75>    C      -14.91583       -11.11261       -13.31225
| 76>    C      -15.80155       -11.47525       -14.34319
| 77>    S      -17.12295       -10.45307       -14.83463
| 78>    C      -17.63764       -11.54178       -16.03078
| 79>    C      -16.84556       -12.67507       -16.08843
| 80>    C      -15.78653       -12.64640       -15.12094
| 81>    C      -14.88735       -13.72536       -15.04788
| 82>    C      -15.03795       -14.78438       -15.90146
| 83>    C      -14.09180       -15.95336       -15.84874
| 84>    F      -13.15028       -15.80907       -14.90748
| 85>    F      -14.72590       -17.10615       -15.57834
| 86>    F      -13.44259       -16.13200       -17.01100
| 87>    C      -16.08923       -14.81750       -16.86488
| 88>    C      -16.22692       -15.92391       -17.73939
| 89>    N      -16.36653       -16.80150       -18.46113
| 90>    C      -16.98092       -13.77643       -16.95640
| 91>    H       -0.55661        -4.83038         3.82634
| 92>    H        1.88604        -3.50909         4.16435
| 93>    H        1.82539        -2.96522        -0.79871
| 94>    H       -0.20262        -5.46197        -4.21809
| 95>    H       -2.66879        -4.63410        -3.73064
| 96>    H       -2.02094        -2.42857         0.50390
| 97>    H       -4.40884        -1.35886         0.86559
| 98>    H       -4.13568        -5.56116        -2.43271
| 99>    H       -6.84740        -4.17702        -2.77030
|100>    H       -3.96159        -7.53735        -2.92421
|101>    H       -5.88331       -10.14383        -5.60385
|102>    H       -9.50021        -7.39634        -6.39868
|103>    H       -7.75997        -9.90834        -6.69500
|104>    H      -10.98865        -8.03072        -8.02128
|105>    H       -8.68195       -11.68027        -8.37651
|106>    H      -12.66918       -11.22268       -11.37632
|107>    H      -14.94701        -7.55462       -11.04905
|108>    H      -15.78007        -9.24385       -12.84891
|109>    H      -14.13072       -11.81841       -13.08187
|110>    H      -18.49028       -11.31164       -16.63827
|111>    H      -14.08496       -13.72163       -14.32703
|112>    H      -17.77711       -13.79867       -17.68432
|113> *
|114>
|115>                          ****END OF INPUT****

CARTESIAN COORDINATES (ANGSTROEM)
---------------------------------
  C     -0.314610   -4.592890    2.809590
  S     -1.364290   -5.049780    1.554020
  C     -0.319690   -4.400610    0.328680
  C      0.807880   -3.819790    0.910570
  C      0.806820   -3.937760    2.340770
  C      1.880500   -3.406680    3.090380
  C      2.893960   -2.768260    2.437960
  C      4.051280   -2.185010    3.202350
  F      3.969470   -2.430490    4.519620
  F      5.233770   -2.669780    2.800360
  F      4.116680   -0.847460    3.076200
  C      2.874020   -2.603990    1.019320
  C      3.908750   -1.889650    0.369000
  N      4.722050   -1.301810   -0.182770
  C      1.842270   -3.117180    0.268900
  C     -0.638480   -4.553390   -1.053560
  C      0.166560   -5.045160   -2.072320
  N      1.475680   -5.549890   -1.984050
  O      2.015330   -5.589100   -0.888150
  O      1.989320   -5.947350   -3.014940
  C     -0.608060   -5.134160   -3.280140
  C     -1.882730   -4.749580   -3.009430
  C     -1.963840   -4.345870   -1.634820
  C     -3.022040   -3.698660   -1.013860
  C     -2.929720   -2.736720    0.025070
  C     -4.155750   -2.156590    0.192490
  C     -5.096900   -2.754420   -0.695980
  N     -6.434890   -2.338640   -0.676820
  O     -7.185190   -2.663090   -1.588050
  O     -6.784210   -1.641590    0.261590
  C     -4.440590   -3.750440   -1.444910
  C     -4.882480   -4.800340   -2.254540
  C     -6.108390   -4.959770   -2.867040
  C     -6.454020   -6.050920   -3.659280
  S     -7.966050   -6.022090   -4.548250
  C     -7.710800   -7.575800   -5.304550
  C     -6.487210   -8.119570   -4.851680
  C     -5.802790   -7.264490   -3.947700
  N     -4.654790   -7.876970   -3.571050
  C     -4.583480   -9.096640   -4.205040
  C     -3.508980   -9.976120   -4.006680
  N     -2.637110  -10.703000   -3.844530
  C     -5.695620   -9.276410   -5.005100
  C     -8.655950   -8.046640   -6.215560
  C     -8.587040   -9.241850   -6.890170
  C     -9.525360   -9.666870   -7.843930
  C    -10.649330   -8.999780   -8.327210
  C    -11.276650   -9.792700   -9.309670
  C    -10.480730  -11.031050   -9.413310
  C     -9.444280  -10.940780   -8.539890
  C    -10.733910  -12.118260  -10.256920
  N    -10.923500  -13.021150  -10.941340
  C    -12.401410   -9.480210  -10.058340
  C    -13.010590  -10.255720  -11.066590
  C    -14.100310   -9.567520  -11.581470
  C    -14.196310   -8.301800  -10.868230
  C    -13.191080   -8.233990   -9.958650
  C    -12.959290   -7.162350   -9.090490
  N    -12.790400   -6.267680   -8.389450
  C    -14.989750   -9.945200  -12.608500
  C    -14.915830  -11.112610  -13.312250
  C    -15.801550  -11.475250  -14.343190
  S    -17.122950  -10.453070  -14.834630
  C    -17.637640  -11.541780  -16.030780
  C    -16.845560  -12.675070  -16.088430
  C    -15.786530  -12.646400  -15.120940
  C    -14.887350  -13.725360  -15.047880
  C    -15.037950  -14.784380  -15.901460
  C    -14.091800  -15.953360  -15.848740
  F    -13.150280  -15.809070  -14.907480
  F    -14.725900  -17.106150  -15.578340
  F    -13.442590  -16.132000  -17.011000
  C    -16.089230  -14.817500  -16.864880
  C    -16.226920  -15.923910  -17.739390
  N    -16.366530  -16.801500  -18.461130
  C    -16.980920  -13.776430  -16.956400
  H     -0.556610   -4.830380    3.826340
  H      1.886040   -3.509090    4.164350
  H      1.825390   -2.965220   -0.798710
  H     -0.202620   -5.461970   -4.218090
  H     -2.668790   -4.634100   -3.730640
  H     -2.020940   -2.428570    0.503900
  H     -4.408840   -1.358860    0.865590
  H     -4.135680   -5.561160   -2.432710
  H     -6.847400   -4.177020   -2.770300
  H     -3.961590   -7.537350   -2.924210
  H     -5.883310  -10.143830   -5.603850
  H     -9.500210   -7.396340   -6.398680
  H     -7.759970   -9.908340   -6.695000
  H    -10.988650   -8.030720   -8.021280
  H     -8.681950  -11.680270   -8.376510
  H    -12.669180  -11.222680  -11.376320
  H    -14.947010   -7.554620  -11.049050
  H    -15.780070   -9.243850  -12.848910
  H    -14.130720  -11.818410  -13.081870
  H    -18.490280  -11.311640  -16.638270
  H    -14.084960  -13.721630  -14.327030
  H    -17.777110  -13.798670  -17.684320

 Total Charge           Charge          ....    0
 Multiplicity           Mult            ....    1
 Number of Electrons    NEL             ....  542
 Basis Dimension        Dim             .... 1186

ORBITAL ENERGIES
----------------

  NO   OCC          E(Eh)            E(eV)
   0   2.0000     -89.007128     -2422.0071
   1   2.0000     -88.997337     -2421.7407
   2   2.0000     -88.996348     -2421.7137
   3   2.0000     -24.808612      -675.0767
   4   2.0000     -24.802358      -674.9065
   5   2.0000     -24.802227      -674.9029
   6   2.0000     -24.798806      -674.8098
   7   2.0000     -24.793266      -674.6591
   8   2.0000     -24.791779      -674.6186
   9   2.0000     -19.238447      -523.5047
  10   2.0000     -19.237295      -523.4734
  11   2.0000     -19.235298      -523.4191
  12   2.0000     -19.232136      -523.3330
  13   2.0000     -14.647081      -398.5673
  14   2.0000     -14.644069      -398.4854
  15   2.0000     -14.514664      -394.9641
  16   2.0000     -14.437929      -392.8760
  17   2.0000     -14.421855      -392.4386
  18   2.0000     -14.419514      -392.3749
  19   2.0000     -14.415228      -392.2583
  20   2.0000     -14.402662      -391.9164
  21   2.0000     -10.527058      -286.4558
  22   2.0000     -10.516614      -286.1716
  23   2.0000     -10.375758      -282.3387
  24   2.0000     -10.360126      -281.9134
  25   2.0000     -10.356187      -281.8062
  26   2.0000     -10.343552      -281.4624
  27   2.0000     -10.341603      -281.4093
  28   2.0000     -10.341455      -281.4053
  29   2.0000     -10.339928      -281.3638
  30   2.0000     -10.337239      -281.2906
  31   2.0000     -10.336399      -281.2677
  32   2.0000     -10.335092      -281.2322
  33   2.0000     -10.332993      -281.1750
  34   2.0000     -10.332785      -281.1694
  35   2.0000     -10.330827      -281.1161
  36   2.0000     -10.330584      -281.1095
  37   2.0000     -10.329379      -281.0767
  38   2.0000     -10.328973      -281.0656
  39   2.0000     -10.328434      -281.0510
  40   2.0000     -10.327658      -281.0299
  41   2.0000     -10.327020      -281.0125
  42   2.0000     -10.326714      -281.0042
  43   2.0000     -10.325910      -280.9823
  44   2.0000     -10.325206      -280.9632
  45   2.0000     -10.324753      -280.9508
  46   2.0000     -10.324613      -280.9470
  47   2.0000     -10.324341      -280.9396
  48   2.0000     -10.324022      -280.9309
  49   2.0000     -10.322665      -280.8940
  50   2.0000     -10.322322      -280.8847
  51   2.0000     -10.322278      -280.8835
  52   2.0000     -10.321846      -280.8717
  53   2.0000     -10.321637      -280.8660
  54   2.0000     -10.321103      -280.8515
  55   2.0000     -10.320963      -280.8477
  56   2.0000     -10.320871      -280.8452
  57   2.0000     -10.320346      -280.8309
  58   2.0000     -10.318250      -280.7739
  59   2.0000     -10.318032      -280.7679
  60   2.0000     -10.314949      -280.6840
  61   2.0000     -10.314836      -280.6810
  62   2.0000     -10.314089      -280.6606
  63   2.0000     -10.313448      -280.6432
  64   2.0000     -10.312106      -280.6067
  65   2.0000     -10.310894      -280.5737
  66   2.0000     -10.309605      -280.5386
  67   2.0000     -10.308106      -280.4978
  68   2.0000     -10.307305      -280.4760
  69   2.0000     -10.305398      -280.4241
  70   2.0000     -10.301536      -280.3190
  71   2.0000     -10.300814      -280.2994
  72   2.0000     -10.296864      -280.1919
  73   2.0000     -10.292360      -280.0693
  74   2.0000     -10.290742      -280.0253
  75   2.0000     -10.284894      -279.8662
  76   2.0000      -8.102353      -220.4762
  77   2.0000      -8.092293      -220.2025
  78   2.0000      -8.091072      -220.1693
  79   2.0000      -6.071127      -165.2038
  80   2.0000      -6.066886      -165.0884
  81   2.0000      -6.065658      -165.0549
  82   2.0000      -6.061558      -164.9434
  83   2.0000      -6.059941      -164.8994
  84   2.0000      -6.057412      -164.8306
  85   2.0000      -6.055563      -164.7802
  86   2.0000      -6.054456      -164.7501
  87   2.0000      -6.054398      -164.7485
  88   2.0000      -1.395282       -37.9675
  89   2.0000      -1.385328       -37.6967
  90   2.0000      -1.317143       -35.8413
  91   2.0000      -1.312936       -35.7268
  92   2.0000      -1.298985       -35.3472
  93   2.0000      -1.294480       -35.2246
  94   2.0000      -1.288821       -35.0706
  95   2.0000      -1.284664       -34.9575
  96   2.0000      -1.135268       -30.8922
  97   2.0000      -1.134645       -30.8753
  98   2.0000      -1.129404       -30.7326
  99   2.0000      -1.037335       -28.2273
 100   2.0000      -1.030845       -28.0507
 101   2.0000      -1.027575       -27.9617
 102   2.0000      -1.021903       -27.8074
 103   2.0000      -1.016454       -27.6591
 104   2.0000      -1.013184       -27.5701
 105   2.0000      -1.011540       -27.5254
 106   2.0000      -1.005601       -27.3638
 107   2.0000      -1.000173       -27.2161
 108   2.0000      -0.997827       -27.1523
 109   2.0000      -0.993626       -27.0379
 110   2.0000      -0.991169       -26.9711
 111   2.0000      -0.977345       -26.5949
 112   2.0000      -0.962684       -26.1960
 113   2.0000      -0.950747       -25.8711
 114   2.0000      -0.936577       -25.4856
 115   2.0000      -0.924836       -25.1661
 116   2.0000      -0.914804       -24.8931
 117   2.0000      -0.910740       -24.7825
 118   2.0000      -0.904982       -24.6258
 119   2.0000      -0.899968       -24.4894
 120   2.0000      -0.890364       -24.2280
 121   2.0000      -0.885465       -24.0947
 122   2.0000      -0.883207       -24.0333
 123   2.0000      -0.878532       -23.9061
 124   2.0000      -0.877326       -23.8732
 125   2.0000      -0.869436       -23.6585
 126   2.0000      -0.861425       -23.4406
 127   2.0000      -0.860948       -23.4276
 128   2.0000      -0.846359       -23.0306
 129   2.0000      -0.833115       -22.6702
 130   2.0000      -0.822363       -22.3776
 131   2.0000      -0.811069       -22.0703
 132   2.0000      -0.798658       -21.7326
 133   2.0000      -0.792790       -21.5729
 134   2.0000      -0.783230       -21.3128
 135   2.0000      -0.778118       -21.1737
 136   2.0000      -0.771060       -20.9816
 137   2.0000      -0.763047       -20.7636
 138   2.0000      -0.752727       -20.4827
 139   2.0000      -0.749876       -20.4052
 140   2.0000      -0.745405       -20.2835
 141   2.0000      -0.740251       -20.1433
 142   2.0000      -0.734272       -19.9806
 143   2.0000      -0.729859       -19.8605
 144   2.0000      -0.726745       -19.7757
 145   2.0000      -0.724491       -19.7144
 146   2.0000      -0.717090       -19.5130
 147   2.0000      -0.704515       -19.1708
 148   2.0000      -0.699492       -19.0341
 149   2.0000      -0.689796       -18.7703
 150   2.0000      -0.681326       -18.5398
 151   2.0000      -0.678863       -18.4728
 152   2.0000      -0.677629       -18.4392
 153   2.0000      -0.676492       -18.4083
 154   2.0000      -0.672796       -18.3077
 155   2.0000      -0.667791       -18.1715
 156   2.0000      -0.666583       -18.1386
 157   2.0000      -0.662090       -18.0164
 158   2.0000      -0.661837       -18.0095
 159   2.0000      -0.654651       -17.8140
 160   2.0000      -0.648296       -17.6410
 161   2.0000      -0.644884       -17.5482
 162   2.0000      -0.642975       -17.4962
 163   2.0000      -0.634136       -17.2557
 164   2.0000      -0.632951       -17.2235
 165   2.0000      -0.630819       -17.1655
 166   2.0000      -0.629372       -17.1261
 167   2.0000      -0.626686       -17.0530
 168   2.0000      -0.625964       -17.0333
 169   2.0000      -0.621509       -16.9121
 170   2.0000      -0.618041       -16.8178
 171   2.0000      -0.607839       -16.5401
 172   2.0000      -0.599219       -16.3056
 173   2.0000      -0.593061       -16.1380
 174   2.0000      -0.591193       -16.0872
 175   2.0000      -0.584686       -15.9101
 176   2.0000      -0.582080       -15.8392
 177   2.0000      -0.578229       -15.7344
 178   2.0000      -0.576507       -15.6876
 179   2.0000      -0.574339       -15.6286
 180   2.0000      -0.570366       -15.5204
 181   2.0000      -0.565069       -15.3763
 182   2.0000      -0.560584       -15.2543
 183   2.0000      -0.559114       -15.2143
 184   2.0000      -0.556163       -15.1340
 185   2.0000      -0.556142       -15.1334
 186   2.0000      -0.553668       -15.0661
 187   2.0000      -0.548629       -14.9290
 188   2.0000      -0.546517       -14.8715
 189   2.0000      -0.545687       -14.8489
 190   2.0000      -0.542494       -14.7620
 191   2.0000      -0.540885       -14.7182
 192   2.0000      -0.539791       -14.6885
 193   2.0000      -0.539657       -14.6848
 194   2.0000      -0.537982       -14.6392
 195   2.0000      -0.534512       -14.5448
 196   2.0000      -0.532428       -14.4881
 197   2.0000      -0.528393       -14.3783
 198   2.0000      -0.525610       -14.3026
 199   2.0000      -0.522379       -14.2147
 200   2.0000      -0.518807       -14.1175
 201   2.0000      -0.514738       -14.0067
 202   2.0000      -0.514589       -14.0027
 203   2.0000      -0.510713       -13.8972
 204   2.0000      -0.508383       -13.8338
 205   2.0000      -0.507738       -13.8163
 206   2.0000      -0.506312       -13.7774
 207   2.0000      -0.504896       -13.7389
 208   2.0000      -0.502424       -13.6716
 209   2.0000      -0.499029       -13.5793
 210   2.0000      -0.498324       -13.5601
 211   2.0000      -0.498066       -13.5531
 212   2.0000      -0.495369       -13.4797
 213   2.0000      -0.493236       -13.4216
 214   2.0000      -0.490277       -13.3411
 215   2.0000      -0.487771       -13.2729
 216   2.0000      -0.487452       -13.2642
 217   2.0000      -0.482458       -13.1284
 218   2.0000      -0.482368       -13.1259
 219   2.0000      -0.480285       -13.0692
 220   2.0000      -0.478591       -13.0231
 221   2.0000      -0.478366       -13.0170
 222   2.0000      -0.473531       -12.8854
 223   2.0000      -0.470155       -12.7936
 224   2.0000      -0.468221       -12.7409
 225   2.0000      -0.467426       -12.7193
 226   2.0000      -0.467036       -12.7087
 227   2.0000      -0.465082       -12.6555
 228   2.0000      -0.464500       -12.6397
 229   2.0000      -0.457716       -12.4551
 230   2.0000      -0.454790       -12.3755
 231   2.0000      -0.454446       -12.3661
 232   2.0000      -0.453155       -12.3310
 233   2.0000      -0.452144       -12.3035
 234   2.0000      -0.450275       -12.2526
 235   2.0000      -0.448795       -12.2123
 236   2.0000      -0.447952       -12.1894
 237   2.0000      -0.445780       -12.1303
 238   2.0000      -0.443193       -12.0599
 239   2.0000      -0.442113       -12.0305
 240   2.0000      -0.437854       -11.9146
 241   2.0000      -0.430141       -11.7047
 242   2.0000      -0.429045       -11.6749
 243   2.0000      -0.428399       -11.6573
 244   2.0000      -0.425201       -11.5703
 245   2.0000      -0.418607       -11.3909
 246   2.0000      -0.413899       -11.2628
 247   2.0000      -0.408312       -11.1107
 248   2.0000      -0.405895       -11.0450
 249   2.0000      -0.399210       -10.8631
 250   2.0000      -0.396288       -10.7835
 251   2.0000      -0.385498       -10.4899
 252   2.0000      -0.385105       -10.4792
 253   2.0000      -0.381662       -10.3855
 254   2.0000      -0.376863       -10.2550
 255   2.0000      -0.376393       -10.2422
 256   2.0000      -0.374149       -10.1811
 257   2.0000      -0.361818        -9.8456
 258   2.0000      -0.358555        -9.7568
 259   2.0000      -0.352582        -9.5942
 260   2.0000      -0.348638        -9.4869
 261   2.0000      -0.344715        -9.3802
 262   2.0000      -0.338136        -9.2011
 263   2.0000      -0.334804        -9.1105
 264   2.0000      -0.329948        -8.9784
 265   2.0000      -0.327146        -8.9021
 266   2.0000      -0.324634        -8.8337
 267   2.0000      -0.303061        -8.2467
 268   2.0000      -0.281392        -7.6571
 269   2.0000      -0.273124        -7.4321
 270   2.0000      -0.246549        -6.7089
 271   0.0000      -0.157091        -4.2747
 272   0.0000      -0.133476        -3.6321
 273   0.0000      -0.088744        -2.4149
 274   0.0000      -0.079687        -2.1684
 275   0.0000      -0.068162        -1.8548

MULLIKEN ATOMIC CHARGES
-----------------------
   0 C :   -0.111105
   1 S :    0.218835
   2 C :   -0.291885
   3 C :    0.244449
   4 C :    0.088615
   5 C :   -0.051346
   6 C :   -0.057691
   7 C :    0.528203
   8 F :   -0.158036
   9 F :   -0.152396
  10 F :   -0.160404
  11 C :   -0.090784
  12 C :   -0.164453
  13 N :    0.135235
  14 C :   -0.010652
  15 C :    0.047620
  16 C :    0.065129
  17 N :    0.263073
  18 O :   -0.247739
  19 O :   -0.242652
  20 C :    0.008487
  21 C :   -0.038574
  22 C :    0.025499
  23 C :    0.010177
  24 C :   -0.008618
  25 C :    0.032679
  26 C :    0.046476
  27 N :    0.283234
  28 O :   -0.273120
  29 O :   -0.259590
  30 C :    0.102906
  31 C :   -0.097916
  32 C :    0.097530
  33 C :   -0.178799
  34 S :    0.205282
  35 C :   -0.119605
  36 C :    0.112913
  37 C :    0.108572
  38 N :   -0.017686
  39 C :   -0.096240
  40 C :   -0.152034
  41 N :    0.185056
  42 C :   -0.037776
  43 C :    0.074580
  44 C :    0.004417
  45 C :    0.110609
  46 C :   -0.120502
  47 C :    0.115927
  48 C :   -0.092987
  49 C :   -0.007833
  50 C :   -0.166736
  51 N :    0.124088
  52 C :    0.129439
  53 C :   -0.134356
  54 C :    0.126049
  55 C :   -0.007303
  56 C :   -0.092787
  57 C :   -0.168234
  58 N :    0.127666
  59 C :   -0.025472
  60 C :    0.025743
  61 C :   -0.117695
  62 S :    0.184382
  63 C :   -0.095914
  64 C :    0.097377
  65 C :    0.146808
  66 C :   -0.069576
  67 C :   -0.058491
  68 C :    0.528496
  69 F :   -0.148137
  70 F :   -0.155935
  71 F :   -0.156186
  72 C :   -0.081430
  73 C :   -0.166868
  74 N :    0.138102
  75 C :   -0.008273
  76 H :    0.032249
  77 H :   -0.002186
  78 H :   -0.005584
  79 H :    0.004588
  80 H :   -0.001406
  81 H :    0.001694
  82 H :    0.008401
  83 H :   -0.057498
  84 H :    0.016905
  85 H :    0.146585
  86 H :    0.001835
  87 H :   -0.000470
  88 H :   -0.035821
  89 H :    0.001729
  90 H :   -0.002362
  91 H :   -0.004476
  92 H :   -0.000866
  93 H :   -0.012907
  94 H :    0.013697
  95 H :    0.038209
  96 H :    0.007241
  97 H :    0.000604
Sum of atomic charges:   -0.0000000

LOEWDIN ATOMIC CHARGES
----------------------
   0 C :   -0.176211
   1 S :    0.534172
   2 C :   -0.181026
   3 C :   -0.031947
   4 C :   -0.049090
   5 C :    0.018690
   6 C :   -0.066993
   7 C :    0.169092
   8 F :   -0.057707
   9 F :   -0.049962
  10 F :   -0.058506
  11 C :   -0.053601
  12 C :   -0.039785
  13 N :   -0.038392
  14 C :    0.043068
  15 C :   -0.019999
  16 C :   -0.054374
  17 N :    0.281458
  18 O :   -0.207659
  19 O :   -0.209087
  20 C :    0.006071
  21 C :   -0.062435
  22 C :    0.000273
  23 C :    0.051880
  24 C :   -0.075412
  25 C :    0.042149
  26 C :   -0.082690
  27 N :    0.287672
  28 O :   -0.232028
  29 O :   -0.222792
  30 C :    0.022000
  31 C :   -0.050303
  32 C :    0.016453
  33 C :   -0.197715
  34 S :    0.494561
  35 C :   -0.133850
  36 C :   -0.069248
  37 C :    0.009342
  38 N :    0.095098
  39 C :   -0.024756
  40 C :   -0.048868
  41 N :   -0.021686
  42 C :   -0.025161
  43 C :   -0.023566
  44 C :    0.003070
  45 C :   -0.024785
  46 C :   -0.020343
  47 C :    0.025327
  48 C :   -0.079656
  49 C :    0.045922
  50 C :   -0.028159
  51 N :   -0.066595
  52 C :    0.044167
  53 C :   -0.044341
  54 C :   -0.005760
  55 C :    0.050866
  56 C :   -0.076862
  57 C :   -0.029131
  58 N :   -0.064334
  59 C :   -0.035169
  60 C :    0.004754
  61 C :   -0.176714
  62 S :    0.518221
  63 C :   -0.165336
  64 C :   -0.053213
  65 C :   -0.033276
  66 C :    0.016049
  67 C :   -0.060411
  68 C :    0.168252
  69 F :   -0.049706
  70 F :   -0.053803
  71 F :   -0.054018
  72 C :   -0.057779
  73 C :   -0.042174
  74 N :   -0.034543
  75 C :    0.039154
  76 H :    0.031291
  77 H :    0.040428
  78 H :    0.040175
  79 H :    0.038228
  80 H :    0.028130
  81 H :    0.028237
  82 H :    0.040220
  83 H :    0.020020
  84 H :    0.035898
  85 H :    0.098909
  86 H :    0.036724
  87 H :    0.039690
  88 H :    0.031687
  89 H :    0.031361
  90 H :    0.036420
  91 H :    0.030209
  92 H :    0.037325
  93 H :    0.023876
  94 H :    0.043669
  95 H :    0.033407
  96 H :    0.041181
  97 H :    0.046115

  Mayer bond orders larger than 0.100000
B(  0-C ,  1-S ) :   1.2323 B(  0-C ,  2-C ) :   0.1178 B(  0-C ,  4-C ) :   1.4011
B(  0-C , 76-H ) :   0.9696 B(  1-S ,  2-C ) :   1.1961 B(  2-C ,  3-C ) :   1.3493
B(  2-C , 15-C ) :   1.0683 B(  3-C ,  4-C ) :   1.2006 B(  3-C , 14-C ) :   1.1691
B(  4-C ,  5-C ) :   1.1387 B(  5-C ,  6-C ) :   1.5761 B(  5-C , 77-H ) :   1.0054
B(  6-C ,  7-C ) :   0.9441 B(  6-C , 11-C ) :   1.1940 B(  7-C ,  8-F ) :   1.1649
B(  7-C ,  9-F ) :   1.1665 B(  7-C , 10-F ) :   1.1591 B( 11-C , 12-C ) :   1.0680
B( 11-C , 14-C ) :   1.5809 B( 12-C , 13-N ) :   3.0428 B( 14-C , 78-H ) :   0.9911
B( 15-C , 16-C ) :   1.5441 B( 15-C , 22-C ) :   1.1004 B( 16-C , 17-N ) :   0.9441
B( 16-C , 20-C ) :   1.1416 B( 17-N , 18-O ) :   1.4952 B( 17-N , 19-O ) :   1.5290
B( 18-O , 19-O ) :   0.2596 B( 20-C , 21-C ) :   1.5697 B( 20-C , 79-H ) :   1.0121
B( 21-C , 22-C ) :   1.1184 B( 21-C , 80-H ) :   1.0051 B( 22-C , 23-C ) :   1.4329
B( 23-C , 24-C ) :   1.1837 B( 23-C , 30-C ) :   0.9959 B( 24-C , 25-C ) :   1.5081
B( 24-C , 81-H ) :   1.0054 B( 25-C , 26-C ) :   1.1646 B( 25-C , 82-H ) :   1.0077
B( 26-C , 27-N ) :   0.9853 B( 26-C , 30-C ) :   1.3782 B( 27-N , 28-O ) :   1.4496
B( 27-N , 29-O ) :   1.5277 B( 28-O , 29-O ) :   0.2372 B( 28-O , 84-H ) :   0.1044
B( 30-C , 31-C ) :   1.3082 B( 31-C , 32-C ) :   1.4620 B( 31-C , 83-H ) :   0.9444
B( 32-C , 33-C ) :   1.2715 B( 32-C , 84-H ) :   0.9235 B( 33-C , 34-S ) :   1.0949
B( 33-C , 37-C ) :   1.2460 B( 34-S , 35-C ) :   1.1656 B( 35-C , 36-C ) :   1.2203
B( 35-C , 43-C ) :   1.2298 B( 36-C , 37-C ) :   1.2861 B( 36-C , 42-C ) :   1.1940
B( 37-C , 38-N ) :   1.2209 B( 38-N , 39-C ) :   1.2081 B( 38-N , 85-H ) :   0.9285
B( 39-C , 40-C ) :   1.0553 B( 39-C , 42-C ) :   1.5834 B( 40-C , 41-N ) :   3.0567
B( 42-C , 86-H ) :   1.0077 B( 43-C , 44-C ) :   1.5476 B( 43-C , 87-H ) :   0.9569
B( 44-C , 45-C ) :   1.1730 B( 44-C , 88-H ) :   0.9728 B( 45-C , 46-C ) :   1.4667
B( 45-C , 49-C ) :   1.0395 B( 46-C , 47-C ) :   1.1883 B( 46-C , 89-H ) :   0.9921
B( 47-C , 48-C ) :   1.1094 B( 47-C , 52-C ) :   1.3361 B( 48-C , 49-C ) :   1.6601
B( 48-C , 50-C ) :   1.0884 B( 49-C , 90-H ) :   1.0230 B( 50-C , 51-N ) :   2.9572
B( 52-C , 53-C ) :   1.1909 B( 52-C , 56-C ) :   1.0958 B( 53-C , 54-C ) :   1.4876
B( 53-C , 91-H ) :   0.9934 B( 54-C , 55-C ) :   1.0269 B( 54-C , 59-C ) :   1.1513
B( 55-C , 56-C ) :   1.6734 B( 55-C , 92-H ) :   1.0244 B( 56-C , 57-C ) :   1.0878
B( 57-C , 58-N ) :   2.9623 B( 59-C , 60-C ) :   1.5852 B( 59-C , 93-H ) :   0.9729
B( 60-C , 61-C ) :   1.2124 B( 60-C , 94-H ) :   0.9698 B( 61-C , 62-S ) :   1.1509
B( 61-C , 65-C ) :   1.3086 B( 62-S , 63-C ) :   1.2309 B( 63-C , 64-C ) :   1.3898
B( 63-C , 95-H ) :   0.9697 B( 64-C , 65-C ) :   1.2019 B( 64-C , 75-C ) :   1.1530
B( 65-C , 66-C ) :   1.1917 B( 66-C , 67-C ) :   1.5712 B( 66-C , 96-H ) :   0.9932
B( 67-C , 68-C ) :   0.9407 B( 67-C , 72-C ) :   1.2015 B( 68-C , 69-F ) :   1.1713
B( 68-C , 70-F ) :   1.1611 B( 68-C , 71-F ) :   1.1609 B( 72-C , 73-C ) :   1.0666
B( 72-C , 75-C ) :   1.5719 B( 73-C , 74-N ) :   3.0471 B( 75-C , 97-H ) :   1.0068

-----------------------------------------------------------------------------
         ABSORPTION SPECTRUM VIA TRANSITION ELECTRIC DIPOLE MOMENTS
-----------------------------------------------------------------------------
State   Energy  Wavelength   fosc         T2         TX        TY        TZ
        (cm-1)    (nm)                  (au**2)     (au)      (au)      (au)
-----------------------------------------------------------------------------
   0    5899.5   1695.1   0.819966506  45.75690  -4.62080  -2.53245  -4.24168
   1   10223.1    978.2   0.309195780   9.95697  -1.95544  -0.64449  -2.39121
   2   11912.5    839.5   0.023130181   0.63922  -0.47212   0.20345  -0.61231
   3   12725.4    785.8   0.033483896   0.86625   0.55640   0.11391   0.73735
   4   16757.9    596.7   0.023855240   0.46864   0.44653   0.25358   0.45271
   5   18951.8    527.7   0.585617733  10.17277  -1.45645  -2.03852  -1.97383
   6   20896.7    478.5   0.063017037   0.99279  -0.72010   0.06468  -0.68561
   7   20990.3    476.4   0.174360088   2.73467   0.81103   0.55901   1.32831
   8   21367.0    468.0   0.017893711   0.27570   0.09576  -0.48135  -0.18662
   9   21651.9    461.9   0.047524552   0.72260   0.33024   0.50214   0.60116
  10   21906.6    456.5   0.014213083   0.21359   0.30028   0.28655   0.20325
  11   23707.4    421.8   0.013413123   0.18626   0.38442   0.18997  -0.04892
  12   23975.9    417.1   0.318149041   4.36849   1.01843   0.99195   1.53210
  13   24350.3    410.7   0.094703012   1.28037  -0.86237   0.18390  -0.70913
  14   24461.1    408.8   0.026266289   0.35351  -0.48014   0.34141  -0.08010
  15   25143.0    397.7   0.042583146   0.55757   0.02602  -0.24920  -0.70341
  16   25327.8    394.8   0.030905796   0.40171   0.32373  -0.49719   0.22297
  17   26507.9    377.2   0.025734802   0.31961   0.07833  -0.25172   0.50011
  18   27196.9    367.7   0.044545191   0.53921   0.35558   0.01510   0.64230
  19   27470.2    364.0   0.088770527   1.06386  -0.75568   0.53724  -0.45187
  20   27758.6    360.2   0.125007309   1.48256  -0.34419   0.80603   0.84523
  21   28458.7    351.4   0.006481032   0.07497  -0.12857  -0.09269  -0.22328
  22   29392.6    340.2   0.037976921   0.42536   0.50119  -0.41717  -0.01172
  23   29953.3    333.9   0.275717132   3.03036  -1.16488   1.04045   0.76868
  24   30149.4    331.7   0.162735220   1.77696  -0.94878   0.69112   0.63177
  25   30368.4    329.3   0.213228362   2.31153   1.23588  -0.83733  -0.28810
  26   30564.7    327.2   0.062795133   0.67637   0.55816  -0.40386  -0.44914
  27   30794.8    324.7   0.041508788   0.44375  -0.60338   0.26410  -0.09968
  28   30878.9    323.8   0.020106794   0.21437   0.45890  -0.02960   0.05389
  29   31041.2    322.2   0.007182695   0.07618  -0.05888   0.11955   0.24170
  30   31275.0    319.7   0.042064761   0.44279   0.48532  -0.30440  -0.33852
  31   31515.3    317.3   0.026770055   0.27964  -0.40691   0.31106   0.13156
  32   31794.8    314.5   0.014440879   0.14952  -0.12566   0.27813   0.23744
  33   32738.8    305.4   0.085950252   0.86429  -0.24027   0.82528   0.35421
  34   32935.3    303.6   0.002651047   0.02650  -0.01818  -0.08903   0.13506
  35   33190.5    301.3   0.031562497   0.31306  -0.48171   0.09555  -0.26813
  36   33533.8    298.2   0.040848835   0.40103   0.54648   0.13245   0.29128
  37   33667.1    297.0   0.063319213   0.61916   0.75059   0.16567   0.16831
  38   33822.6    295.7   0.233201462   2.26986   1.02948  -0.83768  -0.71298
  39   34349.0    291.1   0.009760908   0.09355   0.23363  -0.17667   0.08807
  40   34731.9    287.9   0.190718945   1.80776  -0.38992  -0.86270  -0.95471
  41   35222.5    283.9   0.112398914   1.05055  -0.42941  -0.82461  -0.43148
  42   35376.1    282.7   0.029739182   0.27675   0.36516   0.04988   0.37540
  43   35470.0    281.9   0.024202543   0.22463   0.11238   0.21056   0.40948
  44   35487.5    281.8   0.001487263   0.01380   0.04778   0.05407   0.09268
  45   35768.9    279.6   0.143033604   1.31646  -1.12937   0.18183  -0.08898
  46   36213.6    276.1   0.000794338   0.00722   0.04600  -0.03062  -0.06455
  47   36291.6    275.5   0.005363272   0.04865  -0.00520   0.17295   0.13679
  48   36693.9    272.5   0.036438557   0.32692   0.09953   0.43477   0.35775
  49   36753.0    272.1   0.013684707   0.12258   0.15139  -0.30116  -0.09467
  50   37004.0    270.2   0.029488667   0.26235   0.15859   0.41200   0.25973
  51   37298.9    268.1   0.044843378   0.39580   0.01224  -0.47498  -0.41236
  52   37468.2    266.9   0.033193643   0.29165   0.21817  -0.49381  -0.01419
  53   37847.4    264.2   0.037445288   0.32571  -0.03708   0.52100   0.23000
  54   37918.2    263.7   0.064594052   0.56082  -0.13047   0.72908   0.11060
  55   38177.4    261.9   0.118878009   1.02511  -1.00629   0.09272   0.06235
  56   38397.8    260.4   0.030931997   0.26520   0.16555  -0.45806  -0.16727
  57   38807.9    257.7   0.007423045   0.06297  -0.08719  -0.09899  -0.21347
  58   39101.6    255.7   0.042315424   0.35627  -0.10625  -0.47063  -0.35141
  59   39376.7    254.0   0.037799739   0.31603   0.24012   0.22843   0.45408
  60   39436.5    253.6   0.089893046   0.75042   0.19975   0.60332   0.58866
  61   39591.7    252.6   0.127987465   1.06424  -0.48787   0.89717   0.14596
  62   39840.3    251.0   0.009966915   0.08236  -0.23198   0.16668   0.02765
  63   39960.7    250.2   0.044163716   0.36384  -0.38530   0.39730   0.23985
  64   40188.6    248.8   0.008501891   0.06964   0.16270   0.20482   0.03495

FINAL SINGLE POINT ENERGY     -4636.679899867616

DIPOLE MOMENT
-------------
                                X             Y             Z
Electronic contribution:     26.65928      -9.26418       5.57247
Nuclear contribution   :    -32.41438       9.14684      -6.60322
                        -----------------------------------------
Total Dipole Moment    :     -5.75510      -0.11734      -1.03075
                        -----------------------------------------
Magnitude (a.u.)       :      5.84785
Magnitude (Debye)      :     14.86405

Rotational constants in cm-1:     0.002308     0.000149     0.000143
Rotational constants in MHz :    69.192409     4.464159     4.280302

                             ****ORCA TERMINATED NORMALLY****
TOTAL RUN TIME: 0 days 0 hours 11 minutes 34 seconds 415 msec
