                         Program Version 4.2.0 -  RELEASE  -
|  1> # ORCA input file
|  2> # SCF done       -214.412980204139          0.000502422239
|  3> ! CAM-B3LYP def2-SVP def2/J RIJCOSX Grid4 TightSCF
|  4> %maxcore 5000
|  5> %tddft
|  6>     Mode sTDDFT
|  7>     Ethresh 5.0
|  8>     maxcore 5000
|  9> end
| 10>
| 11> %pal
| 12>   nprocs 6
| 13>   end
| 14> * xyz 0 1
| 15>    O       10.48228        -3.59381         6.81590
| 16>    N        9.23371        -3.23327         6.52035
| 17>    C        9.28944        -2.31091         5.58961
| 18>    C        8.15116        -1.70719         5.01473
| 19>    N        7.26225        -1.20379         4.50010
| 20>    C       10.64717        -2.04943         5.23350
| 21>    C       11.34894        -2.90518         6.06457
| 22>    C       12.73797        -3.10812         6.19192
| 23>    N       13.86383        -3.28289         6.28901
| 24>    C       11.18930        -1.06365         4.29717
| 25>    O       12.32582        -0.99651         3.93016
| 26>    O       10.18502        -0.27067         3.79126
| 27>    C       10.52838         0.98855         3.43738
| 28>    C       11.32571         1.84549         4.15957
| 29>    N       11.82518         1.62131         5.45175
| 30>    O       11.49241         0.57528         6.00683
| 31>    O       12.52183         2.47112         5.95911
| 32>    C       11.48153         3.06932         3.40359
| 33>    C       10.83937         2.92769         2.22028
| 34>    C       10.21151         1.62860         2.16645
| 35>    C        9.42760         1.05549         1.18616
| 36>    C        8.45605         0.03691         1.41526
| 37>    C        7.72342        -0.12821         0.27470
| 38>    C        8.25524         0.70568        -0.75561
| 39>    N        7.61298         0.80064        -2.01051
| 40>    O        6.79115        -0.05521        -2.27437
| 41>    O        7.87953         1.74595        -2.73297
| 42>    C        9.35489         1.41652        -0.25136
| 43>    C       10.37951         2.13285        -0.88125
| 44>    C       10.63148         2.17907        -2.23394
| 45>    C       11.64312         2.88219        -2.89865
| 46>    N       12.45968         3.90589        -2.48474
| 47>    C       12.43600         4.63891        -1.23770
| 48>    C       11.14611         5.43394        -1.06161
| 49>    C       13.31577         4.34285        -3.51850
| 50>    O       14.06721         5.28316        -3.41613
| 51>    C       13.02946         3.45113        -4.63228
| 52>    C       11.99431         2.60823        -4.24123
| 53>    C       11.67985         1.71457        -5.34789
| 54>    O       10.88400         0.81738        -5.46448
| 55>    N       12.56870         2.12069        -6.36852
| 56>    C       12.58043         1.45740        -7.65185
| 57>    C       13.69508         0.41952        -7.74844
| 58>    C       13.40189         3.12678        -5.95948
| 59>    C       14.42143         3.67883        -6.74439
| 60>    C       15.31461         4.60204        -6.25572
| 61>    C       16.34801         5.19481        -6.99486
| 62>    C       17.55177         5.68028        -6.47339
| 63>    N       17.95230         5.71056        -5.11706
| 64>    O       18.90819         6.41054        -4.84491
| 65>    O       17.33327         5.03634        -4.31507
| 66>    C       18.41247         6.06925        -7.53906
| 67>    C       17.79220         5.79896        -8.72638
| 68>    C       16.47724         5.30356        -8.46469
| 69>    C       15.47458         5.12402        -9.39690
| 70>    C       14.06555         5.32081        -9.18710
| 71>    C       13.43675         5.23315       -10.38301
| 72>    C       14.41013         4.92155       -11.40552
| 73>    N       13.99228         4.66271       -12.72703
| 74>    O       14.82240         4.65033       -13.61805
| 75>    O       12.80406         4.46042       -12.89368
| 76>    C       15.66997         4.85124       -10.83574
| 77>    C       16.93580         4.40738       -11.31980
| 78>    C       17.40857         4.37356       -12.57834
| 79>    O       18.69054         3.92744       -12.72239
| 80>    C       19.28279         3.90469       -13.93885
| 81>    O       18.76263         4.19018       -14.97734
| 82>    C       20.68369         3.48384       -13.76188
| 83>    C       21.65759         3.14683       -14.75098
| 84>    N       22.79808         2.84405       -14.17648
| 85>    O       22.64557         2.96461       -12.85797
| 86>    C       21.39272         3.34457       -12.57884
| 87>    C       20.96178         3.56879       -11.25695
| 88>    N       20.57642         3.77591       -10.19919
| 89>    C       21.47579         3.11785       -16.15252
| 90>    N       21.32040         3.09341       -17.28416
| 91>    H       12.01176         3.92518         3.77417
| 92>    H       10.70313         3.70129         1.49070
| 93>    H        8.26354        -0.42374         2.36449
| 94>    H        6.86718        -0.76211         0.13826
| 95>    H       11.08976         2.59185        -0.21293
| 96>    H       10.02573         1.58794        -2.90679
| 97>    H       13.28496         5.32738        -1.29104
| 98>    H       12.60885         3.95731        -0.40087
| 99>    H       11.03964         6.15069        -1.87195
|100>    H       11.18101         5.98107        -0.12356
|101>    H       10.27229         4.78622        -1.06178
|102>    H       12.67020         2.20521        -8.44457
|103>    H       11.61097         0.96057        -7.74432
|104>    H       14.67286         0.87654        -7.61279
|105>    H       13.66384        -0.05794        -8.72344
|106>    H       13.56040        -0.34310        -6.98568
|107>    H       14.53162         3.31593        -7.75614
|108>    H       15.28743         4.84169        -5.19712
|109>    H       19.38997         6.48951        -7.39557
|110>    H       18.17287         6.04452        -9.69810
|111>    H       13.62587         5.61142        -8.25328
|112>    H       12.39340         5.37398       -10.59258
|113>    H       17.62500         4.07067       -10.55483
|114>    H       16.89246         4.68095       -13.47697
|115> *
|116>
|117>                          ****END OF INPUT****

CARTESIAN COORDINATES (ANGSTROEM)
---------------------------------
  O     10.482280   -3.593810    6.815900
  N      9.233710   -3.233270    6.520350
  C      9.289440   -2.310910    5.589610
  C      8.151160   -1.707190    5.014730
  N      7.262250   -1.203790    4.500100
  C     10.647170   -2.049430    5.233500
  C     11.348940   -2.905180    6.064570
  C     12.737970   -3.108120    6.191920
  N     13.863830   -3.282890    6.289010
  C     11.189300   -1.063650    4.297170
  O     12.325820   -0.996510    3.930160
  O     10.185020   -0.270670    3.791260
  C     10.528380    0.988550    3.437380
  C     11.325710    1.845490    4.159570
  N     11.825180    1.621310    5.451750
  O     11.492410    0.575280    6.006830
  O     12.521830    2.471120    5.959110
  C     11.481530    3.069320    3.403590
  C     10.839370    2.927690    2.220280
  C     10.211510    1.628600    2.166450
  C      9.427600    1.055490    1.186160
  C      8.456050    0.036910    1.415260
  C      7.723420   -0.128210    0.274700
  C      8.255240    0.705680   -0.755610
  N      7.612980    0.800640   -2.010510
  O      6.791150   -0.055210   -2.274370
  O      7.879530    1.745950   -2.732970
  C      9.354890    1.416520   -0.251360
  C     10.379510    2.132850   -0.881250
  C     10.631480    2.179070   -2.233940
  C     11.643120    2.882190   -2.898650
  N     12.459680    3.905890   -2.484740
  C     12.436000    4.638910   -1.237700
  C     11.146110    5.433940   -1.061610
  C     13.315770    4.342850   -3.518500
  O     14.067210    5.283160   -3.416130
  C     13.029460    3.451130   -4.632280
  C     11.994310    2.608230   -4.241230
  C     11.679850    1.714570   -5.347890
  O     10.884000    0.817380   -5.464480
  N     12.568700    2.120690   -6.368520
  C     12.580430    1.457400   -7.651850
  C     13.695080    0.419520   -7.748440
  C     13.401890    3.126780   -5.959480
  C     14.421430    3.678830   -6.744390
  C     15.314610    4.602040   -6.255720
  C     16.348010    5.194810   -6.994860
  C     17.551770    5.680280   -6.473390
  N     17.952300    5.710560   -5.117060
  O     18.908190    6.410540   -4.844910
  O     17.333270    5.036340   -4.315070
  C     18.412470    6.069250   -7.539060
  C     17.792200    5.798960   -8.726380
  C     16.477240    5.303560   -8.464690
  C     15.474580    5.124020   -9.396900
  C     14.065550    5.320810   -9.187100
  C     13.436750    5.233150  -10.383010
  C     14.410130    4.921550  -11.405520
  N     13.992280    4.662710  -12.727030
  O     14.822400    4.650330  -13.618050
  O     12.804060    4.460420  -12.893680
  C     15.669970    4.851240  -10.835740
  C     16.935800    4.407380  -11.319800
  C     17.408570    4.373560  -12.578340
  O     18.690540    3.927440  -12.722390
  C     19.282790    3.904690  -13.938850
  O     18.762630    4.190180  -14.977340
  C     20.683690    3.483840  -13.761880
  C     21.657590    3.146830  -14.750980
  N     22.798080    2.844050  -14.176480
  O     22.645570    2.964610  -12.857970
  C     21.392720    3.344570  -12.578840
  C     20.961780    3.568790  -11.256950
  N     20.576420    3.775910  -10.199190
  C     21.475790    3.117850  -16.152520
  N     21.320400    3.093410  -17.284160
  H     12.011760    3.925180    3.774170
  H     10.703130    3.701290    1.490700
  H      8.263540   -0.423740    2.364490
  H      6.867180   -0.762110    0.138260
  H     11.089760    2.591850   -0.212930
  H     10.025730    1.587940   -2.906790
  H     13.284960    5.327380   -1.291040
  H     12.608850    3.957310   -0.400870
  H     11.039640    6.150690   -1.871950
  H     11.181010    5.981070   -0.123560
  H     10.272290    4.786220   -1.061780
  H     12.670200    2.205210   -8.444570
  H     11.610970    0.960570   -7.744320
  H     14.672860    0.876540   -7.612790
  H     13.663840   -0.057940   -8.723440
  H     13.560400   -0.343100   -6.985680
  H     14.531620    3.315930   -7.756140
  H     15.287430    4.841690   -5.197120
  H     19.389970    6.489510   -7.395570
  H     18.172870    6.044520   -9.698100
  H     13.625870    5.611420   -8.253280
  H     12.393400    5.373980  -10.592580
  H     17.625000    4.070670  -10.554830
  H     16.892460    4.680950  -13.476970

 Total Charge           Charge          ....    0
 Multiplicity           Mult            ....    1
 Number of Electrons    NEL             ....  524
 Basis Dimension        Dim             .... 1184

ORBITAL ENERGIES
----------------

  NO   OCC          E(Eh)            E(eV)
   0   2.0000     -19.394062      -527.7393
   1   2.0000     -19.381655      -527.4016
   2   2.0000     -19.326854      -525.9104
   3   2.0000     -19.319150      -525.7008
   4   2.0000     -19.264219      -524.2060
   5   2.0000     -19.258008      -524.0370
   6   2.0000     -19.257117      -524.0128
   7   2.0000     -19.254907      -523.9526
   8   2.0000     -19.254361      -523.9378
   9   2.0000     -19.251099      -523.8490
  10   2.0000     -19.249289      -523.7998
  11   2.0000     -19.248914      -523.7896
  12   2.0000     -19.240668      -523.5652
  13   2.0000     -19.238238      -523.4991
  14   2.0000     -19.219024      -522.9762
  15   2.0000     -19.213762      -522.8330
  16   2.0000     -14.664553      -399.0428
  17   2.0000     -14.664360      -399.0375
  18   2.0000     -14.658134      -398.8681
  19   2.0000     -14.649228      -398.6258
  20   2.0000     -14.534212      -395.4960
  21   2.0000     -14.523577      -395.2066
  22   2.0000     -14.478266      -393.9737
  23   2.0000     -14.474192      -393.8628
  24   2.0000     -14.472707      -393.8224
  25   2.0000     -14.452613      -393.2756
  26   2.0000     -14.449666      -393.1954
  27   2.0000     -14.449553      -393.1923
  28   2.0000     -10.467138      -284.8253
  29   2.0000     -10.460231      -284.6374
  30   2.0000     -10.440564      -284.1022
  31   2.0000     -10.426706      -283.7251
  32   2.0000     -10.402562      -283.0681
  33   2.0000     -10.400616      -283.0152
  34   2.0000     -10.396814      -282.9117
  35   2.0000     -10.391741      -282.7736
  36   2.0000     -10.390097      -282.7289
  37   2.0000     -10.375455      -282.3305
  38   2.0000     -10.371170      -282.2139
  39   2.0000     -10.370674      -282.2004
  40   2.0000     -10.369762      -282.1756
  41   2.0000     -10.359098      -281.8854
  42   2.0000     -10.355440      -281.7858
  43   2.0000     -10.349503      -281.6243
  44   2.0000     -10.348887      -281.6075
  45   2.0000     -10.348672      -281.6017
  46   2.0000     -10.348529      -281.5978
  47   2.0000     -10.347565      -281.5716
  48   2.0000     -10.347496      -281.5697
  49   2.0000     -10.346494      -281.5424
  50   2.0000     -10.343342      -281.4567
  51   2.0000     -10.342475      -281.4330
  52   2.0000     -10.341373      -281.4031
  53   2.0000     -10.336253      -281.2638
  54   2.0000     -10.335526      -281.2439
  55   2.0000     -10.333722      -281.1949
  56   2.0000     -10.332385      -281.1585
  57   2.0000     -10.327693      -281.0308
  58   2.0000     -10.323211      -280.9088
  59   2.0000     -10.323048      -280.9044
  60   2.0000     -10.321888      -280.8729
  61   2.0000     -10.317476      -280.7528
  62   2.0000     -10.316017      -280.7131
  63   2.0000     -10.315443      -280.6975
  64   2.0000     -10.314874      -280.6820
  65   2.0000     -10.313956      -280.6570
  66   2.0000     -10.311022      -280.5772
  67   2.0000     -10.308875      -280.5188
  68   2.0000     -10.305705      -280.4325
  69   2.0000     -10.304404      -280.3971
  70   2.0000     -10.299900      -280.2745
  71   2.0000     -10.295821      -280.1635
  72   2.0000     -10.292324      -280.0684
  73   2.0000     -10.287222      -279.9295
  74   2.0000     -10.280378      -279.7433
  75   2.0000     -10.277936      -279.6769
  76   2.0000      -1.337115       -36.3847
  77   2.0000      -1.336126       -36.3578
  78   2.0000      -1.334896       -36.3244
  79   2.0000      -1.329781       -36.1852
  80   2.0000      -1.325223       -36.0611
  81   2.0000      -1.320284       -35.9268
  82   2.0000      -1.256794       -34.1991
  83   2.0000      -1.248937       -33.9853
  84   2.0000      -1.166085       -31.7308
  85   2.0000      -1.160230       -31.5715
  86   2.0000      -1.156036       -31.4573
  87   2.0000      -1.153823       -31.3971
  88   2.0000      -1.152757       -31.3681
  89   2.0000      -1.152256       -31.3545
  90   2.0000      -1.148045       -31.2399
  91   2.0000      -1.138024       -30.9672
  92   2.0000      -1.090245       -29.6671
  93   2.0000      -1.078166       -29.3384
  94   2.0000      -1.057922       -28.7875
  95   2.0000      -1.046700       -28.4822
  96   2.0000      -1.046461       -28.4757
  97   2.0000      -1.036224       -28.1971
  98   2.0000      -1.032705       -28.1013
  99   2.0000      -1.024932       -27.8898
 100   2.0000      -1.017255       -27.6809
 101   2.0000      -1.014987       -27.6192
 102   2.0000      -1.012694       -27.5568
 103   2.0000      -1.006031       -27.3755
 104   2.0000      -0.987390       -26.8682
 105   2.0000      -0.970799       -26.4168
 106   2.0000      -0.952833       -25.9279
 107   2.0000      -0.938031       -25.5251
 108   2.0000      -0.929211       -25.2851
 109   2.0000      -0.926781       -25.2190
 110   2.0000      -0.924907       -25.1680
 111   2.0000      -0.922572       -25.1044
 112   2.0000      -0.896337       -24.3906
 113   2.0000      -0.892802       -24.2944
 114   2.0000      -0.890349       -24.2276
 115   2.0000      -0.868559       -23.6347
 116   2.0000      -0.868323       -23.6283
 117   2.0000      -0.865668       -23.5560
 118   2.0000      -0.857334       -23.3292
 119   2.0000      -0.841043       -22.8859
 120   2.0000      -0.835008       -22.7217
 121   2.0000      -0.829365       -22.5682
 122   2.0000      -0.818528       -22.2733
 123   2.0000      -0.816817       -22.2267
 124   2.0000      -0.815699       -22.1963
 125   2.0000      -0.799838       -21.7647
 126   2.0000      -0.788640       -21.4600
 127   2.0000      -0.781538       -21.2667
 128   2.0000      -0.779674       -21.2160
 129   2.0000      -0.773296       -21.0425
 130   2.0000      -0.769458       -20.9380
 131   2.0000      -0.749008       -20.3815
 132   2.0000      -0.744936       -20.2707
 133   2.0000      -0.741103       -20.1664
 134   2.0000      -0.735577       -20.0161
 135   2.0000      -0.731297       -19.8996
 136   2.0000      -0.726313       -19.7640
 137   2.0000      -0.714750       -19.4493
 138   2.0000      -0.704208       -19.1625
 139   2.0000      -0.698780       -19.0148
 140   2.0000      -0.689945       -18.7744
 141   2.0000      -0.684494       -18.6260
 142   2.0000      -0.681144       -18.5349
 143   2.0000      -0.679979       -18.5032
 144   2.0000      -0.670845       -18.2546
 145   2.0000      -0.669021       -18.2050
 146   2.0000      -0.664706       -18.0876
 147   2.0000      -0.655259       -17.8305
 148   2.0000      -0.650686       -17.7061
 149   2.0000      -0.648619       -17.6498
 150   2.0000      -0.646294       -17.5866
 151   2.0000      -0.646055       -17.5801
 152   2.0000      -0.643610       -17.5135
 153   2.0000      -0.641195       -17.4478
 154   2.0000      -0.640148       -17.4193
 155   2.0000      -0.639216       -17.3940
 156   2.0000      -0.634476       -17.2650
 157   2.0000      -0.633936       -17.2503
 158   2.0000      -0.630042       -17.1443
 159   2.0000      -0.623242       -16.9593
 160   2.0000      -0.619776       -16.8650
 161   2.0000      -0.618021       -16.8172
 162   2.0000      -0.613347       -16.6900
 163   2.0000      -0.610688       -16.6177
 164   2.0000      -0.605705       -16.4821
 165   2.0000      -0.604737       -16.4557
 166   2.0000      -0.602536       -16.3959
 167   2.0000      -0.599877       -16.3235
 168   2.0000      -0.597601       -16.2616
 169   2.0000      -0.593444       -16.1484
 170   2.0000      -0.592314       -16.1177
 171   2.0000      -0.590234       -16.0611
 172   2.0000      -0.587536       -15.9877
 173   2.0000      -0.584426       -15.9031
 174   2.0000      -0.577171       -15.7056
 175   2.0000      -0.572002       -15.5650
 176   2.0000      -0.568792       -15.4776
 177   2.0000      -0.563478       -15.3330
 178   2.0000      -0.561435       -15.2774
 179   2.0000      -0.560381       -15.2487
 180   2.0000      -0.554468       -15.0878
 181   2.0000      -0.553234       -15.0543
 182   2.0000      -0.551319       -15.0021
 183   2.0000      -0.547987       -14.9115
 184   2.0000      -0.545461       -14.8428
 185   2.0000      -0.545046       -14.8315
 186   2.0000      -0.537297       -14.6206
 187   2.0000      -0.534640       -14.5483
 188   2.0000      -0.531950       -14.4751
 189   2.0000      -0.528178       -14.3725
 190   2.0000      -0.525778       -14.3072
 191   2.0000      -0.523957       -14.2576
 192   2.0000      -0.521025       -14.1778
 193   2.0000      -0.519945       -14.1484
 194   2.0000      -0.514642       -14.0041
 195   2.0000      -0.510950       -13.9036
 196   2.0000      -0.507714       -13.8156
 197   2.0000      -0.505397       -13.7525
 198   2.0000      -0.503968       -13.7137
 199   2.0000      -0.501824       -13.6553
 200   2.0000      -0.501693       -13.6518
 201   2.0000      -0.497672       -13.5423
 202   2.0000      -0.496807       -13.5188
 203   2.0000      -0.496368       -13.5069
 204   2.0000      -0.494431       -13.4542
 205   2.0000      -0.490025       -13.3343
 206   2.0000      -0.489091       -13.3089
 207   2.0000      -0.487124       -13.2553
 208   2.0000      -0.485752       -13.2180
 209   2.0000      -0.484414       -13.1816
 210   2.0000      -0.481509       -13.1025
 211   2.0000      -0.477976       -13.0064
 212   2.0000      -0.475311       -12.9339
 213   2.0000      -0.474800       -12.9200
 214   2.0000      -0.472657       -12.8616
 215   2.0000      -0.472085       -12.8461
 216   2.0000      -0.471255       -12.8235
 217   2.0000      -0.469596       -12.7784
 218   2.0000      -0.466114       -12.6836
 219   2.0000      -0.465685       -12.6719
 220   2.0000      -0.463059       -12.6005
 221   2.0000      -0.461117       -12.5476
 222   2.0000      -0.459697       -12.5090
 223   2.0000      -0.456507       -12.4222
 224   2.0000      -0.454120       -12.3572
 225   2.0000      -0.451016       -12.2728
 226   2.0000      -0.443239       -12.0611
 227   2.0000      -0.438960       -11.9447
 228   2.0000      -0.438659       -11.9365
 229   2.0000      -0.435287       -11.8448
 230   2.0000      -0.429361       -11.6835
 231   2.0000      -0.418370       -11.3844
 232   2.0000      -0.414445       -11.2776
 233   2.0000      -0.411133       -11.1875
 234   2.0000      -0.403679       -10.9847
 235   2.0000      -0.403167       -10.9707
 236   2.0000      -0.403105       -10.9691
 237   2.0000      -0.401588       -10.9278
 238   2.0000      -0.399914       -10.8822
 239   2.0000      -0.397525       -10.8172
 240   2.0000      -0.394498       -10.7348
 241   2.0000      -0.392596       -10.6831
 242   2.0000      -0.389688       -10.6039
 243   2.0000      -0.387793       -10.5524
 244   2.0000      -0.385666       -10.4945
 245   2.0000      -0.385127       -10.4799
 246   2.0000      -0.384248       -10.4559
 247   2.0000      -0.380748       -10.3607
 248   2.0000      -0.380580       -10.3561
 249   2.0000      -0.378804       -10.3078
 250   2.0000      -0.375956       -10.2303
 251   2.0000      -0.372291       -10.1306
 252   2.0000      -0.366430        -9.9711
 253   2.0000      -0.356069        -9.6891
 254   2.0000      -0.353970        -9.6320
 255   2.0000      -0.349277        -9.5043
 256   2.0000      -0.342952        -9.3322
 257   2.0000      -0.322514        -8.7761
 258   2.0000      -0.321506        -8.7486
 259   2.0000      -0.309445        -8.4204
 260   2.0000      -0.303420        -8.2565
 261   2.0000      -0.248463        -6.7610
 262   0.0000      -0.162776        -4.4294
 263   0.0000      -0.141114        -3.8399
 264   0.0000      -0.098696        -2.6856
 265   0.0000      -0.091964        -2.5025
 266   0.0000      -0.076930        -2.0934

MULLIKEN ATOMIC CHARGES
-----------------------
   0 O :   -0.125863
   1 N :    0.076939
   2 C :   -0.180392
   3 C :   -0.119408
   4 N :    0.206845
   5 C :    0.070760
   6 C :    0.001653
   7 C :   -0.145807
   8 N :    0.253714
   9 C :    0.187642
  10 O :   -0.120232
  11 O :   -0.266216
  12 C :    0.146906
  13 C :    0.070899
  14 N :    0.294220
  15 O :   -0.271612
  16 O :   -0.220806
  17 C :    0.020218
  18 C :    0.004461
  19 C :    0.012909
  20 C :    0.047959
  21 C :    0.003815
  22 C :    0.051422
  23 C :    0.053574
  24 N :    0.263311
  25 O :   -0.241202
  26 O :   -0.251879
  27 C :    0.068823
  28 C :   -0.018958
  29 C :    0.008100
  30 C :    0.111916
  31 N :   -0.267773
  32 C :    0.091160
  33 C :   -0.013597
  34 C :    0.170309
  35 O :   -0.183584
  36 C :   -0.064581
  37 C :   -0.031278
  38 C :    0.162138
  39 O :   -0.153772
  40 N :   -0.263220
  41 C :    0.091385
  42 C :    0.001955
  43 C :    0.156071
  44 C :   -0.058720
  45 C :   -0.014984
  46 C :    0.049236
  47 C :    0.095706
  48 N :    0.269474
  49 O :   -0.239754
  50 O :   -0.231422
  51 C :    0.035373
  52 C :   -0.000513
  53 C :    0.037108
  54 C :   -0.005812
  55 C :   -0.007385
  56 C :    0.022451
  57 C :    0.065109
  58 N :    0.271607
  59 O :   -0.250984
  60 O :   -0.238363
  61 C :    0.092493
  62 C :   -0.084844
  63 C :    0.164519
  64 O :   -0.256941
  65 C :    0.199567
  66 O :   -0.123134
  67 C :    0.019052
  68 C :   -0.181134
  69 N :    0.075850
  70 O :   -0.123871
  71 C :    0.009074
  72 C :   -0.125803
  73 N :    0.225313
  74 C :   -0.169087
  75 N :    0.264229
  76 H :    0.006007
  77 H :   -0.015488
  78 H :   -0.017670
  79 H :    0.013918
  80 H :   -0.036384
  81 H :    0.026259
  82 H :    0.054713
  83 H :    0.033688
  84 H :    0.030040
  85 H :    0.031363
  86 H :    0.037174
  87 H :    0.028822
  88 H :    0.051281
  89 H :    0.016604
  90 H :    0.030604
  91 H :    0.035304
  92 H :    0.007713
  93 H :    0.051822
  94 H :    0.012483
  95 H :    0.002329
  96 H :    0.013642
  97 H :    0.010904
  98 H :    0.034945
  99 H :    0.067595
Sum of atomic charges:    0.0000000

LOEWDIN ATOMIC CHARGES
----------------------
   0 O :    0.083616
   1 N :    0.024744
   2 C :   -0.053354
   3 C :   -0.020562
   4 N :   -0.005948
   5 C :   -0.072091
   6 C :    0.047231
   7 C :   -0.036497
   8 N :    0.029557
   9 C :    0.100444
  10 O :   -0.114862
  11 O :   -0.035658
  12 C :    0.084909
  13 C :   -0.072483
  14 N :    0.295312
  15 O :   -0.226888
  16 O :   -0.184044
  17 C :    0.016312
  18 C :   -0.052929
  19 C :   -0.000260
  20 C :    0.067965
  21 C :   -0.049199
  22 C :    0.044480
  23 C :   -0.056058
  24 N :    0.281826
  25 O :   -0.205130
  26 O :   -0.214772
  27 C :    0.009890
  28 C :   -0.017862
  29 C :    0.019697
  30 C :    0.062731
  31 N :   -0.002495
  32 C :    0.036333
  33 C :   -0.064475
  34 C :    0.082635
  35 O :   -0.171443
  36 C :   -0.107486
  37 C :   -0.076689
  38 C :    0.084409
  39 O :   -0.156003
  40 N :    0.000140
  41 C :    0.037254
  42 C :   -0.059775
  43 C :    0.085836
  44 C :   -0.032319
  45 C :    0.044736
  46 C :   -0.005306
  47 C :   -0.027592
  48 N :    0.281982
  49 O :   -0.203609
  50 O :   -0.195394
  51 C :    0.031981
  52 C :   -0.033581
  53 C :    0.039462
  54 C :    0.041139
  55 C :   -0.044022
  56 C :    0.008968
  57 C :   -0.040492
  58 N :    0.284152
  59 O :   -0.204903
  60 O :   -0.202810
  61 C :    0.008492
  62 C :   -0.065799
  63 C :    0.104806
  64 O :   -0.032934
  65 C :    0.096863
  66 O :   -0.109004
  67 C :   -0.074748
  68 C :   -0.044721
  69 N :    0.028309
  70 O :    0.081699
  71 C :    0.030446
  72 C :   -0.034939
  73 N :    0.006495
  74 C :   -0.033267
  75 N :    0.018870
  76 H :    0.040465
  77 H :    0.028962
  78 H :    0.028154
  79 H :    0.043262
  80 H :    0.030875
  81 H :    0.045233
  82 H :    0.041583
  83 H :    0.021144
  84 H :    0.034630
  85 H :    0.032351
  86 H :    0.024909
  87 H :    0.025337
  88 H :    0.041651
  89 H :    0.021785
  90 H :    0.034200
  91 H :    0.034575
  92 H :    0.034096
  93 H :    0.046793
  94 H :    0.043655
  95 H :    0.033152
  96 H :    0.034621
  97 H :    0.040221
  98 H :    0.045984
  99 H :    0.031043

  Mayer bond orders larger than 0.100000
B(  0-O ,  1-N ) :   1.0271 B(  0-O ,  6-C ) :   1.1915 B(  1-N ,  2-C ) :   1.7062
B(  1-N ,  6-C ) :   0.1025 B(  2-C ,  3-C ) :   1.1575 B(  2-C ,  5-C ) :   1.2361
B(  3-C ,  4-N ) :   2.9620 B(  5-C ,  6-C ) :   1.5475 B(  5-C ,  9-C ) :   0.9082
B(  6-C ,  7-C ) :   1.1356 B(  7-C ,  8-N ) :   3.0366 B(  9-C , 10-O ) :   2.2369
B(  9-C , 11-O ) :   1.0474 B(  9-C , 15-O ) :   0.1667 B( 11-O , 12-C ) :   1.0925
B( 12-C , 13-C ) :   1.5406 B( 12-C , 19-C ) :   1.0923 B( 13-C , 14-N ) :   0.9578
B( 13-C , 17-C ) :   1.1254 B( 14-N , 15-O ) :   1.4622 B( 14-N , 16-O ) :   1.5635
B( 15-O , 16-O ) :   0.2486 B( 17-C , 18-C ) :   1.6173 B( 17-C , 76-H ) :   1.0130
B( 18-C , 19-C ) :   1.1066 B( 18-C , 77-H ) :   0.9877 B( 19-C , 20-C ) :   1.4769
B( 20-C , 21-C ) :   1.1568 B( 20-C , 27-C ) :   0.9920 B( 21-C , 22-C ) :   1.5290
B( 21-C , 78-H ) :   1.0051 B( 22-C , 23-C ) :   1.1537 B( 22-C , 79-H ) :   1.0079
B( 23-C , 24-N ) :   0.9515 B( 23-C , 27-C ) :   1.4179 B( 24-N , 25-O ) :   1.5329
B( 24-N , 26-O ) :   1.4992 B( 25-O , 26-O ) :   0.2524 B( 27-C , 28-C ) :   1.2532
B( 28-C , 29-C ) :   1.4509 B( 28-C , 80-H ) :   0.9542 B( 29-C , 30-C ) :   1.2743
B( 29-C , 81-H ) :   0.9260 B( 30-C , 31-N ) :   1.1647 B( 30-C , 37-C ) :   1.2666
B( 31-N , 32-C ) :   0.9375 B( 31-N , 34-C ) :   1.0532 B( 32-C , 33-C ) :   1.1171
B( 32-C , 82-H ) :   0.9226 B( 32-C , 83-H ) :   0.9473 B( 33-C , 84-H ) :   0.9588
B( 33-C , 85-H ) :   0.9646 B( 33-C , 86-H ) :   0.9642 B( 34-C , 35-O ) :   2.0634
B( 34-C , 36-C ) :   0.9741 B( 36-C , 37-C ) :   1.3377 B( 36-C , 43-C ) :   1.2445
B( 37-C , 38-C ) :   0.9582 B( 38-C , 39-O ) :   2.1605 B( 38-C , 40-N ) :   1.0211
B( 40-N , 41-C ) :   0.9379 B( 40-N , 43-C ) :   1.1878 B( 41-C , 42-C ) :   1.1189
B( 41-C , 87-H ) :   0.9494 B( 41-C , 88-H ) :   0.9288 B( 42-C , 89-H ) :   0.9685
B( 42-C , 90-H ) :   0.9680 B( 42-C , 91-H ) :   0.9632 B( 43-C , 44-C ) :   1.2279
B( 44-C , 45-C ) :   1.4849 B( 44-C , 92-H ) :   0.9479 B( 45-C , 46-C ) :   1.2200
B( 45-C , 93-H ) :   0.9224 B( 46-C , 47-C ) :   1.4745 B( 46-C , 53-C ) :   0.9999
B( 47-C , 48-N ) :   0.9285 B( 47-C , 51-C ) :   1.1653 B( 48-N , 49-O ) :   1.5291
B( 48-N , 50-O ) :   1.5087 B( 49-O , 50-O ) :   0.2700 B( 51-C , 52-C ) :   1.5294
B( 51-C , 94-H ) :   1.0131 B( 52-C , 53-C ) :   1.1534 B( 52-C , 95-H ) :   1.0076
B( 53-C , 54-C ) :   1.4878 B( 54-C , 55-C ) :   1.1226 B( 54-C , 61-C ) :   1.0391
B( 55-C , 56-C ) :   1.5884 B( 55-C , 96-H ) :   0.9989 B( 56-C , 57-C ) :   1.1191
B( 56-C , 97-H ) :   1.0098 B( 57-C , 58-N ) :   0.9447 B( 57-C , 61-C ) :   1.5306
B( 58-N , 59-O ) :   1.4846 B( 58-N , 60-O ) :   1.5436 B( 59-O , 60-O ) :   0.2612
B( 61-C , 62-C ) :   1.1252 B( 62-C , 63-C ) :   1.6959 B( 62-C , 98-H ) :   0.9448
B( 63-C , 64-O ) :   1.0027 B( 63-C , 99-H ) :   0.9651 B( 64-O , 65-C ) :   1.1412
B( 65-C , 66-O ) :   2.2056 B( 65-C , 67-C ) :   0.8767 B( 67-C , 68-C ) :   1.2500
B( 67-C , 71-C ) :   1.5282 B( 68-C , 69-N ) :   1.7069 B( 68-C , 74-C ) :   1.1569
B( 69-N , 70-O ) :   1.0232 B( 69-N , 71-C ) :   0.1047 B( 70-O , 71-C ) :   1.1946
B( 71-C , 72-C ) :   1.1335 B( 72-C , 73-N ) :   2.9953 B( 74-C , 75-N ) :   3.0652

-----------------------------------------------------------------------------
         ABSORPTION SPECTRUM VIA TRANSITION ELECTRIC DIPOLE MOMENTS
-----------------------------------------------------------------------------
State   Energy  Wavelength   fosc         T2         TX        TY        TZ
        (cm-1)    (nm)                  (au**2)     (au)      (au)      (au)
-----------------------------------------------------------------------------
   0    4269.3   2342.3   0.263747325  20.33781   2.22188   1.13622  -3.75634
   1    8508.8   1175.3   0.003823508   0.14793   0.13968   0.00401   0.35834
   2   13199.2    757.6   0.017933848   0.44730   0.40263  -0.11352  -0.52183
   3   15387.6    649.9   0.014246912   0.30481  -0.49197  -0.12986   0.21427
   4   16443.2    608.2   0.037692951   0.75466   0.69919  -0.11449  -0.50267
   5   17189.9    581.7   0.021518161   0.41210  -0.27654  -0.32050   0.48261
   6   17827.7    560.9   0.082292903   1.51964   1.02555   0.28077  -0.62375
   7   21798.2    458.8   0.002796539   0.04224  -0.12825  -0.00565   0.16049
   8   22331.2    447.8   0.210593581   3.10461  -0.78435  -0.80417   1.35747
   9   22913.2    436.4   0.017210587   0.24728  -0.13993  -0.41836  -0.22950
  10   23056.8    433.7   0.006567282   0.09377  -0.25618   0.05547  -0.15832
  11   23632.4    423.1   0.008980330   0.12510   0.25381   0.18542   0.16217
  12   23831.1    419.6   0.016828996   0.23248  -0.36338   0.19646   0.24868
  13   24805.1    403.1   0.070309522   0.93314   0.32985  -0.10065   0.90234
  14   25092.1    398.5   0.023891375   0.31346  -0.17642  -0.02498  -0.53076
  15   25570.6    391.1   0.093142734   1.19918  -0.84282  -0.37481   0.59020
  16   26249.7    381.0   0.034276159   0.42988   0.21275   0.08003   0.61499
  17   26636.8    375.4   0.047171485   0.58301  -0.60610  -0.20352  -0.41740
  18   26752.5    373.8   0.052687466   0.64836   0.70165   0.20810   0.33576
  19   26912.5    371.6   0.019102983   0.23368  -0.32242  -0.26895  -0.23957
  20   27096.8    369.0   0.062162914   0.75525  -0.68086  -0.26070  -0.47299
  21   27659.2    361.5   0.105480584   1.25548   0.55549   0.13411   0.96380
  22   28350.8    352.7   0.081527791   0.94671  -0.72367  -0.32459  -0.56360
  23   28790.8    347.3   0.067235882   0.76882  -0.08594   0.00098  -0.87260
  24   29001.2    344.8   0.060309131   0.68461  -0.64846   0.23771   0.45563
  25   29248.3    341.9   0.027685780   0.31163  -0.47186   0.29798   0.01353
  26   29606.2    337.8   0.135934474   1.51155   0.67683   0.41278   0.93971
  27   29785.5    335.7   0.065847836   0.72780  -0.49567  -0.01767  -0.69412
  28   29888.2    334.6   0.130022269   1.43217  -0.68547  -0.44691  -0.87325
  29   30095.1    332.3   0.018793862   0.20559  -0.32186  -0.28281   0.14836
  30   30368.4    329.3   0.027279687   0.29573  -0.02158   0.49003   0.23481
  31   30439.4    328.5   0.026733228   0.28913   0.40478   0.21793  -0.27891
  32   30857.6    324.1   0.126253190   1.34696   0.85218   0.64907  -0.44660
  33   31145.0    321.1   0.007239735   0.07653  -0.08653  -0.06120   0.25552
  34   31190.8    320.6   0.079098494   0.83487  -0.20365  -0.23535  -0.85907
  35   31701.7    315.4   0.288651607   2.99755   1.32846   0.50636   0.98810
  36   32181.9    310.7   0.054471869   0.55723  -0.48567  -0.31046  -0.47431
  37   32441.1    308.3   0.121413868   1.23211  -0.49219  -0.29782   0.94930
  38   32826.6    304.6   0.002525031   0.02532  -0.14941  -0.00476   0.05456
  39   32992.9    303.1   0.032859365   0.32788  -0.46737  -0.09951  -0.31550
  40   33173.3    301.4   0.020829741   0.20671   0.21263   0.33846   0.21666
  41   33267.8    300.6   0.133611434   1.32219  -0.88265  -0.44000  -0.59120
  42   33318.8    300.1   0.052696480   0.52068   0.23994   0.32531   0.59773
  43   33355.3    299.8   0.034527146   0.34078   0.50314   0.21185   0.20675
  44   34046.4    293.7   0.022742932   0.21991   0.46443   0.00255   0.06487
  45   34099.5    293.3   0.162521150   1.56905   0.95671   0.43371   0.68239
  46   34253.8    291.9   0.051226668   0.49234  -0.42709  -0.16658  -0.53121
  47   34410.3    290.6   0.003975008   0.03803   0.01590  -0.14433  -0.13017
  48   34439.2    290.4   0.077786840   0.74358   0.55809   0.32090   0.57371
  49   34678.3    288.4   0.003139757   0.02981   0.09567  -0.05043   0.13458
  50   35044.5    285.4   0.046578266   0.43756  -0.42269  -0.13081  -0.49172
  51   35383.1    282.6   0.004381086   0.04076   0.16907  -0.01355   0.10952
  52   35473.5    281.9   0.016171443   0.15008  -0.26516  -0.22896  -0.16537
  53   35691.8    280.2   0.023561730   0.21733   0.29674   0.09554   0.34662
  54   35807.7    279.3   0.016209951   0.14903  -0.03152  -0.38471  -0.00628
  55   35953.3    278.1   0.392890795   3.59757  -1.55841  -0.26068  -1.04927
  56   36528.5    273.8   0.018775537   0.16921  -0.38721  -0.12451   0.06150
  57   36809.3    271.7   0.008961750   0.08015   0.10817   0.05288   0.25623
  58   36919.1    270.9   0.010409054   0.09282   0.15916   0.22300  -0.13327
  59   37259.6    268.4   0.014918759   0.13182  -0.21570  -0.20136   0.21153
  60   38200.8    261.8   0.019571238   0.16866   0.34019   0.16469   0.16066
  61   38342.8    260.8   0.002311130   0.01984  -0.02843  -0.01794   0.13680
  62   38448.2    260.1   0.007701316   0.06594  -0.10630  -0.05608  -0.22693
  63   38543.6    259.4   0.079714070   0.68086  -0.14390   0.06758  -0.80968
  64   38632.3    258.9   0.022872771   0.19491   0.19696  -0.03054  -0.39394
  65   38794.8    257.8   0.004313191   0.03660  -0.10156   0.03763  -0.15770
  66   38851.1    257.4   0.211905376   1.79562   0.84422   0.10110   1.03571
  67   39397.8    253.8   0.073752795   0.61629  -0.04592  -0.15259   0.76870
  68   39842.5    251.0   0.064582983   0.53364   0.32990  -0.06614   0.64840
  69   39962.2    250.2   0.007555388   0.06224   0.19392   0.15647   0.01254
  70   40015.3    249.9   0.001213368   0.00998  -0.02726  -0.08979   0.03430

FINAL SINGLE POINT ENERGY     -3698.934443618925

DIPOLE MOMENT
-------------
                                X             Y             Z
Electronic contribution:     18.93229     -20.21546      10.60212
Nuclear contribution   :    -18.12618      21.17839     -11.51487
                        -----------------------------------------
Total Dipole Moment    :      0.80610       0.96293      -0.91275
                        -----------------------------------------
Magnitude (a.u.)       :      1.55247
Magnitude (Debye)      :      3.94606

Rotational constants in cm-1:     0.001756     0.000250     0.000240
Rotational constants in MHz :    52.648933     7.497946     7.182283

                             ****ORCA TERMINATED NORMALLY****
TOTAL RUN TIME: 0 days 0 hours 12 minutes 1 seconds 331 msec
