                         Program Version 4.2.0 -  RELEASE  -
|  1> # ORCA input file
|  2> # SCF done       -207.177606029843          0.000258879388
|  3> ! CAM-B3LYP def2-SVP def2/J RIJCOSX Grid4 TightSCF
|  4> %maxcore 5000
|  5> %tddft
|  6>     Mode sTDDFT
|  7>     Ethresh 5.0
|  8>     maxcore 5000
|  9> end
| 10>
| 11> %pal
| 12>   nprocs 6
| 13>   end
| 14> * xyz 0 1
| 15>    C       -0.42829         6.09085        -5.78244
| 16>    C       -1.63680         5.62837        -5.33360
| 17>    C       -2.80531         5.60506        -6.12138
| 18>    N       -3.78066         5.57637        -6.72531
| 19>    C       -1.80450         5.02943        -4.06796
| 20>    N       -1.95194         4.49658        -3.06200
| 21>    C       -0.11386         6.44484        -7.16089
| 22>    C        1.29558         6.32738        -7.34618
| 23>    C        1.87867         6.55911        -8.55873
| 24>    C        1.06749         6.93757        -9.65242
| 25>    C       -0.33911         7.07434        -9.46730
| 26>    C       -0.91793         6.81863        -8.20298
| 27>    C       -1.13403         7.46211       -10.56488
| 28>    C       -0.56988         7.70047       -11.78846
| 29>    C        0.81440         7.56362       -11.97057
| 30>    C        1.61530         7.18992       -10.92572
| 31>    C        1.92852         5.95912        -6.06696
| 32>    O        3.09141         5.71356        -5.84695
| 33>    C        0.82673         6.02518        -5.06052
| 34>    C        1.12904         6.13737        -3.74217
| 35>    C        0.32813         6.63536        -2.68164
| 36>    S       -1.04310         7.68486        -2.92646
| 37>    C       -1.29479         7.86655        -1.22227
| 38>    C       -0.33683         7.13462        -0.50682
| 39>    C        0.57630         6.46732        -1.33395
| 40>    C       -0.25985         7.06209         0.89372
| 41>    N       -0.16155         6.98536         2.03486
| 42>    C       -2.36463         8.67956        -0.78625
| 43>    C       -2.68314         8.93950         0.51145
| 44>    C       -3.78089         9.75843         0.86424
| 45>    N       -4.13297        10.04558         2.15987
| 46>    C       -3.50684         9.53803         3.35765
| 47>    C       -3.94142         8.10710         3.66280
| 48>    C       -5.26127        10.88639         2.22814
| 49>    O       -5.72435        11.30279         3.26720
| 50>    C       -5.62179        11.10828         0.84226
| 51>    C       -4.68696        10.42231         0.03242
| 52>    C       -5.01886        10.68477        -1.35131
| 53>    O       -4.50794        10.32257        -2.39458
| 54>    N       -6.14707        11.51377        -1.28689
| 55>    C       -6.76936        12.02476        -2.48470
| 56>    C       -6.35571        13.46631        -2.77111
| 57>    C       -6.52504        11.77321         0.01242
| 58>    C       -7.64237        12.56815         0.35172
| 59>    C       -8.10149        12.72864         1.62223
| 60>    C       -9.19632        13.57271         1.92371
| 61>    S       -9.81308        14.70316         0.75541
| 62>    C      -10.98020        15.32342         1.88339
| 63>    C      -10.89296        14.64929         3.11091
| 64>    C       -9.89627        13.65966         3.13026
| 65>    C       -9.66903        12.79224         4.29441
| 66>    O       -9.02023        11.76640         4.25165
| 67>    C      -10.31504        13.27081         5.53907
| 68>    C       -9.94660        12.68712         6.74735
| 69>    C      -10.52872        13.09838         7.93281
| 70>    C      -11.50019        14.08861         7.92165
| 71>    C      -11.88778        14.66341         6.72515
| 72>    C      -11.29714        14.26944         5.52723
| 73>    C      -11.75768        14.90418         4.27314
| 74>    O      -12.77394        15.57329         4.22492
| 75>    C      -11.83885        16.41553         1.64424
| 76>    C      -12.13973        17.04108         0.46883
| 77>    C      -13.04913        18.16834         0.34118
| 78>    C      -13.40155        19.03648         1.33846
| 79>    C      -14.28283        20.12262         1.15456
| 80>    N      -14.99853        21.01484         1.05873
| 81>    C      -12.87091        19.01666         2.64777
| 82>    N      -12.43937        19.10344         3.70762
| 83>    C      -13.42596        18.27066        -1.06297
| 84>    C      -12.65728        17.32688        -1.80495
| 85>    C      -11.78447        16.58015        -0.88713
| 86>    O      -10.95290        15.74481        -1.19262
| 87>    C      -12.77834        17.20358        -3.15944
| 88>    C      -13.69728        18.02830        -3.84572
| 89>    C      -14.47633        18.96780        -3.10993
| 90>    C      -14.32484        19.07711        -1.70812
| 91>    C      -15.39310        19.78151        -3.80564
| 92>    C      -15.53419        19.67529        -5.16274
| 93>    C      -14.76627        18.75075        -5.88618
| 94>    C      -13.86713        17.94500        -5.24175
| 95>    H        2.94642         6.45661        -8.68335
| 96>    H       -1.98372         6.93760        -8.08374
| 97>    H       -2.19963         7.56278       -10.42024
| 98>    H       -1.18757         7.99541       -12.62346
| 99>    H        1.24301         7.75614       -12.94268
|100>    H        2.68176         7.08323       -11.06020
|101>    H        2.15440         5.89644        -3.47714
|102>    H        1.37829         5.85704        -0.95705
|103>    H       -2.96774         9.11806        -1.57170
|104>    H       -2.09343         8.51586         1.30958
|105>    H       -3.82769        10.19978         4.16704
|106>    H       -2.41976         9.59928         3.25898
|107>    H       -5.02029         8.06565         3.79150
|108>    H       -3.46676         7.76950         4.57945
|109>    H       -3.65897         7.43251         2.85782
|110>    H       -7.85591        11.94187        -2.39693
|111>    H       -6.43055        11.37827        -3.29923
|112>    H       -6.65350        14.12881        -1.96173
|113>    H       -6.82557        13.80628        -3.68969
|114>    H       -5.27647        13.52597        -2.88935
|115>    H       -8.17028        13.05993        -0.45503
|116>    H       -7.64055        12.20252         2.44951
|117>    H       -9.19471        11.91219         6.73064
|118>    H      -10.22829        12.64543         8.86570
|119>    H      -11.95757        14.40919         8.84554
|120>    H      -12.64824        15.42939         6.69235
|121>    H      -12.35471        16.75656         2.53570
|122>    H      -12.18184        16.48447        -3.70108
|123>    H      -14.93157        19.79358        -1.17728
|124>    H      -15.98118        20.49284        -3.24469
|125>    H      -16.23881        20.30369        -5.68640
|126>    H      -14.89080        18.67991        -6.95633
|127>    H      -13.27320        17.23106        -5.79352
|128> *
|129>
|130>                          ****END OF INPUT****

CARTESIAN COORDINATES (ANGSTROEM)
---------------------------------
  C     -0.428290    6.090850   -5.782440
  C     -1.636800    5.628370   -5.333600
  C     -2.805310    5.605060   -6.121380
  N     -3.780660    5.576370   -6.725310
  C     -1.804500    5.029430   -4.067960
  N     -1.951940    4.496580   -3.062000
  C     -0.113860    6.444840   -7.160890
  C      1.295580    6.327380   -7.346180
  C      1.878670    6.559110   -8.558730
  C      1.067490    6.937570   -9.652420
  C     -0.339110    7.074340   -9.467300
  C     -0.917930    6.818630   -8.202980
  C     -1.134030    7.462110  -10.564880
  C     -0.569880    7.700470  -11.788460
  C      0.814400    7.563620  -11.970570
  C      1.615300    7.189920  -10.925720
  C      1.928520    5.959120   -6.066960
  O      3.091410    5.713560   -5.846950
  C      0.826730    6.025180   -5.060520
  C      1.129040    6.137370   -3.742170
  C      0.328130    6.635360   -2.681640
  S     -1.043100    7.684860   -2.926460
  C     -1.294790    7.866550   -1.222270
  C     -0.336830    7.134620   -0.506820
  C      0.576300    6.467320   -1.333950
  C     -0.259850    7.062090    0.893720
  N     -0.161550    6.985360    2.034860
  C     -2.364630    8.679560   -0.786250
  C     -2.683140    8.939500    0.511450
  C     -3.780890    9.758430    0.864240
  N     -4.132970   10.045580    2.159870
  C     -3.506840    9.538030    3.357650
  C     -3.941420    8.107100    3.662800
  C     -5.261270   10.886390    2.228140
  O     -5.724350   11.302790    3.267200
  C     -5.621790   11.108280    0.842260
  C     -4.686960   10.422310    0.032420
  C     -5.018860   10.684770   -1.351310
  O     -4.507940   10.322570   -2.394580
  N     -6.147070   11.513770   -1.286890
  C     -6.769360   12.024760   -2.484700
  C     -6.355710   13.466310   -2.771110
  C     -6.525040   11.773210    0.012420
  C     -7.642370   12.568150    0.351720
  C     -8.101490   12.728640    1.622230
  C     -9.196320   13.572710    1.923710
  S     -9.813080   14.703160    0.755410
  C    -10.980200   15.323420    1.883390
  C    -10.892960   14.649290    3.110910
  C     -9.896270   13.659660    3.130260
  C     -9.669030   12.792240    4.294410
  O     -9.020230   11.766400    4.251650
  C    -10.315040   13.270810    5.539070
  C     -9.946600   12.687120    6.747350
  C    -10.528720   13.098380    7.932810
  C    -11.500190   14.088610    7.921650
  C    -11.887780   14.663410    6.725150
  C    -11.297140   14.269440    5.527230
  C    -11.757680   14.904180    4.273140
  O    -12.773940   15.573290    4.224920
  C    -11.838850   16.415530    1.644240
  C    -12.139730   17.041080    0.468830
  C    -13.049130   18.168340    0.341180
  C    -13.401550   19.036480    1.338460
  C    -14.282830   20.122620    1.154560
  N    -14.998530   21.014840    1.058730
  C    -12.870910   19.016660    2.647770
  N    -12.439370   19.103440    3.707620
  C    -13.425960   18.270660   -1.062970
  C    -12.657280   17.326880   -1.804950
  C    -11.784470   16.580150   -0.887130
  O    -10.952900   15.744810   -1.192620
  C    -12.778340   17.203580   -3.159440
  C    -13.697280   18.028300   -3.845720
  C    -14.476330   18.967800   -3.109930
  C    -14.324840   19.077110   -1.708120
  C    -15.393100   19.781510   -3.805640
  C    -15.534190   19.675290   -5.162740
  C    -14.766270   18.750750   -5.886180
  C    -13.867130   17.945000   -5.241750
  H      2.946420    6.456610   -8.683350
  H     -1.983720    6.937600   -8.083740
  H     -2.199630    7.562780  -10.420240
  H     -1.187570    7.995410  -12.623460
  H      1.243010    7.756140  -12.942680
  H      2.681760    7.083230  -11.060200
  H      2.154400    5.896440   -3.477140
  H      1.378290    5.857040   -0.957050
  H     -2.967740    9.118060   -1.571700
  H     -2.093430    8.515860    1.309580
  H     -3.827690   10.199780    4.167040
  H     -2.419760    9.599280    3.258980
  H     -5.020290    8.065650    3.791500
  H     -3.466760    7.769500    4.579450
  H     -3.658970    7.432510    2.857820
  H     -7.855910   11.941870   -2.396930
  H     -6.430550   11.378270   -3.299230
  H     -6.653500   14.128810   -1.961730
  H     -6.825570   13.806280   -3.689690
  H     -5.276470   13.525970   -2.889350
  H     -8.170280   13.059930   -0.455030
  H     -7.640550   12.202520    2.449510
  H     -9.194710   11.912190    6.730640
  H    -10.228290   12.645430    8.865700
  H    -11.957570   14.409190    8.845540
  H    -12.648240   15.429390    6.692350
  H    -12.354710   16.756560    2.535700
  H    -12.181840   16.484470   -3.701080
  H    -14.931570   19.793580   -1.177280
  H    -15.981180   20.492840   -3.244690
  H    -16.238810   20.303690   -5.686400
  H    -14.890800   18.679910   -6.956330
  H    -13.273200   17.231060   -5.793520

 Total Charge           Charge          ....    0
 Multiplicity           Mult            ....    1
 Number of Electrons    NEL             ....  552
 Basis Dimension        Dim             .... 1293

ORBITAL ENERGIES
----------------

  NO   OCC          E(Eh)            E(eV)
   0   2.0000     -88.985173     -2421.4096
   1   2.0000     -88.979615     -2421.2584
   2   2.0000     -19.227207      -523.1989
   3   2.0000     -19.220779      -523.0240
   4   2.0000     -19.218117      -522.9515
   5   2.0000     -19.213697      -522.8313
   6   2.0000     -19.196808      -522.3717
   7   2.0000     -19.192441      -522.2529
   8   2.0000     -14.457503      -393.4087
   9   2.0000     -14.454843      -393.3363
  10   2.0000     -14.418327      -392.3426
  11   2.0000     -14.418244      -392.3404
  12   2.0000     -14.416721      -392.2989
  13   2.0000     -14.415680      -392.2706
  14   2.0000     -14.412560      -392.1857
  15   2.0000     -10.378931      -282.4251
  16   2.0000     -10.375781      -282.3394
  17   2.0000     -10.375438      -282.3300
  18   2.0000     -10.374687      -282.3096
  19   2.0000     -10.369971      -282.1813
  20   2.0000     -10.367722      -282.1200
  21   2.0000     -10.347663      -281.5742
  22   2.0000     -10.344833      -281.4972
  23   2.0000     -10.344091      -281.4770
  24   2.0000     -10.343568      -281.4628
  25   2.0000     -10.342676      -281.4385
  26   2.0000     -10.342277      -281.4277
  27   2.0000     -10.340991      -281.3927
  28   2.0000     -10.332297      -281.1561
  29   2.0000     -10.329964      -281.0926
  30   2.0000     -10.327258      -281.0190
  31   2.0000     -10.326940      -281.0103
  32   2.0000     -10.325996      -280.9846
  33   2.0000     -10.321317      -280.8573
  34   2.0000     -10.320296      -280.8295
  35   2.0000     -10.319414      -280.8055
  36   2.0000     -10.318378      -280.7773
  37   2.0000     -10.318050      -280.7684
  38   2.0000     -10.314651      -280.6759
  39   2.0000     -10.314392      -280.6689
  40   2.0000     -10.311423      -280.5881
  41   2.0000     -10.307074      -280.4697
  42   2.0000     -10.306635      -280.4578
  43   2.0000     -10.305822      -280.4357
  44   2.0000     -10.304777      -280.4072
  45   2.0000     -10.304648      -280.4037
  46   2.0000     -10.304319      -280.3948
  47   2.0000     -10.303958      -280.3850
  48   2.0000     -10.302387      -280.3422
  49   2.0000     -10.301351      -280.3140
  50   2.0000     -10.300904      -280.3018
  51   2.0000     -10.300648      -280.2949
  52   2.0000     -10.300595      -280.2934
  53   2.0000     -10.300288      -280.2851
  54   2.0000     -10.299971      -280.2764
  55   2.0000     -10.299611      -280.2667
  56   2.0000     -10.299462      -280.2626
  57   2.0000     -10.299298      -280.2582
  58   2.0000     -10.298428      -280.2345
  59   2.0000     -10.297017      -280.1961
  60   2.0000     -10.293170      -280.0914
  61   2.0000     -10.292749      -280.0799
  62   2.0000     -10.291112      -280.0354
  63   2.0000     -10.290358      -280.0149
  64   2.0000     -10.289662      -279.9959
  65   2.0000     -10.289149      -279.9820
  66   2.0000     -10.288889      -279.9749
  67   2.0000     -10.288710      -279.9700
  68   2.0000     -10.288461      -279.9633
  69   2.0000     -10.288222      -279.9567
  70   2.0000     -10.288081      -279.9529
  71   2.0000     -10.287706      -279.9427
  72   2.0000     -10.285823      -279.8915
  73   2.0000     -10.285096      -279.8717
  74   2.0000     -10.283612      -279.8313
  75   2.0000     -10.282892      -279.8117
  76   2.0000     -10.267792      -279.4008
  77   2.0000     -10.267071      -279.3812
  78   2.0000     -10.266586      -279.3680
  79   2.0000     -10.257513      -279.1211
  80   2.0000      -8.080131      -219.8715
  81   2.0000      -8.073289      -219.6854
  82   2.0000      -6.049337      -164.6108
  83   2.0000      -6.045127      -164.4963
  84   2.0000      -6.042431      -164.4229
  85   2.0000      -6.042367      -164.4212
  86   2.0000      -6.038037      -164.3033
  87   2.0000      -6.035925      -164.2459
  88   2.0000      -1.142233       -31.0817
  89   2.0000      -1.137668       -30.9575
  90   2.0000      -1.137062       -30.9410
  91   2.0000      -1.133480       -30.8436
  92   2.0000      -1.130430       -30.7606
  93   2.0000      -1.129980       -30.7483
  94   2.0000      -1.067696       -29.0535
  95   2.0000      -1.058964       -28.8159
  96   2.0000      -1.026580       -27.9347
  97   2.0000      -1.019210       -27.7341
  98   2.0000      -1.018420       -27.7126
  99   2.0000      -1.010159       -27.4878
 100   2.0000      -1.000919       -27.2364
 101   2.0000      -1.000166       -27.2159
 102   2.0000      -0.998173       -27.1617
 103   2.0000      -0.994483       -27.0613
 104   2.0000      -0.992267       -27.0010
 105   2.0000      -0.974537       -26.5185
 106   2.0000      -0.974471       -26.5167
 107   2.0000      -0.968310       -26.3491
 108   2.0000      -0.935139       -25.4464
 109   2.0000      -0.932333       -25.3701
 110   2.0000      -0.929388       -25.2899
 111   2.0000      -0.923517       -25.1302
 112   2.0000      -0.920700       -25.0535
 113   2.0000      -0.908743       -24.7281
 114   2.0000      -0.905802       -24.6481
 115   2.0000      -0.894548       -24.3419
 116   2.0000      -0.886449       -24.1215
 117   2.0000      -0.884258       -24.0619
 118   2.0000      -0.883493       -24.0411
 119   2.0000      -0.880334       -23.9551
 120   2.0000      -0.874030       -23.7836
 121   2.0000      -0.869440       -23.6587
 122   2.0000      -0.853300       -23.2195
 123   2.0000      -0.848018       -23.0757
 124   2.0000      -0.845543       -23.0084
 125   2.0000      -0.842795       -22.9336
 126   2.0000      -0.831290       -22.6205
 127   2.0000      -0.831020       -22.6132
 128   2.0000      -0.821267       -22.3478
 129   2.0000      -0.810511       -22.0551
 130   2.0000      -0.803038       -21.8518
 131   2.0000      -0.788773       -21.4636
 132   2.0000      -0.779211       -21.2034
 133   2.0000      -0.764935       -20.8150
 134   2.0000      -0.763157       -20.7666
 135   2.0000      -0.761163       -20.7123
 136   2.0000      -0.751944       -20.4614
 137   2.0000      -0.745074       -20.2745
 138   2.0000      -0.731815       -19.9137
 139   2.0000      -0.723932       -19.6992
 140   2.0000      -0.720975       -19.6187
 141   2.0000      -0.712086       -19.3768
 142   2.0000      -0.710152       -19.3242
 143   2.0000      -0.707186       -19.2435
 144   2.0000      -0.704873       -19.1806
 145   2.0000      -0.702096       -19.1050
 146   2.0000      -0.699564       -19.0361
 147   2.0000      -0.694670       -18.9029
 148   2.0000      -0.683434       -18.5972
 149   2.0000      -0.679709       -18.4958
 150   2.0000      -0.678220       -18.4553
 151   2.0000      -0.671947       -18.2846
 152   2.0000      -0.663677       -18.0596
 153   2.0000      -0.662962       -18.0401
 154   2.0000      -0.652061       -17.7435
 155   2.0000      -0.645343       -17.5607
 156   2.0000      -0.636226       -17.3126
 157   2.0000      -0.633657       -17.2427
 158   2.0000      -0.629101       -17.1187
 159   2.0000      -0.622122       -16.9288
 160   2.0000      -0.621460       -16.9108
 161   2.0000      -0.616368       -16.7722
 162   2.0000      -0.610411       -16.6101
 163   2.0000      -0.609997       -16.5989
 164   2.0000      -0.602845       -16.4042
 165   2.0000      -0.598881       -16.2964
 166   2.0000      -0.591038       -16.0830
 167   2.0000      -0.590895       -16.0791
 168   2.0000      -0.584497       -15.9050
 169   2.0000      -0.580214       -15.7884
 170   2.0000      -0.574115       -15.6225
 171   2.0000      -0.568564       -15.4714
 172   2.0000      -0.566850       -15.4248
 173   2.0000      -0.561945       -15.2913
 174   2.0000      -0.557366       -15.1667
 175   2.0000      -0.552123       -15.0240
 176   2.0000      -0.550227       -14.9724
 177   2.0000      -0.549512       -14.9530
 178   2.0000      -0.547290       -14.8925
 179   2.0000      -0.544192       -14.8082
 180   2.0000      -0.543370       -14.7859
 181   2.0000      -0.542094       -14.7511
 182   2.0000      -0.540085       -14.6965
 183   2.0000      -0.539313       -14.6755
 184   2.0000      -0.535510       -14.5720
 185   2.0000      -0.533890       -14.5279
 186   2.0000      -0.533034       -14.5046
 187   2.0000      -0.531580       -14.4650
 188   2.0000      -0.529694       -14.4137
 189   2.0000      -0.527687       -14.3591
 190   2.0000      -0.526446       -14.3253
 191   2.0000      -0.524571       -14.2743
 192   2.0000      -0.522536       -14.2189
 193   2.0000      -0.521935       -14.2026
 194   2.0000      -0.520499       -14.1635
 195   2.0000      -0.518267       -14.1028
 196   2.0000      -0.516256       -14.0481
 197   2.0000      -0.515729       -14.0337
 198   2.0000      -0.512996       -13.9593
 199   2.0000      -0.512410       -13.9434
 200   2.0000      -0.510189       -13.8829
 201   2.0000      -0.505734       -13.7617
 202   2.0000      -0.502829       -13.6827
 203   2.0000      -0.502003       -13.6602
 204   2.0000      -0.500817       -13.6279
 205   2.0000      -0.498864       -13.5748
 206   2.0000      -0.497015       -13.5245
 207   2.0000      -0.495100       -13.4724
 208   2.0000      -0.488651       -13.2969
 209   2.0000      -0.487563       -13.2673
 210   2.0000      -0.485786       -13.2189
 211   2.0000      -0.481871       -13.1124
 212   2.0000      -0.477846       -13.0029
 213   2.0000      -0.476983       -12.9794
 214   2.0000      -0.472234       -12.8502
 215   2.0000      -0.470630       -12.8065
 216   2.0000      -0.467825       -12.7302
 217   2.0000      -0.467190       -12.7129
 218   2.0000      -0.464305       -12.6344
 219   2.0000      -0.461472       -12.5573
 220   2.0000      -0.456866       -12.4320
 221   2.0000      -0.455743       -12.4014
 222   2.0000      -0.451026       -12.2730
 223   2.0000      -0.450508       -12.2590
 224   2.0000      -0.449794       -12.2395
 225   2.0000      -0.448845       -12.2137
 226   2.0000      -0.447332       -12.1725
 227   2.0000      -0.445974       -12.1356
 228   2.0000      -0.444815       -12.1040
 229   2.0000      -0.444629       -12.0990
 230   2.0000      -0.444063       -12.0836
 231   2.0000      -0.442455       -12.0398
 232   2.0000      -0.441348       -12.0097
 233   2.0000      -0.440893       -11.9973
 234   2.0000      -0.439017       -11.9463
 235   2.0000      -0.436694       -11.8830
 236   2.0000      -0.435334       -11.8460
 237   2.0000      -0.435108       -11.8399
 238   2.0000      -0.432853       -11.7785
 239   2.0000      -0.432487       -11.7686
 240   2.0000      -0.429934       -11.6991
 241   2.0000      -0.428170       -11.6511
 242   2.0000      -0.428094       -11.6490
 243   2.0000      -0.425060       -11.5665
 244   2.0000      -0.424428       -11.5493
 245   2.0000      -0.420288       -11.4366
 246   2.0000      -0.417215       -11.3530
 247   2.0000      -0.414298       -11.2736
 248   2.0000      -0.413875       -11.2621
 249   2.0000      -0.413468       -11.2510
 250   2.0000      -0.406725       -11.0676
 251   2.0000      -0.405839       -11.0434
 252   2.0000      -0.390054       -10.6139
 253   2.0000      -0.387061       -10.5325
 254   2.0000      -0.377660       -10.2767
 255   2.0000      -0.375325       -10.2131
 256   2.0000      -0.353279        -9.6132
 257   2.0000      -0.352549        -9.5934
 258   2.0000      -0.351856        -9.5745
 259   2.0000      -0.349999        -9.5240
 260   2.0000      -0.346352        -9.4247
 261   2.0000      -0.341903        -9.3036
 262   2.0000      -0.339559        -9.2399
 263   2.0000      -0.337699        -9.1893
 264   2.0000      -0.335038        -9.1169
 265   2.0000      -0.333906        -9.0860
 266   2.0000      -0.331325        -9.0158
 267   2.0000      -0.326498        -8.8845
 268   2.0000      -0.320256        -8.7146
 269   2.0000      -0.319202        -8.6859
 270   2.0000      -0.319047        -8.6817
 271   2.0000      -0.301844        -8.2136
 272   2.0000      -0.299777        -8.1573
 273   2.0000      -0.293155        -7.9771
 274   2.0000      -0.287829        -7.8322
 275   2.0000      -0.237829        -6.4717
 276   0.0000      -0.116598        -3.1728
 277   0.0000      -0.101673        -2.7667
 278   0.0000      -0.083412        -2.2698
 279   0.0000      -0.064652        -1.7593
 280   0.0000      -0.060512        -1.6466

MULLIKEN ATOMIC CHARGES
-----------------------
   0 C :    0.241236
   1 C :   -0.314354
   2 C :   -0.170665
   3 N :    0.156625
   4 C :   -0.207085
   5 N :    0.175884
   6 C :    0.036479
   7 C :    0.013795
   8 C :   -0.081950
   9 C :    0.095926
  10 C :    0.095713
  11 C :   -0.079225
  12 C :   -0.019378
  13 C :    0.036555
  14 C :    0.037795
  15 C :   -0.017194
  16 C :    0.140593
  17 O :   -0.138140
  18 C :   -0.133294
  19 C :    0.062812
  20 C :   -0.087843
  21 S :    0.192552
  22 C :   -0.049377
  23 C :   -0.063033
  24 C :    0.061688
  25 C :   -0.168301
  26 N :    0.118369
  27 C :    0.058321
  28 C :   -0.030474
  29 C :    0.134261
  30 N :   -0.255572
  31 C :    0.090282
  32 C :    0.008290
  33 C :    0.158018
  34 O :   -0.184803
  35 C :   -0.057598
  36 C :   -0.067532
  37 C :    0.171104
  38 O :   -0.213043
  39 N :   -0.255061
  40 C :    0.093430
  41 C :    0.007034
  42 C :    0.140560
  43 C :   -0.036296
  44 C :    0.014349
  45 C :   -0.121338
  46 S :    0.205639
  47 C :   -0.121233
  48 C :    0.060683
  49 C :    0.053974
  50 C :    0.114977
  51 O :   -0.142429
  52 C :   -0.009209
  53 C :   -0.023585
  54 C :    0.050678
  55 C :    0.048798
  56 C :   -0.019366
  57 C :   -0.005386
  58 C :    0.129871
  59 O :   -0.159542
  60 C :   -0.040638
  61 C :   -0.085232
  62 C :    0.291953
  63 C :   -0.325730
  64 C :   -0.183157
  65 N :    0.147633
  66 C :   -0.204896
  67 N :    0.169491
  68 C :    0.052355
  69 C :   -0.002530
  70 C :    0.164799
  71 O :   -0.176159
  72 C :   -0.078732
  73 C :    0.097932
  74 C :    0.095019
  75 C :   -0.081503
  76 C :   -0.018693
  77 C :    0.036940
  78 C :    0.034118
  79 C :   -0.015682
  80 H :   -0.009727
  81 H :   -0.002986
  82 H :   -0.009769
  83 H :   -0.004017
  84 H :   -0.005226
  85 H :   -0.015715
  86 H :    0.029413
  87 H :    0.008475
  88 H :    0.005586
  89 H :   -0.009984
  90 H :    0.043826
  91 H :    0.035629
  92 H :    0.028844
  93 H :    0.028511
  94 H :    0.019458
  95 H :    0.029345
  96 H :    0.044545
  97 H :    0.017417
  98 H :    0.024470
  99 H :    0.028493
 100 H :   -0.006129
 101 H :    0.051553
 102 H :    0.007416
 103 H :   -0.001305
 104 H :   -0.000939
 105 H :    0.008869
 106 H :    0.054314
 107 H :   -0.014361
 108 H :   -0.005648
 109 H :   -0.007659
 110 H :   -0.003344
 111 H :   -0.002862
 112 H :   -0.017768
Sum of atomic charges:   -0.0000000

LOEWDIN ATOMIC CHARGES
----------------------
   0 C :    0.059263
   1 C :   -0.137166
   2 C :   -0.018349
   3 N :   -0.046483
   4 C :   -0.036288
   5 N :   -0.044241
   6 C :   -0.022507
   7 C :   -0.057515
   8 C :    0.033664
   9 C :   -0.008809
  10 C :   -0.004684
  11 C :    0.016764
  12 C :   -0.006377
  13 C :   -0.012085
  14 C :   -0.012399
  15 C :   -0.008749
  16 C :    0.084211
  17 O :   -0.139953
  18 C :   -0.088136
  19 C :    0.048603
  20 C :   -0.178217
  21 S :    0.513246
  22 C :   -0.119788
  23 C :   -0.105178
  24 C :    0.015649
  25 C :   -0.025121
  26 N :   -0.057243
  27 C :   -0.006169
  28 C :   -0.018578
  29 C :    0.074123
  30 N :    0.002330
  31 C :    0.036064
  32 C :   -0.058782
  33 C :    0.080323
  34 O :   -0.180220
  35 C :   -0.110046
  36 C :   -0.114037
  37 C :    0.080276
  38 O :   -0.201637
  39 N :    0.002020
  40 C :    0.036222
  41 C :   -0.060362
  42 C :    0.072712
  43 C :   -0.038230
  44 C :    0.013420
  45 C :   -0.131662
  46 S :    0.540993
  47 C :   -0.154504
  48 C :   -0.056597
  49 C :   -0.082376
  50 C :    0.083229
  51 O :   -0.124785
  52 C :   -0.048326
  53 C :    0.015800
  54 C :   -0.002129
  55 C :   -0.004485
  56 C :    0.018850
  57 C :   -0.051958
  58 C :    0.090615
  59 O :   -0.132859
  60 C :    0.056163
  61 C :   -0.089217
  62 C :    0.073269
  63 C :   -0.129184
  64 C :   -0.016175
  65 N :   -0.050951
  66 C :   -0.026421
  67 N :   -0.040551
  68 C :   -0.023619
  69 C :   -0.056193
  70 C :    0.084543
  71 O :   -0.166553
  72 C :    0.032704
  73 C :   -0.008982
  74 C :   -0.004938
  75 C :    0.019818
  76 C :   -0.005105
  77 C :   -0.011791
  78 C :   -0.012388
  79 C :   -0.009422
  80 H :    0.039982
  81 H :    0.039331
  82 H :    0.034539
  83 H :    0.033471
  84 H :    0.032918
  85 H :    0.032314
  86 H :    0.053356
  87 H :    0.046178
  88 H :    0.037121
  89 H :    0.037250
  90 H :    0.038107
  91 H :    0.027260
  92 H :    0.031518
  93 H :    0.033716
  94 H :    0.023898
  95 H :    0.025317
  96 H :    0.038254
  97 H :    0.022668
  98 H :    0.031511
  99 H :    0.031811
 100 H :    0.023870
 101 H :    0.047116
 102 H :    0.039423
 103 H :    0.033999
 104 H :    0.034209
 105 H :    0.039946
 106 H :    0.052670
 107 H :    0.038241
 108 H :    0.039629
 109 H :    0.035271
 110 H :    0.033754
 111 H :    0.033376
 112 H :    0.031623

  Mayer bond orders larger than 0.100000
B(  0-C ,  1-C ) :   1.6671 B(  0-C ,  6-C ) :   1.0020 B(  0-C , 18-C ) :   1.0239
B(  1-C ,  2-C ) :   1.1339 B(  1-C ,  4-C ) :   1.1521 B(  2-C ,  3-N ) :   2.9924
B(  4-C ,  5-N ) :   3.0205 B(  6-C ,  7-C ) :   1.2151 B(  6-C , 11-C ) :   1.4601
B(  7-C ,  8-C ) :   1.4746 B(  7-C , 16-C ) :   0.9219 B(  8-C ,  9-C ) :   1.1864
B(  8-C , 80-H ) :   1.0160 B(  9-C , 10-C ) :   1.2568 B(  9-C , 15-C ) :   1.2437
B( 10-C , 11-C ) :   1.2043 B( 10-C , 12-C ) :   1.2409 B( 11-C , 81-H ) :   0.9948
B( 12-C , 13-C ) :   1.4899 B( 12-C , 82-H ) :   0.9977 B( 13-C , 14-C ) :   1.2607
B( 13-C , 83-H ) :   0.9881 B( 14-C , 15-C ) :   1.4910 B( 14-C , 84-H ) :   0.9882
B( 15-C , 85-H ) :   0.9979 B( 16-C , 17-O ) :   2.2769 B( 16-C , 18-C ) :   0.9308
B( 18-C , 19-C ) :   1.6755 B( 19-C , 20-C ) :   1.1111 B( 19-C , 86-H ) :   0.9465
B( 20-C , 21-S ) :   1.1134 B( 20-C , 24-C ) :   1.4291 B( 21-S , 22-C ) :   1.1712
B( 22-C , 23-C ) :   1.3979 B( 22-C , 27-C ) :   1.1725 B( 23-C , 24-C ) :   1.3101
B( 23-C , 25-C ) :   1.1193 B( 24-C , 87-H ) :   1.0087 B( 25-C , 26-N ) :   2.9669
B( 27-C , 28-C ) :   1.5982 B( 27-C , 88-H ) :   0.9159 B( 28-C , 29-C ) :   1.1767
B( 28-C , 89-H ) :   0.9504 B( 29-C , 30-N ) :   1.1727 B( 29-C , 36-C ) :   1.3187
B( 30-N , 31-C ) :   0.9386 B( 30-N , 33-C ) :   1.0454 B( 31-C , 32-C ) :   1.1236
B( 31-C , 90-H ) :   0.9270 B( 31-C , 91-H ) :   0.9485 B( 32-C , 92-H ) :   0.9633
B( 32-C , 93-H ) :   0.9674 B( 32-C , 94-H ) :   0.9678 B( 33-C , 34-O ) :   2.0792
B( 33-C , 35-C ) :   0.9738 B( 35-C , 36-C ) :   1.2676 B( 35-C , 42-C ) :   1.3405
B( 36-C , 37-C ) :   0.9845 B( 37-C , 38-O ) :   2.0118 B( 37-C , 39-N ) :   1.0700
B( 38-O , 88-H ) :   0.1228 B( 39-N , 40-C ) :   0.9442 B( 39-N , 42-C ) :   1.1557
B( 40-C , 41-C ) :   1.1214 B( 40-C , 95-H ) :   0.9498 B( 40-C , 96-H ) :   0.9282
B( 41-C , 97-H ) :   0.9685 B( 41-C , 98-H ) :   0.9677 B( 41-C , 99-H ) :   0.9630
B( 42-C , 43-C ) :   1.1651 B( 43-C , 44-C ) :   1.5638 B( 43-C ,100-H ) :   0.9575
B( 44-C , 45-C ) :   1.1771 B( 44-C ,101-H ) :   0.9478 B( 45-C , 46-S ) :   1.1329
B( 45-C , 49-C ) :   1.3935 B( 46-S , 47-C ) :   1.1336 B( 47-C , 48-C ) :   1.3983
B( 47-C , 60-C ) :   1.2213 B( 48-C , 49-C ) :   1.2871 B( 48-C , 58-C ) :   0.9423
B( 49-C , 50-C ) :   0.9409 B( 50-C , 51-O ) :   2.2053 B( 50-C , 52-C ) :   0.9376
B( 52-C , 53-C ) :   1.4061 B( 52-C , 57-C ) :   1.3511 B( 53-C , 54-C ) :   1.3573
B( 53-C ,102-H ) :   0.9959 B( 54-C , 55-C ) :   1.3579 B( 54-C ,103-H ) :   0.9938
B( 55-C , 56-C ) :   1.3605 B( 55-C ,104-H ) :   0.9936 B( 56-C , 57-C ) :   1.4002
B( 56-C ,105-H ) :   0.9961 B( 57-C , 58-C ) :   0.9553 B( 58-C , 59-O ) :   2.1481
B( 60-C , 61-C ) :   1.5607 B( 60-C ,106-H ) :   0.9237 B( 61-C , 62-C ) :   1.0487
B( 61-C , 70-C ) :   0.9582 B( 62-C , 63-C ) :   1.6603 B( 62-C , 68-C ) :   0.9917
B( 63-C , 64-C ) :   1.1429 B( 63-C , 66-C ) :   1.1337 B( 64-C , 65-N ) :   2.9706
B( 66-C , 67-N ) :   3.0074 B( 68-C , 69-C ) :   1.2141 B( 68-C , 75-C ) :   1.4557
B( 69-C , 70-C ) :   0.9608 B( 69-C , 72-C ) :   1.4693 B( 70-C , 71-O ) :   2.1488
B( 72-C , 73-C ) :   1.1828 B( 72-C ,107-H ) :   1.0157 B( 73-C , 74-C ) :   1.2568
B( 73-C , 79-C ) :   1.2438 B( 74-C , 75-C ) :   1.2033 B( 74-C , 76-C ) :   1.2412
B( 75-C ,108-H ) :   0.9917 B( 76-C , 77-C ) :   1.4898 B( 76-C ,109-H ) :   0.9975
B( 77-C , 78-C ) :   1.2607 B( 77-C ,110-H ) :   0.9885 B( 78-C , 79-C ) :   1.4900
B( 78-C ,111-H ) :   0.9880 B( 79-C ,112-H ) :   0.9974

-----------------------------------------------------------------------------
         ABSORPTION SPECTRUM VIA TRANSITION ELECTRIC DIPOLE MOMENTS
-----------------------------------------------------------------------------
State   Energy  Wavelength   fosc         T2         TX        TY        TZ
        (cm-1)    (nm)                  (au**2)     (au)      (au)      (au)
-----------------------------------------------------------------------------
   0   11756.3    850.6   0.990435823  27.73513   3.92096  -3.30547  -1.19795
   1   16638.3    601.0   0.176305532   3.48846  -0.63497   0.75545  -1.58574
   2   19433.4    514.6   0.040088837   0.67912   0.70231   0.23065   0.36425
   3   22762.7    439.3   0.297860330   4.30789  -1.09863   0.99801  -1.45082
   4   23243.3    430.2   0.432611481   6.12739   0.92266  -1.75426  -1.48279
   5   23952.1    417.5   0.009489394   0.13043  -0.17002   0.31576  -0.04265
   6   25254.7    396.0   0.083213385   1.08474  -0.70709   0.50561   0.57369
   7   25439.3    393.1   0.101098856   1.30833   0.59877  -0.60919   0.76072
   8   25479.7    392.5   0.097599897   1.26104  -0.60968   0.19697   0.92224
   9   25699.9    389.1   0.046163889   0.59135  -0.52535   0.40550   0.38850
  10   26301.6    380.2   0.021276479   0.26631   0.28532   0.06505   0.42506
  11   26886.2    371.9   0.055761725   0.68278  -0.35129   0.37900  -0.64478
  12   27292.1    366.4   0.005216673   0.06293   0.07752  -0.03593   0.23585
  13   27457.5    364.2   0.164468726   1.97196   0.00199  -0.56547   1.28538
  14   27677.2    361.3   0.003166866   0.03767   0.11594   0.03977   0.15048
  15   28142.6    355.3   0.205027516   2.39841  -0.80195   0.09871   1.32119
  16   28416.0    351.9   0.052887986   0.61273   0.09986   0.12493  -0.76626
  17   28586.2    349.8   0.013692228   0.15769  -0.39389   0.03734   0.03376
  18   29126.3    343.3   0.059949341   0.67760   0.71747  -0.26040   0.30827
  19   29492.4    339.1   0.050525767   0.56400   0.69733   0.01470  -0.27841
  20   29790.1    335.7   0.028146235   0.31105   0.48159  -0.18782  -0.20939
  21   30142.0    331.8   0.001278531   0.01396  -0.10449   0.03831   0.03972
  22   31119.5    321.3   0.004090939   0.04328   0.00298  -0.02556  -0.20644
  23   31870.8    313.8   0.193090462   1.99455  -0.57386  -0.17361  -1.27871
  24   32405.9    308.6   0.000389594   0.00396  -0.03958   0.04875   0.00384
  25   32565.5    307.1   0.038015281   0.38430   0.61950   0.00748   0.02154
  26   32644.7    306.3   0.059080443   0.59581  -0.18494   0.14833  -0.73458
  27   32681.1    306.0   0.066499466   0.66988  -0.17160   0.09942  -0.79407
  28   32823.6    304.7   0.712005705   7.14123   0.04055   0.17024  -2.66657
  29   33003.0    303.0   0.039589156   0.39491  -0.47159  -0.21725   0.35399
  30   33087.9    302.2   0.471801723   4.69425  -0.61631  -0.61286   1.98465
  31   33185.6    301.3   0.183177871   1.81718  -0.89368   0.47190   0.89209
  32   33709.1    296.7   0.100939250   0.98580  -0.42740   0.15303  -0.88301
  33   33802.4    295.8   0.007592846   0.07395   0.25156  -0.00766   0.10301
  34   34217.6    292.2   0.095725666   0.92099  -0.31725   0.05961   0.90376
  35   34409.6    290.6   0.005009367   0.04793   0.02673  -0.14759  -0.15946
  36   34548.2    289.5   0.026927100   0.25659  -0.12279  -0.07681   0.48540
  37   34657.2    288.5   0.015154107   0.14395  -0.30267  -0.02229  -0.22769
  38   34867.4    286.8   0.169967056   1.60480  -0.28388   0.33138  -1.18928
  39   35145.3    284.5   0.069643223   0.65236  -0.23725   0.03088   0.77144
  40   35535.4    281.4   0.014874609   0.13780  -0.15177   0.33026   0.07550
  41   35815.7    279.2   0.058515156   0.53786   0.37188  -0.33427  -0.53650
  42   35870.0    278.8   0.040773099   0.37421   0.09249  -0.44682   0.40745
  43   36145.0    276.7   0.260391361   2.37167   0.28243  -0.54256   1.41334
  44   36373.6    274.9   0.037063577   0.33546  -0.42173   0.25959  -0.30036
  45   36584.5    273.3   0.315647665   2.84041   0.48503   0.14990  -1.60707
  46   36814.1    271.6   0.002419028   0.02163   0.08863  -0.07863   0.08715
  47   36899.9    271.0   0.008410666   0.07504   0.12512  -0.12318  -0.21026
  48   37036.8    270.0   0.042063068   0.37389  -0.04152  -0.36469   0.48904
  49   37448.3    267.0   0.123440617   1.08518  -0.51923  -0.00087  -0.90309
  50   37561.4    266.2   0.001321114   0.01158   0.00640  -0.01386   0.10652
  51   37887.7    263.9   0.151540131   1.31675  -1.00138  -0.22639   0.51258
  52   37997.6    263.2   0.001945974   0.01686   0.05717   0.09635   0.06565
  53   38433.3    260.2   0.018409929   0.15770   0.19855  -0.06362  -0.33797
  54   38666.0    258.6   0.210995155   1.79646   0.59602  -0.82062  -0.87625
  55   38838.3    257.5   0.080398876   0.68150  -0.18615  -0.06017   0.80201
  56   38950.3    256.7   0.146786722   1.24066   0.88814  -0.67216   0.00833
  57   39057.8    256.0   0.039906444   0.33637  -0.31244   0.44296  -0.20623
  58   39143.8    255.5   0.025775080   0.21678  -0.12443   0.12501  -0.43089
  59   39606.4    252.5   0.141245334   1.17404  -1.01587   0.33821  -0.16631
  60   39722.4    251.7   0.219570219   1.81976   0.62423  -1.19585  -0.00571
  61   39850.9    250.9   0.024151155   0.19951   0.16303  -0.37241   0.18506
  62   40163.9    249.0   0.061835860   0.50685   0.40404  -0.30829  -0.49856

FINAL SINGLE POINT ENERGY     -4123.306776216410

DIPOLE MOMENT
-------------
                                X             Y             Z
Electronic contribution:     -2.98076      -0.35307      10.03746
Nuclear contribution   :      3.44669       1.09936     -13.45921
                        -----------------------------------------
Total Dipole Moment    :      0.46594       0.74630      -3.42176
                        -----------------------------------------
Magnitude (a.u.)       :      3.53305
Magnitude (Debye)      :      8.98031

Rotational constants in cm-1:     0.001012     0.000265     0.000215
Rotational constants in MHz :    30.344324     7.954286     6.449367

                             ****ORCA TERMINATED NORMALLY****
TOTAL RUN TIME: 0 days 0 hours 11 minutes 18 seconds 320 msec
