                         Program Version 4.2.0 -  RELEASE  -
|  1> # ORCA input file
|  2> # SCF done       -160.776112258423          0.000386602058
|  3> ! CAM-B3LYP def2-SVP def2/J RIJCOSX Grid4 TightSCF
|  4> %maxcore 5000
|  5> %tddft
|  6>     Mode sTDDFT
|  7>     Ethresh 5.0
|  8>     maxcore 5000
|  9> end
| 10>
| 11> %pal
| 12>   nprocs 6
| 13>   end
| 14> * xyz 0 1
| 15>    C       -0.83753        -1.55297        -1.52461
| 16>    N       -0.67139        -0.61455        -2.49124
| 17>    C       -0.18293        -0.84985        -3.82643
| 18>    C        1.32996        -1.05262        -3.84275
| 19>    C       -0.97488         0.68146        -2.00990
| 20>    O       -0.89847         1.67973        -2.70008
| 21>    C       -1.35933         0.46288        -0.63833
| 22>    C       -1.26098        -0.93947        -0.37712
| 23>    C       -1.65884        -1.16841         0.99729
| 24>    O       -1.74303        -2.17337         1.66745
| 25>    N       -1.97813         0.11601         1.47712
| 26>    C       -2.38301         0.31445         2.84702
| 27>    C       -1.23474         0.82793         3.71299
| 28>    C       -1.80194         1.09473         0.52033
| 29>    C       -2.06367         2.46541         0.75037
| 30>    C       -1.89038         3.42252        -0.20394
| 31>    C       -2.15447         4.79945        -0.01587
| 32>    C       -2.03374         5.78132        -0.98663
| 33>    C       -2.41111         7.03439        -0.44347
| 34>    C       -2.76401         6.77650         0.96087
| 35>    C       -2.60918         5.44442         1.20132
| 36>    C       -3.17422         7.69901         1.92446
| 37>    N       -3.51022         8.40717         2.76606
| 38>    C       -2.48028         8.25442        -1.09532
| 39>    C       -2.93439         9.49252        -0.59012
| 40>    C       -2.89971        10.43532        -1.60705
| 41>    C       -2.38372         9.78620        -2.80244
| 42>    C       -2.12492         8.48659        -2.51231
| 43>    C       -1.59641         7.56873        -3.42631
| 44>    N       -1.15547         6.86291        -4.21843
| 45>    C       -3.30067        11.78072        -1.56776
| 46>    S       -3.27474        12.76088        -3.01050
| 47>    C       -3.91259        14.15558        -2.18950
| 48>    C       -4.12120        13.86602        -0.83469
| 49>    C       -3.77986        12.53481        -0.48483
| 50>    N       -3.91522        12.09024         0.78641
| 51>    C       -4.36985        12.94317         1.66297
| 52>    O       -4.52536        12.61032         2.92863
| 53>    C       -4.16983        11.27192         3.28336
| 54>    C       -4.35516        11.09843         4.77699
| 55>    C       -4.72655        14.30952         1.29405
| 56>    O       -5.18363        15.09273         2.25732
| 57>    C       -5.52523        16.42556         1.87926
| 58>    C       -5.99200        17.16216         3.12071
| 59>    N       -4.60107        14.74670         0.07457
| 60>    C       -4.17530        15.33635        -2.82960
| 61>    C       -4.43878        16.39474        -3.38552
| 62>    C       -4.74052        17.54660        -3.98269
| 63>    C       -5.04110        18.60627        -4.51537
| 64>    C       -5.38391        19.78648        -5.12361
| 65>    S       -5.03354        20.11380        -6.79148
| 66>    C       -5.72734        21.70210        -6.73918
| 67>    C       -6.24832        21.96258        -5.47038
| 68>    C       -6.03925        20.88344        -4.54513
| 69>    N       -6.44822        20.94058        -3.26724
| 70>    C       -7.06764        22.02949        -2.91612
| 71>    N       -7.39219        23.06655        -3.70779
| 72>    C       -7.00647        23.03667        -4.95231
| 73>    C       -5.66372        22.50142        -7.92655
| 74>    C       -5.82052        23.82383        -8.00290
| 75>    H       -0.65147        -2.59255        -1.72188
| 76>    H       -0.44594         0.03484        -4.41258
| 77>    H       -0.69008        -1.72417        -4.24510
| 78>    H        1.82812        -0.17138        -3.44624
| 79>    H        1.66965        -1.21575        -4.86160
| 80>    H        1.60934        -1.91298        -3.23826
| 81>    H       -2.70381        -0.66618         3.21026
| 82>    H       -3.23634         0.99804         2.88355
| 83>    H       -0.41725         0.11132         3.70439
| 84>    H       -1.57378         0.95622         4.73739
| 85>    H       -0.86168         1.78099         3.34411
| 86>    H       -2.42471         2.74424         1.72939
| 87>    H       -1.53455         3.13236        -1.18381
| 88>    H       -1.71841         5.61238        -1.99752
| 89>    H       -2.78996         4.95799         2.14194
| 90>    H       -3.27297         9.67905         0.40904
| 91>    H       -2.23487        10.27656        -3.74741
| 92>    H       -3.13190        11.08774         2.98876
| 93>    H       -4.80174        10.57446         2.72522
| 94>    H       -3.71105        11.78335         5.32178
| 95>    H       -4.10008        10.07683         5.03959
| 96>    H       -5.38718        11.29450         5.05442
| 97>    H       -6.30962        16.38779         1.11483
| 98>    H       -4.64671        16.90453         1.43246
| 99>    H       -6.84951        16.65573         3.55508
|100>    H       -6.27255        18.17771         2.85781
|101>    H       -5.19654        17.19149         3.86021
|102>    H       -7.38574        22.10535        -1.88512
|103>    H       -7.32675        23.86195        -5.57395
|104>    H       -5.42764        21.94484        -8.82554
|105>    H       -5.99804        24.43987        -7.14002
|106>    H       -5.74973        24.33159        -8.94847
|107> *
|108>
|109>                          ****END OF INPUT****

CARTESIAN COORDINATES (ANGSTROEM)
---------------------------------
  C     -0.837530   -1.552970   -1.524610
  N     -0.671390   -0.614550   -2.491240
  C     -0.182930   -0.849850   -3.826430
  C      1.329960   -1.052620   -3.842750
  C     -0.974880    0.681460   -2.009900
  O     -0.898470    1.679730   -2.700080
  C     -1.359330    0.462880   -0.638330
  C     -1.260980   -0.939470   -0.377120
  C     -1.658840   -1.168410    0.997290
  O     -1.743030   -2.173370    1.667450
  N     -1.978130    0.116010    1.477120
  C     -2.383010    0.314450    2.847020
  C     -1.234740    0.827930    3.712990
  C     -1.801940    1.094730    0.520330
  C     -2.063670    2.465410    0.750370
  C     -1.890380    3.422520   -0.203940
  C     -2.154470    4.799450   -0.015870
  C     -2.033740    5.781320   -0.986630
  C     -2.411110    7.034390   -0.443470
  C     -2.764010    6.776500    0.960870
  C     -2.609180    5.444420    1.201320
  C     -3.174220    7.699010    1.924460
  N     -3.510220    8.407170    2.766060
  C     -2.480280    8.254420   -1.095320
  C     -2.934390    9.492520   -0.590120
  C     -2.899710   10.435320   -1.607050
  C     -2.383720    9.786200   -2.802440
  C     -2.124920    8.486590   -2.512310
  C     -1.596410    7.568730   -3.426310
  N     -1.155470    6.862910   -4.218430
  C     -3.300670   11.780720   -1.567760
  S     -3.274740   12.760880   -3.010500
  C     -3.912590   14.155580   -2.189500
  C     -4.121200   13.866020   -0.834690
  C     -3.779860   12.534810   -0.484830
  N     -3.915220   12.090240    0.786410
  C     -4.369850   12.943170    1.662970
  O     -4.525360   12.610320    2.928630
  C     -4.169830   11.271920    3.283360
  C     -4.355160   11.098430    4.776990
  C     -4.726550   14.309520    1.294050
  O     -5.183630   15.092730    2.257320
  C     -5.525230   16.425560    1.879260
  C     -5.992000   17.162160    3.120710
  N     -4.601070   14.746700    0.074570
  C     -4.175300   15.336350   -2.829600
  C     -4.438780   16.394740   -3.385520
  C     -4.740520   17.546600   -3.982690
  C     -5.041100   18.606270   -4.515370
  C     -5.383910   19.786480   -5.123610
  S     -5.033540   20.113800   -6.791480
  C     -5.727340   21.702100   -6.739180
  C     -6.248320   21.962580   -5.470380
  C     -6.039250   20.883440   -4.545130
  N     -6.448220   20.940580   -3.267240
  C     -7.067640   22.029490   -2.916120
  N     -7.392190   23.066550   -3.707790
  C     -7.006470   23.036670   -4.952310
  C     -5.663720   22.501420   -7.926550
  C     -5.820520   23.823830   -8.002900
  H     -0.651470   -2.592550   -1.721880
  H     -0.445940    0.034840   -4.412580
  H     -0.690080   -1.724170   -4.245100
  H      1.828120   -0.171380   -3.446240
  H      1.669650   -1.215750   -4.861600
  H      1.609340   -1.912980   -3.238260
  H     -2.703810   -0.666180    3.210260
  H     -3.236340    0.998040    2.883550
  H     -0.417250    0.111320    3.704390
  H     -1.573780    0.956220    4.737390
  H     -0.861680    1.780990    3.344110
  H     -2.424710    2.744240    1.729390
  H     -1.534550    3.132360   -1.183810
  H     -1.718410    5.612380   -1.997520
  H     -2.789960    4.957990    2.141940
  H     -3.272970    9.679050    0.409040
  H     -2.234870   10.276560   -3.747410
  H     -3.131900   11.087740    2.988760
  H     -4.801740   10.574460    2.725220
  H     -3.711050   11.783350    5.321780
  H     -4.100080   10.076830    5.039590
  H     -5.387180   11.294500    5.054420
  H     -6.309620   16.387790    1.114830
  H     -4.646710   16.904530    1.432460
  H     -6.849510   16.655730    3.555080
  H     -6.272550   18.177710    2.857810
  H     -5.196540   17.191490    3.860210
  H     -7.385740   22.105350   -1.885120
  H     -7.326750   23.861950   -5.573950
  H     -5.427640   21.944840   -8.825540
  H     -5.998040   24.439870   -7.140020
  H     -5.749730   24.331590   -8.948470

 Total Charge           Charge          ....    0
 Multiplicity           Mult            ....    1
 Number of Electrons    NEL             ....  428
 Basis Dimension        Dim             .... 1008

ORBITAL ENERGIES
----------------

  NO   OCC          E(Eh)            E(eV)
   0   2.0000     -88.989382     -2421.5242
   1   2.0000     -88.978190     -2421.2196
   2   2.0000     -19.264335      -524.2092
   3   2.0000     -19.261826      -524.1409
   4   2.0000     -19.183887      -522.0201
   5   2.0000     -19.179263      -521.8943
   6   2.0000     -14.447397      -393.1337
   7   2.0000     -14.444941      -393.0668
   8   2.0000     -14.421992      -392.4424
   9   2.0000     -14.421662      -392.4334
  10   2.0000     -14.413279      -392.2053
  11   2.0000     -14.413093      -392.2002
  12   2.0000     -14.406915      -392.0321
  13   2.0000     -14.402953      -391.9243
  14   2.0000     -10.388583      -282.6877
  15   2.0000     -10.387224      -282.6507
  16   2.0000     -10.365763      -282.0668
  17   2.0000     -10.365322      -282.0547
  18   2.0000     -10.336961      -281.2830
  19   2.0000     -10.335752      -281.2501
  20   2.0000     -10.335336      -281.2388
  21   2.0000     -10.331720      -281.1404
  22   2.0000     -10.329774      -281.0874
  23   2.0000     -10.327168      -281.0165
  24   2.0000     -10.326472      -280.9976
  25   2.0000     -10.323454      -280.9155
  26   2.0000     -10.322978      -280.9025
  27   2.0000     -10.322594      -280.8921
  28   2.0000     -10.322306      -280.8842
  29   2.0000     -10.317544      -280.7547
  30   2.0000     -10.316166      -280.7171
  31   2.0000     -10.312676      -280.6222
  32   2.0000     -10.310807      -280.5713
  33   2.0000     -10.308821      -280.5173
  34   2.0000     -10.308688      -280.5137
  35   2.0000     -10.306139      -280.4443
  36   2.0000     -10.305353      -280.4229
  37   2.0000     -10.305012      -280.4136
  38   2.0000     -10.304577      -280.4018
  39   2.0000     -10.303564      -280.3742
  40   2.0000     -10.303085      -280.3612
  41   2.0000     -10.302283      -280.3394
  42   2.0000     -10.300657      -280.2951
  43   2.0000     -10.299709      -280.2693
  44   2.0000     -10.297544      -280.2104
  45   2.0000     -10.296958      -280.1945
  46   2.0000     -10.294841      -280.1369
  47   2.0000     -10.293804      -280.1086
  48   2.0000     -10.288839      -279.9736
  49   2.0000     -10.288392      -279.9614
  50   2.0000     -10.288302      -279.9589
  51   2.0000     -10.287785      -279.9449
  52   2.0000     -10.277069      -279.6533
  53   2.0000     -10.268912      -279.4313
  54   2.0000     -10.260832      -279.2114
  55   2.0000     -10.260481      -279.2019
  56   2.0000     -10.259500      -279.1752
  57   2.0000     -10.253258      -279.0053
  58   2.0000     -10.252892      -278.9954
  59   2.0000     -10.247043      -278.8362
  60   2.0000      -8.084263      -219.9840
  61   2.0000      -8.072813      -219.6724
  62   2.0000      -6.053130      -164.7140
  63   2.0000      -6.049015      -164.6021
  64   2.0000      -6.047262      -164.5544
  65   2.0000      -6.042090      -164.4136
  66   2.0000      -6.037945      -164.3008
  67   2.0000      -6.035065      -164.2225
  68   2.0000      -1.194054       -32.4919
  69   2.0000      -1.170021       -31.8379
  70   2.0000      -1.124858       -30.6090
  71   2.0000      -1.118109       -30.4253
  72   2.0000      -1.086183       -29.5566
  73   2.0000      -1.074858       -29.2484
  74   2.0000      -1.055653       -28.7258
  75   2.0000      -1.047209       -28.4960
  76   2.0000      -1.010448       -27.4957
  77   2.0000      -1.005446       -27.3596
  78   2.0000      -1.003209       -27.2987
  79   2.0000      -0.996990       -27.1295
  80   2.0000      -0.987387       -26.8682
  81   2.0000      -0.980023       -26.6678
  82   2.0000      -0.979729       -26.6598
  83   2.0000      -0.970810       -26.4171
  84   2.0000      -0.921304       -25.0700
  85   2.0000      -0.910349       -24.7718
  86   2.0000      -0.905873       -24.6500
  87   2.0000      -0.896097       -24.3840
  88   2.0000      -0.882116       -24.0036
  89   2.0000      -0.878599       -23.9079
  90   2.0000      -0.870956       -23.6999
  91   2.0000      -0.868099       -23.6222
  92   2.0000      -0.855632       -23.2829
  93   2.0000      -0.849007       -23.1027
  94   2.0000      -0.848344       -23.0846
  95   2.0000      -0.840861       -22.8810
  96   2.0000      -0.828714       -22.5504
  97   2.0000      -0.826762       -22.4974
  98   2.0000      -0.814807       -22.1720
  99   2.0000      -0.805772       -21.9262
 100   2.0000      -0.796159       -21.6646
 101   2.0000      -0.781818       -21.2743
 102   2.0000      -0.771549       -20.9949
 103   2.0000      -0.759632       -20.6706
 104   2.0000      -0.758014       -20.6266
 105   2.0000      -0.755611       -20.5612
 106   2.0000      -0.745907       -20.2972
 107   2.0000      -0.733085       -19.9482
 108   2.0000      -0.724046       -19.7023
 109   2.0000      -0.718264       -19.5449
 110   2.0000      -0.715389       -19.4667
 111   2.0000      -0.704873       -19.1806
 112   2.0000      -0.703475       -19.1425
 113   2.0000      -0.696141       -18.9430
 114   2.0000      -0.684797       -18.6343
 115   2.0000      -0.677102       -18.4249
 116   2.0000      -0.669351       -18.2140
 117   2.0000      -0.664268       -18.0756
 118   2.0000      -0.658441       -17.9171
 119   2.0000      -0.656593       -17.8668
 120   2.0000      -0.645551       -17.5663
 121   2.0000      -0.635749       -17.2996
 122   2.0000      -0.632306       -17.2059
 123   2.0000      -0.628458       -17.1012
 124   2.0000      -0.625609       -17.0237
 125   2.0000      -0.616315       -16.7708
 126   2.0000      -0.609254       -16.5787
 127   2.0000      -0.608374       -16.5547
 128   2.0000      -0.595611       -16.2074
 129   2.0000      -0.591505       -16.0957
 130   2.0000      -0.584371       -15.9015
 131   2.0000      -0.580860       -15.8060
 132   2.0000      -0.573705       -15.6113
 133   2.0000      -0.572319       -15.5736
 134   2.0000      -0.569368       -15.4933
 135   2.0000      -0.565476       -15.3874
 136   2.0000      -0.562893       -15.3171
 137   2.0000      -0.559457       -15.2236
 138   2.0000      -0.543221       -14.7818
 139   2.0000      -0.541905       -14.7460
 140   2.0000      -0.538059       -14.6413
 141   2.0000      -0.534940       -14.5565
 142   2.0000      -0.533795       -14.5253
 143   2.0000      -0.531521       -14.4634
 144   2.0000      -0.525179       -14.2909
 145   2.0000      -0.524486       -14.2720
 146   2.0000      -0.520462       -14.1625
 147   2.0000      -0.513838       -13.9822
 148   2.0000      -0.512982       -13.9589
 149   2.0000      -0.511053       -13.9065
 150   2.0000      -0.507189       -13.8013
 151   2.0000      -0.506493       -13.7824
 152   2.0000      -0.499173       -13.5832
 153   2.0000      -0.498668       -13.5695
 154   2.0000      -0.496059       -13.4985
 155   2.0000      -0.494119       -13.4457
 156   2.0000      -0.492699       -13.4070
 157   2.0000      -0.489459       -13.3189
 158   2.0000      -0.488157       -13.2834
 159   2.0000      -0.484585       -13.1862
 160   2.0000      -0.481460       -13.1012
 161   2.0000      -0.477436       -12.9917
 162   2.0000      -0.475003       -12.9255
 163   2.0000      -0.473669       -12.8892
 164   2.0000      -0.471120       -12.8198
 165   2.0000      -0.468828       -12.7574
 166   2.0000      -0.465363       -12.6632
 167   2.0000      -0.459124       -12.4934
 168   2.0000      -0.458654       -12.4806
 169   2.0000      -0.458094       -12.4654
 170   2.0000      -0.452004       -12.2997
 171   2.0000      -0.451708       -12.2916
 172   2.0000      -0.450729       -12.2650
 173   2.0000      -0.449573       -12.2335
 174   2.0000      -0.449480       -12.2310
 175   2.0000      -0.441937       -12.0257
 176   2.0000      -0.440939       -11.9986
 177   2.0000      -0.438309       -11.9270
 178   2.0000      -0.437057       -11.8929
 179   2.0000      -0.435442       -11.8490
 180   2.0000      -0.432727       -11.7751
 181   2.0000      -0.431095       -11.7307
 182   2.0000      -0.428734       -11.6665
 183   2.0000      -0.427649       -11.6369
 184   2.0000      -0.425381       -11.5752
 185   2.0000      -0.422397       -11.4940
 186   2.0000      -0.419883       -11.4256
 187   2.0000      -0.416293       -11.3279
 188   2.0000      -0.414234       -11.2719
 189   2.0000      -0.411776       -11.2050
 190   2.0000      -0.408255       -11.1092
 191   2.0000      -0.398453       -10.8424
 192   2.0000      -0.396028       -10.7765
 193   2.0000      -0.394626       -10.7383
 194   2.0000      -0.388434       -10.5698
 195   2.0000      -0.388418       -10.5694
 196   2.0000      -0.377537       -10.2733
 197   2.0000      -0.374691       -10.1959
 198   2.0000      -0.366235        -9.9658
 199   2.0000      -0.354274        -9.6403
 200   2.0000      -0.345557        -9.4031
 201   2.0000      -0.341618        -9.2959
 202   2.0000      -0.338905        -9.2221
 203   2.0000      -0.328315        -8.9339
 204   2.0000      -0.326553        -8.8860
 205   2.0000      -0.322882        -8.7861
 206   2.0000      -0.317432        -8.6378
 207   2.0000      -0.315081        -8.5738
 208   2.0000      -0.307295        -8.3619
 209   2.0000      -0.298080        -8.1112
 210   2.0000      -0.293663        -7.9910
 211   2.0000      -0.276466        -7.5230
 212   2.0000      -0.245538        -6.6814
 213   2.0000      -0.229793        -6.2530
 214   0.0000      -0.123711        -3.3663
 215   0.0000      -0.080433        -2.1887
 216   0.0000      -0.054217        -1.4753
 217   0.0000      -0.048775        -1.3272
 218   0.0000      -0.009825        -0.2673

MULLIKEN ATOMIC CHARGES
-----------------------
   0 C :    0.037661
   1 N :   -0.256537
   2 C :    0.112506
   3 C :   -0.000820
   4 C :    0.170280
   5 O :   -0.207202
   6 C :   -0.102064
   7 C :    0.003494
   8 C :    0.160578
   9 O :   -0.190278
  10 N :   -0.271301
  11 C :    0.100322
  12 C :    0.003013
  13 C :    0.168769
  14 C :   -0.033187
  15 C :    0.019475
  16 C :    0.100247
  17 C :   -0.099605
  18 C :    0.115249
  19 C :   -0.111943
  20 C :   -0.018181
  21 C :   -0.160327
  22 N :    0.123025
  23 C :    0.143792
  24 C :   -0.165288
  25 C :    0.108540
  26 C :   -0.034555
  27 C :   -0.091184
  28 C :   -0.176099
  29 N :    0.141296
  30 C :   -0.141754
  31 S :    0.194666
  32 C :   -0.257966
  33 C :    0.081823
  34 C :    0.036063
  35 N :   -0.037337
  36 C :    0.102742
  37 O :   -0.253542
  38 C :    0.153273
  39 C :    0.023493
  40 C :    0.086737
  41 O :   -0.262471
  42 C :    0.156952
  43 C :    0.016420
  44 N :   -0.025677
  45 C :    0.074064
  46 C :   -0.064544
  47 C :   -0.066920
  48 C :    0.071822
  49 C :   -0.268666
  50 S :    0.229289
  51 C :   -0.128405
  52 C :    0.026432
  53 C :    0.083028
  54 N :   -0.035078
  55 C :    0.075066
  56 N :   -0.105482
  57 C :    0.027527
  58 C :    0.037305
  59 C :   -0.021967
  60 H :    0.014740
  61 H :    0.044516
  62 H :    0.017310
  63 H :    0.031377
  64 H :    0.022568
  65 H :    0.012754
  66 H :    0.042575
  67 H :    0.020678
  68 H :    0.031358
  69 H :    0.021883
  70 H :    0.012074
  71 H :   -0.035496
  72 H :    0.014870
  73 H :    0.012681
  74 H :   -0.008147
  75 H :   -0.004345
  76 H :    0.006865
  77 H :    0.026602
  78 H :    0.034297
  79 H :    0.016479
  80 H :    0.028639
  81 H :    0.016286
  82 H :    0.026824
  83 H :    0.026157
  84 H :    0.027160
  85 H :    0.022345
  86 H :    0.027929
  87 H :    0.017732
  88 H :    0.006772
  89 H :    0.000993
  90 H :    0.029288
  91 H :    0.037665
Sum of atomic charges:   -0.0000000

LOEWDIN ATOMIC CHARGES
----------------------
   0 C :    0.088513
   1 N :    0.001443
   2 C :    0.038373
   3 C :   -0.060285
   4 C :    0.076358
   5 O :   -0.198629
   6 C :   -0.128131
   7 C :   -0.128704
   8 C :    0.080675
   9 O :   -0.194101
  10 N :   -0.010173
  11 C :    0.035146
  12 C :   -0.061867
  13 C :    0.083468
  14 C :   -0.051244
  15 C :    0.041923
  16 C :   -0.033888
  17 C :   -0.005049
  18 C :    0.014833
  19 C :   -0.086464
  20 C :    0.046003
  21 C :   -0.013705
  22 N :   -0.072692
  23 C :    0.045316
  24 C :   -0.046350
  25 C :   -0.017305
  26 C :    0.041483
  27 C :   -0.070098
  28 C :   -0.032923
  29 N :   -0.056583
  30 C :   -0.178510
  31 S :    0.482262
  32 C :   -0.191487
  33 C :   -0.035322
  34 C :   -0.032694
  35 N :   -0.091069
  36 C :    0.056329
  37 O :   -0.054087
  38 C :    0.086302
  39 C :   -0.060163
  40 C :    0.049928
  41 O :   -0.062083
  42 C :    0.089881
  43 C :   -0.061600
  44 N :   -0.086895
  45 C :   -0.017833
  46 C :   -0.025343
  47 C :   -0.035960
  48 C :   -0.009334
  49 C :   -0.214194
  50 S :    0.522703
  51 C :   -0.158532
  52 C :   -0.093366
  53 C :   -0.006362
  54 N :   -0.072099
  55 C :    0.047134
  56 N :   -0.093048
  57 C :    0.068811
  58 C :   -0.045590
  59 C :   -0.025130
  60 H :    0.032400
  61 H :    0.037167
  62 H :    0.024252
  63 H :    0.032088
  64 H :    0.029918
  65 H :    0.021649
  66 H :    0.037652
  67 H :    0.021184
  68 H :    0.032856
  69 H :    0.029748
  70 H :    0.020541
  71 H :    0.025269
  72 H :    0.042848
  73 H :    0.039206
  74 H :    0.031730
  75 H :    0.032030
  76 H :    0.031855
  77 H :    0.018883
  78 H :    0.018876
  79 H :    0.025489
  80 H :    0.037243
  81 H :    0.026164
  82 H :    0.021993
  83 H :    0.021625
  84 H :    0.030323
  85 H :    0.033953
  86 H :    0.030321
  87 H :    0.019816
  88 H :    0.024891
  89 H :    0.033202
  90 H :    0.024500
  91 H :    0.032334

  Mayer bond orders larger than 0.100000
B(  0-C ,  1-N ) :   1.1957 B(  0-C ,  7-C ) :   1.4465 B(  0-C , 60-H ) :   0.9907
B(  1-N ,  2-C ) :   0.9422 B(  1-N ,  4-C ) :   1.0508 B(  2-C ,  3-C ) :   1.1189
B(  2-C , 61-H ) :   0.9344 B(  2-C , 62-H ) :   0.9538 B(  3-C , 63-H ) :   0.9675
B(  3-C , 64-H ) :   0.9689 B(  3-C , 65-H ) :   0.9691 B(  4-C ,  5-O ) :   2.0242
B(  4-C ,  6-C ) :   1.0059 B(  5-O , 72-H ) :   0.1084 B(  6-C ,  7-C ) :   1.2097
B(  6-C , 13-C ) :   1.3704 B(  7-C ,  8-C ) :   0.9501 B(  8-C ,  9-O ) :   2.1727
B(  8-C , 10-N ) :   1.0212 B( 10-N , 11-C ) :   0.9490 B( 10-N , 13-C ) :   1.1489
B( 11-C , 12-C ) :   1.1200 B( 11-C , 66-H ) :   0.9269 B( 11-C , 67-H ) :   0.9500
B( 12-C , 68-H ) :   0.9638 B( 12-C , 69-H ) :   0.9679 B( 12-C , 70-H ) :   0.9686
B( 13-C , 14-C ) :   1.1582 B( 14-C , 15-C ) :   1.5627 B( 14-C , 71-H ) :   0.9617
B( 15-C , 16-C ) :   1.1227 B( 15-C , 72-H ) :   0.9598 B( 16-C , 17-C ) :   1.4781
B( 16-C , 20-C ) :   1.0642 B( 17-C , 18-C ) :   1.1368 B( 17-C , 73-H ) :   1.0097
B( 18-C , 19-C ) :   1.1200 B( 18-C , 23-C ) :   1.3432 B( 19-C , 20-C ) :   1.6496
B( 19-C , 21-C ) :   1.0882 B( 20-C , 74-H ) :   1.0150 B( 21-C , 22-N ) :   2.9690
B( 23-C , 24-C ) :   1.1384 B( 23-C , 27-C ) :   1.0904 B( 24-C , 25-C ) :   1.5152
B( 24-C , 75-H ) :   1.0118 B( 25-C , 26-C ) :   1.0083 B( 25-C , 30-C ) :   1.1798
B( 26-C , 27-C ) :   1.7010 B( 26-C , 76-H ) :   1.0129 B( 27-C , 28-C ) :   1.0808
B( 28-C , 29-N ) :   2.9702 B( 30-C , 31-S ) :   1.1200 B( 30-C , 32-C ) :   0.1350
B( 30-C , 34-C ) :   1.3426 B( 31-S , 32-C ) :   1.1300 B( 32-C , 33-C ) :   1.3384
B( 32-C , 45-C ) :   1.0304 B( 33-C , 34-C ) :   1.2574 B( 33-C , 44-N ) :   1.4021
B( 34-C , 35-N ) :   1.3850 B( 35-N , 36-C ) :   1.6354 B( 36-C , 37-O ) :   1.3188
B( 36-C , 40-C ) :   1.0427 B( 37-O , 38-C ) :   0.8783 B( 38-C , 39-C ) :   1.1068
B( 38-C , 77-H ) :   0.9543 B( 38-C , 78-H ) :   0.9520 B( 39-C , 79-H ) :   0.9676
B( 39-C , 80-H ) :   0.9566 B( 39-C , 81-H ) :   0.9664 B( 40-C , 41-O ) :   1.2927
B( 40-C , 44-N ) :   1.6356 B( 41-O , 42-C ) :   0.8963 B( 42-C , 43-C ) :   1.0933
B( 42-C , 82-H ) :   0.9583 B( 42-C , 83-H ) :   0.9572 B( 43-C , 84-H ) :   0.9682
B( 43-C , 85-H ) :   0.9608 B( 43-C , 86-H ) :   0.9687 B( 45-C , 46-C ) :   2.1152
B( 45-C , 48-C ) :   0.1700 B( 46-C , 47-C ) :   0.9518 B( 47-C , 48-C ) :   2.1284
B( 48-C , 49-C ) :   1.0388 B( 49-C , 50-S ) :   1.1529 B( 49-C , 51-C ) :   0.1204
B( 49-C , 53-C ) :   1.3372 B( 50-S , 51-C ) :   1.1903 B( 51-C , 52-C ) :   1.3335
B( 51-C , 58-C ) :   1.1147 B( 52-C , 53-C ) :   1.2036 B( 52-C , 57-C ) :   1.1805
B( 53-C , 54-N ) :   1.4498 B( 54-N , 55-C ) :   1.6500 B( 55-C , 56-N ) :   1.3389
B( 55-C , 87-H ) :   0.9743 B( 56-N , 57-C ) :   1.7213 B( 57-C , 88-H ) :   0.9834
B( 58-C , 59-C ) :   1.9206 B( 58-C , 89-H ) :   0.9472 B( 59-C , 90-H ) :   0.9598
B( 59-C , 91-H ) :   0.9475

-----------------------------------------------------------------------------
         ABSORPTION SPECTRUM VIA TRANSITION ELECTRIC DIPOLE MOMENTS
-----------------------------------------------------------------------------
State   Energy  Wavelength   fosc         T2         TX        TY        TZ
        (cm-1)    (nm)                  (au**2)     (au)      (au)      (au)
-----------------------------------------------------------------------------
   0    9679.5   1033.1   1.115406285  37.93655   1.15467  -5.91048   1.29208
   1   13341.3    749.6   0.076361777   1.88431  -0.26112   1.00079  -0.90253
   2   18782.8    532.4   0.724491946  12.69841  -0.79900   3.11261  -1.54003
   3   19257.1    519.3   0.065410650   1.11824  -0.12513  -0.22829   1.02492
   4   20294.2    492.8   0.174836219   2.83619  -0.32462   1.39835  -0.88058
   5   22875.3    437.2   0.070647317   1.01673  -0.30804   0.62940   0.72505
   6   23515.6    425.3   0.297471954   4.16453  -0.56616   1.56803   1.17698
   7   24720.9    404.5   0.011599740   0.15448  -0.19204   0.06011   0.33761
   8   25083.7    398.7   0.160608743   2.10792  -0.19266   1.42974  -0.16324
   9   25683.0    389.4   0.006977930   0.08945  -0.09437   0.01550   0.28337
  10   26877.9    372.1   0.003219342   0.03943  -0.02166   0.19507  -0.03015
  11   27110.5    368.9   0.000368982   0.00448  -0.05224  -0.03814  -0.01722
  12   27184.6    367.9   0.037630472   0.45571  -0.08156  -0.14986   0.65315
  13   28367.0    352.5   0.011117663   0.12903  -0.15237  -0.32507   0.01190
  14   28431.7    351.7   0.000935510   0.01083   0.01078   0.06714   0.07880
  15   29122.0    343.4   0.257426710   2.91010   0.05829  -1.56572   0.67470
  16   29478.6    339.2   0.003119493   0.03484   0.00663  -0.18328   0.03466
  17   29967.0    333.7   0.006188826   0.06799   0.08989  -0.14730  -0.19548
  18   30067.8    332.6   0.031404731   0.34385  -0.07576  -0.27839   0.51050
  19   31711.1    315.3   0.099635666   1.03438   0.14772   0.11488  -0.99968
  20   31950.1    313.0   0.002033533   0.02095  -0.01770  -0.02199   0.14197
  21   33050.4    302.6   0.005398322   0.05377  -0.03824   0.02921   0.22684
  22   33152.7    301.6   0.201375682   1.99969   0.42625  -1.34828   0.01237
  23   33179.3    301.4   0.001705393   0.01692   0.02070  -0.05649  -0.11533
  24   33481.5    298.7   0.094230345   0.92653   0.31762  -0.62136  -0.66299
  25   34112.6    293.1   0.229785130   2.21759  -0.02621   1.41343  -0.46811
  26   35586.6    281.0   0.050191535   0.46432   0.16263  -0.66117  -0.02700
  27   35776.5    279.5   0.003491214   0.03213   0.07166  -0.14925   0.06866
  28   35837.8    279.0   0.022730999   0.20881  -0.04302   0.17507  -0.41989
  29   36206.1    276.2   0.024632618   0.22398  -0.12599  -0.20477   0.40764
  30   36358.2    275.0   0.016068922   0.14550  -0.04248  -0.26176   0.27418
  31   36671.9    272.7   0.025256292   0.22673  -0.18821   0.41207  -0.14665
  32   36713.5    272.4   0.032401245   0.29054   0.09140  -0.52434   0.08521
  33   37126.2    269.4   0.133802676   1.18648   0.30570  -1.03869  -0.11893
  34   37344.8    267.8   0.019691793   0.17359   0.11762   0.09216  -0.38893
  35   38083.7    262.6   0.456069130   3.94246   0.04914   1.60331  -1.17023
  36   38319.2    261.0   0.004847811   0.04165   0.00016  -0.10814   0.17307
  37   38720.9    258.3   0.049256879   0.41879   0.06821  -0.17377  -0.61963
  38   39052.4    256.1   0.027449163   0.23140  -0.08294   0.11786   0.45894
  39   39300.1    254.5   0.011751289   0.09844   0.04392   0.08814  -0.29790
  40   39327.8    254.3   0.100449296   0.84086   0.23055   0.06903  -0.88484
  41   39388.7    253.9   0.049047114   0.40994  -0.11232   0.34191   0.52955
  42   39675.9    252.0   0.182571697   1.51490   0.38336   0.10677  -1.16470

FINAL SINGLE POINT ENERGY     -3303.868626752570

DIPOLE MOMENT
-------------
                                X             Y             Z
Electronic contribution:     -8.70282      47.82746     -37.25568
Nuclear contribution   :      8.30705     -45.40544      36.43059
                        -----------------------------------------
Total Dipole Moment    :     -0.39577       2.42202      -0.82509
                        -----------------------------------------
Magnitude (a.u.)       :      2.58913
Magnitude (Debye)      :      6.58105

Rotational constants in cm-1:     0.002618     0.000304     0.000274
Rotational constants in MHz :    78.484812     9.099296     8.206453

                             ****ORCA TERMINATED NORMALLY****
TOTAL RUN TIME: 0 days 0 hours 7 minutes 24 seconds 463 msec
