                         Program Version 4.2.0 -  RELEASE  -
|  1> # ORCA input file
|  2> # SCF done       -184.100560752538          0.000997020938
|  3> ! CAM-B3LYP def2-SVP def2/J RIJCOSX Grid4 TightSCF
|  4> %maxcore 5000
|  5> %tddft
|  6>     Mode sTDDFT
|  7>     Ethresh 5.0
|  8>     maxcore 5000
|  9> end
| 10>
| 11> %pal
| 12>   nprocs 6
| 13>   end
| 14> * xyz 0 1
| 15>    O       -1.23878         4.42792        -5.27170
| 16>    C       -2.47631         4.39169        -4.70814
| 17>    N       -3.38534         3.89779        -5.50190
| 18>    C       -2.72335         3.58564        -6.65862
| 19>    C       -1.39908         3.92009        -6.49760
| 20>    C       -3.39358         2.99899        -7.81148
| 21>    O       -2.85029         2.70638        -8.84490
| 22>    C       -2.67985         4.85615        -3.38328
| 23>    S       -1.38206         5.48671        -2.42343
| 24>    C       -2.42063         5.77708        -1.05501
| 25>    C       -3.71312         5.39376        -1.36070
| 26>    C       -3.87429         4.87056        -2.67392
| 27>    C       -5.20793         4.47859        -2.94074
| 28>    C       -6.01879         4.69593        -1.86892
| 29>    C       -7.45153         4.42891        -1.71395
| 30>    O       -8.06902         4.65532        -0.70168
| 31>    O       -7.98833         3.90524        -2.82208
| 32>    C       -9.37740         3.61388        -2.75292
| 33>    S       -5.20663         5.39165        -0.48131
| 34>    C       -1.93418         6.30798         0.16951
| 35>    C       -2.67950         6.59831         1.27844
| 36>    C       -1.91595         7.07638         2.36671
| 37>    C       -2.37195         7.42264         3.65589
| 38>    C       -3.76141         7.30469         4.04795
| 39>    C       -4.47845         8.14972         4.84737
| 40>    C       -5.80728         7.71780         5.04524
| 41>    C       -6.12065         6.54462         4.42165
| 42>    S       -4.74435         5.94803         3.56163
| 43>    C       -7.40930         5.80931         4.40265
| 44>   Cl       -6.92965         8.61338         5.99520
| 45>    C       -1.40509         7.87157         4.54853
| 46>    C       -0.02812         7.97482         4.22650
| 47>    C        0.42778         7.62402         2.93810
| 48>    C       -0.54100         7.18788         2.03998
| 49>    S       -0.23615         6.65265         0.40886
| 50>    C        1.82314         7.68770         2.55459
| 51>    C        2.33721         8.06560         1.34637
| 52>    C        3.74418         7.96924         1.29546
| 53>    C        4.32259         7.50944         2.44295
| 54>    S        3.10430         7.19074         3.62918
| 55>    C        5.75905         7.28727         2.74138
| 56>   Cl        4.64131         8.40210        -0.10881
| 57>    C        0.73492         8.44151         5.32144
| 58>    C       -0.00071         8.65448         6.45430
| 59>    S       -1.69960         8.31721         6.20638
| 60>    C        0.48427         9.08478         7.72170
| 61>    C        1.79965         9.34319         8.06150
| 62>    C        1.92586         9.71888         9.39889
| 63>    C        0.69928         9.74652        10.07940
| 64>    S       -0.60926         9.31285         9.07211
| 65>    C        0.93879        10.12585        11.42866
| 66>    C        2.31964        10.33757        11.59260
| 67>    C        2.98556        10.08990        10.32583
| 68>    C        4.31975        10.17722        10.05508
| 69>    C        4.84415         9.90121         8.77465
| 70>    N        5.27352         9.67503         7.73569
| 71>    C        5.26489        10.54529        11.03567
| 72>    N        6.03943        10.84328        11.82696
| 73>    C        2.65663        10.70841        12.89686
| 74>    C        1.54125        10.77278        13.70368
| 75>    S        0.05833        10.37977        12.86814
| 76>    C        1.48522        11.10503        15.08841
| 77>    N        0.41782        11.13560        15.83086
| 78>    C        0.85187        11.49830        17.07764
| 79>    C        2.21411        11.67418        17.01779
| 80>    O        2.61786        11.42717        15.76671
| 81>    C       -0.05550        11.64187        18.20834
| 82>    O        0.27672        11.96992        19.31801
| 83>    H       -0.54993         3.84351        -7.14490
| 84>    H       -4.47390         2.84250        -7.64562
| 85>    H       -5.52954         4.06010        -3.87537
| 86>    H       -9.64880         3.20398        -3.72192
| 87>    H       -9.94563         4.52313        -2.54618
| 88>    H       -9.57367         2.88972        -1.95953
| 89>    H       -3.74500         6.47690         1.30276
| 90>    H       -4.09921         9.07018         5.25057
| 91>    H       -8.17139         6.39107         4.91516
| 92>    H       -7.30899         4.84442         4.89958
| 93>    H       -7.72827         5.62581         3.37725
| 94>    H        1.74911         8.43925         0.52916
| 95>    H        5.95336         6.23207         2.93274
| 96>    H        6.05756         7.84809         3.62625
| 97>    H        6.36216         7.60871         1.89599
| 98>    H        1.79225         8.61737         5.27539
| 99>    H        2.61523         9.25354         7.36892
|100>    H        3.64881        10.91941        13.25251
|101>    H        2.94105        11.95289        17.75241
|102>    H       -1.10348        11.41534        17.94585
|103> *
|104>
|105>                          ****END OF INPUT****

CARTESIAN COORDINATES (ANGSTROEM)
---------------------------------
  O     -1.238780    4.427920   -5.271700
  C     -2.476310    4.391690   -4.708140
  N     -3.385340    3.897790   -5.501900
  C     -2.723350    3.585640   -6.658620
  C     -1.399080    3.920090   -6.497600
  C     -3.393580    2.998990   -7.811480
  O     -2.850290    2.706380   -8.844900
  C     -2.679850    4.856150   -3.383280
  S     -1.382060    5.486710   -2.423430
  C     -2.420630    5.777080   -1.055010
  C     -3.713120    5.393760   -1.360700
  C     -3.874290    4.870560   -2.673920
  C     -5.207930    4.478590   -2.940740
  C     -6.018790    4.695930   -1.868920
  C     -7.451530    4.428910   -1.713950
  O     -8.069020    4.655320   -0.701680
  O     -7.988330    3.905240   -2.822080
  C     -9.377400    3.613880   -2.752920
  S     -5.206630    5.391650   -0.481310
  C     -1.934180    6.307980    0.169510
  C     -2.679500    6.598310    1.278440
  C     -1.915950    7.076380    2.366710
  C     -2.371950    7.422640    3.655890
  C     -3.761410    7.304690    4.047950
  C     -4.478450    8.149720    4.847370
  C     -5.807280    7.717800    5.045240
  C     -6.120650    6.544620    4.421650
  S     -4.744350    5.948030    3.561630
  C     -7.409300    5.809310    4.402650
  Cl    -6.929650    8.613380    5.995200
  C     -1.405090    7.871570    4.548530
  C     -0.028120    7.974820    4.226500
  C      0.427780    7.624020    2.938100
  C     -0.541000    7.187880    2.039980
  S     -0.236150    6.652650    0.408860
  C      1.823140    7.687700    2.554590
  C      2.337210    8.065600    1.346370
  C      3.744180    7.969240    1.295460
  C      4.322590    7.509440    2.442950
  S      3.104300    7.190740    3.629180
  C      5.759050    7.287270    2.741380
  Cl     4.641310    8.402100   -0.108810
  C      0.734920    8.441510    5.321440
  C     -0.000710    8.654480    6.454300
  S     -1.699600    8.317210    6.206380
  C      0.484270    9.084780    7.721700
  C      1.799650    9.343190    8.061500
  C      1.925860    9.718880    9.398890
  C      0.699280    9.746520   10.079400
  S     -0.609260    9.312850    9.072110
  C      0.938790   10.125850   11.428660
  C      2.319640   10.337570   11.592600
  C      2.985560   10.089900   10.325830
  C      4.319750   10.177220   10.055080
  C      4.844150    9.901210    8.774650
  N      5.273520    9.675030    7.735690
  C      5.264890   10.545290   11.035670
  N      6.039430   10.843280   11.826960
  C      2.656630   10.708410   12.896860
  C      1.541250   10.772780   13.703680
  S      0.058330   10.379770   12.868140
  C      1.485220   11.105030   15.088410
  N      0.417820   11.135600   15.830860
  C      0.851870   11.498300   17.077640
  C      2.214110   11.674180   17.017790
  O      2.617860   11.427170   15.766710
  C     -0.055500   11.641870   18.208340
  O      0.276720   11.969920   19.318010
  H     -0.549930    3.843510   -7.144900
  H     -4.473900    2.842500   -7.645620
  H     -5.529540    4.060100   -3.875370
  H     -9.648800    3.203980   -3.721920
  H     -9.945630    4.523130   -2.546180
  H     -9.573670    2.889720   -1.959530
  H     -3.745000    6.476900    1.302760
  H     -4.099210    9.070180    5.250570
  H     -8.171390    6.391070    4.915160
  H     -7.308990    4.844420    4.899580
  H     -7.728270    5.625810    3.377250
  H      1.749110    8.439250    0.529160
  H      5.953360    6.232070    2.932740
  H      6.057560    7.848090    3.626250
  H      6.362160    7.608710    1.895990
  H      1.792250    8.617370    5.275390
  H      2.615230    9.253540    7.368920
  H      3.648810   10.919410   13.252510
  H      2.941050   11.952890   17.752410
  H     -1.103480   11.415340   17.945850

 Total Charge           Charge          ....    0
 Multiplicity           Mult            ....    1
 Number of Electrons    NEL             ....  546
 Basis Dimension        Dim             .... 1092

ORBITAL ENERGIES
----------------

  NO   OCC          E(Eh)            E(eV)
   0   2.0000    -101.584312     -2764.2497
   1   2.0000    -101.583917     -2764.2389
   2   2.0000     -88.996411     -2421.7154
   3   2.0000     -88.994175     -2421.6546
   4   2.0000     -88.984218     -2421.3837
   5   2.0000     -88.964708     -2420.8528
   6   2.0000     -88.962498     -2420.7926
   7   2.0000     -88.960972     -2420.7511
   8   2.0000     -88.960511     -2420.7386
   9   2.0000     -88.959503     -2420.7111
  10   2.0000     -19.325034      -525.8609
  11   2.0000     -19.324899      -525.8572
  12   2.0000     -19.266835      -524.2772
  13   2.0000     -19.216280      -522.9016
  14   2.0000     -19.215355      -522.8764
  15   2.0000     -19.211488      -522.7712
  16   2.0000     -14.434302      -392.7773
  17   2.0000     -14.433207      -392.7475
  18   2.0000     -14.424217      -392.5029
  19   2.0000     -14.424191      -392.5022
  20   2.0000     -10.410768      -283.2914
  21   2.0000     -10.385738      -282.6103
  22   2.0000     -10.385566      -282.6056
  23   2.0000     -10.367997      -282.1275
  24   2.0000     -10.361398      -281.9480
  25   2.0000     -10.360349      -281.9194
  26   2.0000     -10.355540      -281.7886
  27   2.0000     -10.354867      -281.7703
  28   2.0000     -10.354557      -281.7618
  29   2.0000     -10.339109      -281.3414
  30   2.0000     -10.334793      -281.2240
  31   2.0000     -10.333664      -281.1933
  32   2.0000     -10.333380      -281.1856
  33   2.0000     -10.331254      -281.1277
  34   2.0000     -10.329642      -281.0839
  35   2.0000     -10.328835      -281.0619
  36   2.0000     -10.327180      -281.0169
  37   2.0000     -10.327114      -281.0151
  38   2.0000     -10.321704      -280.8678
  39   2.0000     -10.320721      -280.8411
  40   2.0000     -10.319703      -280.8134
  41   2.0000     -10.319018      -280.7947
  42   2.0000     -10.316715      -280.7321
  43   2.0000     -10.315308      -280.6938
  44   2.0000     -10.313848      -280.6541
  45   2.0000     -10.313415      -280.6423
  46   2.0000     -10.312073      -280.6058
  47   2.0000     -10.311383      -280.5870
  48   2.0000     -10.309834      -280.5448
  49   2.0000     -10.309809      -280.5442
  50   2.0000     -10.309137      -280.5259
  51   2.0000     -10.307507      -280.4815
  52   2.0000     -10.306133      -280.4441
  53   2.0000     -10.305635      -280.4306
  54   2.0000     -10.305019      -280.4138
  55   2.0000     -10.304859      -280.4095
  56   2.0000     -10.304693      -280.4049
  57   2.0000     -10.303678      -280.3773
  58   2.0000     -10.302871      -280.3554
  59   2.0000     -10.296266      -280.1756
  60   2.0000     -10.295759      -280.1618
  61   2.0000     -10.295580      -280.1570
  62   2.0000     -10.284988      -279.8687
  63   2.0000     -10.283268      -279.8220
  64   2.0000     -10.281656      -279.7781
  65   2.0000     -10.281427      -279.7718
  66   2.0000     -10.275505      -279.6107
  67   2.0000     -10.274462      -279.5823
  68   2.0000      -9.539062      -259.5711
  69   2.0000      -9.538674      -259.5605
  70   2.0000      -8.090612      -220.1568
  71   2.0000      -8.088809      -220.1077
  72   2.0000      -8.078819      -219.8358
  73   2.0000      -8.059367      -219.3065
  74   2.0000      -8.057830      -219.2647
  75   2.0000      -8.056238      -219.2214
  76   2.0000      -8.056102      -219.2177
  77   2.0000      -8.055016      -219.1881
  78   2.0000      -7.309321      -198.8967
  79   2.0000      -7.308886      -198.8849
  80   2.0000      -7.299129      -198.6194
  81   2.0000      -7.299044      -198.6171
  82   2.0000      -7.298763      -198.6094
  83   2.0000      -7.298688      -198.6074
  84   2.0000      -6.059937      -164.8993
  85   2.0000      -6.058070      -164.8485
  86   2.0000      -6.055608      -164.7815
  87   2.0000      -6.053822      -164.7329
  88   2.0000      -6.052968      -164.7096
  89   2.0000      -6.051207      -164.6617
  90   2.0000      -6.048122      -164.5778
  91   2.0000      -6.043902      -164.4629
  92   2.0000      -6.041078      -164.3861
  93   2.0000      -6.029229      -164.0637
  94   2.0000      -6.027551      -164.0180
  95   2.0000      -6.025958      -163.9746
  96   2.0000      -6.025441      -163.9606
  97   2.0000      -6.024919      -163.9464
  98   2.0000      -6.024352      -163.9309
  99   2.0000      -6.023346      -163.9036
 100   2.0000      -6.021775      -163.8608
 101   2.0000      -6.021237      -163.8462
 102   2.0000      -6.020499      -163.8261
 103   2.0000      -6.020139      -163.8163
 104   2.0000      -6.019103      -163.7881
 105   2.0000      -6.018148      -163.7621
 106   2.0000      -6.017483      -163.7440
 107   2.0000      -6.017073      -163.7329
 108   2.0000      -1.253608       -34.1124
 109   2.0000      -1.253231       -34.1021
 110   2.0000      -1.198668       -32.6174
 111   2.0000      -1.129879       -30.7456
 112   2.0000      -1.128717       -30.7139
 113   2.0000      -1.105114       -30.0717
 114   2.0000      -1.049134       -28.5484
 115   2.0000      -1.034581       -28.1524
 116   2.0000      -1.034251       -28.1434
 117   2.0000      -1.025655       -27.9095
 118   2.0000      -1.024573       -27.8801
 119   2.0000      -1.017823       -27.6964
 120   2.0000      -1.011302       -27.5189
 121   2.0000      -1.004910       -27.3450
 122   2.0000      -1.003576       -27.3087
 123   2.0000      -0.996977       -27.1291
 124   2.0000      -0.986276       -26.8379
 125   2.0000      -0.964309       -26.2402
 126   2.0000      -0.961089       -26.1526
 127   2.0000      -0.946452       -25.7543
 128   2.0000      -0.942890       -25.6573
 129   2.0000      -0.928258       -25.2592
 130   2.0000      -0.919013       -25.0076
 131   2.0000      -0.904725       -24.6188
 132   2.0000      -0.902412       -24.5559
 133   2.0000      -0.889153       -24.1951
 134   2.0000      -0.872277       -23.7359
 135   2.0000      -0.864895       -23.5350
 136   2.0000      -0.864063       -23.5124
 137   2.0000      -0.860367       -23.4118
 138   2.0000      -0.856743       -23.3132
 139   2.0000      -0.850878       -23.1536
 140   2.0000      -0.844713       -22.9858
 141   2.0000      -0.836646       -22.7663
 142   2.0000      -0.816766       -22.2253
 143   2.0000      -0.811207       -22.0741
 144   2.0000      -0.810376       -22.0515
 145   2.0000      -0.808172       -21.9915
 146   2.0000      -0.799373       -21.7521
 147   2.0000      -0.790943       -21.5227
 148   2.0000      -0.783598       -21.3228
 149   2.0000      -0.783014       -21.3069
 150   2.0000      -0.773933       -21.0598
 151   2.0000      -0.770755       -20.9733
 152   2.0000      -0.754132       -20.5210
 153   2.0000      -0.748003       -20.3542
 154   2.0000      -0.731542       -19.9063
 155   2.0000      -0.722046       -19.6479
 156   2.0000      -0.711584       -19.3632
 157   2.0000      -0.706064       -19.2130
 158   2.0000      -0.703655       -19.1474
 159   2.0000      -0.699898       -19.0452
 160   2.0000      -0.687103       -18.6970
 161   2.0000      -0.684641       -18.6300
 162   2.0000      -0.672918       -18.3110
 163   2.0000      -0.666917       -18.1477
 164   2.0000      -0.655082       -17.8257
 165   2.0000      -0.646627       -17.5956
 166   2.0000      -0.645051       -17.5527
 167   2.0000      -0.637466       -17.3463
 168   2.0000      -0.635634       -17.2965
 169   2.0000      -0.630346       -17.1526
 170   2.0000      -0.629188       -17.1211
 171   2.0000      -0.621916       -16.9232
 172   2.0000      -0.619203       -16.8494
 173   2.0000      -0.614349       -16.7173
 174   2.0000      -0.609641       -16.5892
 175   2.0000      -0.606470       -16.5029
 176   2.0000      -0.604106       -16.4386
 177   2.0000      -0.595136       -16.1945
 178   2.0000      -0.594980       -16.1902
 179   2.0000      -0.594749       -16.1839
 180   2.0000      -0.586676       -15.9643
 181   2.0000      -0.581949       -15.8356
 182   2.0000      -0.581006       -15.8100
 183   2.0000      -0.577273       -15.7084
 184   2.0000      -0.572645       -15.5825
 185   2.0000      -0.571105       -15.5406
 186   2.0000      -0.568466       -15.4688
 187   2.0000      -0.563529       -15.3344
 188   2.0000      -0.554952       -15.1010
 189   2.0000      -0.554094       -15.0777
 190   2.0000      -0.550391       -14.9769
 191   2.0000      -0.543778       -14.7970
 192   2.0000      -0.534218       -14.5368
 193   2.0000      -0.528104       -14.3704
 194   2.0000      -0.525347       -14.2954
 195   2.0000      -0.524248       -14.2655
 196   2.0000      -0.521215       -14.1830
 197   2.0000      -0.519339       -14.1319
 198   2.0000      -0.517774       -14.0893
 199   2.0000      -0.516472       -14.0539
 200   2.0000      -0.514980       -14.0133
 201   2.0000      -0.513828       -13.9820
 202   2.0000      -0.508900       -13.8479
 203   2.0000      -0.507858       -13.8195
 204   2.0000      -0.505464       -13.7544
 205   2.0000      -0.503904       -13.7119
 206   2.0000      -0.501823       -13.6553
 207   2.0000      -0.499320       -13.5872
 208   2.0000      -0.496381       -13.5072
 209   2.0000      -0.495687       -13.4883
 210   2.0000      -0.493415       -13.4265
 211   2.0000      -0.490164       -13.3380
 212   2.0000      -0.489148       -13.3104
 213   2.0000      -0.484960       -13.1964
 214   2.0000      -0.483822       -13.1655
 215   2.0000      -0.482425       -13.1275
 216   2.0000      -0.480502       -13.0751
 217   2.0000      -0.479050       -13.0356
 218   2.0000      -0.478281       -13.0147
 219   2.0000      -0.473000       -12.8710
 220   2.0000      -0.470366       -12.7993
 221   2.0000      -0.470191       -12.7945
 222   2.0000      -0.467211       -12.7134
 223   2.0000      -0.465436       -12.6652
 224   2.0000      -0.465140       -12.6571
 225   2.0000      -0.461941       -12.5701
 226   2.0000      -0.459442       -12.5021
 227   2.0000      -0.456050       -12.4097
 228   2.0000      -0.451529       -12.2867
 229   2.0000      -0.448217       -12.1966
 230   2.0000      -0.445721       -12.1287
 231   2.0000      -0.443923       -12.0798
 232   2.0000      -0.442496       -12.0409
 233   2.0000      -0.441271       -12.0076
 234   2.0000      -0.438489       -11.9319
 235   2.0000      -0.434247       -11.8165
 236   2.0000      -0.431192       -11.7333
 237   2.0000      -0.430580       -11.7167
 238   2.0000      -0.425565       -11.5802
 239   2.0000      -0.423986       -11.5372
 240   2.0000      -0.423463       -11.5230
 241   2.0000      -0.422334       -11.4923
 242   2.0000      -0.420831       -11.4514
 243   2.0000      -0.416508       -11.3338
 244   2.0000      -0.414686       -11.2842
 245   2.0000      -0.411665       -11.2020
 246   2.0000      -0.406507       -11.0616
 247   2.0000      -0.398997       -10.8573
 248   2.0000      -0.390270       -10.6198
 249   2.0000      -0.388659       -10.5760
 250   2.0000      -0.388117       -10.5612
 251   2.0000      -0.384757       -10.4698
 252   2.0000      -0.381980       -10.3942
 253   2.0000      -0.379707       -10.3323
 254   2.0000      -0.377578       -10.2744
 255   2.0000      -0.369814       -10.0631
 256   2.0000      -0.365179        -9.9370
 257   2.0000      -0.353944        -9.6313
 258   2.0000      -0.344286        -9.3685
 259   2.0000      -0.337502        -9.1839
 260   2.0000      -0.336577        -9.1587
 261   2.0000      -0.335747        -9.1362
 262   2.0000      -0.330858        -9.0031
 263   2.0000      -0.326583        -8.8868
 264   2.0000      -0.321340        -8.7441
 265   2.0000      -0.318896        -8.6776
 266   2.0000      -0.316817        -8.6210
 267   2.0000      -0.307949        -8.3797
 268   2.0000      -0.303377        -8.2553
 269   2.0000      -0.295753        -8.0479
 270   2.0000      -0.267002        -7.2655
 271   2.0000      -0.264220        -7.1898
 272   2.0000      -0.239666        -6.5216
 273   0.0000      -0.108414        -2.9501
 274   0.0000      -0.075971        -2.0673
 275   0.0000      -0.051894        -1.4121
 276   0.0000      -0.032724        -0.8905
 277   0.0000      -0.021526        -0.5857

MULLIKEN ATOMIC CHARGES
-----------------------
   0 O :   -0.171142
   1 C :    0.074033
   2 N :   -0.084108
   3 C :   -0.041313
   4 C :    0.133512
   5 C :    0.167015
   6 O :   -0.174296
   7 C :   -0.138503
   8 S :    0.212170
   9 C :   -0.110227
  10 C :   -0.052200
  11 C :    0.117170
  12 C :    0.011043
  13 C :   -0.115779
  14 C :    0.207989
  15 O :   -0.205430
  16 O :   -0.295134
  17 C :    0.190465
  18 S :    0.146997
  19 C :   -0.026682
  20 C :   -0.096867
  21 C :    0.085184
  22 C :    0.144899
  23 C :   -0.212575
  24 C :    0.031725
  25 C :    0.083477
  26 C :   -0.262854
  27 S :    0.139202
  28 C :    0.120586
  29 Cl:   -0.088946
  30 C :   -0.140283
  31 C :    0.090919
  32 C :    0.144812
  33 C :   -0.139811
  34 S :    0.118978
  35 C :   -0.209321
  36 C :    0.029630
  37 C :    0.083555
  38 C :   -0.262312
  39 S :    0.136175
  40 C :    0.120380
  41 Cl:   -0.087981
  42 C :   -0.087448
  43 C :   -0.018794
  44 S :    0.114165
  45 C :   -0.043902
  46 C :   -0.054224
  47 C :    0.014851
  48 C :   -0.106026
  49 S :    0.202621
  50 C :   -0.096317
  51 C :    0.009156
  52 C :    0.304094
  53 C :   -0.298825
  54 C :   -0.180858
  55 N :    0.167826
  56 C :   -0.192470
  57 N :    0.176916
  58 C :   -0.035939
  59 C :   -0.109563
  60 S :    0.251694
  61 C :    0.094199
  62 N :   -0.086803
  63 C :   -0.045735
  64 C :    0.135770
  65 O :   -0.168505
  66 C :    0.166339
  67 O :   -0.173690
  68 H :    0.037732
  69 H :   -0.011193
  70 H :    0.008980
  71 H :    0.037201
  72 H :    0.035399
  73 H :    0.034922
  74 H :   -0.000928
  75 H :   -0.008897
  76 H :    0.023792
  77 H :    0.036516
  78 H :    0.045224
  79 H :   -0.005597
  80 H :    0.037406
  81 H :    0.042662
  82 H :    0.024747
  83 H :   -0.005365
  84 H :    0.008085
  85 H :    0.018143
  86 H :    0.038214
  87 H :   -0.009728
Sum of atomic charges:   -0.0000000

LOEWDIN ATOMIC CHARGES
----------------------
   0 O :    0.022464
   1 C :    0.032070
   2 N :   -0.101922
   3 C :   -0.105366
   4 C :    0.074020
   5 C :    0.103979
   6 O :   -0.130397
   7 C :   -0.205795
   8 S :    0.483234
   9 C :   -0.202076
  10 C :   -0.180113
  11 C :   -0.053378
  12 C :   -0.004901
  13 C :   -0.191932
  14 C :    0.063881
  15 O :   -0.180039
  16 O :   -0.087785
  17 C :    0.084105
  18 S :    0.437812
  19 C :   -0.172346
  20 C :   -0.066263
  21 C :   -0.038908
  22 C :   -0.052013
  23 C :   -0.175273
  24 C :   -0.075452
  25 C :   -0.178914
  26 C :   -0.194040
  27 S :    0.454884
  28 C :   -0.061268
  29 Cl:    0.128181
  30 C :   -0.140757
  31 C :   -0.039776
  32 C :   -0.052356
  33 C :   -0.139715
  34 S :    0.412806
  35 C :   -0.174623
  36 C :   -0.075444
  37 C :   -0.177881
  38 C :   -0.194571
  39 S :    0.449978
  40 C :   -0.061049
  41 Cl:    0.129338
  42 C :   -0.056534
  43 C :   -0.173841
  44 S :    0.409671
  45 C :   -0.175032
  46 C :   -0.024826
  47 C :   -0.063665
  48 C :   -0.189704
  49 S :    0.481647
  50 C :   -0.168810
  51 C :   -0.077511
  52 C :    0.082792
  53 C :   -0.102081
  54 C :   -0.014444
  55 N :   -0.035881
  56 C :   -0.017901
  57 N :   -0.030260
  58 C :   -0.010756
  59 C :   -0.200353
  60 S :    0.518941
  61 C :    0.026830
  62 N :   -0.109495
  63 C :   -0.105995
  64 C :    0.075497
  65 O :    0.029044
  66 C :    0.103860
  67 O :   -0.130206
  68 H :    0.037369
  69 H :    0.001674
  70 H :    0.042223
  71 H :    0.027423
  72 H :    0.024866
  73 H :    0.024607
  74 H :    0.006458
  75 H :    0.025780
  76 H :    0.034165
  77 H :    0.040210
  78 H :    0.043440
  79 H :    0.026458
  80 H :    0.040282
  81 H :    0.042591
  82 H :    0.034437
  83 H :    0.018138
  84 H :    0.040913
  85 H :    0.045288
  86 H :    0.037848
  87 H :    0.002443

  Mayer bond orders larger than 0.100000
B(  0-O ,  1-C ) :   1.2105 B(  0-O ,  4-C ) :   1.1578 B(  1-C ,  2-N ) :   1.7528
B(  1-C ,  7-C ) :   1.0631 B(  2-N ,  3-C ) :   1.2936 B(  3-C ,  4-C ) :   1.5127
B(  3-C ,  5-C ) :   0.9674 B(  4-C , 68-H ) :   0.9907 B(  5-C ,  6-O ) :   2.2061
B(  5-C , 69-H ) :   0.9518 B(  7-C ,  8-S ) :   1.1350 B(  7-C ,  9-C ) :   0.1341
B(  7-C , 11-C ) :   1.4221 B(  8-S ,  9-C ) :   1.1301 B(  9-C , 10-C ) :   1.5386
B(  9-C , 19-C ) :   1.1343 B( 10-C , 11-C ) :   1.2408 B( 10-C , 18-S ) :   1.0578
B( 11-C , 12-C ) :   1.1461 B( 12-C , 13-C ) :   1.5865 B( 12-C , 70-H ) :   1.0053
B( 13-C , 14-C ) :   0.9558 B( 13-C , 18-S ) :   1.0669 B( 14-C , 15-O ) :   2.1333
B( 14-C , 16-O ) :   1.2578 B( 16-O , 17-C ) :   0.9181 B( 17-C , 71-H ) :   0.9814
B( 17-C , 72-H ) :   0.9762 B( 17-C , 73-H ) :   0.9762 B( 19-C , 20-C ) :   1.5862
B( 19-C , 34-S ) :   1.0566 B( 20-C , 21-C ) :   1.1894 B( 20-C , 74-H ) :   0.9652
B( 21-C , 22-C ) :   1.2948 B( 21-C , 33-C ) :   1.2741 B( 22-C , 23-C ) :   0.9888
B( 22-C , 30-C ) :   1.4215 B( 23-C , 24-C ) :   1.5456 B( 23-C , 27-S ) :   1.1299
B( 24-C , 25-C ) :   1.2253 B( 24-C , 75-H ) :   0.9947 B( 25-C , 26-C ) :   1.6005
B( 25-C , 29-Cl) :   1.0061 B( 26-C , 27-S ) :   1.1341 B( 26-C , 28-C ) :   1.0837
B( 28-C , 76-H ) :   0.9439 B( 28-C , 77-H ) :   0.9477 B( 28-C , 78-H ) :   0.9471
B( 30-C , 31-C ) :   1.2724 B( 30-C , 44-S ) :   1.0592 B( 31-C , 32-C ) :   1.2908
B( 31-C , 42-C ) :   1.1750 B( 32-C , 33-C ) :   1.4198 B( 32-C , 35-C ) :   0.9893
B( 33-C , 34-S ) :   1.0577 B( 35-C , 36-C ) :   1.5477 B( 35-C , 39-S ) :   1.1282
B( 36-C , 37-C ) :   1.2237 B( 36-C , 79-H ) :   0.9940 B( 37-C , 38-C ) :   1.6033
B( 37-C , 41-Cl) :   1.0066 B( 38-C , 39-S ) :   1.1311 B( 38-C , 40-C ) :   1.0831
B( 40-C , 80-H ) :   0.9482 B( 40-C , 81-H ) :   0.9476 B( 40-C , 82-H ) :   0.9440
B( 42-C , 43-C ) :   1.6001 B( 42-C , 83-H ) :   0.9744 B( 43-C , 44-S ) :   1.0576
B( 43-C , 45-C ) :   1.1073 B( 45-C , 46-C ) :   1.4886 B( 45-C , 49-S ) :   1.1107
B( 46-C , 47-C ) :   1.2868 B( 46-C , 84-H ) :   0.9938 B( 47-C , 48-C ) :   1.4499
B( 47-C , 52-C ) :   0.9942 B( 48-C , 49-S ) :   1.1202 B( 48-C , 50-C ) :   1.1845
B( 50-C , 51-C ) :   1.4392 B( 50-C , 60-S ) :   1.1358 B( 51-C , 52-C ) :   0.9948
B( 51-C , 58-C ) :   1.2697 B( 52-C , 53-C ) :   1.7158 B( 53-C , 54-C ) :   1.1328
B( 53-C , 56-C ) :   1.1342 B( 54-C , 55-N ) :   2.9865 B( 56-C , 57-N ) :   2.9958
B( 58-C , 59-C ) :   1.4711 B( 58-C , 85-H ) :   1.0052 B( 59-C , 60-S ) :   1.1099
B( 59-C , 61-C ) :   1.0744 B( 61-C , 62-N ) :   1.7814 B( 61-C , 65-O ) :   1.1984
B( 62-N , 63-C ) :   1.2924 B( 63-C , 64-C ) :   1.5185 B( 63-C , 66-C ) :   0.9665
B( 64-C , 65-O ) :   1.1591 B( 64-C , 86-H ) :   0.9909 B( 66-C , 67-O ) :   2.2078
B( 66-C , 87-H ) :   0.9530

-----------------------------------------------------------------------------
         ABSORPTION SPECTRUM VIA TRANSITION ELECTRIC DIPOLE MOMENTS
-----------------------------------------------------------------------------
State   Energy  Wavelength   fosc         T2         TX        TY        TZ
        (cm-1)    (nm)                  (au**2)     (au)      (au)      (au)
-----------------------------------------------------------------------------
   0   12676.5    788.9   0.189294584   4.91602   0.42116   0.65542   2.07583
   1   19047.8    525.0   0.172651495   2.98402   0.00138  -0.54574  -1.63896
   2   21258.1    470.4   1.472388697  22.80203   0.33346   1.55513   4.50249
   3   23490.7    425.7   0.109762904   1.53828  -0.86977  -0.40319  -0.78691
   4   25519.2    391.9   0.243289492   3.13858   0.89222   0.63029   1.39472
   5   26034.7    384.1   0.347523803   4.39448   0.38424   0.55224   1.98542
   6   27347.9    365.7   0.056599542   0.68134  -0.56117  -0.23014  -0.55988
   7   28584.9    349.8   0.145681568   1.67781  -1.16277  -0.25300  -0.51164
   8   29490.8    339.1   0.029723361   0.33181  -0.37735   0.10755   0.42172
   9   29747.1    336.2   0.328116203   3.63127   1.08988   0.55085   1.46287
  10   30598.4    326.8   0.003527171   0.03795  -0.16871  -0.08046  -0.05489
  11   31472.7    317.7   0.160398861   1.67781   0.23655   0.36809   1.21917
  12   31762.0    314.8   1.159523847  12.01844  -3.42140  -0.36617   0.42236
  13   32403.2    308.6   0.048274372   0.49046   0.43790   0.27160   0.47428
  14   32806.2    304.8   0.118234228   1.18649  -0.11975  -0.27717  -1.04658
  15   32899.9    304.0   0.057939449   0.57977   0.33371   0.17326   0.66211
  16   33543.0    298.1   0.111321129   1.09257  -0.81626   0.10846   0.64384
  17   33872.1    295.2   0.234297920   2.27720   1.09821  -0.01444  -1.03486
  18   34222.7    292.2   0.000001310   0.00001   0.00241   0.00235  -0.00114
  19   34244.1    292.0   0.007596767   0.07303   0.22012  -0.08668  -0.13064
  20   34339.6    291.2   0.000004798   0.00005   0.00200  -0.00417   0.00496
  21   34503.6    289.8   0.121520159   1.15947   0.17245  -0.30651  -1.01773
  22   34828.6    287.1   0.011341960   0.10721   0.28850   0.10838   0.11059
  23   35232.7    283.8   0.076576735   0.71553   0.43078  -0.05710  -0.72574
  24   35735.2    279.8   0.054066063   0.49809   0.69267   0.11446  -0.07206
  25   36474.1    274.2   0.290344855   2.62063  -1.55882  -0.33701  -0.27774
  26   36833.9    271.5   0.100093197   0.89461  -0.21809   0.35772   0.84799
  27   36963.4    270.5   0.046058545   0.41022   0.39722  -0.08431  -0.49530
  28   37178.6    269.0   0.074144657   0.65654   0.75397  -0.02458  -0.29575
  29   37372.7    267.6   0.000729782   0.00643   0.06280   0.04319   0.02490
  30   37408.5    267.3   0.000040985   0.00036  -0.00974  -0.00380   0.01586
  31   37578.0    266.1   0.190094548   1.66538  -0.68718   0.11726   1.08600
  32   37744.7    264.9   0.048272638   0.42104  -0.59721  -0.23058  -0.10587
  33   37880.8    264.0   0.012153927   0.10563  -0.17392  -0.14462   0.23337
  34   38563.8    259.3   0.088933498   0.75921   0.40706   0.29329   0.71238
  35   38778.5    257.9   0.001959380   0.01663  -0.08263  -0.04520  -0.08811
  36   38930.2    256.9   0.015377480   0.13004  -0.23389  -0.12160  -0.24606
  37   39323.1    254.3   0.004230830   0.03542  -0.17522   0.00363   0.06861
  38   39887.6    250.7   0.042511850   0.35087  -0.55279   0.12823   0.16985
  39   40015.9    249.9   0.028605675   0.23534   0.27617   0.06600  -0.39334
  40   40323.6    248.0   0.079933225   0.65260   0.76968   0.21746   0.11360

FINAL SINGLE POINT ENERGY     -6613.046816584395

DIPOLE MOMENT
-------------
                                X             Y             Z
Electronic contribution:     18.40371      16.61276      16.52019
Nuclear contribution   :    -19.42885     -17.32614     -17.25388
                        -----------------------------------------
Total Dipole Moment    :     -1.02514      -0.71338      -0.73369
                        -----------------------------------------
Magnitude (a.u.)       :      1.44849
Magnitude (Debye)      :      3.68177

Rotational constants in cm-1:     0.001424     0.000295     0.000246
Rotational constants in MHz :    42.695103     8.851748     7.386183

                             ****ORCA TERMINATED NORMALLY****
TOTAL RUN TIME: 0 days 0 hours 7 minutes 31 seconds 805 msec
