                         Program Version 4.2.0 -  RELEASE  -
|  1> # ORCA input file
|  2> # SCF done       -105.095785473846          0.000650924285
|  3> ! CAM-B3LYP def2-SVP def2/J RIJCOSX Grid4 TightSCF
|  4> %maxcore 5000
|  5> %tddft
|  6>     Mode sTDDFT
|  7>     Ethresh 5.0
|  8>     maxcore 5000
|  9> end
| 10>
| 11> %pal
| 12>   nprocs 6
| 13>   end
| 14> * xyz 0 1
| 15>    C       -2.12843        -0.00632        -0.61764
| 16>    C       -1.30732         1.05263        -0.79379
| 17>    C       -0.03317         0.95897        -1.38900
| 18>    C        0.46629        -0.33619        -1.86432
| 19>    C       -0.20933        -1.50361        -1.77623
| 20>    S       -1.77383        -1.63773        -1.08409
| 21>    C        1.75208        -0.06153        -2.40437
| 22>    C        2.04173         1.29754        -2.28444
| 23>    C        3.32434         1.59884        -2.79598
| 24>    C        3.94969         0.49334        -3.28027
| 25>    S        3.02229        -0.95806        -3.13878
| 26>    C        0.91883         1.95181        -1.64654
| 27>    C        0.76439         3.32317        -1.32179
| 28>    C        1.60214         4.33831        -1.65069
| 29>    C        1.35308         5.68383        -1.27739
| 30>    C        2.14408         6.72040        -1.64756
| 31>    C        1.91885         8.09448        -1.32642
| 32>    C        1.17297         8.68748        -0.32413
| 33>    C        0.58886         7.97017         0.83078
| 34>    O       -0.49688         8.19780         1.29098
| 35>    O        1.38815         7.04300         1.40552
| 36>    C        1.08009        10.11350        -0.45742
| 37>    C        1.80569        10.56053        -1.53298
| 38>    S        2.56603         9.30291        -2.40724
| 39>    C        0.34871        10.94721         0.45985
| 40>    C        0.10197        12.25921         0.28338
| 41>    C       -0.62155        13.09294         1.19643
| 42>    C       -0.89742        14.40292         0.90592
| 43>    C       -1.58788        15.29083         1.74027
| 44>    C       -2.08175        14.84991         3.05287
| 45>    C       -1.92760        13.60030         3.54018
| 46>    S       -1.12509        12.33698         2.70579
| 47>    C       -2.71169        15.99064         3.61265
| 48>    C       -2.62912        17.06618         2.72347
| 49>    C       -3.22651        18.22935         3.26424
| 50>    C       -3.73454        18.00954         4.50415
| 51>    S       -3.51639        16.39105         5.07865
| 52>    C       -1.93075        16.63202         1.54122
| 53>    C       -1.62862        17.39043         0.36127
| 54>    C       -2.06384        18.61617         0.06832
| 55>    H       -3.09864         0.08457        -0.15961
| 56>    H       -1.65541         2.01888        -0.45680
| 57>    H        0.19396        -2.43555        -2.13958
| 58>    H        3.78391         2.56973        -2.80971
| 59>    H        4.92467         0.43383        -3.72358
| 60>    H       -0.12582         3.57563        -0.75895
| 61>    H        2.49060         4.14699        -2.23231
| 62>    H        0.46759         5.87008        -0.68361
| 63>    H        2.97741         6.53223        -2.31281
| 64>    H        2.22079         6.92800         0.92903
| 65>    H        1.94542        11.57120        -1.85889
| 66>    H       -0.04854        10.44502         1.33025
| 67>    H        0.45035        12.76105        -0.60977
| 68>    H       -0.54849        14.76891        -0.05115
| 69>    H       -2.30720        13.30489         4.50600
| 70>    H       -3.27797        19.18904         2.78363
| 71>    H       -4.23700        18.71136         5.14114
| 72>    H       -0.98744        16.88782        -0.35250
| 73>    H       -2.71790        19.16769         0.71807
| 74>    H       -1.78344        19.10297        -0.85044
| 75> *
| 76>
| 77>                          ****END OF INPUT****

CARTESIAN COORDINATES (ANGSTROEM)
---------------------------------
  C     -2.128430   -0.006320   -0.617640
  C     -1.307320    1.052630   -0.793790
  C     -0.033170    0.958970   -1.389000
  C      0.466290   -0.336190   -1.864320
  C     -0.209330   -1.503610   -1.776230
  S     -1.773830   -1.637730   -1.084090
  C      1.752080   -0.061530   -2.404370
  C      2.041730    1.297540   -2.284440
  C      3.324340    1.598840   -2.795980
  C      3.949690    0.493340   -3.280270
  S      3.022290   -0.958060   -3.138780
  C      0.918830    1.951810   -1.646540
  C      0.764390    3.323170   -1.321790
  C      1.602140    4.338310   -1.650690
  C      1.353080    5.683830   -1.277390
  C      2.144080    6.720400   -1.647560
  C      1.918850    8.094480   -1.326420
  C      1.172970    8.687480   -0.324130
  C      0.588860    7.970170    0.830780
  O     -0.496880    8.197800    1.290980
  O      1.388150    7.043000    1.405520
  C      1.080090   10.113500   -0.457420
  C      1.805690   10.560530   -1.532980
  S      2.566030    9.302910   -2.407240
  C      0.348710   10.947210    0.459850
  C      0.101970   12.259210    0.283380
  C     -0.621550   13.092940    1.196430
  C     -0.897420   14.402920    0.905920
  C     -1.587880   15.290830    1.740270
  C     -2.081750   14.849910    3.052870
  C     -1.927600   13.600300    3.540180
  S     -1.125090   12.336980    2.705790
  C     -2.711690   15.990640    3.612650
  C     -2.629120   17.066180    2.723470
  C     -3.226510   18.229350    3.264240
  C     -3.734540   18.009540    4.504150
  S     -3.516390   16.391050    5.078650
  C     -1.930750   16.632020    1.541220
  C     -1.628620   17.390430    0.361270
  C     -2.063840   18.616170    0.068320
  H     -3.098640    0.084570   -0.159610
  H     -1.655410    2.018880   -0.456800
  H      0.193960   -2.435550   -2.139580
  H      3.783910    2.569730   -2.809710
  H      4.924670    0.433830   -3.723580
  H     -0.125820    3.575630   -0.758950
  H      2.490600    4.146990   -2.232310
  H      0.467590    5.870080   -0.683610
  H      2.977410    6.532230   -2.312810
  H      2.220790    6.928000    0.929030
  H      1.945420   11.571200   -1.858890
  H     -0.048540   10.445020    1.330250
  H      0.450350   12.761050   -0.609770
  H     -0.548490   14.768910   -0.051150
  H     -2.307200   13.304890    4.506000
  H     -3.277970   19.189040    2.783630
  H     -4.237000   18.711360    5.141140
  H     -0.987440   16.887820   -0.352500
  H     -2.717900   19.167690    0.718070
  H     -1.783440   19.102970   -0.850440

 Total Charge           Charge          ....    0
 Multiplicity           Mult            ....    1
 Number of Electrons    NEL             ....  314
 Basis Dimension        Dim             ....  680

ORBITAL ENERGIES
----------------

  NO   OCC          E(Eh)            E(eV)
   0   2.0000     -88.974145     -2421.1096
   1   2.0000     -88.959371     -2420.7075
   2   2.0000     -88.953904     -2420.5588
   3   2.0000     -88.953864     -2420.5577
   4   2.0000     -88.941215     -2420.2135
   5   2.0000     -19.246689      -523.7290
   6   2.0000     -19.192244      -522.2475
   7   2.0000     -10.395941      -282.8879
   8   2.0000     -10.325483      -280.9707
   9   2.0000     -10.312341      -280.6131
  10   2.0000     -10.311109      -280.5795
  11   2.0000     -10.310204      -280.5549
  12   2.0000     -10.302203      -280.3372
  13   2.0000     -10.295899      -280.1657
  14   2.0000     -10.294225      -280.1201
  15   2.0000     -10.293477      -280.0998
  16   2.0000     -10.291897      -280.0568
  17   2.0000     -10.284598      -279.8581
  18   2.0000     -10.283748      -279.8350
  19   2.0000     -10.282771      -279.8084
  20   2.0000     -10.281636      -279.7775
  21   2.0000     -10.280937      -279.7585
  22   2.0000     -10.280882      -279.7570
  23   2.0000     -10.279855      -279.7291
  24   2.0000     -10.278128      -279.6821
  25   2.0000     -10.277972      -279.6778
  26   2.0000     -10.277645      -279.6689
  27   2.0000     -10.274865      -279.5933
  28   2.0000     -10.272627      -279.5324
  29   2.0000     -10.271688      -279.5068
  30   2.0000     -10.270357      -279.4706
  31   2.0000     -10.270005      -279.4610
  32   2.0000     -10.267547      -279.3942
  33   2.0000     -10.266731      -279.3719
  34   2.0000     -10.265324      -279.3337
  35   2.0000     -10.259909      -279.1863
  36   2.0000     -10.258545      -279.1492
  37   2.0000     -10.257258      -279.1142
  38   2.0000     -10.256193      -279.0852
  39   2.0000     -10.245265      -278.7878
  40   2.0000      -8.069973      -219.5951
  41   2.0000      -8.055441      -219.1997
  42   2.0000      -8.049386      -219.0349
  43   2.0000      -8.049153      -219.0286
  44   2.0000      -8.036660      -218.6886
  45   2.0000      -6.039466      -164.3422
  46   2.0000      -6.034798      -164.2152
  47   2.0000      -6.032099      -164.1418
  48   2.0000      -6.024614      -163.9381
  49   2.0000      -6.020374      -163.8227
  50   2.0000      -6.018810      -163.7802
  51   2.0000      -6.018717      -163.7776
  52   2.0000      -6.017844      -163.7539
  53   2.0000      -6.014587      -163.6652
  54   2.0000      -6.014188      -163.6544
  55   2.0000      -6.011425      -163.5792
  56   2.0000      -6.011026      -163.5683
  57   2.0000      -6.006103      -163.4344
  58   2.0000      -6.001886      -163.3196
  59   2.0000      -5.998682      -163.2324
  60   2.0000      -1.171040       -31.8656
  61   2.0000      -1.087401       -29.5897
  62   2.0000      -1.002405       -27.2768
  63   2.0000      -0.988186       -26.8899
  64   2.0000      -0.986769       -26.8513
  65   2.0000      -0.965921       -26.2840
  66   2.0000      -0.954885       -25.9837
  67   2.0000      -0.925398       -25.1814
  68   2.0000      -0.914159       -24.8755
  69   2.0000      -0.907249       -24.6875
  70   2.0000      -0.891448       -24.2575
  71   2.0000      -0.880139       -23.9498
  72   2.0000      -0.868203       -23.6250
  73   2.0000      -0.857691       -23.3389
  74   2.0000      -0.848324       -23.0841
  75   2.0000      -0.838771       -22.8241
  76   2.0000      -0.828738       -22.5511
  77   2.0000      -0.815749       -22.1977
  78   2.0000      -0.805788       -21.9266
  79   2.0000      -0.801717       -21.8158
  80   2.0000      -0.782151       -21.2834
  81   2.0000      -0.769791       -20.9471
  82   2.0000      -0.757460       -20.6115
  83   2.0000      -0.728930       -19.8352
  84   2.0000      -0.713228       -19.4079
  85   2.0000      -0.706056       -19.2128
  86   2.0000      -0.702329       -19.1113
  87   2.0000      -0.698554       -19.0086
  88   2.0000      -0.676957       -18.4209
  89   2.0000      -0.664294       -18.0764
  90   2.0000      -0.659931       -17.9576
  91   2.0000      -0.652074       -17.7438
  92   2.0000      -0.645525       -17.5656
  93   2.0000      -0.643028       -17.4977
  94   2.0000      -0.632770       -17.2186
  95   2.0000      -0.627380       -17.0719
  96   2.0000      -0.613053       -16.6820
  97   2.0000      -0.602829       -16.4038
  98   2.0000      -0.594622       -16.1805
  99   2.0000      -0.589803       -16.0494
 100   2.0000      -0.577212       -15.7067
 101   2.0000      -0.560807       -15.2603
 102   2.0000      -0.556692       -15.1484
 103   2.0000      -0.552248       -15.0274
 104   2.0000      -0.544690       -14.8218
 105   2.0000      -0.541483       -14.7345
 106   2.0000      -0.540678       -14.7126
 107   2.0000      -0.539053       -14.6684
 108   2.0000      -0.526402       -14.3241
 109   2.0000      -0.522392       -14.2150
 110   2.0000      -0.516240       -14.0476
 111   2.0000      -0.511869       -13.9287
 112   2.0000      -0.507433       -13.8080
 113   2.0000      -0.506414       -13.7802
 114   2.0000      -0.504042       -13.7157
 115   2.0000      -0.493727       -13.4350
 116   2.0000      -0.493061       -13.4169
 117   2.0000      -0.488916       -13.3041
 118   2.0000      -0.486480       -13.2378
 119   2.0000      -0.484172       -13.1750
 120   2.0000      -0.475314       -12.9340
 121   2.0000      -0.467153       -12.7119
 122   2.0000      -0.461885       -12.5685
 123   2.0000      -0.457249       -12.4424
 124   2.0000      -0.452265       -12.3067
 125   2.0000      -0.450256       -12.2521
 126   2.0000      -0.448222       -12.1967
 127   2.0000      -0.444390       -12.0925
 128   2.0000      -0.443140       -12.0585
 129   2.0000      -0.435172       -11.8416
 130   2.0000      -0.431882       -11.7521
 131   2.0000      -0.428713       -11.6659
 132   2.0000      -0.427644       -11.6368
 133   2.0000      -0.422929       -11.5085
 134   2.0000      -0.421074       -11.4580
 135   2.0000      -0.416943       -11.3456
 136   2.0000      -0.412273       -11.2185
 137   2.0000      -0.409690       -11.1482
 138   2.0000      -0.406532       -11.0623
 139   2.0000      -0.399091       -10.8598
 140   2.0000      -0.395574       -10.7641
 141   2.0000      -0.394601       -10.7377
 142   2.0000      -0.391164       -10.6441
 143   2.0000      -0.382057       -10.3963
 144   2.0000      -0.380055       -10.3418
 145   2.0000      -0.361001        -9.8233
 146   2.0000      -0.348147        -9.4736
 147   2.0000      -0.341226        -9.2852
 148   2.0000      -0.337642        -9.1877
 149   2.0000      -0.325574        -8.8593
 150   2.0000      -0.310277        -8.4431
 151   2.0000      -0.300814        -8.1856
 152   2.0000      -0.283868        -7.7245
 153   2.0000      -0.276904        -7.5349
 154   2.0000      -0.257965        -7.0196
 155   2.0000      -0.228335        -6.2133
 156   2.0000      -0.217373        -5.9150
 157   0.0000      -0.056768        -1.5447
 158   0.0000      -0.040946        -1.1142
 159   0.0000      -0.025039        -0.6814
 160   0.0000      -0.011840        -0.3222
 161   0.0000       0.004786         0.1302

MULLIKEN ATOMIC CHARGES
-----------------------
   0 C :   -0.099414
   1 C :    0.038064
   2 C :    0.018777
   3 C :    0.067603
   4 C :   -0.142763
   5 S :    0.130453
   6 C :   -0.118720
   7 C :    0.061322
   8 C :   -0.014557
   9 C :   -0.065010
  10 S :    0.124385
  11 C :    0.090476
  12 C :   -0.012868
  13 C :   -0.007782
  14 C :    0.013161
  15 C :   -0.032769
  16 C :   -0.132993
  17 C :   -0.012455
  18 C :    0.128378
  19 O :   -0.184505
  20 O :   -0.168434
  21 C :    0.107950
  22 C :   -0.147465
  23 S :    0.138136
  24 C :    0.000360
  25 C :   -0.006605
  26 C :   -0.030357
  27 C :   -0.051369
  28 C :    0.057812
  29 C :    0.062223
  30 C :   -0.118966
  31 S :    0.115681
  32 C :   -0.114900
  33 C :    0.054410
  34 C :   -0.006696
  35 C :   -0.071335
  36 S :    0.116987
  37 C :    0.057727
  38 C :   -0.020885
  39 C :   -0.029244
  40 H :    0.045600
  41 H :   -0.008014
  42 H :    0.034269
  43 H :   -0.015927
  44 H :    0.022381
  45 H :   -0.030147
  46 H :   -0.034211
  47 H :    0.021647
  48 H :   -0.014077
  49 H :    0.187516
  50 H :    0.022999
  51 H :    0.021769
  52 H :   -0.023575
  53 H :   -0.028970
  54 H :    0.030419
  55 H :   -0.020019
  56 H :    0.019042
  57 H :   -0.033844
  58 H :   -0.002710
  59 H :    0.012040
Sum of atomic charges:   -0.0000000

LOEWDIN ATOMIC CHARGES
----------------------
   0 C :   -0.181307
   1 C :   -0.026286
   2 C :   -0.015698
   3 C :   -0.047420
   4 C :   -0.143432
   5 S :    0.453594
   6 C :   -0.204507
   7 C :   -0.036141
   8 C :   -0.067549
   9 C :   -0.168237
  10 S :    0.420073
  11 C :   -0.060372
  12 C :    0.001337
  13 C :   -0.049736
  14 C :   -0.001581
  15 C :   -0.090683
  16 C :   -0.162445
  17 C :   -0.118595
  18 C :    0.080328
  19 O :   -0.154906
  20 O :   -0.036017
  21 C :   -0.042755
  22 C :   -0.187562
  23 S :    0.453383
  24 C :   -0.030957
  25 C :   -0.035421
  26 C :   -0.164702
  27 C :   -0.024784
  28 C :   -0.026625
  29 C :   -0.054870
  30 C :   -0.139569
  31 S :    0.453653
  32 C :   -0.200964
  33 C :   -0.038908
  34 C :   -0.065751
  35 C :   -0.172153
  36 S :    0.413132
  37 C :   -0.051787
  38 C :   -0.021605
  39 C :   -0.063088
  40 H :    0.032144
  41 H :    0.039892
  42 H :    0.034855
  43 H :    0.027358
  44 H :    0.022567
  45 H :    0.028190
  46 H :    0.023343
  47 H :    0.034240
  48 H :    0.025890
  49 H :    0.091634
  50 H :    0.021327
  51 H :    0.023913
  52 H :    0.028348
  53 H :    0.032846
  54 H :    0.034350
  55 H :    0.027583
  56 H :    0.020663
  57 H :    0.024328
  58 H :    0.016193
  59 H :    0.021246

  Mayer bond orders larger than 0.100000
B(  0-C ,  1-C ) :   1.6599 B(  0-C ,  5-S ) :   1.1029 B(  0-C , 40-H ) :   0.9381
B(  1-C ,  2-C ) :   1.2078 B(  1-C , 41-H ) :   0.9692 B(  2-C ,  3-C ) :   1.0525
B(  2-C , 11-C ) :   1.4258 B(  3-C ,  4-C ) :   1.6020 B(  3-C ,  6-C ) :   1.1837
B(  4-C ,  5-S ) :   1.1446 B(  4-C , 42-H ) :   0.9416 B(  6-C ,  7-C ) :   1.4627
B(  6-C , 10-S ) :   1.0752 B(  7-C ,  8-C ) :   1.2127 B(  7-C , 11-C ) :   1.0731
B(  8-C ,  9-C ) :   1.5852 B(  8-C , 43-H ) :   1.0010 B(  9-C , 10-S ) :   1.1585
B(  9-C , 44-H ) :   0.9641 B( 11-C , 12-C ) :   1.1414 B( 12-C , 13-C ) :   1.6100
B( 12-C , 45-H ) :   0.9673 B( 13-C , 14-C ) :   1.1503 B( 13-C , 46-H ) :   0.9923
B( 14-C , 15-C ) :   1.6432 B( 14-C , 47-H ) :   0.9821 B( 15-C , 16-C ) :   1.0819
B( 15-C , 48-H ) :   0.9622 B( 16-C , 17-C ) :   1.4844 B( 16-C , 23-S ) :   1.1551
B( 17-C , 18-C ) :   0.9089 B( 17-C , 21-C ) :   1.2390 B( 18-C , 19-O ) :   2.1223
B( 18-C , 20-O ) :   1.2281 B( 20-O , 49-H ) :   0.9451 B( 21-C , 22-C ) :   1.5335
B( 21-C , 24-C ) :   1.1056 B( 22-C , 23-S ) :   1.1489 B( 22-C , 50-H ) :   0.9593
B( 24-C , 25-C ) :   1.6891 B( 24-C , 51-H ) :   0.9418 B( 25-C , 26-C ) :   1.1310
B( 25-C , 52-H ) :   0.9870 B( 26-C , 27-C ) :   1.5503 B( 26-C , 31-S ) :   1.0408
B( 27-C , 28-C ) :   1.1802 B( 27-C , 53-H ) :   0.9768 B( 28-C , 29-C ) :   1.0464
B( 28-C , 37-C ) :   1.4414 B( 29-C , 30-C ) :   1.6110 B( 29-C , 32-C ) :   1.1803
B( 30-C , 31-S ) :   1.1427 B( 30-C , 54-H ) :   0.9406 B( 32-C , 33-C ) :   1.4515
B( 32-C , 36-S ) :   1.0740 B( 33-C , 34-C ) :   1.2041 B( 33-C , 37-C ) :   1.0903
B( 34-C , 35-C ) :   1.5903 B( 34-C , 55-H ) :   1.0011 B( 35-C , 36-S ) :   1.1508
B( 35-C , 56-H ) :   0.9652 B( 37-C , 38-C ) :   1.1357 B( 38-C , 39-C ) :   1.9098
B( 38-C , 57-H ) :   0.9514 B( 39-C , 58-H ) :   0.9565 B( 39-C , 59-H ) :   0.9435

-----------------------------------------------------------------------------
         ABSORPTION SPECTRUM VIA TRANSITION ELECTRIC DIPOLE MOMENTS
-----------------------------------------------------------------------------
State   Energy  Wavelength   fosc         T2         TX        TY        TZ
        (cm-1)    (nm)                  (au**2)     (au)      (au)      (au)
-----------------------------------------------------------------------------
   0   21159.8    472.6   1.056102734  16.43122   0.58923   3.99979   0.29274
   1   22050.0    453.5   0.196679992   2.93648   1.34181  -0.78296  -0.72319
   2   24569.9    407.0   0.559217914   7.49296  -0.12864   2.71314   0.33955
   3   25184.9    397.1   0.537616726   7.02762  -0.44179   2.55212   0.56491
   4   26098.5    383.2   0.102249383   1.28980  -1.06935  -0.25536   0.28473
   5   29176.5    342.7   0.040806381   0.46044   0.07293   0.35251  -0.57520
   6   30355.7    329.4   0.157760217   1.71093   0.03673   1.19835   0.52300
   7   30538.7    327.5   0.206100609   2.22180   0.31331   1.28578  -0.68586
   8   32518.2    307.5   0.030653917   0.31034  -0.15585  -0.53011  -0.07095
   9   33242.4    300.8   0.008429728   0.08348  -0.10143  -0.13847  -0.23242
  10   34140.3    292.9   0.053310594   0.51407  -0.63464  -0.02455   0.33272
  11   35405.2    282.4   0.313282434   2.91303   0.71756  -1.43562  -0.58062
  12   35849.3    278.9   0.451710554   4.14816   1.02187  -1.49564  -0.93113
  13   37031.1    270.0   0.482238480   4.28717  -0.99944   1.67320   0.69906
  14   37886.1    263.9   0.027814779   0.24170   0.09491   0.25072  -0.41210
  15   38992.0    256.5   0.087008210   0.73462   0.59693  -0.58731  -0.18264
  16   39266.3    254.7   0.082614923   0.69265   0.00818   0.83220   0.00544
  17   39675.6    252.0   0.338656297   2.81004   1.41109   0.54123  -0.72522
  18   39790.8    251.3   0.055707381   0.46090  -0.67616  -0.05542  -0.02521

FINAL SINGLE POINT ENERGY     -3408.449499589656

DIPOLE MOMENT
-------------
                                X             Y             Z
Electronic contribution:      0.31131     -21.51409       4.61138
Nuclear contribution   :      0.44850      19.65615      -5.59462
                        -----------------------------------------
Total Dipole Moment    :      0.75982      -1.85794      -0.98324
                        -----------------------------------------
Magnitude (a.u.)       :      2.23518
Magnitude (Debye)      :      5.68137

Rotational constants in cm-1:     0.005911     0.000549     0.000514
Rotational constants in MHz :   177.215616    16.447464    15.404058

                             ****ORCA TERMINATED NORMALLY****
TOTAL RUN TIME: 0 days 0 hours 4 minutes 35 seconds 117 msec
