                         Program Version 4.2.0 -  RELEASE  -
|  1> # ORCA input file
|  2> # SCF done       -200.851318909492          0.000791804503
|  3> ! CAM-B3LYP def2-SVP def2/J RIJCOSX Grid4 TightSCF
|  4> %maxcore 5000
|  5> %tddft
|  6>     Mode sTDDFT
|  7>     Ethresh 5.0
|  8>     maxcore 5000
|  9> end
| 10>
| 11> %pal
| 12>   nprocs 6
| 13>   end
| 14> * xyz 0 1
| 15>    C        5.34796         7.26218         5.21741
| 16>    C        6.43481         6.57985         4.73634
| 17>    C        7.71138         6.60455         5.33724
| 18>    N        8.77166         6.57980         5.77663
| 19>    C        6.44670         5.74846         3.59694
| 20>    N        6.53903         5.05514         2.68562
| 21>    C        5.33805         8.09655         6.41541
| 22>    C        4.01217         8.57403         6.62601
| 23>    C        3.69181         9.38825         7.67371
| 24>    C        4.70632         9.77679         8.57692
| 25>    C        6.03601         9.30702         8.37381
| 26>    C        6.33522         8.45999         7.28117
| 27>    C        7.04149         9.70541         9.27769
| 28>    C        6.74981        10.52899        10.33122
| 29>    C        5.44032        10.99068        10.53005
| 30>    C        4.43984        10.62186         9.67184
| 31>    C        3.14220         8.06122         5.56023
| 32>    O        1.94395         8.25601         5.44304
| 33>    C        4.00425         7.27795         4.66449
| 34>    C        3.60507         6.71691         3.48205
| 35>    C        2.33681         6.71392         2.87153
| 36>    C        2.12371         6.16471         1.61109
| 37>    C        0.81146         6.26787         1.16747
| 38>   Cl        0.35127         5.79802        -0.41717
| 39>    C       -0.02853         6.87531         2.09316
| 40>    S        0.85029         7.36398         3.51006
| 41>    C       -1.42104         7.17917         2.03591
| 42>    C       -2.50149         6.49794         1.50463
| 43>   Cl       -2.40680         4.95800         0.76066
| 44>    C       -3.73654         7.12435         1.72467
| 45>    C       -3.62833         8.29153         2.44540
| 46>    S       -1.97101         8.61899         2.84779
| 47>    C       -4.66813         9.15570         2.89016
| 48>    C       -6.01554         9.08726         2.61849
| 49>    C       -6.74820        10.08377         3.27083
| 50>   Cl       -8.44905        10.22729         3.11563
| 51>    C       -5.98679        10.93627         4.05616
| 52>    S       -4.30969        10.47968         3.95590
| 53>    C       -6.42101        12.00808         4.87727
| 54>    C       -5.64972        12.84788         5.66780
| 55>   Cl       -3.94023        12.75378         5.74654
| 56>    C       -6.38379        13.77906         6.40632
| 57>    C       -7.73960        13.67732         6.19722
| 58>    S       -8.10500        12.41416         5.05754
| 59>    C       -8.76761        14.43739         6.81258
| 60>    C      -10.12534        14.36253         6.59971
| 61>    C      -10.84947        15.23993         7.41045
| 62>   Cl      -12.55730        15.35025         7.35130
| 63>    C      -10.06823        16.00534         8.26767
| 64>    S       -8.38557        15.61636         8.03127
| 65>    C      -10.48985        16.95092         9.23336
| 66>    C       -9.69995        17.69473        10.11057
| 67>   Cl       -7.98877        17.60584        10.12128
| 68>    C      -10.40936        18.51564        10.97974
| 69>    C      -11.77781        18.43333        10.80083
| 70>    S      -12.16042        17.31885         9.50445
| 71>    C      -12.87201        19.06502        11.42836
| 72>    C      -12.93888        19.84236        12.55062
| 73>    C      -14.17987        20.41088        13.05757
| 74>    C      -15.35176        20.57299        12.36570
| 75>    C      -16.51360        21.15621        12.91441
| 76>    N      -17.49252        21.61310        13.30321
| 77>    C      -15.56370        20.23934        11.01097
| 78>    N      -15.81360        20.02162         9.91116
| 79>    C      -13.94025        20.86421        14.42181
| 80>    C      -12.55617        20.70383        14.70999
| 81>    C      -11.87003        20.12503        13.54247
| 82>    O      -10.67673        19.92500        13.45055
| 83>    C      -12.02364        21.05087        15.91797
| 84>    C      -12.87165        21.57693        16.91781
| 85>    C      -14.26062        21.73288        16.64100
| 86>    C      -14.78129        21.37018        15.37744
| 87>    C      -15.09876        22.25288        17.64825
| 88>    C      -14.59134        22.60283        18.86991
| 89>    C      -13.22355        22.44901        19.14109
| 90>    C      -12.38192        21.94751        18.18555
| 91>    H        2.67795         9.73465         7.80859
| 92>    H        7.35252         8.12526         7.15603
| 93>    H        8.04838         9.34730         9.12107
| 94>    H        7.52751        10.82947        11.01719
| 95>    H        5.22810        11.64036        11.36591
| 96>    H        3.42946        10.97429         9.81919
| 97>    H        4.35917         6.20792         2.89399
| 98>    H        2.91106         5.72129         1.02805
| 99>    H       -4.66734         6.71302         1.38245
|100>    H       -6.46617         8.35314         1.97805
|101>    H       -5.93869        14.49634         7.07119
|102>    H      -10.57841        13.69720         5.88793
|103>    H       -9.94758        19.14182        11.72078
|104>    H      -13.81510        18.85126        10.93764
|105>    H      -10.96860        20.92174        16.10905
|106>    H      -15.83790        21.49486        15.20191
|107>    H      -16.15094        22.37072        17.43445
|108>    H      -15.24163        23.00038        19.63466
|109>    H      -12.84026        22.72946        20.11080
|110>    H      -11.32779        21.82649        18.38831
|111> *
|112>
|113>                          ****END OF INPUT****

CARTESIAN COORDINATES (ANGSTROEM)
---------------------------------
  C      5.347960    7.262180    5.217410
  C      6.434810    6.579850    4.736340
  C      7.711380    6.604550    5.337240
  N      8.771660    6.579800    5.776630
  C      6.446700    5.748460    3.596940
  N      6.539030    5.055140    2.685620
  C      5.338050    8.096550    6.415410
  C      4.012170    8.574030    6.626010
  C      3.691810    9.388250    7.673710
  C      4.706320    9.776790    8.576920
  C      6.036010    9.307020    8.373810
  C      6.335220    8.459990    7.281170
  C      7.041490    9.705410    9.277690
  C      6.749810   10.528990   10.331220
  C      5.440320   10.990680   10.530050
  C      4.439840   10.621860    9.671840
  C      3.142200    8.061220    5.560230
  O      1.943950    8.256010    5.443040
  C      4.004250    7.277950    4.664490
  C      3.605070    6.716910    3.482050
  C      2.336810    6.713920    2.871530
  C      2.123710    6.164710    1.611090
  C      0.811460    6.267870    1.167470
  Cl     0.351270    5.798020   -0.417170
  C     -0.028530    6.875310    2.093160
  S      0.850290    7.363980    3.510060
  C     -1.421040    7.179170    2.035910
  C     -2.501490    6.497940    1.504630
  Cl    -2.406800    4.958000    0.760660
  C     -3.736540    7.124350    1.724670
  C     -3.628330    8.291530    2.445400
  S     -1.971010    8.618990    2.847790
  C     -4.668130    9.155700    2.890160
  C     -6.015540    9.087260    2.618490
  C     -6.748200   10.083770    3.270830
  Cl    -8.449050   10.227290    3.115630
  C     -5.986790   10.936270    4.056160
  S     -4.309690   10.479680    3.955900
  C     -6.421010   12.008080    4.877270
  C     -5.649720   12.847880    5.667800
  Cl    -3.940230   12.753780    5.746540
  C     -6.383790   13.779060    6.406320
  C     -7.739600   13.677320    6.197220
  S     -8.105000   12.414160    5.057540
  C     -8.767610   14.437390    6.812580
  C    -10.125340   14.362530    6.599710
  C    -10.849470   15.239930    7.410450
  Cl   -12.557300   15.350250    7.351300
  C    -10.068230   16.005340    8.267670
  S     -8.385570   15.616360    8.031270
  C    -10.489850   16.950920    9.233360
  C     -9.699950   17.694730   10.110570
  Cl    -7.988770   17.605840   10.121280
  C    -10.409360   18.515640   10.979740
  C    -11.777810   18.433330   10.800830
  S    -12.160420   17.318850    9.504450
  C    -12.872010   19.065020   11.428360
  C    -12.938880   19.842360   12.550620
  C    -14.179870   20.410880   13.057570
  C    -15.351760   20.572990   12.365700
  C    -16.513600   21.156210   12.914410
  N    -17.492520   21.613100   13.303210
  C    -15.563700   20.239340   11.010970
  N    -15.813600   20.021620    9.911160
  C    -13.940250   20.864210   14.421810
  C    -12.556170   20.703830   14.709990
  C    -11.870030   20.125030   13.542470
  O    -10.676730   19.925000   13.450550
  C    -12.023640   21.050870   15.917970
  C    -12.871650   21.576930   16.917810
  C    -14.260620   21.732880   16.641000
  C    -14.781290   21.370180   15.377440
  C    -15.098760   22.252880   17.648250
  C    -14.591340   22.602830   18.869910
  C    -13.223550   22.449010   19.141090
  C    -12.381920   21.947510   18.185550
  H      2.677950    9.734650    7.808590
  H      7.352520    8.125260    7.156030
  H      8.048380    9.347300    9.121070
  H      7.527510   10.829470   11.017190
  H      5.228100   11.640360   11.365910
  H      3.429460   10.974290    9.819190
  H      4.359170    6.207920    2.893990
  H      2.911060    5.721290    1.028050
  H     -4.667340    6.713020    1.382450
  H     -6.466170    8.353140    1.978050
  H     -5.938690   14.496340    7.071190
  H    -10.578410   13.697200    5.887930
  H     -9.947580   19.141820   11.720780
  H    -13.815100   18.851260   10.937640
  H    -10.968600   20.921740   16.109050
  H    -15.837900   21.494860   15.201910
  H    -16.150940   22.370720   17.434450
  H    -15.241630   23.000380   19.634660
  H    -12.840260   22.729460   20.110800
  H    -11.327790   21.826490   18.388310

 Total Charge           Charge          ....    0
 Multiplicity           Mult            ....    1
 Number of Electrons    NEL             ....  610
 Basis Dimension        Dim             .... 1212

ORBITAL ENERGIES
----------------

  NO   OCC          E(Eh)            E(eV)
   0   2.0000    -101.608579     -2764.9100
   1   2.0000    -101.606845     -2764.8628
   2   2.0000    -101.606813     -2764.8619
   3   2.0000    -101.604966     -2764.8117
   4   2.0000    -101.593086     -2764.4884
   5   2.0000    -101.589575     -2764.3929
   6   2.0000     -88.977256     -2421.1942
   7   2.0000     -88.976340     -2421.1693
   8   2.0000     -88.975957     -2421.1589
   9   2.0000     -88.975121     -2421.1361
  10   2.0000     -88.974530     -2421.1200
  11   2.0000     -88.972421     -2421.0627
  12   2.0000     -19.225269      -523.1462
  13   2.0000     -19.218389      -522.9590
  14   2.0000     -14.418516      -392.3478
  15   2.0000     -14.415125      -392.2555
  16   2.0000     -14.414035      -392.2258
  17   2.0000     -14.412169      -392.1751
  18   2.0000     -10.372460      -282.2490
  19   2.0000     -10.369548      -282.1697
  20   2.0000     -10.346575      -281.5446
  21   2.0000     -10.343249      -281.4541
  22   2.0000     -10.342668      -281.4383
  23   2.0000     -10.341734      -281.4129
  24   2.0000     -10.341688      -281.4116
  25   2.0000     -10.341219      -281.3989
  26   2.0000     -10.340398      -281.3765
  27   2.0000     -10.339762      -281.3592
  28   2.0000     -10.339684      -281.3571
  29   2.0000     -10.338989      -281.3382
  30   2.0000     -10.336732      -281.2768
  31   2.0000     -10.331370      -281.1309
  32   2.0000     -10.331265      -281.1280
  33   2.0000     -10.330198      -281.0990
  34   2.0000     -10.327982      -281.0387
  35   2.0000     -10.327835      -281.0347
  36   2.0000     -10.327469      -281.0247
  37   2.0000     -10.325703      -280.9767
  38   2.0000     -10.325100      -280.9603
  39   2.0000     -10.324893      -280.9546
  40   2.0000     -10.323807      -280.9251
  41   2.0000     -10.323692      -280.9219
  42   2.0000     -10.321636      -280.8660
  43   2.0000     -10.321261      -280.8558
  44   2.0000     -10.318203      -280.7726
  45   2.0000     -10.317607      -280.7564
  46   2.0000     -10.316960      -280.7388
  47   2.0000     -10.315311      -280.6939
  48   2.0000     -10.304834      -280.4088
  49   2.0000     -10.301678      -280.3229
  50   2.0000     -10.301455      -280.3168
  51   2.0000     -10.301184      -280.3095
  52   2.0000     -10.300376      -280.2875
  53   2.0000     -10.299885      -280.2741
  54   2.0000     -10.299640      -280.2675
  55   2.0000     -10.299456      -280.2625
  56   2.0000     -10.298615      -280.2396
  57   2.0000     -10.296925      -280.1936
  58   2.0000     -10.296798      -280.1901
  59   2.0000     -10.296641      -280.1858
  60   2.0000     -10.296617      -280.1852
  61   2.0000     -10.296011      -280.1687
  62   2.0000     -10.295711      -280.1605
  63   2.0000     -10.295552      -280.1562
  64   2.0000     -10.294169      -280.1186
  65   2.0000     -10.293325      -280.0956
  66   2.0000     -10.291285      -280.0401
  67   2.0000     -10.288777      -279.9718
  68   2.0000     -10.288280      -279.9583
  69   2.0000     -10.287831      -279.9461
  70   2.0000     -10.287545      -279.9383
  71   2.0000     -10.287327      -279.9324
  72   2.0000     -10.286201      -279.9018
  73   2.0000     -10.285613      -279.8858
  74   2.0000     -10.285189      -279.8742
  75   2.0000     -10.284681      -279.8604
  76   2.0000      -9.563228      -260.2287
  77   2.0000      -9.561530      -260.1825
  78   2.0000      -9.561511      -260.1819
  79   2.0000      -9.559680      -260.1321
  80   2.0000      -9.547949      -259.8129
  81   2.0000      -9.544488      -259.7187
  82   2.0000      -8.071878      -219.6470
  83   2.0000      -8.070979      -219.6225
  84   2.0000      -8.070813      -219.6180
  85   2.0000      -8.070211      -219.6016
  86   2.0000      -8.070106      -219.5988
  87   2.0000      -8.065610      -219.4764
  88   2.0000      -7.333326      -199.5499
  89   2.0000      -7.331609      -199.5032
  90   2.0000      -7.331609      -199.5032
  91   2.0000      -7.329777      -199.4534
  92   2.0000      -7.323360      -199.2788
  93   2.0000      -7.323207      -199.2746
  94   2.0000      -7.321613      -199.2312
  95   2.0000      -7.321591      -199.2306
  96   2.0000      -7.321580      -199.2303
  97   2.0000      -7.321551      -199.2295
  98   2.0000      -7.319753      -199.1806
  99   2.0000      -7.319715      -199.1796
 100   2.0000      -7.318378      -199.1432
 101   2.0000      -7.314880      -199.0480
 102   2.0000      -7.308107      -198.8637
 103   2.0000      -7.307573      -198.8492
 104   2.0000      -7.304629      -198.7691
 105   2.0000      -7.304169      -198.7565
 106   2.0000      -6.041485      -164.3972
 107   2.0000      -6.040583      -164.3726
 108   2.0000      -6.040221      -164.3628
 109   2.0000      -6.039700      -164.3486
 110   2.0000      -6.039581      -164.3454
 111   2.0000      -6.037113      -164.2782
 112   2.0000      -6.036238      -164.2544
 113   2.0000      -6.035919      -164.2457
 114   2.0000      -6.035429      -164.2324
 115   2.0000      -6.035279      -164.2283
 116   2.0000      -6.035183      -164.2257
 117   2.0000      -6.033511      -164.1802
 118   2.0000      -6.032735      -164.1591
 119   2.0000      -6.032607      -164.1556
 120   2.0000      -6.032038      -164.1401
 121   2.0000      -6.031778      -164.1330
 122   2.0000      -6.030495      -164.0981
 123   2.0000      -6.027634      -164.0203
 124   2.0000      -1.140549       -31.0359
 125   2.0000      -1.133244       -30.8371
 126   2.0000      -1.037036       -28.2192
 127   2.0000      -1.033059       -28.1110
 128   2.0000      -1.026487       -27.9321
 129   2.0000      -1.020102       -27.7584
 130   2.0000      -1.016938       -27.6723
 131   2.0000      -1.013802       -27.5870
 132   2.0000      -1.008296       -27.4371
 133   2.0000      -1.003170       -27.2976
 134   2.0000      -1.001048       -27.2399
 135   2.0000      -0.997375       -27.1400
 136   2.0000      -0.995008       -27.0756
 137   2.0000      -0.991565       -26.9818
 138   2.0000      -0.974372       -26.5140
 139   2.0000      -0.974006       -26.5040
 140   2.0000      -0.971607       -26.4388
 141   2.0000      -0.967468       -26.3262
 142   2.0000      -0.961707       -26.1694
 143   2.0000      -0.955673       -26.0052
 144   2.0000      -0.952516       -25.9193
 145   2.0000      -0.946316       -25.7506
 146   2.0000      -0.926162       -25.2021
 147   2.0000      -0.924194       -25.1486
 148   2.0000      -0.909931       -24.7605
 149   2.0000      -0.906768       -24.6744
 150   2.0000      -0.896665       -24.3995
 151   2.0000      -0.889354       -24.2006
 152   2.0000      -0.883500       -24.0413
 153   2.0000      -0.881542       -23.9880
 154   2.0000      -0.879431       -23.9305
 155   2.0000      -0.867304       -23.6006
 156   2.0000      -0.861397       -23.4398
 157   2.0000      -0.842306       -22.9203
 158   2.0000      -0.840315       -22.8661
 159   2.0000      -0.836817       -22.7709
 160   2.0000      -0.830993       -22.6125
 161   2.0000      -0.828041       -22.5322
 162   2.0000      -0.827408       -22.5149
 163   2.0000      -0.827379       -22.5141
 164   2.0000      -0.823241       -22.4015
 165   2.0000      -0.821421       -22.3520
 166   2.0000      -0.807442       -21.9716
 167   2.0000      -0.794927       -21.6311
 168   2.0000      -0.777918       -21.1682
 169   2.0000      -0.766308       -20.8523
 170   2.0000      -0.764866       -20.8130
 171   2.0000      -0.760962       -20.7068
 172   2.0000      -0.737350       -20.0643
 173   2.0000      -0.726853       -19.7787
 174   2.0000      -0.718769       -19.5587
 175   2.0000      -0.708155       -19.2699
 176   2.0000      -0.706706       -19.2304
 177   2.0000      -0.703421       -19.1411
 178   2.0000      -0.699988       -19.0476
 179   2.0000      -0.697059       -18.9679
 180   2.0000      -0.686527       -18.6814
 181   2.0000      -0.683527       -18.5997
 182   2.0000      -0.680544       -18.5185
 183   2.0000      -0.675688       -18.3864
 184   2.0000      -0.665639       -18.1130
 185   2.0000      -0.661789       -18.0082
 186   2.0000      -0.655600       -17.8398
 187   2.0000      -0.646096       -17.5812
 188   2.0000      -0.640071       -17.4172
 189   2.0000      -0.634772       -17.2730
 190   2.0000      -0.630469       -17.1559
 191   2.0000      -0.627349       -17.0710
 192   2.0000      -0.626452       -17.0466
 193   2.0000      -0.617603       -16.8058
 194   2.0000      -0.611904       -16.6508
 195   2.0000      -0.610860       -16.6223
 196   2.0000      -0.610110       -16.6019
 197   2.0000      -0.607523       -16.5316
 198   2.0000      -0.605818       -16.4851
 199   2.0000      -0.598144       -16.2763
 200   2.0000      -0.587438       -15.9850
 201   2.0000      -0.582623       -15.8540
 202   2.0000      -0.576285       -15.6815
 203   2.0000      -0.571875       -15.5615
 204   2.0000      -0.559738       -15.2312
 205   2.0000      -0.555613       -15.1190
 206   2.0000      -0.550793       -14.9878
 207   2.0000      -0.549198       -14.9444
 208   2.0000      -0.548358       -14.9216
 209   2.0000      -0.546149       -14.8615
 210   2.0000      -0.543313       -14.7843
 211   2.0000      -0.541328       -14.7303
 212   2.0000      -0.539307       -14.6753
 213   2.0000      -0.537417       -14.6239
 214   2.0000      -0.535505       -14.5718
 215   2.0000      -0.534583       -14.5467
 216   2.0000      -0.532791       -14.4980
 217   2.0000      -0.529920       -14.4198
 218   2.0000      -0.529154       -14.3990
 219   2.0000      -0.527010       -14.3407
 220   2.0000      -0.525933       -14.3114
 221   2.0000      -0.523147       -14.2356
 222   2.0000      -0.520750       -14.1703
 223   2.0000      -0.519308       -14.1311
 224   2.0000      -0.517046       -14.0695
 225   2.0000      -0.514756       -14.0072
 226   2.0000      -0.512492       -13.9456
 227   2.0000      -0.511599       -13.9213
 228   2.0000      -0.510465       -13.8905
 229   2.0000      -0.509278       -13.8582
 230   2.0000      -0.505849       -13.7648
 231   2.0000      -0.503960       -13.7134
 232   2.0000      -0.499994       -13.6055
 233   2.0000      -0.498446       -13.5634
 234   2.0000      -0.496215       -13.5027
 235   2.0000      -0.495568       -13.4851
 236   2.0000      -0.494914       -13.4673
 237   2.0000      -0.491479       -13.3738
 238   2.0000      -0.489877       -13.3302
 239   2.0000      -0.486706       -13.2440
 240   2.0000      -0.484135       -13.1740
 241   2.0000      -0.482793       -13.1375
 242   2.0000      -0.477851       -13.0030
 243   2.0000      -0.471601       -12.8329
 244   2.0000      -0.467735       -12.7277
 245   2.0000      -0.464311       -12.6345
 246   2.0000      -0.462973       -12.5981
 247   2.0000      -0.460900       -12.5417
 248   2.0000      -0.458434       -12.4746
 249   2.0000      -0.452208       -12.3052
 250   2.0000      -0.450867       -12.2687
 251   2.0000      -0.447751       -12.1839
 252   2.0000      -0.447478       -12.1765
 253   2.0000      -0.446723       -12.1560
 254   2.0000      -0.445764       -12.1299
 255   2.0000      -0.443852       -12.0778
 256   2.0000      -0.442703       -12.0466
 257   2.0000      -0.442171       -12.0321
 258   2.0000      -0.440235       -11.9794
 259   2.0000      -0.439068       -11.9477
 260   2.0000      -0.438338       -11.9278
 261   2.0000      -0.436785       -11.8855
 262   2.0000      -0.436352       -11.8737
 263   2.0000      -0.433226       -11.7887
 264   2.0000      -0.432425       -11.7669
 265   2.0000      -0.431904       -11.7527
 266   2.0000      -0.427505       -11.6330
 267   2.0000      -0.425906       -11.5895
 268   2.0000      -0.424164       -11.5421
 269   2.0000      -0.419890       -11.4258
 270   2.0000      -0.418159       -11.3787
 271   2.0000      -0.417975       -11.3737
 272   2.0000      -0.411407       -11.1949
 273   2.0000      -0.408413       -11.1135
 274   2.0000      -0.407455       -11.0874
 275   2.0000      -0.406624       -11.0648
 276   2.0000      -0.403994       -10.9932
 277   2.0000      -0.397105       -10.8058
 278   2.0000      -0.393376       -10.7043
 279   2.0000      -0.391699       -10.6587
 280   2.0000      -0.388410       -10.5692
 281   2.0000      -0.384002       -10.4492
 282   2.0000      -0.379316       -10.3217
 283   2.0000      -0.378413       -10.2971
 284   2.0000      -0.373851       -10.1730
 285   2.0000      -0.372816       -10.1448
 286   2.0000      -0.366691        -9.9782
 287   2.0000      -0.362436        -9.8624
 288   2.0000      -0.345323        -9.3967
 289   2.0000      -0.340318        -9.2605
 290   2.0000      -0.338945        -9.2232
 291   2.0000      -0.337004        -9.1703
 292   2.0000      -0.332619        -9.0510
 293   2.0000      -0.327908        -8.9228
 294   2.0000      -0.325809        -8.8657
 295   2.0000      -0.324756        -8.8371
 296   2.0000      -0.322843        -8.7850
 297   2.0000      -0.317927        -8.6512
 298   2.0000      -0.316515        -8.6128
 299   2.0000      -0.314438        -8.5563
 300   2.0000      -0.298798        -8.1307
 301   2.0000      -0.294289        -8.0080
 302   2.0000      -0.287449        -7.8219
 303   2.0000      -0.267384        -7.2759
 304   2.0000      -0.244019        -6.6401
 305   0.0000      -0.100314        -2.7297
 306   0.0000      -0.096752        -2.6328
 307   0.0000      -0.066847        -1.8190
 308   0.0000      -0.061205        -1.6655
 309   0.0000      -0.055883        -1.5206

MULLIKEN ATOMIC CHARGES
-----------------------
   0 C :    0.336380
   1 C :   -0.352331
   2 C :   -0.184340
   3 N :    0.148568
   4 C :   -0.191103
   5 N :    0.147438
   6 C :    0.043840
   7 C :   -0.003116
   8 C :   -0.080633
   9 C :    0.097905
  10 C :    0.096426
  11 C :   -0.083336
  12 C :   -0.017946
  13 C :    0.036285
  14 C :    0.036639
  15 C :   -0.016052
  16 C :    0.176711
  17 O :   -0.184776
  18 C :   -0.100011
  19 C :   -0.003140
  20 C :   -0.054801
  21 C :    0.004611
  22 C :    0.119725
  23 Cl:   -0.061841
  24 C :   -0.119957
  25 S :    0.211943
  26 C :   -0.133804
  27 C :    0.112689
  28 Cl:   -0.057446
  29 C :   -0.025436
  30 C :   -0.021994
  31 S :    0.158360
  32 C :   -0.010986
  33 C :   -0.011133
  34 C :    0.063238
  35 Cl:   -0.063006
  36 C :   -0.090866
  37 S :    0.151228
  38 C :   -0.090014
  39 C :    0.067659
  40 Cl:   -0.060455
  41 C :   -0.020381
  42 C :   -0.023111
  43 S :    0.153773
  44 C :   -0.014025
  45 C :   -0.023668
  46 C :    0.075388
  47 Cl:   -0.049426
  48 C :   -0.095311
  49 S :    0.152183
  50 C :   -0.074198
  51 C :    0.048292
  52 Cl:   -0.058420
  53 C :    0.036333
  54 C :   -0.102761
  55 S :    0.168989
  56 C :    0.052633
  57 C :   -0.090918
  58 C :    0.304692
  59 C :   -0.357897
  60 C :   -0.182199
  61 N :    0.148300
  62 C :   -0.202046
  63 N :    0.161115
  64 C :    0.048541
  65 C :    0.004400
  66 C :    0.158372
  67 O :   -0.158173
  68 C :   -0.086152
  69 C :    0.100789
  70 C :    0.098791
  71 C :   -0.086391
  72 C :   -0.020644
  73 C :    0.036625
  74 C :    0.037849
  75 C :   -0.019298
  76 H :   -0.013720
  77 H :   -0.008085
  78 H :   -0.008861
  79 H :   -0.003821
  80 H :   -0.004490
  81 H :   -0.018275
  82 H :    0.011822
  83 H :    0.005806
  84 H :   -0.016017
  85 H :   -0.016088
  86 H :   -0.006421
  87 H :   -0.006536
  88 H :    0.015276
  89 H :    0.014895
  90 H :   -0.013860
  91 H :   -0.006719
  92 H :   -0.009011
  93 H :   -0.004642
  94 H :   -0.006469
  95 H :   -0.017950
Sum of atomic charges:    0.0000000

LOEWDIN ATOMIC CHARGES
----------------------
   0 C :    0.077675
   1 C :   -0.141143
   2 C :   -0.017067
   3 N :   -0.054024
   4 C :   -0.021355
   5 N :   -0.052704
   6 C :   -0.025084
   7 C :   -0.055357
   8 C :    0.032768
   9 C :   -0.008698
  10 C :   -0.006027
  11 C :    0.020642
  12 C :   -0.004704
  13 C :   -0.012876
  14 C :   -0.011986
  15 C :   -0.009423
  16 C :    0.086942
  17 O :   -0.167893
  18 C :   -0.105653
  19 C :    0.061397
  20 C :   -0.186380
  21 C :   -0.026911
  22 C :   -0.171839
  23 Cl:    0.146142
  24 C :   -0.200390
  25 S :    0.514411
  26 C :   -0.219365
  27 C :   -0.153108
  28 Cl:    0.154751
  29 C :   -0.066719
  30 C :   -0.175709
  31 S :    0.447961
  32 C :   -0.186640
  33 C :   -0.064039
  34 C :   -0.169054
  35 Cl:    0.159621
  36 C :   -0.208278
  37 S :    0.449108
  38 C :   -0.205344
  39 C :   -0.170283
  40 Cl:    0.162558
  41 C :   -0.069798
  42 C :   -0.187428
  43 S :    0.454945
  44 C :   -0.174476
  45 C :   -0.075848
  46 C :   -0.157728
  47 Cl:    0.171254
  48 C :   -0.216591
  49 S :    0.457352
  50 C :   -0.185842
  51 C :   -0.178737
  52 Cl:    0.162348
  53 C :   -0.022322
  54 C :   -0.185982
  55 S :    0.469930
  56 C :    0.047557
  57 C :   -0.093869
  58 C :    0.076725
  59 C :   -0.142850
  60 C :   -0.016959
  61 N :   -0.055734
  62 C :   -0.026284
  63 N :   -0.051896
  64 C :   -0.025859
  65 C :   -0.054656
  66 C :    0.088160
  67 O :   -0.143284
  68 C :    0.030783
  69 C :   -0.008470
  70 C :   -0.006279
  71 C :    0.019033
  72 C :   -0.005454
  73 C :   -0.013905
  74 C :   -0.012683
  75 C :   -0.010142
  76 H :    0.038892
  77 H :    0.039298
  78 H :    0.035021
  79 H :    0.033612
  80 H :    0.033001
  81 H :    0.031621
  82 H :    0.051835
  83 H :    0.041675
  84 H :    0.034092
  85 H :    0.034400
  86 H :    0.031733
  87 H :    0.032634
  88 H :    0.038334
  89 H :    0.043631
  90 H :    0.038330
  91 H :    0.039045
  92 H :    0.034765
  93 H :    0.033180
  94 H :    0.032397
  95 H :    0.031570

  Mayer bond orders larger than 0.100000
B(  0-C ,  1-C ) :   1.6267 B(  0-C ,  6-C ) :   0.9858 B(  0-C , 18-C ) :   1.0697
B(  1-C ,  2-C ) :   1.1486 B(  1-C ,  4-C ) :   1.1439 B(  2-C ,  3-N ) :   2.9626
B(  4-C ,  5-N ) :   2.9611 B(  6-C ,  7-C ) :   1.2150 B(  6-C , 11-C ) :   1.4537
B(  7-C ,  8-C ) :   1.4691 B(  7-C , 16-C ) :   0.9629 B(  8-C ,  9-C ) :   1.1752
B(  8-C , 76-H ) :   1.0171 B(  9-C , 10-C ) :   1.2580 B(  9-C , 15-C ) :   1.2455
B( 10-C , 11-C ) :   1.2027 B( 10-C , 12-C ) :   1.2410 B( 11-C , 77-H ) :   0.9895
B( 12-C , 13-C ) :   1.4876 B( 12-C , 78-H ) :   0.9973 B( 13-C , 14-C ) :   1.2610
B( 13-C , 79-H ) :   0.9882 B( 14-C , 15-C ) :   1.4876 B( 14-C , 80-H ) :   0.9887
B( 15-C , 81-H ) :   0.9975 B( 16-C , 17-O ) :   2.1124 B( 16-C , 18-C ) :   0.9778
B( 18-C , 19-C ) :   1.5145 B( 19-C , 20-C ) :   1.2439 B( 19-C , 82-H ) :   0.9407
B( 20-C , 21-C ) :   1.3645 B( 20-C , 25-S ) :   1.0889 B( 21-C , 22-C ) :   1.2960
B( 21-C , 83-H ) :   1.0108 B( 22-C , 23-Cl) :   1.0581 B( 22-C , 24-C ) :   1.4501
B( 24-C , 25-S ) :   1.1311 B( 24-C , 26-C ) :   1.0868 B( 26-C , 27-C ) :   1.5356
B( 26-C , 30-C ) :   0.1141 B( 26-C , 31-S ) :   1.1197 B( 27-C , 28-Cl) :   1.0598
B( 27-C , 29-C ) :   1.2408 B( 29-C , 30-C ) :   1.5036 B( 29-C , 84-H ) :   1.0062
B( 30-C , 31-S ) :   1.1196 B( 30-C , 32-C ) :   1.1074 B( 32-C , 33-C ) :   1.4982
B( 32-C , 36-C ) :   0.1057 B( 32-C , 37-S ) :   1.1046 B( 33-C , 34-C ) :   1.2664
B( 33-C , 85-H ) :   1.0066 B( 34-C , 35-Cl) :   1.0296 B( 34-C , 36-C ) :   1.4797
B( 36-C , 37-S ) :   1.1254 B( 36-C , 38-C ) :   1.1771 B( 38-C , 39-C ) :   1.4768
B( 38-C , 43-S ) :   1.1245 B( 39-C , 40-Cl) :   1.0301 B( 39-C , 41-C ) :   1.2717
B( 41-C , 42-C ) :   1.4727 B( 41-C , 86-H ) :   1.0023 B( 42-C , 43-S ) :   1.1043
B( 42-C , 44-C ) :   1.1622 B( 44-C , 45-C ) :   1.4638 B( 44-C , 49-S ) :   1.1171
B( 45-C , 46-C ) :   1.2763 B( 45-C , 87-H ) :   1.0042 B( 46-C , 47-Cl) :   1.0416
B( 46-C , 48-C ) :   1.4650 B( 48-C , 49-S ) :   1.1140 B( 48-C , 50-C ) :   1.1875
B( 50-C , 51-C ) :   1.4149 B( 50-C , 55-S ) :   1.1660 B( 51-C , 52-Cl) :   1.0380
B( 51-C , 53-C ) :   1.2940 B( 53-C , 54-C ) :   1.4160 B( 53-C , 88-H ) :   0.9850
B( 54-C , 55-S ) :   1.0780 B( 54-C , 56-C ) :   1.2115 B( 56-C , 57-C ) :   1.5961
B( 56-C , 89-H ) :   0.9189 B( 57-C , 58-C ) :   1.0719 B( 57-C , 66-C ) :   0.9377
B( 58-C , 59-C ) :   1.6284 B( 58-C , 64-C ) :   0.9853 B( 59-C , 60-C ) :   1.1497
B( 59-C , 62-C ) :   1.1398 B( 60-C , 61-N ) :   2.9682 B( 62-C , 63-N ) :   2.9910
B( 64-C , 65-C ) :   1.2174 B( 64-C , 71-C ) :   1.4507 B( 65-C , 66-C ) :   0.9537
B( 65-C , 68-C ) :   1.4688 B( 66-C , 67-O ) :   2.1711 B( 68-C , 69-C ) :   1.1776
B( 68-C , 90-H ) :   1.0167 B( 69-C , 70-C ) :   1.2592 B( 69-C , 75-C ) :   1.2431
B( 70-C , 71-C ) :   1.2034 B( 70-C , 72-C ) :   1.2400 B( 71-C , 91-H ) :   0.9908
B( 72-C , 73-C ) :   1.4890 B( 72-C , 92-H ) :   0.9974 B( 73-C , 74-C ) :   1.2613
B( 73-C , 93-H ) :   0.9877 B( 74-C , 75-C ) :   1.4899 B( 74-C , 94-H ) :   0.9877
B( 75-C , 95-H ) :   0.9979

-----------------------------------------------------------------------------
         ABSORPTION SPECTRUM VIA TRANSITION ELECTRIC DIPOLE MOMENTS
-----------------------------------------------------------------------------
State   Energy  Wavelength   fosc         T2         TX        TY        TZ
        (cm-1)    (nm)                  (au**2)     (au)      (au)      (au)
-----------------------------------------------------------------------------
   0   17697.1    565.1   2.236243198  41.59994   4.90065  -3.50067  -2.30843
   1   19574.7    510.9   0.768421673  12.92352   1.17817   1.63139   2.97893
   2   24963.2    400.6   0.259940925   3.42807   0.34635   1.28409   1.28812
   3   25053.5    399.1   0.186057043   2.44486   0.98303   0.48811   1.11367
   4   26217.1    381.4   0.133227876   1.67296   0.88727  -0.86535  -0.36996
   5   26798.0    373.2   0.037710073   0.46327  -0.21041  -0.23514  -0.60308
   6   27202.8    367.6   0.359863123   4.35511   1.13412  -1.20727  -1.26940
   7   27448.9    364.3   0.173599855   2.08209  -0.69590  -0.63519  -1.09286
   8   28048.1    356.5   0.066888424   0.78510   0.61126  -0.18621   0.61383
   9   28463.1    351.3   0.042871281   0.49586  -0.05301  -0.35343  -0.60674
  10   29008.4    344.7   0.025202913   0.28602   0.29850   0.08354   0.43583
  11   29418.7    339.9   0.018547843   0.20756   0.18603  -0.28965  -0.29842
  12   29702.9    336.7   0.047189711   0.52303  -0.38143  -0.10009  -0.60624
  13   30785.2    324.8   0.076669635   0.81989   0.00057   0.53649   0.72944
  14   31062.0    321.9   0.019976121   0.21172  -0.44105  -0.11974  -0.05345
  15   31577.8    316.7   0.000642533   0.00670   0.07136  -0.01621  -0.03666
  16   31802.9    314.4   0.004291187   0.04442   0.18337  -0.03591   0.09751
  17   32720.6    305.6   0.029321682   0.29501  -0.46747   0.19941  -0.19163
  18   33059.4    302.5   0.148753125   1.48131  -0.10502   0.98591   0.70588
  19   33271.1    300.6   0.111903241   1.10726  -1.05137   0.04246   0.00857
  20   33588.8    297.7   0.002973467   0.02914  -0.01809   0.15381   0.07183
  21   33741.4    296.4   1.033872190  10.08739  -0.48059  -1.01652  -2.97037
  22   34018.3    294.0   0.717745385   6.94598  -0.32519   1.54540   2.10997
  23   34705.1    288.1   0.011461346   0.10872   0.02045  -0.11894  -0.30685
  24   34744.8    287.8   0.006333375   0.06001   0.02198   0.01118   0.24372
  25   34848.5    287.0   0.005366143   0.05069   0.03320  -0.03083   0.22055
  26   35207.4    284.0   0.114780350   1.07327  -1.00259   0.26093  -0.00069
  27   35837.5    279.0   0.014475341   0.13297   0.02596  -0.26059  -0.25375
  28   35994.0    277.8   0.131661192   1.20421   0.27706  -0.52151  -0.92492
  29   36659.7    272.8   0.047665263   0.42804   0.62793  -0.02398   0.18213
  30   36894.9    271.0   0.006126234   0.05466   0.07307  -0.08500  -0.20518
  31   37251.3    268.4   0.086575017   0.76512  -0.62421  -0.34162  -0.50870
  32   37416.8    267.3   0.043295173   0.38093  -0.40513   0.38150   0.26695
  33   38047.2    262.8   0.022014221   0.19048  -0.02148   0.11123   0.42149
  34   38195.0    261.8   0.027941842   0.24084  -0.13515   0.35943   0.30559
  35   38506.5    259.7   0.021816560   0.18652   0.35458  -0.03652   0.24384
  36   38776.9    257.9   0.098340785   0.83490  -0.60346  -0.35455  -0.58740
  37   39114.9    255.7   0.417853361   3.51688  -1.82278   0.23728  -0.37155
  38   39167.5    255.3   0.069709941   0.58593   0.23061   0.33535   0.64830
  39   39260.3    254.7   0.063577943   0.53312   0.52493  -0.40959  -0.29968
  40   39681.8    252.0   0.031263108   0.25937  -0.09536   0.27227   0.41969
  41   39760.2    251.5   0.021374571   0.17698   0.27426   0.21661   0.23417
  42   39873.3    250.8   0.047605360   0.39305   0.57674  -0.01036   0.24559
  43   40256.4    248.4   0.001597660   0.01307  -0.11013  -0.02968   0.00742

FINAL SINGLE POINT ENERGY     -7737.109068511059

DIPOLE MOMENT
-------------
                                X             Y             Z
Electronic contribution:    -15.31846     -41.02147     -76.83345
Nuclear contribution   :     15.52218      41.77314      79.27086
                        -----------------------------------------
Total Dipole Moment    :      0.20372       0.75166       2.43741
                        -----------------------------------------
Magnitude (a.u.)       :      2.55880
Magnitude (Debye)      :      6.50396

Rotational constants in cm-1:     0.000974     0.000153     0.000134
Rotational constants in MHz :    29.185365     4.597885     4.004451

                             ****ORCA TERMINATED NORMALLY****
TOTAL RUN TIME: 0 days 0 hours 9 minutes 39 seconds 614 msec
