                         Program Version 4.2.0 -  RELEASE  -
|  1> # ORCA input file
|  2> # SCF done       -180.224086514273          0.000475184445
|  3> ! CAM-B3LYP def2-SVP def2/J RIJCOSX Grid4 TightSCF
|  4> %maxcore 5000
|  5> %tddft
|  6>     Mode sTDDFT
|  7>     Ethresh 5.0
|  8>     maxcore 5000
|  9> end
| 10>
| 11> %pal
| 12>   nprocs 6
| 13>   end
| 14> * xyz 0 1
| 15>    C       -5.89770        -0.99209         2.21321
| 16>    O       -5.22974        -1.91280         2.62482
| 17>    C       -6.65577        -0.01494         3.01979
| 18>    C       -7.04126         1.06703         2.20875
| 19>    C       -7.79893         2.09392         2.75548
| 20>    C       -8.17473         2.01053         4.08803
| 21>    C       -7.78219         0.92975         4.86651
| 22>    C       -6.99719        -0.09248         4.35304
| 23>   Br       -8.35258         0.82950         6.67190
| 24>    C       -6.54903         0.84154         0.85093
| 25>    C       -6.60796         1.74115        -0.17889
| 26>    C       -7.14771         3.03997        -0.06179
| 27>    N       -7.56786         4.10706        -0.02374
| 28>    C       -6.10368         1.51337        -1.47682
| 29>    N       -5.71051         1.39151        -2.54843
| 30>    C       -6.00783        -0.50637         0.80982
| 31>    C       -5.63720        -1.22618        -0.28290
| 32>    C       -5.41988        -2.64059        -0.26398
| 33>    C       -4.52032        -3.28718        -1.09904
| 34>    C       -4.26398        -4.65678        -1.02945
| 35>    C       -4.90901        -5.52140        -0.15054
| 36>    C       -5.93124        -4.91414         0.64343
| 37>    C       -6.17522        -3.49608         0.58266
| 38>    N       -7.20416        -3.23967         1.36402
| 39>    O       -7.57217        -4.39859         1.89403
| 40>    N       -6.81901        -5.41689         1.47975
| 41>    C       -4.56809        -6.90442        -0.00221
| 42>    C       -5.18672        -7.69810         0.93670
| 43>    C       -4.84840        -9.01103         1.23507
| 44>    C       -3.90180        -9.75780         0.39968
| 45>    C       -3.18739        -9.19111        -0.59832
| 46>    S       -3.27355        -7.53000        -1.02096
| 47>    C       -3.94228       -11.09183         0.89073
| 48>    C       -4.82431       -11.16834         1.97482
| 49>    C       -4.88812       -12.47143         2.51697
| 50>    C       -4.07849       -13.33057         1.84591
| 51>    S       -3.20266       -12.60088         0.54052
| 52>    C       -5.37401        -9.86707         2.22850
| 53>    C       -6.24500        -9.53166         3.29671
| 54>    C       -6.40105        -8.26811         3.77232
| 55>    C       -7.32521        -7.82514         4.74888
| 56>    C       -8.22750        -8.50430         5.54513
| 57>    C       -8.97594        -7.65467         6.35718
| 58>   Cl      -10.16289        -8.22741         7.45462
| 59>    C       -8.69212        -6.30004         6.19574
| 60>    S       -7.43803        -6.10876         5.00840
| 61>    C       -9.28109        -5.19264         6.84678
| 62>    C       -9.08572        -3.83633         6.59139
| 63>   Cl       -8.06437        -3.27123         5.33815
| 64>    C       -9.79853        -2.98661         7.43131
| 65>    C      -10.59461        -3.66156         8.33851
| 66>    S      -10.40138        -5.38665         8.15571
| 67>    C      -11.37654        -3.07548         9.35809
| 68>    C      -12.33680        -3.64585        10.13825
| 69>    C      -12.67336        -3.03929        11.45338
| 70>    O      -12.39029        -1.93192        11.84324
| 71>    C      -13.36995        -4.11501        12.19825
| 72>    C      -13.56673        -5.22308        11.35319
| 73>    C      -13.07470        -4.88599        10.01992
| 74>    C      -13.48723        -5.47379         8.85350
| 75>    C      -14.27219        -6.64244         8.79843
| 76>    N      -14.89140        -7.60438         8.70522
| 77>    C      -13.24826        -4.91130         7.58152
| 78>    N      -13.12374        -4.45218         6.53718
| 79>    C      -14.17594        -6.36732        11.84506
| 80>    C      -14.58414        -6.38675        13.17003
| 81>    C      -14.39327        -5.27769        13.98426
| 82>    C      -13.78189        -4.12254        13.51488
| 83>   Br      -14.98066        -5.34799        15.78927
| 84>    H       -8.11440         2.94107         2.16876
| 85>    H       -8.78186         2.79004         4.52268
| 86>    H       -6.68027        -0.92752         4.95727
| 87>    H       -5.52021        -0.73763        -1.24137
| 88>    H       -3.94844        -2.69362        -1.79712
| 89>    H       -3.50352        -5.06105        -1.68137
| 90>    H       -6.01405        -7.24595         1.46009
| 91>    H       -2.48026        -9.74518        -1.19549
| 92>    H       -5.49828       -12.76094         3.35295
| 93>    H       -3.92959       -14.37580         2.03429
| 94>    H       -6.78475       -10.34828         3.75703
| 95>    H       -5.76835        -7.48317         3.38662
| 96>    H       -8.33986        -9.57207         5.55419
| 97>    H       -9.75647        -1.91452         7.36776
| 98>    H      -11.11102        -2.05519         9.61816
| 99>    H      -14.32532        -7.23730        11.22620
|100>    H      -15.05516        -7.26965        13.57415
|101>    H      -13.63179        -3.26064        14.14632
|102> *
|103>
|104>                          ****END OF INPUT****

CARTESIAN COORDINATES (ANGSTROEM)
---------------------------------
  C     -5.897700   -0.992090    2.213210
  O     -5.229740   -1.912800    2.624820
  C     -6.655770   -0.014940    3.019790
  C     -7.041260    1.067030    2.208750
  C     -7.798930    2.093920    2.755480
  C     -8.174730    2.010530    4.088030
  C     -7.782190    0.929750    4.866510
  C     -6.997190   -0.092480    4.353040
  Br    -8.352580    0.829500    6.671900
  C     -6.549030    0.841540    0.850930
  C     -6.607960    1.741150   -0.178890
  C     -7.147710    3.039970   -0.061790
  N     -7.567860    4.107060   -0.023740
  C     -6.103680    1.513370   -1.476820
  N     -5.710510    1.391510   -2.548430
  C     -6.007830   -0.506370    0.809820
  C     -5.637200   -1.226180   -0.282900
  C     -5.419880   -2.640590   -0.263980
  C     -4.520320   -3.287180   -1.099040
  C     -4.263980   -4.656780   -1.029450
  C     -4.909010   -5.521400   -0.150540
  C     -5.931240   -4.914140    0.643430
  C     -6.175220   -3.496080    0.582660
  N     -7.204160   -3.239670    1.364020
  O     -7.572170   -4.398590    1.894030
  N     -6.819010   -5.416890    1.479750
  C     -4.568090   -6.904420   -0.002210
  C     -5.186720   -7.698100    0.936700
  C     -4.848400   -9.011030    1.235070
  C     -3.901800   -9.757800    0.399680
  C     -3.187390   -9.191110   -0.598320
  S     -3.273550   -7.530000   -1.020960
  C     -3.942280  -11.091830    0.890730
  C     -4.824310  -11.168340    1.974820
  C     -4.888120  -12.471430    2.516970
  C     -4.078490  -13.330570    1.845910
  S     -3.202660  -12.600880    0.540520
  C     -5.374010   -9.867070    2.228500
  C     -6.245000   -9.531660    3.296710
  C     -6.401050   -8.268110    3.772320
  C     -7.325210   -7.825140    4.748880
  C     -8.227500   -8.504300    5.545130
  C     -8.975940   -7.654670    6.357180
  Cl   -10.162890   -8.227410    7.454620
  C     -8.692120   -6.300040    6.195740
  S     -7.438030   -6.108760    5.008400
  C     -9.281090   -5.192640    6.846780
  C     -9.085720   -3.836330    6.591390
  Cl    -8.064370   -3.271230    5.338150
  C     -9.798530   -2.986610    7.431310
  C    -10.594610   -3.661560    8.338510
  S    -10.401380   -5.386650    8.155710
  C    -11.376540   -3.075480    9.358090
  C    -12.336800   -3.645850   10.138250
  C    -12.673360   -3.039290   11.453380
  O    -12.390290   -1.931920   11.843240
  C    -13.369950   -4.115010   12.198250
  C    -13.566730   -5.223080   11.353190
  C    -13.074700   -4.885990   10.019920
  C    -13.487230   -5.473790    8.853500
  C    -14.272190   -6.642440    8.798430
  N    -14.891400   -7.604380    8.705220
  C    -13.248260   -4.911300    7.581520
  N    -13.123740   -4.452180    6.537180
  C    -14.175940   -6.367320   11.845060
  C    -14.584140   -6.386750   13.170030
  C    -14.393270   -5.277690   13.984260
  C    -13.781890   -4.122540   13.514880
  Br   -14.980660   -5.347990   15.789270
  H     -8.114400    2.941070    2.168760
  H     -8.781860    2.790040    4.522680
  H     -6.680270   -0.927520    4.957270
  H     -5.520210   -0.737630   -1.241370
  H     -3.948440   -2.693620   -1.797120
  H     -3.503520   -5.061050   -1.681370
  H     -6.014050   -7.245950    1.460090
  H     -2.480260   -9.745180   -1.195490
  H     -5.498280  -12.760940    3.352950
  H     -3.929590  -14.375800    2.034290
  H     -6.784750  -10.348280    3.757030
  H     -5.768350   -7.483170    3.386620
  H     -8.339860   -9.572070    5.554190
  H     -9.756470   -1.914520    7.367760
  H    -11.111020   -2.055190    9.618160
  H    -14.325320   -7.237300   11.226200
  H    -15.055160   -7.269650   13.574150
  H    -13.631790   -3.260640   14.146320

 Total Charge           Charge          ....    0
 Multiplicity           Mult            ....    1
 Number of Electrons    NEL             ....  564
 Basis Dimension        Dim             .... 1116

ORBITAL ENERGIES
----------------

  NO   OCC          E(Eh)            E(eV)
   0   2.0000    -482.879267    -13139.8129
   1   2.0000    -482.870680    -13139.5792
   2   2.0000    -101.604766     -2764.8062
   3   2.0000    -101.603864     -2764.7817
   4   2.0000     -88.982532     -2421.3378
   5   2.0000     -88.973205     -2421.0840
   6   2.0000     -88.968345     -2420.9517
   7   2.0000     -88.965997     -2420.8879
   8   2.0000     -62.556730     -1702.2552
   9   2.0000     -62.548409     -1702.0287
  10   2.0000     -56.390560     -1534.4651
  11   2.0000     -56.388115     -1534.3986
  12   2.0000     -56.388020     -1534.3960
  13   2.0000     -56.382246     -1534.2389
  14   2.0000     -56.379720     -1534.1702
  15   2.0000     -56.379716     -1534.1701
  16   2.0000     -19.365665      -526.9665
  17   2.0000     -19.222778      -523.0784
  18   2.0000     -19.216859      -522.9173
  19   2.0000     -14.492729      -394.3672
  20   2.0000     -14.488381      -394.2489
  21   2.0000     -14.424136      -392.5007
  22   2.0000     -14.420880      -392.4121
  23   2.0000     -14.415473      -392.2650
  24   2.0000     -14.411034      -392.1442
  25   2.0000     -10.374541      -282.3056
  26   2.0000     -10.368373      -282.1378
  27   2.0000     -10.351155      -281.6693
  28   2.0000     -10.349534      -281.6251
  29   2.0000     -10.348898      -281.6078
  30   2.0000     -10.343629      -281.4645
  31   2.0000     -10.343337      -281.4565
  32   2.0000     -10.341647      -281.4105
  33   2.0000     -10.341420      -281.4044
  34   2.0000     -10.340171      -281.3704
  35   2.0000     -10.338212      -281.3170
  36   2.0000     -10.338199      -281.3167
  37   2.0000     -10.335875      -281.2535
  38   2.0000     -10.334492      -281.2158
  39   2.0000     -10.332762      -281.1688
  40   2.0000     -10.330380      -281.1039
  41   2.0000     -10.326160      -280.9891
  42   2.0000     -10.324773      -280.9513
  43   2.0000     -10.323754      -280.9236
  44   2.0000     -10.323177      -280.9079
  45   2.0000     -10.322176      -280.8807
  46   2.0000     -10.317811      -280.7619
  47   2.0000     -10.316125      -280.7160
  48   2.0000     -10.315794      -280.7070
  49   2.0000     -10.315685      -280.7041
  50   2.0000     -10.315083      -280.6877
  51   2.0000     -10.315068      -280.6873
  52   2.0000     -10.313018      -280.6315
  53   2.0000     -10.310068      -280.5512
  54   2.0000     -10.308111      -280.4980
  55   2.0000     -10.307678      -280.4862
  56   2.0000     -10.307281      -280.4754
  57   2.0000     -10.306533      -280.4550
  58   2.0000     -10.306488      -280.4538
  59   2.0000     -10.306417      -280.4519
  60   2.0000     -10.305507      -280.4271
  61   2.0000     -10.303497      -280.3724
  62   2.0000     -10.303132      -280.3625
  63   2.0000     -10.302357      -280.3414
  64   2.0000     -10.301872      -280.3282
  65   2.0000     -10.300976      -280.3038
  66   2.0000     -10.300666      -280.2954
  67   2.0000     -10.299086      -280.2524
  68   2.0000     -10.298602      -280.2392
  69   2.0000     -10.296315      -280.1770
  70   2.0000     -10.292305      -280.0679
  71   2.0000     -10.292040      -280.0606
  72   2.0000     -10.290951      -280.0310
  73   2.0000     -10.290800      -280.0269
  74   2.0000     -10.288838      -279.9735
  75   2.0000     -10.284247      -279.8486
  76   2.0000     -10.283530      -279.8291
  77   2.0000      -9.559144      -260.1175
  78   2.0000      -9.558546      -260.1013
  79   2.0000      -8.785926      -239.0772
  80   2.0000      -8.777701      -238.8534
  81   2.0000      -8.077777      -219.8075
  82   2.0000      -8.067491      -219.5276
  83   2.0000      -8.063182      -219.4103
  84   2.0000      -8.061461      -219.3635
  85   2.0000      -7.329235      -199.4386
  86   2.0000      -7.328633      -199.4222
  87   2.0000      -7.319226      -199.1663
  88   2.0000      -7.319182      -199.1651
  89   2.0000      -7.318661      -199.1509
  90   2.0000      -7.318551      -199.1479
  91   2.0000      -6.621651      -180.1843
  92   2.0000      -6.613558      -179.9641
  93   2.0000      -6.608156      -179.8171
  94   2.0000      -6.607612      -179.8023
  95   2.0000      -6.599798      -179.5896
  96   2.0000      -6.599381      -179.5783
  97   2.0000      -6.047355      -164.5569
  98   2.0000      -6.042845      -164.4342
  99   2.0000      -6.039621      -164.3464
 100   2.0000      -6.037023      -164.2758
 101   2.0000      -6.032666      -164.1572
 102   2.0000      -6.032592      -164.1552
 103   2.0000      -6.030917      -164.1096
 104   2.0000      -6.029276      -164.0650
 105   2.0000      -6.028291      -164.0381
 106   2.0000      -6.026631      -163.9930
 107   2.0000      -6.025119      -163.9518
 108   2.0000      -6.023473      -163.9070
 109   2.0000      -2.737593       -74.4937
 110   2.0000      -2.733969       -74.3951
 111   2.0000      -2.733546       -74.3836
 112   2.0000      -2.729454       -74.2722
 113   2.0000      -2.725712       -74.1704
 114   2.0000      -2.725446       -74.1632
 115   2.0000      -2.722824       -74.0918
 116   2.0000      -2.722798       -74.0911
 117   2.0000      -2.714488       -73.8650
 118   2.0000      -2.714467       -73.8644
 119   2.0000      -1.319655       -35.9096
 120   2.0000      -1.139339       -31.0030
 121   2.0000      -1.132622       -30.8202
 122   2.0000      -1.031079       -28.0571
 123   2.0000      -1.026292       -27.9268
 124   2.0000      -1.025677       -27.9101
 125   2.0000      -1.019022       -27.7290
 126   2.0000      -1.017839       -27.6968
 127   2.0000      -1.012082       -27.5402
 128   2.0000      -1.007184       -27.4069
 129   2.0000      -1.006236       -27.3811
 130   2.0000      -1.000499       -27.2250
 131   2.0000      -0.999848       -27.2073
 132   2.0000      -0.991518       -26.9806
 133   2.0000      -0.978933       -26.6381
 134   2.0000      -0.969700       -26.3869
 135   2.0000      -0.968559       -26.3558
 136   2.0000      -0.961741       -26.1703
 137   2.0000      -0.954837       -25.9824
 138   2.0000      -0.941117       -25.6091
 139   2.0000      -0.933588       -25.4042
 140   2.0000      -0.922655       -25.1067
 141   2.0000      -0.916664       -24.9437
 142   2.0000      -0.910561       -24.7776
 143   2.0000      -0.907807       -24.7027
 144   2.0000      -0.902130       -24.5482
 145   2.0000      -0.894271       -24.3344
 146   2.0000      -0.884481       -24.0679
 147   2.0000      -0.879367       -23.9288
 148   2.0000      -0.864875       -23.5345
 149   2.0000      -0.862857       -23.4795
 150   2.0000      -0.853274       -23.2188
 151   2.0000      -0.848177       -23.0801
 152   2.0000      -0.845411       -23.0048
 153   2.0000      -0.830253       -22.5923
 154   2.0000      -0.823442       -22.4070
 155   2.0000      -0.814449       -22.1623
 156   2.0000      -0.809116       -22.0172
 157   2.0000      -0.797063       -21.6892
 158   2.0000      -0.779576       -21.2133
 159   2.0000      -0.774298       -21.0697
 160   2.0000      -0.771954       -21.0059
 161   2.0000      -0.766277       -20.8515
 162   2.0000      -0.765216       -20.8226
 163   2.0000      -0.760327       -20.6895
 164   2.0000      -0.739358       -20.1189
 165   2.0000      -0.730122       -19.8676
 166   2.0000      -0.714784       -19.4502
 167   2.0000      -0.708518       -19.2798
 168   2.0000      -0.698632       -19.0108
 169   2.0000      -0.698151       -18.9976
 170   2.0000      -0.696132       -18.9427
 171   2.0000      -0.687258       -18.7012
 172   2.0000      -0.683586       -18.6013
 173   2.0000      -0.676121       -18.3982
 174   2.0000      -0.666708       -18.1420
 175   2.0000      -0.661678       -18.0052
 176   2.0000      -0.653903       -17.7936
 177   2.0000      -0.647634       -17.6230
 178   2.0000      -0.639879       -17.4120
 179   2.0000      -0.635499       -17.2928
 180   2.0000      -0.632074       -17.1996
 181   2.0000      -0.624139       -16.9837
 182   2.0000      -0.620379       -16.8814
 183   2.0000      -0.618101       -16.8194
 184   2.0000      -0.618060       -16.8183
 185   2.0000      -0.616320       -16.7709
 186   2.0000      -0.610796       -16.6206
 187   2.0000      -0.600849       -16.3499
 188   2.0000      -0.594727       -16.1833
 189   2.0000      -0.589629       -16.0446
 190   2.0000      -0.586068       -15.9477
 191   2.0000      -0.582296       -15.8451
 192   2.0000      -0.582100       -15.8398
 193   2.0000      -0.572293       -15.5729
 194   2.0000      -0.567748       -15.4492
 195   2.0000      -0.556518       -15.1436
 196   2.0000      -0.553390       -15.0585
 197   2.0000      -0.552119       -15.0239
 198   2.0000      -0.548654       -14.9296
 199   2.0000      -0.543235       -14.7822
 200   2.0000      -0.542391       -14.7592
 201   2.0000      -0.540013       -14.6945
 202   2.0000      -0.537844       -14.6355
 203   2.0000      -0.536973       -14.6118
 204   2.0000      -0.532127       -14.4799
 205   2.0000      -0.530205       -14.4276
 206   2.0000      -0.528394       -14.3783
 207   2.0000      -0.527536       -14.3550
 208   2.0000      -0.525123       -14.2893
 209   2.0000      -0.524337       -14.2679
 210   2.0000      -0.519561       -14.1380
 211   2.0000      -0.515748       -14.0342
 212   2.0000      -0.512416       -13.9436
 213   2.0000      -0.510407       -13.8889
 214   2.0000      -0.506420       -13.7804
 215   2.0000      -0.503088       -13.6897
 216   2.0000      -0.501375       -13.6431
 217   2.0000      -0.499923       -13.6036
 218   2.0000      -0.498240       -13.5578
 219   2.0000      -0.493862       -13.4387
 220   2.0000      -0.490046       -13.3348
 221   2.0000      -0.486057       -13.2263
 222   2.0000      -0.485165       -13.2020
 223   2.0000      -0.481292       -13.0966
 224   2.0000      -0.477734       -12.9998
 225   2.0000      -0.474211       -12.9039
 226   2.0000      -0.472138       -12.8475
 227   2.0000      -0.471010       -12.8168
 228   2.0000      -0.465845       -12.6763
 229   2.0000      -0.464085       -12.6284
 230   2.0000      -0.459254       -12.4969
 231   2.0000      -0.457587       -12.4516
 232   2.0000      -0.456690       -12.4272
 233   2.0000      -0.455283       -12.3889
 234   2.0000      -0.453900       -12.3513
 235   2.0000      -0.451314       -12.2809
 236   2.0000      -0.449538       -12.2325
 237   2.0000      -0.446700       -12.1553
 238   2.0000      -0.443908       -12.0794
 239   2.0000      -0.443100       -12.0574
 240   2.0000      -0.441333       -12.0093
 241   2.0000      -0.440957       -11.9990
 242   2.0000      -0.440214       -11.9788
 243   2.0000      -0.438351       -11.9281
 244   2.0000      -0.433957       -11.8086
 245   2.0000      -0.432537       -11.7699
 246   2.0000      -0.430927       -11.7261
 247   2.0000      -0.425405       -11.5759
 248   2.0000      -0.424638       -11.5550
 249   2.0000      -0.423903       -11.5350
 250   2.0000      -0.422049       -11.4845
 251   2.0000      -0.416691       -11.3387
 252   2.0000      -0.415698       -11.3117
 253   2.0000      -0.415280       -11.3003
 254   2.0000      -0.410748       -11.1770
 255   2.0000      -0.407556       -11.0902
 256   2.0000      -0.397727       -10.8227
 257   2.0000      -0.396664       -10.7938
 258   2.0000      -0.391983       -10.6664
 259   2.0000      -0.391066       -10.6415
 260   2.0000      -0.387016       -10.5312
 261   2.0000      -0.378537       -10.3005
 262   2.0000      -0.375903       -10.2288
 263   2.0000      -0.374863       -10.2006
 264   2.0000      -0.371298       -10.1035
 265   2.0000      -0.365788        -9.9536
 266   2.0000      -0.361185        -9.8284
 267   2.0000      -0.354676        -9.6512
 268   2.0000      -0.351607        -9.5677
 269   2.0000      -0.350176        -9.5288
 270   2.0000      -0.344984        -9.3875
 271   2.0000      -0.342446        -9.3184
 272   2.0000      -0.337335        -9.1793
 273   2.0000      -0.329226        -8.9587
 274   2.0000      -0.320697        -8.7266
 275   2.0000      -0.318108        -8.6562
 276   2.0000      -0.316486        -8.6120
 277   2.0000      -0.307986        -8.3807
 278   2.0000      -0.305789        -8.3209
 279   2.0000      -0.286295        -7.7905
 280   2.0000      -0.268060        -7.2943
 281   2.0000      -0.232661        -6.3310
 282   0.0000      -0.112686        -3.0663
 283   0.0000      -0.094100        -2.5606
 284   0.0000      -0.076747        -2.0884
 285   0.0000      -0.064136        -1.7452
 286   0.0000      -0.058020        -1.5788

MULLIKEN ATOMIC CHARGES
-----------------------
   0 C :    0.140489
   1 O :   -0.143627
   2 C :   -0.003906
   3 C :    0.045017
   4 C :   -0.030373
   5 C :    0.050669
   6 C :   -0.004662
   7 C :   -0.010956
   8 Br:   -0.014168
   9 C :    0.293607
  10 C :   -0.342890
  11 C :   -0.185580
  12 N :    0.158950
  13 C :   -0.176914
  14 N :    0.150677
  15 C :   -0.068784
  16 C :   -0.033230
  17 C :    0.078107
  18 C :   -0.006198
  19 C :   -0.071068
  20 C :    0.126719
  21 C :   -0.020784
  22 C :   -0.012572
  23 N :    0.046746
  24 O :   -0.081065
  25 N :    0.019391
  26 C :   -0.089425
  27 C :   -0.073709
  28 C :    0.037382
  29 C :    0.071706
  30 C :   -0.118908
  31 S :    0.109787
  32 C :   -0.105059
  33 C :    0.052364
  34 C :    0.012821
  35 C :   -0.067942
  36 S :    0.135754
  37 C :    0.078051
  38 C :   -0.016722
  39 C :    0.064868
  40 C :   -0.068944
  41 C :    0.005022
  42 C :    0.070990
  43 Cl:   -0.056899
  44 C :   -0.106781
  45 S :    0.171359
  46 C :   -0.069255
  47 C :    0.070948
  48 Cl:   -0.047637
  49 C :    0.057159
  50 C :   -0.083501
  51 S :    0.164176
  52 C :    0.066683
  53 C :   -0.140726
  54 C :    0.141427
  55 O :   -0.136710
  56 C :   -0.009888
  57 C :    0.022627
  58 C :    0.244159
  59 C :   -0.316027
  60 C :   -0.176147
  61 N :    0.154402
  62 C :   -0.210055
  63 N :    0.179416
  64 C :   -0.025200
  65 C :    0.050841
  66 C :   -0.005427
  67 C :   -0.016110
  68 Br:   -0.022001
  69 H :    0.010586
  70 H :    0.007549
  71 H :   -0.006063
  72 H :    0.023931
  73 H :    0.001473
  74 H :    0.008131
  75 H :    0.013261
  76 H :    0.038881
  77 H :   -0.015751
  78 H :    0.030605
  79 H :   -0.017647
  80 H :   -0.005873
  81 H :   -0.018062
  82 H :   -0.017039
  83 H :    0.024007
  84 H :    0.010366
  85 H :    0.005065
  86 H :    0.004117
Sum of atomic charges:   -0.0000000

LOEWDIN ATOMIC CHARGES
----------------------
   0 C :    0.083793
   1 O :   -0.134400
   2 C :   -0.031504
   3 C :   -0.013739
   4 C :    0.009471
   5 C :   -0.011215
   6 C :   -0.097500
   7 C :   -0.001398
   8 Br:    0.122957
   9 C :    0.076862
  10 C :   -0.131854
  11 C :   -0.019289
  12 N :   -0.045016
  13 C :   -0.017871
  14 N :   -0.047152
  15 C :   -0.075815
  16 C :    0.069421
  17 C :   -0.044855
  18 C :    0.027693
  19 C :   -0.035078
  20 C :   -0.014923
  21 C :   -0.037032
  22 C :   -0.035874
  23 N :   -0.014081
  24 O :    0.083925
  25 N :   -0.028913
  26 C :   -0.179883
  27 C :    0.001492
  28 C :   -0.027463
  29 C :   -0.051644
  30 C :   -0.132855
  31 S :    0.447522
  32 C :   -0.195449
  33 C :   -0.042780
  34 C :   -0.060946
  35 C :   -0.161760
  36 S :    0.428013
  37 C :   -0.029203
  38 C :   -0.007200
  39 C :   -0.038807
  40 C :   -0.155563
  41 C :   -0.072933
  42 C :   -0.154208
  43 Cl:    0.164693
  44 C :   -0.223618
  45 S :    0.471747
  46 C :   -0.176380
  47 C :   -0.179331
  48 Cl:    0.181812
  49 C :   -0.022048
  50 C :   -0.189931
  51 S :    0.484029
  52 C :    0.055536
  53 C :   -0.103947
  54 C :    0.083796
  55 O :   -0.137943
  56 C :   -0.039564
  57 C :   -0.011932
  58 C :    0.058683
  59 C :   -0.139728
  60 C :   -0.020083
  61 N :   -0.050207
  62 C :   -0.038532
  63 N :   -0.043171
  64 C :    0.004769
  65 C :   -0.012584
  66 C :   -0.099957
  67 C :    0.000071
  68 Br:    0.113753
  69 H :    0.043415
  70 H :    0.041435
  71 H :    0.030321
  72 H :    0.046673
  73 H :    0.042173
  74 H :    0.028334
  75 H :    0.037017
  76 H :    0.037852
  77 H :    0.031594
  78 H :    0.025071
  79 H :    0.029764
  80 H :    0.029783
  81 H :    0.032754
  82 H :    0.032229
  83 H :    0.051976
  84 H :    0.042560
  85 H :    0.039911
  86 H :    0.044264

  Mayer bond orders larger than 0.100000
B(  0-C ,  1-O ) :   2.2391 B(  0-C ,  2-C ) :   0.9330 B(  0-C , 15-C ) :   0.9273
B(  2-C ,  3-C ) :   1.3319 B(  2-C ,  7-C ) :   1.3806 B(  3-C ,  4-C ) :   1.3590
B(  3-C ,  9-C ) :   0.9983 B(  4-C ,  5-C ) :   1.3875 B(  4-C , 69-H ) :   0.9843
B(  5-C ,  6-C ) :   1.3858 B(  5-C , 70-H ) :   0.9856 B(  6-C ,  7-C ) :   1.3428
B(  6-C ,  8-Br) :   0.9948 B(  7-C , 71-H ) :   0.9971 B(  9-C , 10-C ) :   1.6520
B(  9-C , 15-C ) :   1.0651 B( 10-C , 11-C ) :   1.1358 B( 10-C , 13-C ) :   1.1414
B( 11-C , 12-N ) :   2.9817 B( 13-C , 14-N ) :   2.9662 B( 15-C , 16-C ) :   1.6648
B( 16-C , 17-C ) :   1.0915 B( 16-C , 72-H ) :   0.9407 B( 17-C , 18-C ) :   1.4401
B( 17-C , 22-C ) :   1.1393 B( 18-C , 19-C ) :   1.2443 B( 18-C , 73-H ) :   0.9929
B( 19-C , 20-C ) :   1.4414 B( 19-C , 74-H ) :   0.9810 B( 20-C , 21-C ) :   1.1290
B( 20-C , 26-C ) :   1.1729 B( 21-C , 22-C ) :   1.1613 B( 21-C , 25-N ) :   1.5677
B( 22-C , 23-N ) :   1.5871 B( 23-N , 24-O ) :   1.0764 B( 23-N , 25-N ) :   0.1767
B( 24-O , 25-N ) :   1.0633 B( 25-N , 75-H ) :   0.1017 B( 26-C , 27-C ) :   1.5205
B( 26-C , 31-S ) :   1.0237 B( 27-C , 28-C ) :   1.2332 B( 27-C , 75-H ) :   0.9350
B( 28-C , 29-C ) :   1.0587 B( 28-C , 37-C ) :   1.3704 B( 29-C , 30-C ) :   1.6031
B( 29-C , 32-C ) :   1.1760 B( 30-C , 31-S ) :   1.1457 B( 30-C , 76-H ) :   0.9412
B( 32-C , 33-C ) :   1.4267 B( 32-C , 36-S ) :   1.0841 B( 33-C , 34-C ) :   1.2178
B( 33-C , 37-C ) :   1.1089 B( 34-C , 35-C ) :   1.5896 B( 34-C , 77-H ) :   0.9995
B( 35-C , 36-S ) :   1.1505 B( 35-C , 78-H ) :   0.9665 B( 37-C , 38-C ) :   1.1651
B( 38-C , 39-C ) :   1.6573 B( 38-C , 79-H ) :   0.9626 B( 39-C , 40-C ) :   1.1325
B( 39-C , 80-H ) :   0.9468 B( 40-C , 41-C ) :   1.4399 B( 40-C , 45-S ) :   1.1305
B( 41-C , 42-C ) :   1.3014 B( 41-C , 81-H ) :   1.0031 B( 42-C , 43-Cl) :   1.0368
B( 42-C , 44-C ) :   1.4399 B( 44-C , 45-S ) :   1.1245 B( 44-C , 46-C ) :   1.1993
B( 46-C , 47-C ) :   1.4205 B( 46-C , 51-S ) :   1.1609 B( 47-C , 48-Cl) :   1.0288
B( 47-C , 49-C ) :   1.3030 B( 49-C , 50-C ) :   1.4036 B( 49-C , 82-H ) :   1.0038
B( 50-C , 51-S ) :   1.0810 B( 50-C , 52-C ) :   1.1598 B( 52-C , 53-C ) :   1.6281
B( 52-C , 83-H ) :   0.9472 B( 53-C , 54-C ) :   0.9485 B( 53-C , 58-C ) :   1.0355
B( 54-C , 55-O ) :   2.2733 B( 54-C , 56-C ) :   0.9173 B( 56-C , 57-C ) :   1.3347
B( 56-C , 67-C ) :   1.3841 B( 57-C , 58-C ) :   1.0090 B( 57-C , 64-C ) :   1.3726
B( 58-C , 59-C ) :   1.6591 B( 59-C , 60-C ) :   1.1350 B( 59-C , 62-C ) :   1.1471
B( 60-C , 61-N ) :   2.9937 B( 62-C , 63-N ) :   3.0335 B( 64-C , 65-C ) :   1.3783
B( 64-C , 84-H ) :   0.9864 B( 65-C , 66-C ) :   1.3916 B( 65-C , 85-H ) :   0.9850
B( 66-C , 67-C ) :   1.3419 B( 66-C , 68-Br) :   0.9912 B( 67-C , 86-H ) :   1.0072

-----------------------------------------------------------------------------
         ABSORPTION SPECTRUM VIA TRANSITION ELECTRIC DIPOLE MOMENTS
-----------------------------------------------------------------------------
State   Energy  Wavelength   fosc         T2         TX        TY        TZ
        (cm-1)    (nm)                  (au**2)     (au)      (au)      (au)
-----------------------------------------------------------------------------
   0   11498.1    869.7   0.423272327  12.11909   1.02220   2.51804  -2.17571
   1   16746.1    597.2   0.807196959  15.86875   2.62330  -1.87729  -2.33726
   2   19899.1    502.5   0.579827634   9.59273  -1.33538   2.73454   0.57600
   3   20858.0    479.4   0.132718787   2.09476   0.47805  -1.07529  -0.84261
   4   21725.2    460.3   0.009057142   0.13725  -0.14852  -0.03212   0.33787
   5   23234.8    430.4   0.177034132   2.50839  -0.02376  -1.56347  -0.25177
   6   23915.8    418.1   0.081037736   1.11552   0.11590  -0.91992  -0.50580
   7   24571.4    407.0   0.117374566   1.57260  -0.48712   0.76273   0.86808
   8   24858.1    402.3   0.211424894   2.80004  -1.07255   0.86598   0.94855
   9   26654.0    375.2   0.026474232   0.32699  -0.11385   0.55704  -0.06111
  10   27358.8    365.5   0.110531212   1.33004  -0.59191   0.79443   0.59039
  11   27464.3    364.1   0.147998014   1.77404   0.58165   0.20731  -1.18015
  12   27931.1    358.0   0.009018230   0.10629   0.05361   0.00772   0.32150
  13   28506.2    350.8   0.192138832   2.21897   0.23275  -0.60992  -1.33895
  14   29182.0    342.7   0.240685192   2.71525   0.62263  -1.09320  -1.06419
  15   29635.6    337.4   0.006421038   0.07133   0.09951   0.10725   0.22344
  16   30471.6    328.2   0.045640347   0.49309   0.31847   0.28787  -0.55570
  17   30819.0    324.5   0.057567543   0.61494  -0.43070  -0.35555   0.55048
  18   31072.8    321.8   0.016230528   0.17196   0.14119   0.07402   0.38281
  19   31180.0    320.7   0.042970179   0.45370  -0.34406   0.02168   0.57866
  20   31643.4    316.0   0.033281450   0.34625   0.25296  -0.31336   0.42904
  21   31931.8    313.2   0.043001802   0.44334   0.37226  -0.50861  -0.21466
  22   32179.2    310.8   0.022828359   0.23355   0.03163   0.48110  -0.03306
  23   32304.2    309.6   0.043464626   0.44295   0.09435   0.61415   0.23847
  24   32693.3    305.9   0.048871690   0.49212  -0.26973  -0.53453  -0.36558
  25   32950.0    303.5   0.213578026   2.13391   0.54137  -0.73506  -1.14041
  26   33181.1    301.4   0.173053289   1.71698   0.43818   0.63134  -1.06131
  27   33405.1    299.4   0.081679512   0.80496  -0.03105  -0.77912  -0.44381
  28   34039.4    293.8   0.103293394   0.99900   0.13220   0.40340  -0.90487
  29   34151.2    292.8   0.042229151   0.40708   0.25068   0.52144  -0.26896
  30   34496.0    289.9   0.083202423   0.79404  -0.17487  -0.83083  -0.27051
  31   34949.2    286.1   0.265551147   2.50142  -0.08624   0.05396   1.57831
  32   35070.0    285.1   0.020330124   0.19084   0.21387   0.17634  -0.33765
  33   35341.4    283.0   0.496021174   4.62053   0.39491   0.90400  -1.90981
  34   35594.3    280.9   0.249821058   2.31060   0.11931   0.72067  -1.33304
  35   35687.3    280.2   0.018024010   0.16627   0.09512   0.35187  -0.18279
  36   36113.4    276.9   0.016131061   0.14705   0.06510  -0.20765   0.31575
  37   36230.4    276.0   0.082391456   0.74866   0.15549   0.51365  -0.67871
  38   36828.5    271.5   0.097206641   0.86893   0.50294   0.66421  -0.41810
  39   36894.5    271.0   0.076097260   0.67902  -0.25951  -0.61459   0.48369
  40   37083.4    269.7   0.046557662   0.41332   0.07460   0.54220  -0.33731
  41   37490.0    266.7   0.077346639   0.67921   0.17350  -0.50475  -0.62796
  42   37594.1    266.0   0.174382418   1.52707   0.10851   0.39266   1.16667
  43   37892.0    263.9   0.128426249   1.11579   0.30474   0.92213  -0.41546
  44   37985.5    263.3   0.043991609   0.38127   0.34607  -0.50154   0.09979
  45   38225.5    261.6   0.076977739   0.66296  -0.13472   0.65524  -0.46419
  46   38591.2    259.1   0.021536740   0.18372   0.00467   0.38679  -0.18464
  47   38947.7    256.8   0.115944744   0.98004   0.23205  -0.96006   0.06694
  48   39377.3    254.0   0.028620252   0.23928  -0.13924   0.15871   0.44125
  49   39529.2    253.0   0.067453579   0.56177  -0.21546  -0.57837   0.42526
  50   39578.5    252.7   0.039088628   0.32514  -0.39210   0.26431   0.31865
  51   39933.0    250.4   0.030754342   0.25354   0.39353   0.02425  -0.31319
  52   40193.5    248.8   0.007378942   0.06044   0.10416  -0.12946  -0.18119
  53   40324.5    248.0   0.029232809   0.23866   0.27428  -0.40293   0.03284

FINAL SINGLE POINT ENERGY    -10203.446020442929

DIPOLE MOMENT
-------------
                                X             Y             Z
Electronic contribution:    -70.09821      49.89583     126.10659
Nuclear contribution   :     72.83554     -52.78696    -126.12203
                        -----------------------------------------
Total Dipole Moment    :      2.73734      -2.89113      -0.01545
                        -----------------------------------------
Magnitude (a.u.)       :      3.98144
Magnitude (Debye)      :     10.12003

Rotational constants in cm-1:     0.000881     0.000403     0.000287
Rotational constants in MHz :    26.422894    12.071822     8.608268

                             ****ORCA TERMINATED NORMALLY****
TOTAL RUN TIME: 0 days 0 hours 9 minutes 15 seconds 910 msec
